<event>
 9    1  0.2074770E-002  0.2736812E+03  0.7818608E-02  0.1099191E+00
          2   -1    0    0  501    0  0.00000000000E+00  0.00000000000E+00  0.12606707631E+03  0.12606707631E+03  0.00000000000E+00 0.  1.
         -2   -1    0    0    0  501 -0.00000000000E+00 -0.00000000000E+00 -0.14853485888E+03  0.14853485888E+03  0.00000000000E+00 0.  1.
         36    2    1    2    0    0  0.35527136788E-14 -0.71054273576E-14 -0.22467782571E+02  0.27460193519E+03  0.27368124079E+03 0.  0.
         25    2    3    3    0    0 -0.38796415495E+01  0.20178540921E+02 -0.64138247456E+02  0.14242939685E+03  0.12549977358E+03 0.  0.
         25    2    3    3    0    0  0.38796415495E+01 -0.20178540921E+02  0.41670464885E+02  0.13217253834E+03  0.12373733113E+03 0.  0.
          5    1    4    4  502    0  0.25407691070E+02  0.15780634999E+02  0.30607196541E+02  0.43051941728E+02  0.47000000000E+01 0. -1.
         -5    1    4    4    0  502 -0.29287332620E+02  0.43979059220E+01 -0.94745443997E+02  0.99377455122E+02  0.47000000000E+01 0. -1.
          5    1    5    5  503    0 -0.44927070014E+02  0.38967654038E+01  0.59414866344E+02  0.74738495725E+02  0.47000000000E+01 0. -1.
         -5    1    5    5    0  503  0.48806711563E+02 -0.24075306325E+02 -0.17744401459E+02  0.57434042618E+02  0.47000000000E+01 0. -1.
<mgrwt>
<rscale>  0 0.27368124E+03</rscale>
<asrwt>0</asrwt>
<pdfrwt beam="1">  1        2 0.19394935E-01 0.27368124E+03</pdfrwt>
<pdfrwt beam="2">  1       -2 0.22851517E-01 0.27368124E+03</pdfrwt>
<totfact> 0.47626410E+03</totfact>
</mgrwt>
</event>
<event>
 9    1  0.2074770E-002  0.2737109E+03  0.7818608E-02  0.1099174E+00
         -2   -1    0    0    0  501 -0.00000000000E+00  0.00000000000E+00  0.11348118134E+02  0.11348118134E+02  0.00000000000E+00 0.  1.
          2   -1    0    0  501    0  0.00000000000E+00 -0.00000000000E+00 -0.16504424225E+04  0.16504424225E+04  0.00000000000E+00 0.  1.
         36    2    1    2    0    0  0.00000000000E+00  0.35527136788E-14 -0.16390943043E+04  0.16617905406E+04  0.27371091015E+03 0.  0.
         25    2    3    3    0    0  0.51136416285E+02 -0.28686425878E+01 -0.77983481938E+03  0.79156494652E+03  0.12573606031E+03 0.  0.
         25    2    3    3    0    0 -0.51136416285E+02  0.28686425878E+01 -0.85925948496E+03  0.87022559408E+03  0.12783802224E+03 0.  0.
          5    1    4    4  502    0  0.85615427635E+02 -0.19481603734E+02 -0.65596511947E+03  0.66183220102E+03  0.47000000000E+01 0.  1.
         -5    1    4    4    0  502 -0.34479011350E+02  0.16612961147E+02 -0.12386969990E+03  0.12973274550E+03  0.47000000000E+01 0.  1.
          5    1    5    5  503    0 -0.18964588351E+02  0.17985131506E+02 -0.80346211925E+03  0.80390085685E+03  0.47000000000E+01 0.  1.
         -5    1    5    5    0  503 -0.32171827934E+02 -0.15116488918E+02 -0.55797365703E+02  0.66324737235E+02  0.47000000000E+01 0.  1.
<mgrwt>
<rscale>  0 0.27371091E+03</rscale>
<asrwt>0</asrwt>
<pdfrwt beam="1">  1        2 0.25391409E+00 0.27371091E+03</pdfrwt>
<pdfrwt beam="2">  1       -2 0.17458652E-02 0.27371091E+03</pdfrwt>
<totfact> 0.10713284E+04</totfact>
</mgrwt>
</event>
<event>
 9    1  0.2074770E-002  0.2801504E+03  0.7818608E-02  0.1095607E+00
          1   -1    0    0  501    0  0.00000000000E+00  0.00000000000E+00  0.28034036177E+02  0.28034036177E+02  0.00000000000E+00 0.  1.
         -1   -1    0    0    0  501 -0.00000000000E+00 -0.00000000000E+00 -0.69990161042E+03  0.69990161042E+03  0.00000000000E+00 0.  1.
         36    2    1    2    0    0 -0.71054273576E-14  0.00000000000E+00 -0.67186757424E+03  0.72793564659E+03  0.28015043863E+03 0.  0.
         25    2    3    3    0    0 -0.50842362804E+02  0.37176953073E+02 -0.39645141567E+03  0.42083951853E+03  0.12635309129E+03 0.  0.
         25    2    3    3    0    0  0.50842362804E+02 -0.37176953073E+02 -0.27541615857E+03  0.30709612806E+03  0.12036153776E+03 0.  0.
          5    1    4    4  502    0  0.37325326754E+02  0.66665206134E+01 -0.19600741376E+03  0.19969631635E+03  0.47000000000E+01 0. -1.
         -5    1    4    4    0  502 -0.88167689558E+02  0.30510432459E+02 -0.20044400191E+03  0.22114320218E+03  0.47000000000E+01 0. -1.
          5    1    5    5  503    0 -0.14288377827E+02  0.28369490534E+02 -0.26809973128E+02  0.41831213145E+02  0.47000000000E+01 0. -1.
         -5    1    5    5    0  503  0.65130740632E+02 -0.65546443606E+02 -0.24860618544E+03  0.26526491492E+03  0.47000000000E+01 0. -1.
<mgrwt>
<rscale>  0 0.28015044E+03</rscale>
<asrwt>0</asrwt>
<pdfrwt beam="1">  1        1 0.43129287E-02 0.28015044E+03</pdfrwt>
<pdfrwt beam="2">  1       -1 0.10767717E+00 0.28015044E+03</pdfrwt>
<totfact> 0.17432895E+03</totfact>
</mgrwt>
</event>
<event>
 9    1  0.2074770E-002  0.2747714E+03  0.7818608E-02  0.1098579E+00
          2   -1    0    0  501    0  0.00000000000E+00  0.00000000000E+00  0.28013776252E+02  0.28013776252E+02  0.00000000000E+00 0.  1.
         -2   -1    0    0    0  501 -0.00000000000E+00 -0.00000000000E+00 -0.67376960608E+03  0.67376960608E+03  0.00000000000E+00 0.  1.
         36    2    1    2    0    0  0.71054273576E-14  0.00000000000E+00 -0.64575582982E+03  0.70178338233E+03  0.27477140310E+03 0.  0.
         25    2    3    3    0    0  0.35118215832E+02 -0.82471583319E+01 -0.39849504986E+03  0.42149569095E+03  0.13251040723E+03 0.  0.
         25    2    3    3    0    0 -0.35118215832E+02  0.82471583319E+01 -0.24726077997E+03  0.28028769138E+03  0.12697240616E+03 0.  0.
          5    1    4    4  502    0 -0.33450440427E+02  0.30897738715E+02 -0.24038539318E+03  0.24470559756E+03  0.47000000000E+01 0. -1.
         -5    1    4    4    0  502  0.68568656259E+02 -0.39144897047E+02 -0.15810965667E+03  0.17679009339E+03  0.47000000000E+01 0. -1.
          5    1    5    5  503    0 -0.73005810446E+02  0.36334468598E+02 -0.18332955056E+03  0.20070340325E+03  0.47000000000E+01 0. -1.
         -5    1    5    5    0  503  0.37887594614E+02 -0.28087310266E+02 -0.63931229405E+02  0.79584288128E+02  0.47000000000E+01 0. -1.
<mgrwt>
<rscale>  0 0.27477140E+03</rscale>
<asrwt>0</asrwt>
<pdfrwt beam="1">  1        2 0.43098119E-02 0.27477140E+03</pdfrwt>
<pdfrwt beam="2">  1       -2 0.10365686E+00 0.27477140E+03</pdfrwt>
<totfact> 0.15101441E+03</totfact>
</mgrwt>
</event>
<event>
 9    1  0.2074770E-002  0.2741068E+03  0.7818608E-02  0.1098952E+00
         -1   -1    0    0    0  501 -0.00000000000E+00  0.00000000000E+00  0.72923477042E+03  0.72923477042E+03  0.00000000000E+00 0. -1.
          1   -1    0    0  501    0  0.00000000000E+00 -0.00000000000E+00 -0.25758004350E+02  0.25758004350E+02  0.00000000000E+00 0. -1.
         36    2    1    2    0    0 -0.71054273576E-14  0.00000000000E+00  0.70347676607E+03  0.75499277477E+03  0.27410678495E+03 0.  0.
         25    2    3    3    0    0 -0.34110858867E+02 -0.27806322628E+02  0.43167707043E+03  0.45135215076E+03  0.12424543688E+03 0.  0.
         25    2    3    3    0    0  0.34110858867E+02  0.27806322628E+02  0.27179969563E+03  0.30364062401E+03  0.12800707687E+03 0.  0.
          5    1    4    4  502    0  0.41780398740E+02 -0.85587586890E+01  0.77404911422E+02  0.88501211187E+02  0.47000000000E+01 0. -1.
         -5    1    4    4    0  502 -0.75891257607E+02 -0.19247563939E+02  0.35427215901E+03  0.36285093957E+03  0.47000000000E+01 0. -1.
          5    1    5    5  503    0  0.14142416581E+02 -0.43654569586E+02  0.42990178495E+02  0.63055331571E+02  0.47000000000E+01 0.  1.
         -5    1    5    5    0  503  0.19968442286E+02  0.71460892214E+02  0.22880951714E+03  0.24058529243E+03  0.47000000000E+01 0.  1.
<mgrwt>
<rscale>  0 0.27410678E+03</rscale>
<asrwt>0</asrwt>
<pdfrwt beam="1">  1        1 0.39627704E-02 0.27410678E+03</pdfrwt>
<pdfrwt beam="2">  1       -1 0.11218995E+00 0.27410678E+03</pdfrwt>
<totfact> 0.17840348E+03</totfact>
</mgrwt>
</event>
<event>
 9    1  0.2074770E-002  0.2748072E+03  0.7818608E-02  0.1098559E+00
          2   -1    0    0  501    0  0.00000000000E+00  0.00000000000E+00  0.73843393494E+03  0.73843393494E+03  0.00000000000E+00 0.  1.
         -2   -1    0    0    0  501 -0.00000000000E+00 -0.00000000000E+00 -0.25567276002E+02  0.25567276002E+02  0.00000000000E+00 0.  1.
         36    2    1    2    0    0  0.71054273576E-14  0.71054273576E-14  0.71286665894E+03  0.76400121094E+03  0.27480716311E+03 0.  0.
         25    2    3    3    0    0 -0.21327308226E+02  0.37785580218E+02  0.24195655003E+03  0.27549095538E+03  0.12437720952E+03 0.  0.
         25    2    3    3    0    0  0.21327308226E+02 -0.37785580218E+02  0.47091010891E+03  0.48851025556E+03  0.12248810132E+03 0.  0.
          5    1    4    4  502    0  0.32174985824E+02  0.11095202548E+02  0.19843931325E+03  0.20139161918E+03  0.47000000000E+01 0.  1.
         -5    1    4    4    0  502 -0.53502294050E+02  0.26690377671E+02  0.43517236777E+02  0.74099336202E+02  0.47000000000E+01 0.  1.
          5    1    5    5  503    0  0.33310910639E+02  0.41934590425E+01  0.29552107879E+02  0.44973536068E+02  0.47000000000E+01 0.  1.
         -5    1    5    5    0  503 -0.11983602413E+02 -0.41979039261E+02  0.44135800103E+03  0.44353671949E+03  0.47000000000E+01 0.  1.
<mgrwt>
<rscale>  0 0.27480716E+03</rscale>
<asrwt>0</asrwt>
<pdfrwt beam="1">  1        2 0.11360520E+00 0.27480716E+03</pdfrwt>
<pdfrwt beam="2">  1       -2 0.39334276E-02 0.27480716E+03</pdfrwt>
<totfact> 0.11025207E+04</totfact>
</mgrwt>
</event>
<event>
 9    1  0.2074770E-002  0.2747167E+03  0.7818608E-02  0.1098610E+00
          2   -1    0    0  501    0  0.00000000000E+00  0.00000000000E+00  0.68188184064E+03  0.68188184064E+03  0.00000000000E+00 0.  1.
         -2   -1    0    0    0  501 -0.00000000000E+00 -0.00000000000E+00 -0.27669478789E+02  0.27669478789E+02  0.00000000000E+00 0.  1.
         36    2    1    2    0    0  0.00000000000E+00  0.00000000000E+00  0.65421236185E+03  0.70955131943E+03  0.27471669135E+03 0.  0.
         25    2    3    3    0    0 -0.30611028249E+02  0.32932823123E+02  0.23891367744E+03  0.27303152884E+03  0.12427736954E+03 0.  0.
         25    2    3    3    0    0  0.30611028249E+02 -0.32932823123E+02  0.41529868441E+03  0.43651979059E+03  0.12670802823E+03 0.  0.
          5    1    4    4  502    0 -0.70113655938E+02 -0.12913129048E+02  0.13114410376E+03  0.14934369623E+03  0.47000000000E+01 0.  1.
         -5    1    4    4    0  502  0.39502627689E+02  0.45845952171E+02  0.10776957368E+03  0.12368783261E+03  0.47000000000E+01 0.  1.
          5    1    5    5  503    0  0.30379475332E+01 -0.26527782091E+02  0.80781960332E+01  0.28289566965E+02  0.47000000000E+01 0. -1.
         -5    1    5    5    0  503  0.27573080716E+02 -0.64050410313E+01  0.40722048837E+03  0.40823022363E+03  0.47000000000E+01 0. -1.
<mgrwt>
<rscale>  0 0.27471669E+03</rscale>
<asrwt>0</asrwt>
<pdfrwt beam="1">  1        2 0.10490489E+00 0.27471669E+03</pdfrwt>
<pdfrwt beam="2">  1       -2 0.42568434E-02 0.27471669E+03</pdfrwt>
<totfact> 0.10786901E+04</totfact>
</mgrwt>
</event>
<event>
 9    1  0.2074770E-002  0.2749626E+03  0.7818608E-02  0.1098473E+00
          1   -1    0    0  501    0  0.00000000000E+00  0.00000000000E+00  0.14476529945E+03  0.14476529945E+03  0.00000000000E+00 0.  1.
         -1   -1    0    0    0  501 -0.00000000000E+00 -0.00000000000E+00 -0.13056377978E+03  0.13056377978E+03  0.00000000000E+00 0.  1.
         36    2    1    2    0    0  0.00000000000E+00 -0.71054273576E-14  0.14201519666E+02  0.27532907923E+03  0.27496257693E+03 0.  0.
         25    2    3    3    0    0  0.65574189902E+02  0.31144129786E+02  0.16664068512E+02  0.13158428925E+03  0.10847489478E+03 0.  0.
         25    2    3    3    0    0 -0.65574189902E+02 -0.31144129786E+02 -0.24625488465E+01  0.14374478998E+03  0.12404261082E+03 0.  0.
          5    1    4    4  502    0  0.19173826203E+01  0.29682255429E+02 -0.37333988088E+02  0.47964875795E+02  0.47000000000E+01 0.  1.
         -5    1    4    4    0  502  0.63656807282E+02  0.14618743565E+01  0.53998056600E+02  0.83619413455E+02  0.47000000000E+01 0.  1.
          5    1    5    5  503    0 -0.91575630866E+01  0.46460499963E+02  0.14018444211E+01  0.47607711416E+02  0.47000000000E+01 0.  1.
         -5    1    5    5    0  503 -0.56416626816E+02 -0.77604629748E+02 -0.38643932676E+01  0.96137078565E+02  0.47000000000E+01 0.  1.
<mgrwt>
<rscale>  0 0.27496258E+03</rscale>
<asrwt>0</asrwt>
<pdfrwt beam="1">  1        1 0.22271584E-01 0.27496258E+03</pdfrwt>
<pdfrwt beam="2">  1       -1 0.20086735E-01 0.27496258E+03</pdfrwt>
<totfact> 0.44180013E+03</totfact>
</mgrwt>
</event>
<event>
 9    1  0.2074770E-002  0.2751517E+03  0.7818608E-02  0.1098367E+00
          2   -1    0    0  501    0  0.00000000000E+00  0.00000000000E+00  0.25756082641E+03  0.25756082641E+03  0.00000000000E+00 0. -1.
         -2   -1    0    0    0  501 -0.00000000000E+00 -0.00000000000E+00 -0.73485985898E+02  0.73485985898E+02  0.00000000000E+00 0. -1.
         36    2    1    2    0    0  0.71054273576E-14  0.00000000000E+00  0.18407484051E+03  0.33104681231E+03  0.27515167641E+03 0.  0.
         25    2    3    3    0    0  0.48031586339E+02 -0.33319113058E+02  0.87450216596E+02  0.16313256145E+03  0.12468959716E+03 0.  0.
         25    2    3    3    0    0 -0.48031586339E+02  0.33319113058E+02  0.96624623913E+02  0.16791425086E+03  0.12426456097E+03 0.  0.
          5    1    4    4  502    0 -0.18749834722E+01  0.42078033029E+02  0.89848522752E+01  0.43323134663E+02  0.47000000000E+01 0.  1.
         -5    1    4    4    0  502  0.49906569812E+02 -0.75397146087E+02  0.78465364321E+02  0.11980942678E+03  0.47000000000E+01 0.  1.
          5    1    5    5  503    0  0.38702786645E+02  0.14987196711E+02  0.81045405129E+01  0.42547565574E+02  0.47000000000E+01 0.  1.
         -5    1    5    5    0  503 -0.86734372985E+02  0.18331916347E+02  0.88520083400E+02  0.12536668528E+03  0.47000000000E+01 0.  1.
<mgrwt>
<rscale>  0 0.27515168E+03</rscale>
<asrwt>0</asrwt>
<pdfrwt beam="1">  1        2 0.39624742E-01 0.27515168E+03</pdfrwt>
<pdfrwt beam="2">  1       -2 0.11305536E-01 0.27515168E+03</pdfrwt>
<totfact> 0.69777379E+03</totfact>
</mgrwt>
</event>
<event>
 9    1  0.2074770E-002  0.2752369E+03  0.7818608E-02  0.1098319E+00
          1   -1    0    0  501    0  0.00000000000E+00  0.00000000000E+00  0.18441817396E+04  0.18441817396E+04  0.00000000000E+00 0. -1.
         -1   -1    0    0    0  501 -0.00000000000E+00 -0.00000000000E+00 -0.10269505631E+02  0.10269505631E+02  0.00000000000E+00 0. -1.
         36    2    1    2    0    0 -0.71054273576E-14  0.00000000000E+00  0.18339122340E+04  0.18544512453E+04  0.27523687805E+03 0.  0.
         25    2    3    3    0    0 -0.43535332761E+02  0.11534240434E+02  0.60116716710E+03  0.61476787286E+03  0.12045418550E+03 0.  0.
         25    2    3    3    0    0  0.43535332761E+02 -0.11534240434E+02  0.12327450669E+04  0.12396833724E+04  0.12298821054E+03 0.  0.
          5    1    4    4  502    0  0.18679098532E+02  0.39311548270E+01  0.45787558362E+03  0.45829739556E+03  0.47000000000E+01 0. -1.
         -5    1    4    4    0  502 -0.62214431293E+02  0.76030856070E+01  0.14329158348E+03  0.15647047730E+03  0.47000000000E+01 0. -1.
          5    1    5    5  503    0  0.66814090774E+02 -0.28301263162E+02  0.40817617097E+03  0.41460217169E+03  0.47000000000E+01 0. -1.
         -5    1    5    5    0  503 -0.23278758013E+02  0.16767022728E+02  0.82456889595E+03  0.82508120073E+03  0.47000000000E+01 0. -1.
<mgrwt>
<rscale>  0 0.27523688E+03</rscale>
<asrwt>0</asrwt>
<pdfrwt beam="1">  1        1 0.28372001E+00 0.27523688E+03</pdfrwt>
<pdfrwt beam="2">  1       -1 0.15799254E-02 0.27523688E+03</pdfrwt>
<totfact> 0.41213810E+03</totfact>
</mgrwt>
</event>
<event>
 9    1  0.2074770E-002  0.2756705E+03  0.7818608E-02  0.1098077E+00
         -2   -1    0    0    0  501 -0.00000000000E+00  0.00000000000E+00  0.90904549602E+01  0.90904549602E+01  0.00000000000E+00 0. -1.
          2   -1    0    0  501    0  0.00000000000E+00 -0.00000000000E+00 -0.20899451163E+04  0.20899451163E+04  0.00000000000E+00 0. -1.
         36    2    1    2    0    0  0.00000000000E+00  0.00000000000E+00 -0.20808546613E+04  0.20990355713E+04  0.27567046958E+03 0.  0.
         25    2    3    3    0    0  0.35738412397E+02 -0.12438201476E+02 -0.71653993316E+03  0.72836023823E+03  0.12508883980E+03 0.  0.
         25    2    3    3    0    0 -0.35738412397E+02  0.12438201476E+02 -0.13643147282E+04  0.13706753330E+04  0.12634970548E+03 0.  0.
          5    1    4    4  502    0  0.29599142524E+02 -0.63008752059E+02 -0.26883394340E+03  0.27774087059E+03  0.47000000000E+01 0.  1.
         -5    1    4    4    0  502  0.61392698732E+01  0.50570550583E+02 -0.44770598976E+03  0.45061936763E+03  0.47000000000E+01 0.  1.
          5    1    5    5  503    0 -0.11906392321E+02 -0.41166538568E+02 -0.10508461317E+04  0.10517300645E+04  0.47000000000E+01 0.  1.
         -5    1    5    5    0  503 -0.23832020076E+02  0.53604740044E+02 -0.31346859648E+03  0.31894526853E+03  0.47000000000E+01 0.  1.
<mgrwt>
<rscale>  0 0.27567047E+03</rscale>
<asrwt>0</asrwt>
<pdfrwt beam="1">  1        2 0.32153015E+00 0.27567047E+03</pdfrwt>
<pdfrwt beam="2">  1       -2 0.13985310E-02 0.27567047E+03</pdfrwt>
<totfact> 0.87066749E+03</totfact>
</mgrwt>
</event>
<event>
 9    1  0.2074770E-002  0.2747800E+03  0.7818608E-02  0.1098575E+00
          4   -1    0    0  501    0  0.00000000000E+00  0.00000000000E+00  0.66381936430E+03  0.66381936430E+03  0.00000000000E+00 0. -1.
         -4   -1    0    0    0  501 -0.00000000000E+00 -0.00000000000E+00 -0.28435464356E+02  0.28435464356E+02  0.00000000000E+00 0. -1.
         36    2    1    2    0    0  0.71054273576E-14 -0.71054273576E-14  0.63538389994E+03  0.69225482865E+03  0.27477999834E+03 0.  0.
         25    2    3    3    0    0  0.42044332784E+02 -0.11762764380E+02  0.39468077706E+03  0.41649497385E+03  0.12565452207E+03 0.  0.
         25    2    3    3    0    0 -0.42044332784E+02  0.11762764380E+02  0.24070312288E+03  0.27575985480E+03  0.12727692490E+03 0.  0.
          5    1    4    4  502    0  0.54560908413E+02  0.22538090801E+02  0.36337665974E+03  0.36817053807E+03  0.47000000000E+01 0. -1.
         -5    1    4    4    0  502 -0.12516575629E+02 -0.34300855181E+02  0.31304117322E+02  0.48324435774E+02  0.47000000000E+01 0. -1.
          5    1    5    5  503    0 -0.31053996789E+02 -0.30001644174E+02  0.15056990976E+02  0.45970124504E+02  0.47000000000E+01 0. -1.
         -5    1    5    5    0  503 -0.10990335996E+02  0.41764408554E+02  0.22564613191E+03  0.22978973030E+03  0.47000000000E+01 0. -1.
<mgrwt>
<rscale>  0 0.27478000E+03</rscale>
<asrwt>0</asrwt>
<pdfrwt beam="1">  1        4 0.10212604E+00 0.27478000E+03</pdfrwt>
<pdfrwt beam="2">  1       -4 0.43746873E-02 0.27478000E+03</pdfrwt>
<totfact> 0.45080472E+02</totfact>
</mgrwt>
</event>
<event>
 9    1  0.2074770E-002  0.2738269E+03  0.7818608E-02  0.1099109E+00
          2   -1    0    0  501    0  0.00000000000E+00  0.00000000000E+00  0.81044701917E+03  0.81044701917E+03  0.00000000000E+00 0.  1.
         -2   -1    0    0    0  501 -0.00000000000E+00 -0.00000000000E+00 -0.23129578961E+02  0.23129578961E+02  0.00000000000E+00 0.  1.
         36    2    1    2    0    0  0.00000000000E+00  0.35527136788E-14  0.78731744021E+03  0.83357659813E+03  0.27382694041E+03 0.  0.
         25    2    3    3    0    0  0.52727978344E+02  0.11296005570E+02  0.37752921741E+03  0.40177296636E+03  0.12643325139E+03 0.  0.
         25    2    3    3    0    0 -0.52727978344E+02 -0.11296005570E+02  0.40978822279E+03  0.43180363177E+03  0.12498059619E+03 0.  0.
          5    1    4    4  502    0  0.83541629611E+02  0.41139784836E+02  0.28019328487E+03  0.29529993678E+03  0.47000000000E+01 0. -1.
         -5    1    4    4    0  502 -0.30813651267E+02 -0.29843779265E+02  0.97335932543E+02  0.10647302959E+03  0.47000000000E+01 0. -1.
          5    1    5    5  503    0  0.16779702457E+02 -0.44721336557E+02  0.81845160196E+02  0.94880327811E+02  0.47000000000E+01 0.  1.
         -5    1    5    5    0  503 -0.69507680801E+02  0.33425330987E+02  0.32794306260E+03  0.33692330396E+03  0.47000000000E+01 0.  1.
<mgrwt>
<rscale>  0 0.27382694E+03</rscale>
<asrwt>0</asrwt>
<pdfrwt beam="1">  1        2 0.12468413E+00 0.27382694E+03</pdfrwt>
<pdfrwt beam="2">  1       -2 0.35583974E-02 0.27382694E+03</pdfrwt>
<totfact> 0.11397841E+04</totfact>
</mgrwt>
</event>
<event>
 9    1  0.2074770E-002  0.2750516E+03  0.7818608E-02  0.1098423E+00
          2   -1    0    0  501    0  0.00000000000E+00  0.00000000000E+00  0.30600477476E+03  0.30600477476E+03  0.00000000000E+00 0.  1.
         -2   -1    0    0    0  501 -0.00000000000E+00 -0.00000000000E+00 -0.61807376963E+02  0.61807376963E+02  0.00000000000E+00 0.  1.
         36    2    1    2    0    0 -0.35527136788E-14 -0.71054273576E-14  0.24419739779E+03  0.36781215172E+03  0.27505164945E+03 0.  0.
         25    2    3    3    0    0 -0.98622787517E+00 -0.51001676686E+02  0.15483155590E+03  0.20606120126E+03  0.12604072473E+03 0.  0.
         25    2    3    3    0    0  0.98622787517E+00  0.51001676686E+02  0.89365841890E+02  0.16175095046E+03  0.12479973000E+03 0.  0.
          5    1    4    4  502    0  0.33704387551E+02  0.20259600260E+02  0.10525161663E+03  0.11245634685E+03  0.47000000000E+01 0. -1.
         -5    1    4    4    0  502 -0.34690615426E+02 -0.71261276945E+02  0.49579939268E+02  0.93604854406E+02  0.47000000000E+01 0. -1.
          5    1    5    5  503    0 -0.13734667042E+02  0.56899040191E+02 -0.11245821922E+02  0.59788797982E+02  0.47000000000E+01 0.  1.
         -5    1    5    5    0  503  0.14720894917E+02 -0.58973635050E+01  0.10061166381E+03  0.10196215248E+03  0.47000000000E+01 0.  1.
<mgrwt>
<rscale>  0 0.27505165E+03</rscale>
<asrwt>0</asrwt>
<pdfrwt beam="1">  1        2 0.47077657E-01 0.27505165E+03</pdfrwt>
<pdfrwt beam="2">  1       -2 0.95088274E-02 0.27505165E+03</pdfrwt>
<totfact> 0.76383733E+03</totfact>
</mgrwt>
</event>
<event>
 9    1  0.2074770E-002  0.2752819E+03  0.7818608E-02  0.1098294E+00
          2   -1    0    0  501    0  0.00000000000E+00  0.00000000000E+00  0.94365373730E+03  0.94365373730E+03  0.00000000000E+00 0.  1.
         -2   -1    0    0    0  501 -0.00000000000E+00 -0.00000000000E+00 -0.20076246092E+02  0.20076246092E+02  0.00000000000E+00 0.  1.
         36    2    1    2    0    0 -0.71054273576E-14 -0.71054273576E-14  0.92357749121E+03  0.96372998339E+03  0.27528185306E+03 0.  0.
         25    2    3    3    0    0 -0.49836590840E+02  0.20147902045E+01  0.31531410637E+03  0.34207248911E+03  0.12289368154E+03 0.  0.
         25    2    3    3    0    0  0.49836590840E+02 -0.20147902045E+01  0.60826338484E+03  0.62165749428E+03  0.11826220740E+03 0.  0.
          5    1    4    4  502    0 -0.36897939775E+02 -0.57340705023E+02  0.12811136947E+03  0.14520340009E+03  0.47000000000E+01 0.  1.
         -5    1    4    4    0  502 -0.12938651065E+02  0.59355495228E+02  0.18720273690E+03  0.19686908901E+03  0.47000000000E+01 0.  1.
          5    1    5    5  503    0 -0.23231133730E+02 -0.24900205047E+02  0.70333552552E+02  0.78285403495E+02  0.47000000000E+01 0. -1.
         -5    1    5    5    0  503  0.73067724570E+02  0.22885414842E+02  0.53792983228E+03  0.54337209079E+03  0.47000000000E+01 0. -1.
<mgrwt>
<rscale>  0 0.27528185E+03</rscale>
<asrwt>0</asrwt>
<pdfrwt beam="1">  1        2 0.14517746E+00 0.27528185E+03</pdfrwt>
<pdfrwt beam="2">  1       -2 0.30886540E-02 0.27528185E+03</pdfrwt>
<totfact> 0.11516856E+04</totfact>
</mgrwt>
</event>
<event>
 9    1  0.2074770E-002  0.2741557E+03  0.7818608E-02  0.1098924E+00
         -2   -1    0    0    0  501 -0.00000000000E+00  0.00000000000E+00  0.19360580127E+02  0.19360580127E+02  0.00000000000E+00 0.  1.
          2   -1    0    0  501    0  0.00000000000E+00 -0.00000000000E+00 -0.97054619129E+03  0.97054619129E+03  0.00000000000E+00 0.  1.
         36    2    1    2    0    0  0.00000000000E+00  0.35527136788E-14 -0.95118561116E+03  0.98990677142E+03  0.27415570250E+03 0.  0.
         25    2    3    3    0    0  0.60354128765E+02 -0.17640627241E+02 -0.42570255262E+03  0.44875023755E+03  0.12728039836E+03 0.  0.
         25    2    3    3    0    0 -0.60354128765E+02  0.17640627241E+02 -0.52548305855E+03  0.54115653387E+03  0.11297847911E+03 0.  0.
          5    1    4    4  502    0  0.65447154052E+02 -0.93202560003E+01 -0.43143658728E+03  0.43649721189E+03  0.47000000000E+01 0.  1.
         -5    1    4    4    0  502 -0.50930252870E+01 -0.83203712411E+01  0.57340346647E+01  0.12253025655E+02  0.47000000000E+01 0.  1.
          5    1    5    5  503    0  0.24046936442E+01  0.52673800935E+02 -0.29393792429E+03  0.29866687997E+03  0.47000000000E+01 0.  1.
         -5    1    5    5    0  503 -0.62758822410E+02 -0.35033173694E+02 -0.23154513426E+03  0.24248965390E+03  0.47000000000E+01 0.  1.
<mgrwt>
<rscale>  0 0.27415570E+03</rscale>
<asrwt>0</asrwt>
<pdfrwt beam="1">  1        2 0.14931481E+00 0.27415570E+03</pdfrwt>
<pdfrwt beam="2">  1       -2 0.29785506E-02 0.27415570E+03</pdfrwt>
<totfact> 0.11692812E+04</totfact>
</mgrwt>
</event>
<event>
 9    1  0.2074770E-002  0.2747954E+03  0.7818608E-02  0.1098566E+00
         -4   -1    0    0    0  501 -0.00000000000E+00  0.00000000000E+00  0.11218746772E+03  0.11218746772E+03  0.00000000000E+00 0. -1.
          4   -1    0    0  501    0  0.00000000000E+00 -0.00000000000E+00 -0.16827304840E+03  0.16827304840E+03  0.00000000000E+00 0. -1.
         36    2    1    2    0    0  0.00000000000E+00  0.17763568394E-14 -0.56085580680E+02  0.28046051612E+03  0.27479539432E+03 0.  0.
         25    2    3    3    0    0  0.39644338346E+02 -0.10294145159E+02 -0.47279747758E+02  0.13925205744E+03  0.12441108458E+03 0.  0.
         25    2    3    3    0    0 -0.39644338346E+02  0.10294145159E+02 -0.88058329218E+01  0.14120845868E+03  0.13485044724E+03 0.  0.
          5    1    4    4  502    0 -0.31462406091E+02  0.15052051483E+02  0.17830540879E+02  0.39452065078E+02  0.47000000000E+01 0. -1.
         -5    1    4    4    0  502  0.71106744437E+02 -0.25346196642E+02 -0.65110288637E+02  0.99799992360E+02  0.47000000000E+01 0. -1.
          5    1    5    5  503    0 -0.57515921588E+02 -0.20591959008E+01  0.51227328347E+02  0.77192296853E+02  0.47000000000E+01 0. -1.
         -5    1    5    5    0  503  0.17871583242E+02  0.12353341060E+02 -0.60033161268E+02  0.64016161825E+02  0.47000000000E+01 0. -1.
<mgrwt>
<rscale>  0 0.27479539E+03</rscale>
<asrwt>0</asrwt>
<pdfrwt beam="1">  1        4 0.25888161E-01 0.27479539E+03</pdfrwt>
<pdfrwt beam="2">  1       -4 0.17259610E-01 0.27479539E+03</pdfrwt>
<totfact> 0.77401504E+02</totfact>
</mgrwt>
</event>
<event>
 9    1  0.2074770E-002  0.2747413E+03  0.7818608E-02  0.1098596E+00
         -1   -1    0    0    0  501 -0.00000000000E+00  0.00000000000E+00  0.11882277773E+02  0.11882277773E+02  0.00000000000E+00 0. -1.
          1   -1    0    0  501    0  0.00000000000E+00 -0.00000000000E+00 -0.15881376510E+04  0.15881376510E+04  0.00000000000E+00 0. -1.
         36    2    1    2    0    0  0.00000000000E+00  0.00000000000E+00 -0.15762553733E+04  0.16000199288E+04  0.27474127984E+03 0.  0.
         25    2    3    3    0    0  0.11875903073E+02  0.43125520497E+02 -0.99703714032E+03  0.10057635560E+04  0.12440427552E+03 0.  0.
         25    2    3    3    0    0 -0.11875903073E+02 -0.43125520497E+02 -0.57921823296E+03  0.59425637284E+03  0.12508408245E+03 0.  0.
          5    1    4    4  502    0 -0.20846998866E+01 -0.29066774982E+02 -0.66477943282E+03  0.66543445033E+03  0.47000000000E+01 0. -1.
         -5    1    4    4    0  502  0.13960602960E+02  0.72192295478E+02 -0.33225770749E+03  0.34032910565E+03  0.47000000000E+01 0. -1.
          5    1    5    5  503    0 -0.61796593541E+02 -0.15729876158E+02 -0.42521205405E+03  0.42999259167E+03  0.47000000000E+01 0. -1.
         -5    1    5    5    0  503  0.49920690468E+02 -0.27395644338E+02 -0.15400617891E+03  0.16426378118E+03  0.47000000000E+01 0. -1.
<mgrwt>
<rscale>  0 0.27474128E+03</rscale>
<asrwt>0</asrwt>
<pdfrwt beam="1">  1        1 0.24432888E+00 0.27474128E+03</pdfrwt>
<pdfrwt beam="2">  1       -1 0.18280426E-02 0.27474128E+03</pdfrwt>
<totfact> 0.48946830E+03</totfact>
</mgrwt>
</event>
<event>
 9    1  0.2074770E-002  0.2746359E+03  0.7818608E-02  0.1098655E+00
         -1   -1    0    0    0  501 -0.00000000000E+00  0.00000000000E+00  0.38669148068E+02  0.38669148068E+02  0.00000000000E+00 0. -1.
          1   -1    0    0  501    0  0.00000000000E+00 -0.00000000000E+00 -0.48762943685E+03  0.48762943685E+03  0.00000000000E+00 0. -1.
         36    2    1    2    0    0  0.71054273576E-14  0.00000000000E+00 -0.44896028878E+03  0.52629858491E+03  0.27463586725E+03 0.  0.
         25    2    3    3    0    0 -0.49963923209E+02 -0.43560664702E+01 -0.16280791643E+03  0.20890533550E+03  0.12091175548E+03 0.  0.
         25    2    3    3    0    0  0.49963923209E+02  0.43560664702E+01 -0.28615237235E+03  0.31739324941E+03  0.12782771856E+03 0.  0.
          5    1    4    4  502    0 -0.60691336158E+02  0.28908873581E+02 -0.15989878645E+03  0.17351908588E+03  0.47000000000E+01 0.  1.
         -5    1    4    4    0  502  0.10727412949E+02 -0.33264940051E+02 -0.29091299783E+01  0.35386249623E+02  0.47000000000E+01 0.  1.
          5    1    5    5  503    0 -0.95545493289E+01  0.52454432496E+02 -0.70487707543E+02  0.88506292522E+02  0.47000000000E+01 0. -1.
         -5    1    5    5    0  503  0.59518472538E+02 -0.48098366025E+02 -0.21566466481E+03  0.22888695689E+03  0.47000000000E+01 0. -1.
<mgrwt>
<rscale>  0 0.27463587E+03</rscale>
<asrwt>0</asrwt>
<pdfrwt beam="1">  1        1 0.75019908E-01 0.27463587E+03</pdfrwt>
<pdfrwt beam="2">  1       -1 0.59491001E-02 0.27463587E+03</pdfrwt>
<totfact> 0.62891784E+03</totfact>
</mgrwt>
</event>
<event>
 8    1  0.2074770E-002  0.2954735E+03  0.7818608E-02  0.1087525E+00
          1   -1    0    0  501    0  0.00000000000E+00  0.00000000000E+00  0.15369220507E+04  0.15369220507E+04  0.00000000000E+00 0.  1.
         -1   -1    0    0    0  501 -0.00000000000E+00 -0.00000000000E+00 -0.14201208868E+02  0.14201208868E+02  0.00000000000E+00 0.  1.
         25    2    1    2    0    0  0.44815739110E+02  0.18262269871E+02  0.11428817051E+04  0.11498771791E+04  0.11703407308E+03 0.  0.
         25    2    1    2    0    0 -0.44815739110E+02 -0.18262269871E+02  0.37983913676E+03  0.40124608046E+03  0.11991116004E+03 0.  0.
          5    1    3    3  502    0 -0.18407228956E+02  0.42025490391E+02  0.73228298471E+03  0.73373389428E+03  0.47000000000E+01 0.  1.
         -5    1    3    3    0  502  0.63222968066E+02 -0.23763220519E+02  0.41059872035E+03  0.41614328481E+03  0.47000000000E+01 0.  1.
          5    1    4    4  503    0  0.21073314318E+02  0.36539931988E+02  0.15058611075E+03  0.15645292569E+03  0.47000000000E+01 0. -1.
         -5    1    4    4    0  503 -0.65889053427E+02 -0.54802201859E+02  0.22925302601E+03  0.24479315478E+03  0.47000000000E+01 0. -1.
<mgrwt>
<rscale>  0 0.29547353E+03</rscale>
<asrwt>0</asrwt>
<pdfrwt beam="1">  1        1 0.23644941E+00 0.29547353E+03</pdfrwt>
<pdfrwt beam="2">  1       -1 0.21848026E-02 0.29547353E+03</pdfrwt>
<totfact> 0.40767165E+03</totfact>
</mgrwt>
</event>
<event>
 9    1  0.2074770E-002  0.2738323E+03  0.7818608E-02  0.1099106E+00
          1   -1    0    0  501    0  0.00000000000E+00  0.00000000000E+00  0.14634579526E+02  0.14634579526E+02  0.00000000000E+00 0.  1.
         -1   -1    0    0    0  501 -0.00000000000E+00 -0.00000000000E+00 -0.12809408811E+04  0.12809408811E+04  0.00000000000E+00 0.  1.
         36    2    1    2    0    0 -0.14210854715E-13  0.00000000000E+00 -0.12663063015E+04  0.12955754606E+04  0.27383229314E+03 0.  0.
         25    2    3    3    0    0 -0.37533153477E+02  0.29507510220E+02 -0.47942145478E+03  0.49718851772E+03  0.12276831870E+03 0.  0.
         25    2    3    3    0    0  0.37533153477E+02 -0.29507510220E+02 -0.78688484675E+03  0.79838694287E+03  0.12631119398E+03 0.  0.
          5    1    4    4  502    0 -0.77787251472E+02  0.30593718457E+02 -0.39176542111E+03  0.40061086765E+03  0.47000000000E+01 0.  1.
         -5    1    4    4    0  502  0.40254097996E+02 -0.10862082367E+01 -0.87656033668E+02  0.96577650066E+02  0.47000000000E+01 0.  1.
          5    1    5    5  503    0  0.28306589967E+01  0.23061104087E+02 -0.27196779040E+02  0.36077443676E+02  0.47000000000E+01 0.  1.
         -5    1    5    5    0  503  0.34702494480E+02 -0.52568614307E+02 -0.75968806771E+03  0.76230949919E+03  0.47000000000E+01 0.  1.
<mgrwt>
<rscale>  0 0.27383229E+03</rscale>
<asrwt>0</asrwt>
<pdfrwt beam="1">  1        1 0.22514725E-02 0.27383229E+03</pdfrwt>
<pdfrwt beam="2">  1       -1 0.19706794E+00 0.27383229E+03</pdfrwt>
<totfact> 0.89350306E+02</totfact>
</mgrwt>
</event>
<event>
 9    1  0.2074770E-002  0.2739877E+03  0.7818608E-02  0.1099019E+00
          1   -1    0    0  501    0  0.00000000000E+00  0.00000000000E+00  0.32034806140E+04  0.32034806140E+04  0.00000000000E+00 0.  1.
         -1   -1    0    0    0  501 -0.00000000000E+00 -0.00000000000E+00 -0.58584147441E+01  0.58584147441E+01  0.00000000000E+00 0.  1.
         36    2    1    2    0    0  0.00000000000E+00  0.00000000000E+00  0.31976221992E+04  0.32093390287E+04  0.27398772280E+03 0.  0.
         25    2    3    3    0    0 -0.58477836653E+02  0.87142988735E+01  0.12476633605E+04  0.12546988959E+04  0.11878493995E+03 0.  0.
         25    2    3    3    0    0  0.58477836653E+02 -0.87142988735E+01  0.19499588388E+04  0.19546401328E+04  0.12158527680E+03 0.  0.
          5    1    4    4  502    0 -0.68265710968E+02  0.18876040045E+02  0.12279772356E+04  0.12300271109E+04  0.47000000000E+01 0. -1.
         -5    1    4    4    0  502  0.97878743156E+01 -0.10161741171E+02  0.19686124835E+02  0.24671785065E+02  0.47000000000E+01 0. -1.
          5    1    5    5  503    0  0.48630613736E+02  0.26853879113E+02  0.36397520971E+03  0.36822019322E+03  0.47000000000E+01 0.  1.
         -5    1    5    5    0  503  0.98472229171E+01 -0.35568177986E+02  0.15859836291E+04  0.15864199396E+04  0.47000000000E+01 0.  1.
<mgrwt>
<rscale>  0 0.27398772E+03</rscale>
<asrwt>0</asrwt>
<pdfrwt beam="1">  1        1 0.49284177E+00 0.27398772E+03</pdfrwt>
<pdfrwt beam="2">  1       -1 0.90129713E-03 0.27398772E+03</pdfrwt>
<totfact> 0.11348087E+03</totfact>
</mgrwt>
</event>
<event>
 9    1  0.2074770E-002  0.2743116E+03  0.7818608E-02  0.1098837E+00
         -1   -1    0    0    0  501 -0.00000000000E+00  0.00000000000E+00  0.10202244616E+03  0.10202244616E+03  0.00000000000E+00 0. -1.
          1   -1    0    0  501    0  0.00000000000E+00 -0.00000000000E+00 -0.18438799220E+03  0.18438799220E+03  0.00000000000E+00 0. -1.
         36    2    1    2    0    0  0.00000000000E+00 -0.71054273576E-14 -0.82365546039E+02  0.28641043836E+03  0.27431160389E+03 0.  0.
         25    2    3    3    0    0 -0.18289904685E+01 -0.46490388409E+02  0.44547628869E+01  0.13327363337E+03  0.12480911433E+03 0.  0.
         25    2    3    3    0    0  0.18289904685E+01  0.46490388409E+02 -0.86820308926E+02  0.15313680498E+03  0.11725362928E+03 0.  0.
          5    1    4    4  502    0 -0.60088040958E+02 -0.11575591353E+02  0.17785363206E+02  0.63898169972E+02  0.47000000000E+01 0.  1.
         -5    1    4    4    0  502  0.58259050489E+02 -0.34914797056E+02 -0.13330600320E+02  0.69375463402E+02  0.47000000000E+01 0.  1.
          5    1    5    5  503    0  0.30144359379E+02 -0.20982048898E+02  0.30463073194E+01  0.37152372288E+02  0.47000000000E+01 0. -1.
         -5    1    5    5    0  503 -0.28315368911E+02  0.67472437307E+02 -0.89866616245E+02  0.11598443270E+03  0.47000000000E+01 0. -1.
<mgrwt>
<rscale>  0 0.27431160E+03</rscale>
<asrwt>0</asrwt>
<pdfrwt beam="1">  1        1 0.28367384E-01 0.27431160E+03</pdfrwt>
<pdfrwt beam="2">  1       -1 0.15695761E-01 0.27431160E+03</pdfrwt>
<totfact> 0.48285615E+03</totfact>
</mgrwt>
</event>
<event>
 9    1  0.2074770E-002  0.2742896E+03  0.7818608E-02  0.1098849E+00
          2   -1    0    0  501    0  0.00000000000E+00  0.00000000000E+00  0.69021257611E+01  0.69021257611E+01  0.00000000000E+00 0.  1.
         -2   -1    0    0    0  501 -0.00000000000E+00 -0.00000000000E+00 -0.27250575807E+04  0.27250575807E+04  0.00000000000E+00 0.  1.
         36    2    1    2    0    0 -0.35527136788E-14 -0.14210854715E-13 -0.27181554550E+04  0.27319597065E+04  0.27428955597E+03 0.  0.
         25    2    3    3    0    0 -0.18232352984E+02 -0.45396860101E+02 -0.98211263256E+03  0.99107896351E+03  0.12368910727E+03 0.  0.
         25    2    3    3    0    0  0.18232352984E+02  0.45396860101E+02 -0.17360428224E+04  0.17408807430E+04  0.12011572118E+03 0.  0.
          5    1    4    4  502    0 -0.36529986793E+02 -0.25749637736E+02 -0.11399277539E+03  0.12253132914E+03  0.47000000000E+01 0.  1.
         -5    1    4    4    0  502  0.18297633809E+02 -0.19647222365E+02 -0.86811985717E+03  0.86854763437E+03  0.47000000000E+01 0.  1.
          5    1    5    5  503    0 -0.12719449693E+02 -0.27196775709E+02 -0.10260712936E+04  0.10265212314E+04  0.47000000000E+01 0.  1.
         -5    1    5    5    0  503  0.30951802677E+02  0.72593635809E+02 -0.70997152883E+03  0.71435951159E+03  0.47000000000E+01 0.  1.
<mgrwt>
<rscale>  0 0.27428956E+03</rscale>
<asrwt>0</asrwt>
<pdfrwt beam="1">  1        2 0.10618655E-02 0.27428956E+03</pdfrwt>
<pdfrwt beam="2">  1       -2 0.41923965E+00 0.27428956E+03</pdfrwt>
<totfact> 0.90020724E+01</totfact>
</mgrwt>
</event>
<event>
 9    1  0.2074770E-002  0.2735505E+03  0.7818608E-02  0.1099265E+00
          4   -1    0    0  501    0  0.00000000000E+00  0.00000000000E+00  0.10593847849E+03  0.10593847849E+03  0.00000000000E+00 0. -1.
         -4   -1    0    0    0  501 -0.00000000000E+00 -0.00000000000E+00 -0.17658799327E+03  0.17658799327E+03  0.00000000000E+00 0. -1.
         36    2    1    2    0    0  0.00000000000E+00  0.00000000000E+00 -0.70649514790E+02  0.28252647176E+03  0.27355045843E+03 0.  0.
         25    2    3    3    0    0 -0.38468728454E+01  0.57232489713E+02 -0.38093613084E+02  0.14072398627E+03  0.12272636491E+03 0.  0.
         25    2    3    3    0    0  0.38468728454E+01 -0.57232489713E+02 -0.32555901705E+02  0.14180248549E+03  0.12552968512E+03 0.  0.
          5    1    4    4  502    0  0.45404349311E+02  0.15562849209E+00 -0.45964894947E+02  0.64779940754E+02  0.47000000000E+01 0.  1.
         -5    1    4    4    0  502 -0.49251222156E+02  0.57076861221E+02  0.78712818626E+01  0.75944045513E+02  0.47000000000E+01 0.  1.
          5    1    5    5  503    0  0.45779454975E+02  0.67036909897E+01 -0.44388511116E+02  0.64289407291E+02  0.47000000000E+01 0. -1.
         -5    1    5    5    0  503 -0.41932582129E+02 -0.63936180703E+02  0.11832609411E+02  0.77513078202E+02  0.47000000000E+01 0. -1.
<mgrwt>
<rscale>  0 0.27355046E+03</rscale>
<asrwt>0</asrwt>
<pdfrwt beam="1">  1        4 0.16298228E-01 0.27355046E+03</pdfrwt>
<pdfrwt beam="2">  1       -4 0.27167383E-01 0.27355046E+03</pdfrwt>
<totfact> 0.78252144E+02</totfact>
</mgrwt>
</event>
<event>
 9    1  0.2074770E-002  0.2748240E+03  0.7818608E-02  0.1098550E+00
          1   -1    0    0  501    0  0.00000000000E+00  0.00000000000E+00  0.19101804903E+03  0.19101804903E+03  0.00000000000E+00 0. -1.
         -1   -1    0    0    0  501 -0.00000000000E+00 -0.00000000000E+00 -0.98849598921E+02  0.98849598921E+02  0.00000000000E+00 0. -1.
         36    2    1    2    0    0  0.71054273576E-14  0.71054273576E-14  0.92168450108E+02  0.28986764795E+03  0.27482399847E+03 0.  0.
         25    2    3    3    0    0 -0.41762802149E+02 -0.17369566784E+02  0.45413647360E+02  0.14860786180E+03  0.13407484376E+03 0.  0.
         25    2    3    3    0    0  0.41762802149E+02  0.17369566784E+02  0.46754802748E+02  0.14125978615E+03  0.12538932215E+03 0.  0.
          5    1    4    4  502    0 -0.38773488158E+02  0.12713150585E+02  0.87450732433E+02  0.96616397080E+02  0.47000000000E+01 0. -1.
         -5    1    4    4    0  502 -0.29893139912E+01 -0.30082717369E+02 -0.42037085072E+02  0.51991464721E+02  0.47000000000E+01 0. -1.
          5    1    5    5  503    0  0.63788389442E+02 -0.34422194340E+02  0.43553317410E+02  0.84692547183E+02  0.47000000000E+01 0. -1.
         -5    1    5    5    0  503 -0.22025587293E+02  0.51791761124E+02  0.32014853376E+01  0.56567238966E+02  0.47000000000E+01 0. -1.
<mgrwt>
<rscale>  0 0.27482400E+03</rscale>
<asrwt>0</asrwt>
<pdfrwt beam="1">  1        1 0.29387392E-01 0.27482400E+03</pdfrwt>
<pdfrwt beam="2">  1       -1 0.15207631E-01 0.27482400E+03</pdfrwt>
<totfact> 0.48559847E+03</totfact>
</mgrwt>
</event>
<event>
 9    1  0.2074770E-002  0.2750443E+03  0.7818608E-02  0.1098427E+00
          2   -1    0    0  501    0  0.00000000000E+00  0.00000000000E+00  0.15800038335E+04  0.15800038335E+04  0.00000000000E+00 0.  1.
         -2   -1    0    0    0  501 -0.00000000000E+00 -0.00000000000E+00 -0.11969810185E+02  0.11969810185E+02  0.00000000000E+00 0.  1.
         36    2    1    2    0    0  0.00000000000E+00 -0.35527136788E-14  0.15680340233E+04  0.15919736437E+04  0.27504433082E+03 0.  0.
         25    2    3    3    0    0 -0.76514542411E+01 -0.49486587926E+01  0.10961557780E+04  0.11035841458E+04  0.12750467968E+03 0.  0.
         25    2    3    3    0    0  0.76514542411E+01  0.49486587926E+01  0.47187824538E+03  0.48838949790E+03  0.12558737685E+03 0.  0.
          5    1    4    4  502    0  0.13688289200E+02  0.41757792677E+02  0.15948668711E+03  0.16549675488E+03  0.47000000000E+01 0. -1.
         -5    1    4    4    0  502 -0.21339743441E+02 -0.46706451470E+02  0.93666909084E+03  0.93808739092E+03  0.47000000000E+01 0. -1.
          5    1    5    5  503    0  0.39155283046E+02  0.29011517289E+02  0.42042636113E+03  0.42326731442E+03  0.47000000000E+01 0. -1.
         -5    1    5    5    0  503 -0.31503828805E+02 -0.24062858497E+02  0.51451884245E+02  0.65122183477E+02  0.47000000000E+01 0. -1.
<mgrwt>
<rscale>  0 0.27504433E+03</rscale>
<asrwt>0</asrwt>
<pdfrwt beam="1">  1        2 0.24307735E+00 0.27504433E+03</pdfrwt>
<pdfrwt beam="2">  1       -2 0.18415105E-02 0.27504433E+03</pdfrwt>
<totfact> 0.10795710E+04</totfact>
</mgrwt>
</event>
<event>
 9    1  0.2074770E-002  0.2742903E+03  0.7818608E-02  0.1098849E+00
          4   -1    0    0  501    0  0.00000000000E+00  0.00000000000E+00  0.38926738974E+03  0.38926738974E+03  0.00000000000E+00 0.  1.
         -4   -1    0    0    0  501 -0.00000000000E+00 -0.00000000000E+00 -0.48318445513E+02  0.48318445513E+02  0.00000000000E+00 0.  1.
         36    2    1    2    0    0  0.00000000000E+00  0.71054273576E-14  0.34094894423E+03  0.43758583525E+03  0.27429032182E+03 0.  0.
         25    2    3    3    0    0  0.49165690646E+02  0.39448027315E+02  0.25461434701E+03  0.29056731169E+03  0.12500993930E+03 0.  0.
         25    2    3    3    0    0 -0.49165690646E+02 -0.39448027315E+02  0.86334597220E+02  0.14701852356E+03  0.10093251011E+03 0.  0.
          5    1    4    4  502    0  0.61162870391E+02  0.44971241087E+02  0.26330646873E+03  0.27407242786E+03  0.47000000000E+01 0.  1.
         -5    1    4    4    0  502 -0.11997179745E+02 -0.55232137718E+01 -0.86921217270E+01  0.16494883822E+02  0.47000000000E+01 0.  1.
          5    1    5    5  503    0 -0.59667421883E+02 -0.34056023617E+02  0.10431906161E+03  0.12499828237E+03  0.47000000000E+01 0. -1.
         -5    1    5    5    0  503  0.10501731237E+02 -0.53920036987E+01 -0.17984464394E+02  0.22020241197E+02  0.47000000000E+01 0. -1.
<mgrwt>
<rscale>  0 0.27429032E+03</rscale>
<asrwt>0</asrwt>
<pdfrwt beam="1">  1        4 0.59887289E-01 0.27429032E+03</pdfrwt>
<pdfrwt beam="2">  1       -4 0.74336072E-02 0.27429032E+03</pdfrwt>
<totfact> 0.62253378E+02</totfact>
</mgrwt>
</event>
<event>
 9    1  0.2074770E-002  0.2761992E+03  0.7818608E-02  0.1097783E+00
         -2   -1    0    0    0  501 -0.00000000000E+00  0.00000000000E+00  0.16537656132E+02  0.16537656132E+02  0.00000000000E+00 0. -1.
          2   -1    0    0  501    0  0.00000000000E+00 -0.00000000000E+00 -0.11532165608E+04  0.11532165608E+04  0.00000000000E+00 0. -1.
         36    2    1    2    0    0 -0.88817841970E-15  0.00000000000E+00 -0.11366789047E+04  0.11697542169E+04  0.27619919571E+03 0.  0.
         25    2    3    3    0    0 -0.79278159941E-01  0.59112835725E+02 -0.58298408242E+03  0.59912506189E+03  0.12484416601E+03 0.  0.
         25    2    3    3    0    0  0.79278159941E-01 -0.59112835725E+02 -0.55369482224E+03  0.57062915504E+03  0.12468096397E+03 0.  0.
          5    1    4    4  502    0 -0.31463779255E+02  0.79353919893E+02 -0.25416054966E+03  0.26815422616E+03  0.47000000000E+01 0.  1.
         -5    1    4    4    0  502  0.31384501095E+02 -0.20241084168E+02 -0.32882353277E+03  0.33097083572E+03  0.47000000000E+01 0.  1.
          5    1    5    5  503    0  0.50421003241E+01 -0.72150734766E+02 -0.14926551355E+03  0.16593201872E+03  0.47000000000E+01 0. -1.
         -5    1    5    5    0  503 -0.49628221641E+01  0.13037899042E+02 -0.40442930869E+03  0.40469713632E+03  0.47000000000E+01 0. -1.
<mgrwt>
<rscale>  0 0.27619920E+03</rscale>
<asrwt>0</asrwt>
<pdfrwt beam="1">  1        2 0.17741792E+00 0.27619920E+03</pdfrwt>
<pdfrwt beam="2">  1       -2 0.25442550E-02 0.27619920E+03</pdfrwt>
<totfact> 0.11495383E+04</totfact>
</mgrwt>
</event>
<event>
 9    1  0.2074770E-002  0.2748443E+03  0.7818608E-02  0.1098539E+00
          2   -1    0    0  501    0  0.00000000000E+00  0.00000000000E+00  0.16004805611E+04  0.16004805611E+04  0.00000000000E+00 0.  1.
         -2   -1    0    0    0  501 -0.00000000000E+00 -0.00000000000E+00 -0.11799486314E+02  0.11799486314E+02  0.00000000000E+00 0.  1.
         36    2    1    2    0    0  0.35527136788E-14  0.35527136788E-14  0.15886810748E+04  0.16122800474E+04  0.27484430848E+03 0.  0.
         25    2    3    3    0    0 -0.49452734999E+01  0.20009971612E+02  0.11335913419E+04  0.11409555321E+04  0.12777065782E+03 0.  0.
         25    2    3    3    0    0  0.49452734999E+01 -0.20009971612E+02  0.45508973285E+03  0.47132451533E+03  0.12089366859E+03 0.  0.
          5    1    4    4  502    0  0.52290850714E+02  0.19631086982E+02  0.83577178559E+03  0.83764925848E+03  0.47000000000E+01 0. -1.
         -5    1    4    4    0  502 -0.57236124214E+02  0.37888462951E+00  0.29781955631E+03  0.30330627358E+03  0.47000000000E+01 0. -1.
          5    1    5    5  503    0  0.14761046359E+02  0.35411767581E+02  0.54742061061E+02  0.67012424386E+02  0.47000000000E+01 0. -1.
         -5    1    5    5    0  503 -0.98157728591E+01 -0.55421739193E+02  0.40034767179E+03  0.40431209094E+03  0.47000000000E+01 0. -1.
<mgrwt>
<rscale>  0 0.27484431E+03</rscale>
<asrwt>0</asrwt>
<pdfrwt beam="1">  1        2 0.24622761E+00 0.27484431E+03</pdfrwt>
<pdfrwt beam="2">  1       -2 0.18153069E-02 0.27484431E+03</pdfrwt>
<totfact> 0.10752841E+04</totfact>
</mgrwt>
</event>
<event>
 9    1  0.2074770E-002  0.2750094E+03  0.7818608E-02  0.1098446E+00
         -3   -1    0    0    0  501 -0.00000000000E+00  0.00000000000E+00  0.19562638953E+03  0.19562638953E+03  0.00000000000E+00 0. -1.
          3   -1    0    0  501    0  0.00000000000E+00 -0.00000000000E+00 -0.96651269507E+02  0.96651269507E+02  0.00000000000E+00 0. -1.
         36    2    1    2    0    0  0.00000000000E+00 -0.17763568394E-14  0.98975120019E+02  0.29227765903E+03  0.27500937364E+03 0.  0.
         25    2    3    3    0    0 -0.50001350506E+02 -0.61775263583E+01  0.53018034292E+02  0.15036684800E+03  0.13138104936E+03 0.  0.
         25    2    3    3    0    0  0.50001350506E+02  0.61775263583E+01  0.45957085727E+02  0.14191081104E+03  0.12445210997E+03 0.  0.
          5    1    4    4  502    0 -0.27958501141E+02  0.20777108511E+02  0.91642599847E+02  0.98152035795E+02  0.47000000000E+01 0. -1.
         -5    1    4    4    0  502 -0.22042849365E+02 -0.26954634869E+02 -0.38624565554E+02  0.52214812202E+02  0.47000000000E+01 0. -1.
          5    1    5    5  503    0  0.91139809824E+01  0.16103917428E+01 -0.42761934592E+02  0.44003761895E+02  0.47000000000E+01 0.  1.
         -5    1    5    5    0  503  0.40887369523E+02  0.45671346155E+01  0.88719020319E+02  0.97907049141E+02  0.47000000000E+01 0.  1.
<mgrwt>
<rscale>  0 0.27500937E+03</rscale>
<asrwt>0</asrwt>
<pdfrwt beam="1">  1        3 0.14869426E-01 0.27500937E+03</pdfrwt>
<pdfrwt beam="2">  1       -3 0.30096368E-01 0.27500937E+03</pdfrwt>
<totfact> 0.10227198E+03</totfact>
</mgrwt>
</event>
<event>
 9    1  0.2074770E-002  0.2751366E+03  0.7818608E-02  0.1098375E+00
         -1   -1    0    0    0  501 -0.00000000000E+00  0.00000000000E+00  0.36462014227E+03  0.36462014227E+03  0.00000000000E+00 0.  1.
          1   -1    0    0  501    0  0.00000000000E+00 -0.00000000000E+00 -0.51903448463E+02  0.51903448463E+02  0.00000000000E+00 0.  1.
         36    2    1    2    0    0  0.00000000000E+00  0.71054273576E-14  0.31271669381E+03  0.41652359074E+03  0.27513664069E+03 0.  0.
         25    2    3    3    0    0  0.32286384944E+02  0.22975250138E+02  0.97434783130E+02  0.16426686152E+03  0.12617365834E+03 0.  0.
         25    2    3    3    0    0 -0.32286384944E+02 -0.22975250138E+02  0.21528191068E+03  0.25225672921E+03  0.12536699564E+03 0.  0.
          5    1    4    4  502    0 -0.20093677727E+01  0.69692255846E+02  0.32385919556E+02  0.77019386321E+02  0.47000000000E+01 0. -1.
         -5    1    4    4    0  502  0.34295752717E+02 -0.46717005709E+02  0.65048863574E+02  0.87247475201E+02  0.47000000000E+01 0. -1.
          5    1    5    5  503    0 -0.67944711865E+02 -0.35227980178E+02  0.76292259346E+02  0.10816696951E+03  0.47000000000E+01 0.  1.
         -5    1    5    5    0  503  0.35658326921E+02  0.12252730040E+02  0.13898965133E+03  0.14408975970E+03  0.47000000000E+01 0.  1.
<mgrwt>
<rscale>  0 0.27513664E+03</rscale>
<asrwt>0</asrwt>
<pdfrwt beam="1">  1        1 0.79851462E-02 0.27513664E+03</pdfrwt>
<pdfrwt beam="2">  1       -1 0.56095405E-01 0.27513664E+03</pdfrwt>
<totfact> 0.28738372E+03</totfact>
</mgrwt>
</event>
<event>
 9    1  0.2074770E-002  0.2753284E+03  0.7818608E-02  0.1098268E+00
         -2   -1    0    0    0  501 -0.00000000000E+00  0.00000000000E+00  0.17449849434E+03  0.17449849434E+03  0.00000000000E+00 0.  1.
          2   -1    0    0  501    0  0.00000000000E+00 -0.00000000000E+00 -0.10860511684E+03  0.10860511684E+03  0.00000000000E+00 0.  1.
         36    2    1    2    0    0  0.71054273576E-14  0.00000000000E+00  0.65893377505E+02  0.28310361118E+03  0.27532838115E+03 0.  0.
         25    2    3    3    0    0 -0.41245675593E+02 -0.30251414916E+02  0.14831085570E+02  0.13716214568E+03  0.12640070905E+03 0.  0.
         25    2    3    3    0    0  0.41245675593E+02  0.30251414916E+02  0.51062291935E+02  0.14594146550E+03  0.12678801141E+03 0.  0.
          5    1    4    4  502    0 -0.82253232827E+02 -0.22945880049E+02  0.32744618107E+02  0.91577332003E+02  0.47000000000E+01 0.  1.
         -5    1    4    4    0  502  0.41007557234E+02 -0.73055348675E+01 -0.17913532537E+02  0.45584813677E+02  0.47000000000E+01 0.  1.
          5    1    5    5  503    0 -0.27261609321E+02  0.38345094601E+02  0.59814921879E+02  0.76246026140E+02  0.47000000000E+01 0.  1.
         -5    1    5    5    0  503  0.68507284914E+02 -0.80936796842E+01 -0.87526299445E+01  0.69695439364E+02  0.47000000000E+01 0.  1.
<mgrwt>
<rscale>  0 0.27532838E+03</rscale>
<asrwt>0</asrwt>
<pdfrwt beam="1">  1        2 0.16708479E-01 0.27532838E+03</pdfrwt>
<pdfrwt beam="2">  1       -2 0.26845922E-01 0.27532838E+03</pdfrwt>
<totfact> 0.42633457E+03</totfact>
</mgrwt>
</event>
<event>
 9    1  0.2074770E-002  0.2755701E+03  0.7818608E-02  0.1098133E+00
          2   -1    0    0  501    0  0.00000000000E+00  0.00000000000E+00  0.55571278910E+03  0.55571278910E+03  0.00000000000E+00 0. -1.
         -2   -1    0    0    0  501 -0.00000000000E+00 -0.00000000000E+00 -0.34162822812E+02  0.34162822812E+02  0.00000000000E+00 0. -1.
         36    2    1    2    0    0 -0.71054273576E-14  0.00000000000E+00  0.52154996629E+03  0.58987561191E+03  0.27557008218E+03 0.  0.
         25    2    3    3    0    0  0.47506702186E+02 -0.27509030233E+02  0.23159184662E+03  0.26920054633E+03  0.12577963758E+03 0.  0.
         25    2    3    3    0    0 -0.47506702186E+02  0.27509030233E+02  0.28995811967E+03  0.32067506558E+03  0.12547172201E+03 0.  0.
          5    1    4    4  502    0 -0.10655044090E+02  0.94045748440E+00  0.19366300948E+03  0.19401511711E+03  0.47000000000E+01 0.  1.
         -5    1    4    4    0  502  0.58161746277E+02 -0.28449487718E+02  0.37928837136E+02  0.75185429225E+02  0.47000000000E+01 0.  1.
          5    1    5    5  503    0 -0.89268404879E+02  0.22072823536E+02  0.16819655728E+03  0.19175043554E+03  0.47000000000E+01 0. -1.
         -5    1    5    5    0  503  0.41761702692E+02  0.54362066973E+01  0.12176156239E+03  0.12892463004E+03  0.47000000000E+01 0. -1.
<mgrwt>
<rscale>  0 0.27557008E+03</rscale>
<asrwt>0</asrwt>
<pdfrwt beam="1">  1        2 0.85494268E-01 0.27557008E+03</pdfrwt>
<pdfrwt beam="2">  1       -2 0.52558193E-02 0.27557008E+03</pdfrwt>
<totfact> 0.99577593E+03</totfact>
</mgrwt>
</event>
<event>
 9    1  0.2074770E-002  0.2735409E+03  0.7818608E-02  0.1099270E+00
          2   -1    0    0  501    0  0.00000000000E+00  0.00000000000E+00  0.16271464227E+03  0.16271464227E+03  0.00000000000E+00 0.  1.
         -2   -1    0    0    0  501 -0.00000000000E+00 -0.00000000000E+00 -0.11496296268E+03  0.11496296268E+03  0.00000000000E+00 0.  1.
         36    2    1    2    0    0 -0.35527136788E-14  0.00000000000E+00  0.47751679594E+02  0.27767760495E+03  0.27354090990E+03 0.  0.
         25    2    3    3    0    0 -0.46531408802E+01 -0.36708019465E+02  0.89953547571E+02  0.15773622345E+03  0.12417707138E+03 0.  0.
         25    2    3    3    0    0  0.46531408802E+01  0.36708019465E+02 -0.42201867977E+02  0.11994138150E+03  0.10599908925E+03 0.  0.
          5    1    4    4  502    0 -0.61501819459E+02 -0.61462912675E+01  0.60561245343E+02  0.86660285775E+02  0.47000000000E+01 0. -1.
         -5    1    4    4    0  502  0.56848678578E+02 -0.30561728198E+02  0.29392302228E+02  0.71075937678E+02  0.47000000000E+01 0. -1.
          5    1    5    5  503    0 -0.23362059457E+02 -0.21989637835E+02 -0.44059053378E+02  0.54704846027E+02  0.47000000000E+01 0.  1.
         -5    1    5    5    0  503  0.28015200337E+02  0.58697657300E+02  0.18571854013E+01  0.65236535470E+02  0.47000000000E+01 0.  1.
<mgrwt>
<rscale>  0 0.27354091E+03</rscale>
<asrwt>0</asrwt>
<pdfrwt beam="1">  1        2 0.25033022E-01 0.27354091E+03</pdfrwt>
<pdfrwt beam="2">  1       -2 0.17686610E-01 0.27354091E+03</pdfrwt>
<totfact> 0.55308005E+03</totfact>
</mgrwt>
</event>
<event>
 9    1  0.2074770E-002  0.2748487E+03  0.7818608E-02  0.1098536E+00
         -1   -1    0    0    0  501 -0.00000000000E+00  0.00000000000E+00  0.65423527987E+02  0.65423527987E+02  0.00000000000E+00 0. -1.
          1   -1    0    0  501    0  0.00000000000E+00 -0.00000000000E+00 -0.28866458968E+03  0.28866458968E+03  0.00000000000E+00 0. -1.
         36    2    1    2    0    0  0.71054273576E-14  0.35527136788E-14 -0.22324106169E+03  0.35408811767E+03  0.27484872830E+03 0.  0.
         25    2    3    3    0    0 -0.43678117853E+02 -0.29076609933E+02 -0.65676860940E+02  0.14665692951E+03  0.12017311549E+03 0.  0.
         25    2    3    3    0    0  0.43678117853E+02  0.29076609933E+02 -0.15756420075E+03  0.20743118816E+03  0.12428995630E+03 0.  0.
          5    1    4    4  502    0  0.40803858670E+02 -0.20359918907E+02 -0.27137301027E+02  0.53272922646E+02  0.47000000000E+01 0. -1.
         -5    1    4    4    0  502 -0.84481976522E+02 -0.87166910252E+01 -0.38539559913E+02  0.93384006864E+02  0.47000000000E+01 0. -1.
          5    1    5    5  503    0  0.40613476608E+02  0.63204455061E+02 -0.40735301129E+02  0.85590375509E+02  0.47000000000E+01 0. -1.
         -5    1    5    5    0  503  0.30646412445E+01 -0.34127845129E+02 -0.11682889962E+03  0.12184081265E+03  0.47000000000E+01 0. -1.
<mgrwt>
<rscale>  0 0.27484873E+03</rscale>
<asrwt>0</asrwt>
<pdfrwt beam="1">  1        1 0.44409937E-01 0.27484873E+03</pdfrwt>
<pdfrwt beam="2">  1       -1 0.10065158E-01 0.27484873E+03</pdfrwt>
<totfact> 0.55149759E+03</totfact>
</mgrwt>
</event>
<event>
 9    1  0.2074770E-002  0.2658898E+03  0.7818608E-02  0.1103655E+00
          3   -1    0    0  501    0  0.00000000000E+00  0.00000000000E+00  0.35856011906E+03  0.35856011906E+03  0.00000000000E+00 0. -1.
         -3   -1    0    0    0  501 -0.00000000000E+00 -0.00000000000E+00 -0.49292568327E+02  0.49292568327E+02  0.00000000000E+00 0. -1.
         36    2    1    2    0    0 -0.35527136788E-14 -0.71054273576E-14  0.30926755073E+03  0.40785268738E+03  0.26588982055E+03 0.  0.
         25    2    3    3    0    0  0.24979652269E+02  0.46412619554E+02  0.17312740089E+03  0.21819490552E+03  0.12189259852E+03 0.  0.
         25    2    3    3    0    0 -0.24979652269E+02 -0.46412619554E+02  0.13614014984E+03  0.18965778186E+03  0.12106948229E+03 0.  0.
          5    1    4    4  502    0  0.41199516434E+02  0.81197028546E+02  0.98983632682E+02  0.13457416965E+03  0.47000000000E+01 0.  1.
         -5    1    4    4    0  502 -0.16219864165E+02 -0.34784408993E+02  0.74143768211E+02  0.83620735868E+02  0.47000000000E+01 0.  1.
          5    1    5    5  503    0 -0.53742726825E+02 -0.16783047815E+02  0.13688907774E+03  0.14809004350E+03  0.47000000000E+01 0. -1.
         -5    1    5    5    0  503  0.28763074556E+02 -0.29629571739E+02 -0.74892790220E+00  0.41567738360E+02  0.47000000000E+01 0. -1.
<mgrwt>
<rscale>  0 0.26588982E+03</rscale>
<asrwt>0</asrwt>
<pdfrwt beam="1">  1        3 0.55163094E-01 0.26588982E+03</pdfrwt>
<pdfrwt beam="2">  1       -3 0.75834723E-02 0.26588982E+03</pdfrwt>
<totfact> 0.96599719E+02</totfact>
</mgrwt>
</event>
<event>
 9    1  0.2074770E-002  0.2761159E+03  0.7818608E-02  0.1097829E+00
          4   -1    0    0  501    0  0.00000000000E+00  0.00000000000E+00  0.50920979735E+02  0.50920979735E+02  0.00000000000E+00 0.  1.
         -4   -1    0    0    0  501 -0.00000000000E+00 -0.00000000000E+00 -0.37430551352E+03  0.37430551352E+03  0.00000000000E+00 0.  1.
         36    2    1    2    0    0  0.00000000000E+00  0.00000000000E+00 -0.32338453378E+03  0.42522649325E+03  0.27611594281E+03 0.  0.
         25    2    3    3    0    0  0.11328383357E+02 -0.50514864970E+02 -0.21264403272E+03  0.25320761399E+03  0.12734412934E+03 0.  0.
         25    2    3    3    0    0 -0.11328383357E+02  0.50514864970E+02 -0.11074050106E+03  0.17201887926E+03  0.12102459417E+03 0.  0.
          5    1    4    4  502    0 -0.49099439277E+02  0.10986222478E+02 -0.67480844937E+02  0.84304249330E+02  0.47000000000E+01 0.  1.
         -5    1    4    4    0  502  0.60427822634E+02 -0.61501087448E+02 -0.14516318779E+03  0.16890336466E+03  0.47000000000E+01 0.  1.
          5    1    5    5  503    0 -0.31192580664E+02 -0.45947576749E+01 -0.10863188175E+03  0.11321247555E+03  0.47000000000E+01 0.  1.
         -5    1    5    5    0  503  0.19864197307E+02  0.55109622645E+02 -0.21086193108E+01  0.58806403717E+02  0.47000000000E+01 0.  1.
<mgrwt>
<rscale>  0 0.27611594E+03</rscale>
<asrwt>0</asrwt>
<pdfrwt beam="1">  1        4 0.78339970E-02 0.27611594E+03</pdfrwt>
<pdfrwt beam="2">  1       -4 0.57585462E-01 0.27611594E+03</pdfrwt>
<totfact> 0.62027408E+02</totfact>
</mgrwt>
</event>
<event>
 9    1  0.2074770E-002  0.2750922E+03  0.7818608E-02  0.1098400E+00
         -2   -1    0    0    0  501 -0.00000000000E+00  0.00000000000E+00  0.34799041723E+02  0.34799041723E+02  0.00000000000E+00 0.  1.
          2   -1    0    0  501    0  0.00000000000E+00 -0.00000000000E+00 -0.54366225509E+03  0.54366225509E+03  0.00000000000E+00 0.  1.
         36    2    1    2    0    0 -0.14210854715E-13  0.00000000000E+00 -0.50886321337E+03  0.57846129682E+03  0.27509217000E+03 0.  0.
         25    2    3    3    0    0  0.47158914069E+02 -0.82582536918E+01 -0.24143492850E+03  0.27917629216E+03  0.13174374930E+03 0.  0.
         25    2    3    3    0    0 -0.47158914069E+02  0.82582536918E+01 -0.26742828488E+03  0.29928500465E+03  0.12554467145E+03 0.  0.
          5    1    4    4  502    0 -0.41364125829E+02  0.15385490542E+02 -0.11243529673E+03  0.12087799707E+03  0.47000000000E+01 0. -1.
         -5    1    4    4    0  502  0.88523039897E+02 -0.23643744233E+02 -0.12899963177E+03  0.15829829509E+03  0.47000000000E+01 0. -1.
          5    1    5    5  503    0  0.37774443000E+01  0.44911666451E+02 -0.31700906816E+02  0.55302480612E+02  0.47000000000E+01 0.  1.
         -5    1    5    5    0  503 -0.50936358369E+02 -0.36653412760E+02 -0.23572737806E+03  0.24398252404E+03  0.47000000000E+01 0.  1.
<mgrwt>
<rscale>  0 0.27509217E+03</rscale>
<asrwt>0</asrwt>
<pdfrwt beam="1">  1        2 0.83640345E-01 0.27509217E+03</pdfrwt>
<pdfrwt beam="2">  1       -2 0.53536988E-02 0.27509217E+03</pdfrwt>
<totfact> 0.99256382E+03</totfact>
</mgrwt>
</event>
<event>
 9    1  0.2074770E-002  0.2760182E+03  0.7818608E-02  0.1097884E+00
          2   -1    0    0  501    0  0.00000000000E+00  0.00000000000E+00  0.75904559585E+03  0.75904559585E+03  0.00000000000E+00 0. -1.
         -2   -1    0    0    0  501 -0.00000000000E+00 -0.00000000000E+00 -0.25092706766E+02  0.25092706766E+02  0.00000000000E+00 0. -1.
         36    2    1    2    0    0  0.00000000000E+00  0.00000000000E+00  0.73395288908E+03  0.78413830261E+03  0.27601817736E+03 0.  0.
         25    2    3    3    0    0  0.61270374619E+00 -0.47337736395E+02  0.38226704251E+03  0.40563447627E+03  0.12716131429E+03 0.  0.
         25    2    3    3    0    0 -0.61270374619E+00  0.47337736395E+02  0.35168584657E+03  0.37850382635E+03  0.13168513655E+03 0.  0.
          5    1    4    4  502    0 -0.18224753527E+02 -0.24500829213E+02  0.10455338948E+02  0.32616504806E+02  0.47000000000E+01 0.  1.
         -5    1    4    4    0  502  0.18837457273E+02 -0.22836907182E+02  0.37181170356E+03  0.37301797146E+03  0.47000000000E+01 0.  1.
          5    1    5    5  503    0 -0.38639774941E+02 -0.26247449142E+02  0.20180198985E+03  0.20719095999E+03  0.47000000000E+01 0. -1.
         -5    1    5    5    0  503  0.38027071195E+02  0.73585185538E+02  0.14988385672E+03  0.17131286635E+03  0.47000000000E+01 0. -1.
<mgrwt>
<rscale>  0 0.27601818E+03</rscale>
<asrwt>0</asrwt>
<pdfrwt beam="1">  1        2 0.11677623E+00 0.27601818E+03</pdfrwt>
<pdfrwt beam="2">  1       -2 0.38604170E-02 0.27601818E+03</pdfrwt>
<totfact> 0.10960698E+04</totfact>
</mgrwt>
</event>
<event>
 9    1  0.2074770E-002  0.2771462E+03  0.7818608E-02  0.1097258E+00
          2   -1    0    0  501    0  0.00000000000E+00  0.00000000000E+00  0.64396330797E+03  0.64396330797E+03  0.00000000000E+00 0. -1.
         -2   -1    0    0    0  501 -0.00000000000E+00 -0.00000000000E+00 -0.29819262359E+02  0.29819262359E+02  0.00000000000E+00 0. -1.
         36    2    1    2    0    0  0.00000000000E+00  0.00000000000E+00  0.61414404561E+03  0.67378257033E+03  0.27714624897E+03 0.  0.
         25    2    3    3    0    0  0.54492634845E+01 -0.44258243380E+02  0.22390298621E+03  0.26193448945E+03  0.12840811093E+03 0.  0.
         25    2    3    3    0    0 -0.54492634845E+01  0.44258243380E+02  0.39024105941E+03  0.41184808088E+03  0.12386392008E+03 0.  0.
          5    1    4    4  502    0 -0.30225272742E+02  0.35492259806E+02  0.97894202818E+02  0.10852940875E+03  0.47000000000E+01 0.  1.
         -5    1    4    4    0  502  0.35674536226E+02 -0.79750503187E+02  0.12600878339E+03  0.15340508070E+03  0.47000000000E+01 0.  1.
          5    1    5    5  503    0 -0.56901516368E+02 -0.85826927340E+01  0.17326841974E+03  0.18263482817E+03  0.47000000000E+01 0. -1.
         -5    1    5    5    0  503  0.51452252884E+02  0.52840936114E+02  0.21697263966E+03  0.22921325271E+03  0.47000000000E+01 0. -1.
<mgrwt>
<rscale>  0 0.27714625E+03</rscale>
<asrwt>0</asrwt>
<pdfrwt beam="1">  1        2 0.99071267E-01 0.27714625E+03</pdfrwt>
<pdfrwt beam="2">  1       -2 0.45875793E-02 0.27714625E+03</pdfrwt>
<totfact> 0.10317893E+04</totfact>
</mgrwt>
</event>
<event>
 9    1  0.2074770E-002  0.2744863E+03  0.7818608E-02  0.1098739E+00
          3   -1    0    0  501    0  0.00000000000E+00  0.00000000000E+00  0.13157536926E+02  0.13157536926E+02  0.00000000000E+00 0.  1.
         -3   -1    0    0    0  501 -0.00000000000E+00 -0.00000000000E+00 -0.14315507134E+04  0.14315507134E+04  0.00000000000E+00 0.  1.
         36    2    1    2    0    0  0.00000000000E+00 -0.14210854715E-13 -0.14183931765E+04  0.14447082503E+04  0.27448629382E+03 0.  0.
         25    2    3    3    0    0  0.40686069073E+02 -0.40976560632E+02 -0.70437919318E+03  0.71726454135E+03  0.12240890388E+03 0.  0.
         25    2    3    3    0    0 -0.40686069073E+02  0.40976560632E+02 -0.71401398331E+03  0.72744370900E+03  0.12658572850E+03 0.  0.
          5    1    4    4  502    0  0.18677291477E+02 -0.71972049389E+02 -0.62164279075E+03  0.62609157989E+03  0.47000000000E+01 0. -1.
         -5    1    4    4    0  502  0.22008777596E+02  0.30995488757E+02 -0.82736402430E+02  0.91172961462E+02  0.47000000000E+01 0. -1.
          5    1    5    5  503    0 -0.69196922391E+02  0.16913218788E+02 -0.20560469098E+03  0.21764569830E+03  0.47000000000E+01 0.  1.
         -5    1    5    5    0  503  0.28510853317E+02  0.24063341844E+02 -0.50840929233E+03  0.50979801070E+03  0.47000000000E+01 0.  1.
<mgrwt>
<rscale>  0 0.27448629E+03</rscale>
<asrwt>0</asrwt>
<pdfrwt beam="1">  1        3 0.20242378E-02 0.27448629E+03</pdfrwt>
<pdfrwt beam="2">  1       -3 0.22023843E+00 0.27448629E+03</pdfrwt>
<totfact> 0.28614531E+02</totfact>
</mgrwt>
</event>
<event>
 9    1  0.2074770E-002  0.2750300E+03  0.7818608E-02  0.1098435E+00
         -2   -1    0    0    0  501 -0.00000000000E+00  0.00000000000E+00  0.44229180081E+02  0.44229180081E+02  0.00000000000E+00 0.  1.
          2   -1    0    0  501    0  0.00000000000E+00 -0.00000000000E+00 -0.42755432255E+03  0.42755432255E+03  0.00000000000E+00 0.  1.
         36    2    1    2    0    0  0.00000000000E+00  0.17763568394E-14 -0.38332514247E+03  0.47178350263E+03  0.27503001383E+03 0.  0.
         25    2    3    3    0    0  0.46705699306E+02  0.37924270061E+01 -0.12855496920E+03  0.18505450017E+03  0.12459126404E+03 0.  0.
         25    2    3    3    0    0 -0.46705699306E+02 -0.37924270061E+01 -0.25477017327E+03  0.28672900247E+03  0.12292223076E+03 0.  0.
          5    1    4    4  502    0  0.19526064363E+02 -0.28204193342E+02  0.13263642926E+02  0.37077728291E+02  0.47000000000E+01 0. -1.
         -5    1    4    4    0  502  0.27179634942E+02  0.31996620348E+02 -0.14181861213E+03  0.14797677188E+03  0.47000000000E+01 0. -1.
          5    1    5    5  503    0  0.18041622591E+02  0.14812087189E+02 -0.19529605749E+03  0.19674231407E+03  0.47000000000E+01 0.  1.
         -5    1    5    5    0  503 -0.64747321897E+02 -0.18604514195E+02 -0.59474115781E+02  0.89986688400E+02  0.47000000000E+01 0.  1.
<mgrwt>
<rscale>  0 0.27503001E+03</rscale>
<asrwt>0</asrwt>
<pdfrwt beam="1">  1        2 0.65777587E-01 0.27503001E+03</pdfrwt>
<pdfrwt beam="2">  1       -2 0.68044893E-02 0.27503001E+03</pdfrwt>
<totfact> 0.89752948E+03</totfact>
</mgrwt>
</event>
<event>
 9    1  0.2074770E-002  0.2776770E+03  0.7818608E-02  0.1096965E+00
          2   -1    0    0  501    0  0.00000000000E+00  0.00000000000E+00  0.64305603166E+02  0.64305603166E+02  0.00000000000E+00 0.  1.
         -2   -1    0    0    0  501 -0.00000000000E+00 -0.00000000000E+00 -0.29975822160E+03  0.29975822160E+03  0.00000000000E+00 0.  1.
         36    2    1    2    0    0  0.00000000000E+00 -0.35527136788E-14 -0.23545261843E+03  0.36406382476E+03  0.27767702997E+03 0.  0.
         25    2    3    3    0    0 -0.33340870791E+02 -0.26164478212E+02 -0.59018852453E+02  0.14471069653E+03  0.12514698222E+03 0.  0.
         25    2    3    3    0    0  0.33340870791E+02  0.26164478212E+02 -0.17643376598E+03  0.21935312823E+03  0.12325066938E+03 0.  0.
          5    1    4    4  502    0  0.37664434876E+02 -0.40494530777E+02 -0.82097961918E+01  0.56106215617E+02  0.47000000000E+01 0.  1.
         -5    1    4    4    0  502 -0.71005305668E+02  0.14330052565E+02 -0.50809056261E+02  0.88604480912E+02  0.47000000000E+01 0.  1.
          5    1    5    5  503    0  0.67042026288E+02  0.55906022510E+01 -0.42669815500E+02  0.79804080579E+02  0.47000000000E+01 0.  1.
         -5    1    5    5    0  503 -0.33701155496E+02  0.20573875961E+02 -0.13376395048E+03  0.13954904766E+03  0.47000000000E+01 0.  1.
<mgrwt>
<rscale>  0 0.27767703E+03</rscale>
<asrwt>0</asrwt>
<pdfrwt beam="1">  1        2 0.98931696E-02 0.27767703E+03</pdfrwt>
<pdfrwt beam="2">  1       -2 0.46116650E-01 0.27767703E+03</pdfrwt>
<totfact> 0.29212535E+03</totfact>
</mgrwt>
</event>
<event>
 9    1  0.2074770E-002  0.2748927E+03  0.7818608E-02  0.1098512E+00
          2   -1    0    0  501    0  0.00000000000E+00  0.00000000000E+00  0.24570682287E+03  0.24570682287E+03  0.00000000000E+00 0.  1.
         -2   -1    0    0    0  501 -0.00000000000E+00 -0.00000000000E+00 -0.76886316568E+02  0.76886316568E+02  0.00000000000E+00 0.  1.
         36    2    1    2    0    0  0.71054273576E-14 -0.14210854715E-13  0.16882050630E+03  0.32259313943E+03  0.27489265225E+03 0.  0.
         25    2    3    3    0    0  0.20618867929E+00 -0.56060572615E+02  0.83426016453E+02  0.16148885055E+03  0.12639587935E+03 0.  0.
         25    2    3    3    0    0 -0.20618867929E+00  0.56060572615E+02  0.85394489845E+02  0.16110428888E+03  0.12457745657E+03 0.  0.
          5    1    4    4  502    0  0.45112963135E+02 -0.50713692326E+02  0.92795596359E+02  0.11506594082E+03  0.47000000000E+01 0.  1.
         -5    1    4    4    0  502 -0.44906774456E+02 -0.53468802898E+01 -0.93695799061E+01  0.46422909737E+02  0.47000000000E+01 0.  1.
          5    1    5    5  503    0  0.45111979198E+02  0.73972144900E+02  0.45645370233E+02  0.98043657174E+02  0.47000000000E+01 0.  1.
         -5    1    5    5    0  503 -0.45318167877E+02 -0.17911572284E+02  0.39749119612E+02  0.63060631708E+02  0.47000000000E+01 0.  1.
<mgrwt>
<rscale>  0 0.27489265E+03</rscale>
<asrwt>0</asrwt>
<pdfrwt beam="1">  1        2 0.37801049E-01 0.27489265E+03</pdfrwt>
<pdfrwt beam="2">  1       -2 0.11828664E-01 0.27489265E+03</pdfrwt>
<totfact> 0.68264455E+03</totfact>
</mgrwt>
</event>
<event>
 8    1  0.2074770E-002  0.2552767E+03  0.7818608E-02  0.1110015E+00
          2   -1    0    0  501    0  0.00000000000E+00  0.00000000000E+00  0.33092074545E+02  0.33092074545E+02  0.00000000000E+00 0. -1.
         -2   -1    0    0    0  501 -0.00000000000E+00 -0.00000000000E+00 -0.49230962364E+03  0.49230962364E+03  0.00000000000E+00 0. -1.
         25    2    1    2    0    0  0.49706592779E+01  0.37723301430E+01 -0.26804170366E+03  0.29542758013E+03  0.12406515332E+03 0.  0.
         25    2    1    2    0    0 -0.49706592779E+01 -0.37723301430E+01 -0.19117584543E+03  0.22997411805E+03  0.12767518620E+03 0.  0.
          5    1    3    3  502    0  0.36332040405E+02 -0.38534625453E+01 -0.25896593365E+03  0.26157276449E+03  0.47000000000E+01 0. -1.
         -5    1    3    3    0  502 -0.31361381127E+02  0.76257926883E+01 -0.90757700147E+01  0.33854815635E+02  0.47000000000E+01 0. -1.
          5    1    4    4  503    0 -0.54465028202E+02 -0.24234031399E+02 -0.46867477912E+02  0.75976167715E+02  0.47000000000E+01 0. -1.
         -5    1    4    4    0  503  0.49494368924E+02  0.20461701256E+02 -0.14430836751E+03  0.15399795034E+03  0.47000000000E+01 0. -1.
<mgrwt>
<rscale>  0 0.25527669E+03</rscale>
<asrwt>0</asrwt>
<pdfrwt beam="1">  1        2 0.50910886E-02 0.25527669E+03</pdfrwt>
<pdfrwt beam="2">  1       -2 0.75739939E-01 0.25527669E+03</pdfrwt>
<totfact> 0.24523654E+03</totfact>
</mgrwt>
</event>
<event>
 9    1  0.2074770E-002  0.2755689E+03  0.7818608E-02  0.1098134E+00
         -2   -1    0    0    0  501 -0.00000000000E+00  0.00000000000E+00  0.18459928143E+02  0.18459928143E+02  0.00000000000E+00 0.  1.
          2   -1    0    0  501    0  0.00000000000E+00 -0.00000000000E+00 -0.10284194974E+04  0.10284194974E+04  0.00000000000E+00 0.  1.
         36    2    1    2    0    0 -0.35527136788E-14  0.00000000000E+00 -0.10099595693E+04  0.10468794256E+04  0.27556886634E+03 0.  0.
         25    2    3    3    0    0 -0.16824925804E+02 -0.57244213213E+02 -0.43245015898E+03  0.45365067893E+03  0.12339295126E+03 0.  0.
         25    2    3    3    0    0  0.16824925804E+02  0.57244213213E+02 -0.57750941031E+03  0.59322874664E+03  0.12183287230E+03 0.  0.
          5    1    4    4  502    0  0.29367935597E+02  0.22754858119E+02 -0.19995299845E+03  0.20342947377E+03  0.47000000000E+01 0. -1.
         -5    1    4    4    0  502 -0.46192861401E+02 -0.79999071333E+02 -0.23249716053E+03  0.25022120516E+03  0.47000000000E+01 0. -1.
          5    1    5    5  503    0  0.31966635240E+02  0.68086853456E+02 -0.56566416941E+03  0.57066253420E+03  0.47000000000E+01 0.  1.
         -5    1    5    5    0  503 -0.15141709435E+02 -0.10842640243E+02 -0.11845240894E+02  0.22566212440E+02  0.47000000000E+01 0.  1.
<mgrwt>
<rscale>  0 0.27556887E+03</rscale>
<asrwt>0</asrwt>
<pdfrwt beam="1">  1        2 0.15821844E+00 0.27556887E+03</pdfrwt>
<pdfrwt beam="2">  1       -2 0.28399880E-02 0.27556887E+03</pdfrwt>
<totfact> 0.11568609E+04</totfact>
</mgrwt>
</event>
<event>
 9    1  0.2074770E-002  0.2787165E+03  0.7818608E-02  0.1096392E+00
         -2   -1    0    0    0  501 -0.00000000000E+00  0.00000000000E+00  0.54048113414E+03  0.54048113414E+03  0.00000000000E+00 0.  1.
          2   -1    0    0  501    0  0.00000000000E+00 -0.00000000000E+00 -0.35932276250E+02  0.35932276250E+02  0.00000000000E+00 0.  1.
         36    2    1    2    0    0 -0.35527136788E-14 -0.88817841970E-15  0.50454885789E+03  0.57641341039E+03  0.27871646826E+03 0.  0.
         25    2    3    3    0    0 -0.25762979811E+02 -0.27006564053E+01  0.13171947957E+03  0.18159423925E+03  0.12229236180E+03 0.  0.
         25    2    3    3    0    0  0.25762979811E+02  0.27006564053E+01  0.37282937832E+03  0.39481917115E+03  0.12731617293E+03 0.  0.
          5    1    4    4  502    0 -0.57680571949E+02 -0.20995618114E+02  0.21349523468E+02  0.65159469861E+02  0.47000000000E+01 0. -1.
         -5    1    4    4    0  502  0.31917592138E+02  0.18294961709E+02  0.11036995610E+03  0.11643476938E+03  0.47000000000E+01 0. -1.
          5    1    5    5  503    0  0.38617108327E+02  0.30234208539E+01  0.24186281093E+02  0.45907388538E+02  0.47000000000E+01 0.  1.
         -5    1    5    5    0  503 -0.12854128517E+02 -0.32276444865E+00  0.34864309723E+03  0.34891178261E+03  0.47000000000E+01 0.  1.
<mgrwt>
<rscale>  0 0.27871647E+03</rscale>
<asrwt>0</asrwt>
<pdfrwt beam="1">  1        2 0.55280429E-02 0.27871647E+03</pdfrwt>
<pdfrwt beam="2">  1       -2 0.83150938E-01 0.27871647E+03</pdfrwt>
<totfact> 0.17966116E+03</totfact>
</mgrwt>
</event>
<event>
 9    1  0.2074770E-002  0.2745374E+03  0.7818608E-02  0.1098710E+00
         -1   -1    0    0    0  501 -0.00000000000E+00  0.00000000000E+00  0.65939653971E+02  0.65939653971E+02  0.00000000000E+00 0.  1.
          1   -1    0    0  501    0  0.00000000000E+00 -0.00000000000E+00 -0.28575659525E+03  0.28575659525E+03  0.00000000000E+00 0.  1.
         36    2    1    2    0    0  0.00000000000E+00  0.00000000000E+00 -0.21981694127E+03  0.35169624922E+03  0.27453736365E+03 0.  0.
         25    2    3    3    0    0  0.61304765785E+01  0.55155571858E+02 -0.11742232609E+03  0.18419109428E+03  0.13060871601E+03 0.  0.
         25    2    3    3    0    0 -0.61304765785E+01 -0.55155571858E+02 -0.10239461519E+03  0.16750515494E+03  0.12038936773E+03 0.  0.
          5    1    4    4  502    0  0.49400717632E+02  0.40264253266E+02 -0.12224180950E+03  0.13793763440E+03  0.47000000000E+01 0. -1.
         -5    1    4    4    0  502 -0.43270241054E+02  0.14891318593E+02  0.48194834134E+01  0.46253459878E+02  0.47000000000E+01 0. -1.
          5    1    5    5  503    0  0.52527859814E+02 -0.45164678294E+02 -0.35954262302E+02  0.78190940650E+02  0.47000000000E+01 0. -1.
         -5    1    5    5    0  503 -0.58658336393E+02 -0.99908935647E+01 -0.66440352885E+02  0.89314214289E+02  0.47000000000E+01 0. -1.
<mgrwt>
<rscale>  0 0.27453736E+03</rscale>
<asrwt>0</asrwt>
<pdfrwt beam="1">  1        1 0.43962553E-01 0.27453736E+03</pdfrwt>
<pdfrwt beam="2">  1       -1 0.10144562E-01 0.27453736E+03</pdfrwt>
<totfact> 0.55178933E+03</totfact>
</mgrwt>
</event>
<event>
 9    1  0.2074770E-002  0.2755961E+03  0.7818608E-02  0.1098119E+00
          2   -1    0    0  501    0  0.00000000000E+00  0.00000000000E+00  0.28923767809E+03  0.28923767809E+03  0.00000000000E+00 0.  1.
         -2   -1    0    0    0  501 -0.00000000000E+00 -0.00000000000E+00 -0.65649469661E+02  0.65649469661E+02  0.00000000000E+00 0.  1.
         36    2    1    2    0    0 -0.71054273576E-14  0.00000000000E+00  0.22358820843E+03  0.35488714775E+03  0.27559608250E+03 0.  0.
         25    2    3    3    0    0  0.11813512679E+02 -0.17401623700E+02  0.16823704501E+03  0.21148766438E+03  0.12641579521E+03 0.  0.
         25    2    3    3    0    0 -0.11813512679E+02  0.17401623700E+02  0.55351163420E+02  0.14339948338E+03  0.13060354112E+03 0.  0.
          5    1    4    4  502    0 -0.48471239812E+02 -0.25523674221E+02  0.12544763843E+03  0.13696758384E+03  0.47000000000E+01 0. -1.
         -5    1    4    4    0  502  0.60284752491E+02  0.81220505214E+01  0.42789406580E+02  0.74520080535E+02  0.47000000000E+01 0. -1.
          5    1    5    5  503    0 -0.62434148174E+02 -0.14250298459E+02  0.37045555228E+01  0.64318796599E+02  0.47000000000E+01 0. -1.
         -5    1    5    5    0  503  0.50620635495E+02  0.31651922159E+02  0.51646607897E+02  0.79080686780E+02  0.47000000000E+01 0. -1.
<mgrwt>
<rscale>  0 0.27559608E+03</rscale>
<asrwt>0</asrwt>
<pdfrwt beam="1">  1        2 0.44498104E-01 0.27559608E+03</pdfrwt>
<pdfrwt beam="2">  1       -2 0.10099919E-01 0.27559608E+03</pdfrwt>
<totfact> 0.73755004E+03</totfact>
</mgrwt>
</event>
<event>
 9    1  0.2074770E-002  0.2724667E+03  0.7818608E-02  0.1099876E+00
          1   -1    0    0  501    0  0.00000000000E+00  0.00000000000E+00  0.97465368952E+03  0.97465368952E+03  0.00000000000E+00 0.  1.
         -1   -1    0    0    0  501 -0.00000000000E+00 -0.00000000000E+00 -0.19042168851E+02  0.19042168851E+02  0.00000000000E+00 0.  1.
         36    2    1    2    0    0  0.35527136788E-14  0.17763568394E-14  0.95561152067E+03  0.99369585837E+03  0.27246665944E+03 0.  0.
         25    2    3    3    0    0 -0.26589161722E+02 -0.10857795790E+02  0.46177956042E+03  0.48284535654E+03  0.13811010339E+03 0.  0.
         25    2    3    3    0    0  0.26589161722E+02  0.10857795790E+02  0.49383196025E+03  0.51085050183E+03  0.12756706083E+03 0.  0.
          5    1    4    4  502    0 -0.52828204035E+02 -0.56147588691E+02  0.36118453001E+03  0.36935041028E+03  0.47000000000E+01 0. -1.
         -5    1    4    4    0  502  0.26239042313E+02  0.45289792901E+02  0.10059503042E+03  0.11349494626E+03  0.47000000000E+01 0. -1.
          5    1    5    5  503    0 -0.12628882858E+02 -0.15606360691E+02  0.43371538909E+03  0.43420522326E+03  0.47000000000E+01 0. -1.
         -5    1    5    5    0  503  0.39218044580E+02  0.26464156481E+02  0.60116571155E+02  0.76645278565E+02  0.47000000000E+01 0. -1.
<mgrwt>
<rscale>  0 0.27246666E+03</rscale>
<asrwt>0</asrwt>
<pdfrwt beam="1">  1        1 0.14994668E+00 0.27246666E+03</pdfrwt>
<pdfrwt beam="2">  1       -1 0.29295652E-02 0.27246666E+03</pdfrwt>
<totfact> 0.65228051E+03</totfact>
</mgrwt>
</event>
<event>
 9    1  0.2074770E-002  0.2753457E+03  0.7818608E-02  0.1098259E+00
         -2   -1    0    0    0  501 -0.00000000000E+00  0.00000000000E+00  0.17207960757E+03  0.17207960757E+03  0.00000000000E+00 0.  1.
          2   -1    0    0  501    0  0.00000000000E+00 -0.00000000000E+00 -0.11014558025E+03  0.11014558025E+03  0.00000000000E+00 0.  1.
         36    2    1    2    0    0  0.00000000000E+00  0.00000000000E+00  0.61934027319E+02  0.28222518782E+03  0.27534566077E+03 0.  0.
         25    2    3    3    0    0 -0.33765189543E+02 -0.39033947330E+02  0.43607629924E+01  0.13423131368E+03  0.12383574706E+03 0.  0.
         25    2    3    3    0    0  0.33765189543E+02  0.39033947330E+02  0.57573264326E+02  0.14799387414E+03  0.12618941695E+03 0.  0.
          5    1    4    4  502    0 -0.60215739618E+02 -0.89570682403E+01 -0.40990970302E+02  0.73542600005E+02  0.47000000000E+01 0.  1.
         -5    1    4    4    0  502  0.26450550075E+02 -0.30076879090E+02  0.45351733294E+02  0.60688713678E+02  0.47000000000E+01 0.  1.
          5    1    5    5  503    0  0.69654881222E+02 -0.14540735734E+02  0.35618264133E+02  0.79711895057E+02  0.47000000000E+01 0.  1.
         -5    1    5    5    0  503 -0.35889691679E+02  0.53574683064E+02  0.21955000193E+02  0.68281979085E+02  0.47000000000E+01 0.  1.
<mgrwt>
<rscale>  0 0.27534566E+03</rscale>
<asrwt>0</asrwt>
<pdfrwt beam="1">  1        2 0.16945474E-01 0.27534566E+03</pdfrwt>
<pdfrwt beam="2">  1       -2 0.26473786E-01 0.27534566E+03</pdfrwt>
<totfact> 0.42993143E+03</totfact>
</mgrwt>
</event>
<event>
 9    1  0.2074770E-002  0.2749849E+03  0.7818608E-02  0.1098460E+00
         -2   -1    0    0    0  501 -0.00000000000E+00  0.00000000000E+00  0.10544254970E+02  0.10544254970E+02  0.00000000000E+00 0.  1.
          2   -1    0    0  501    0  0.00000000000E+00 -0.00000000000E+00 -0.17928408717E+04  0.17928408717E+04  0.00000000000E+00 0.  1.
         36    2    1    2    0    0  0.14210854715E-13  0.35527136788E-14 -0.17822966167E+04  0.18033851266E+04  0.27498488156E+03 0.  0.
         25    2    3    3    0    0  0.47654180007E+02  0.57362454165E+01 -0.70864330613E+03  0.72141206100E+03  0.12631785717E+03 0.  0.
         25    2    3    3    0    0 -0.47654180007E+02 -0.57362454165E+01 -0.10736533106E+04  0.10819730656E+04  0.12502183051E+03 0.  0.
          5    1    4    4  502    0 -0.42253229662E+02  0.72499164909E+01 -0.17569586434E+03  0.18091164543E+03  0.47000000000E+01 0. -1.
         -5    1    4    4    0  502  0.89907409669E+02 -0.15136710744E+01 -0.53294744180E+03  0.54050041557E+03  0.47000000000E+01 0. -1.
          5    1    5    5  503    0  0.59099102858E+01 -0.36697678852E+02 -0.10773294736E+03  0.11406193326E+03  0.47000000000E+01 0.  1.
         -5    1    5    5    0  503 -0.53564090293E+02  0.30961433435E+02 -0.96592036320E+03  0.96791113237E+03  0.47000000000E+01 0.  1.
<mgrwt>
<rscale>  0 0.27498488E+03</rscale>
<asrwt>0</asrwt>
<pdfrwt beam="1">  1        2 0.27582160E+00 0.27498488E+03</pdfrwt>
<pdfrwt beam="2">  1       -2 0.16221935E-02 0.27498488E+03</pdfrwt>
<totfact> 0.10041265E+04</totfact>
</mgrwt>
</event>
<event>
 9    1  0.2074770E-002  0.2742408E+03  0.7818608E-02  0.1098877E+00
          2   -1    0    0  501    0  0.00000000000E+00  0.00000000000E+00  0.80123285728E+02  0.80123285728E+02  0.00000000000E+00 0.  1.
         -2   -1    0    0    0  501 -0.00000000000E+00 -0.00000000000E+00 -0.23466339112E+03  0.23466339112E+03  0.00000000000E+00 0.  1.
         36    2    1    2    0    0  0.00000000000E+00 -0.35527136788E-14 -0.15454010539E+03  0.31478667685E+03  0.27424078425E+03 0.  0.
         25    2    3    3    0    0 -0.43805517219E+02 -0.12034398519E+02 -0.11629416988E+03  0.17828711968E+03  0.12727220046E+03 0.  0.
         25    2    3    3    0    0  0.43805517219E+02  0.12034398519E+02 -0.38245935514E+02  0.13649955717E+03  0.12290495286E+03 0.  0.
          5    1    4    4  502    0 -0.10038451353E+02 -0.46971343250E+02 -0.11999050069E+03  0.12933247020E+03  0.47000000000E+01 0.  1.
         -5    1    4    4    0  502 -0.33767065866E+02  0.34936944731E+02  0.36963308094E+01  0.48954649481E+02  0.47000000000E+01 0.  1.
          5    1    5    5  503    0  0.31063827340E+02  0.43172882777E+02 -0.71316338346E+02  0.89089669948E+02  0.47000000000E+01 0. -1.
         -5    1    5    5    0  503  0.12741689879E+02 -0.31138484258E+02  0.33070402833E+02  0.47409887222E+02  0.47000000000E+01 0. -1.
<mgrwt>
<rscale>  0 0.27424078E+03</rscale>
<asrwt>0</asrwt>
<pdfrwt beam="1">  1        2 0.12326659E-01 0.27424078E+03</pdfrwt>
<pdfrwt beam="2">  1       -2 0.36102060E-01 0.27424078E+03</pdfrwt>
<totfact> 0.35640527E+03</totfact>
</mgrwt>
</event>
<event>
 9    1  0.2074770E-002  0.2744005E+03  0.7818608E-02  0.1098787E+00
         -1   -1    0    0    0  501 -0.00000000000E+00  0.00000000000E+00  0.45322659168E+02  0.45322659168E+02  0.00000000000E+00 0.  1.
          1   -1    0    0  501    0  0.00000000000E+00 -0.00000000000E+00 -0.41533105154E+03  0.41533105154E+03  0.00000000000E+00 0.  1.
         36    2    1    2    0    0 -0.71054273576E-14  0.00000000000E+00 -0.37000839237E+03  0.46065371071E+03  0.27440049337E+03 0.  0.
         25    2    3    3    0    0  0.50114776784E+02 -0.68382253371E+02 -0.26479885829E+03  0.30114726345E+03  0.11568757715E+03 0.  0.
         25    2    3    3    0    0 -0.50114776784E+02  0.68382253371E+02 -0.10520953409E+03  0.15950644726E+03  0.84768138030E+02 0.  0.
          5    1    4    4  502    0  0.28300353438E+02 -0.22191809844E+02 -0.53335860815E+01  0.36659563136E+02  0.47000000000E+01 0.  1.
         -5    1    4    4    0  502  0.21814423346E+02 -0.46190443526E+02 -0.25946527220E+03  0.26448770032E+03  0.47000000000E+01 0.  1.
          5    1    5    5  503    0 -0.68579776816E+02  0.65540114359E+02 -0.65508512007E+02  0.11537828012E+03  0.47000000000E+01 0. -1.
         -5    1    5    5    0  503  0.18465000033E+02  0.28421390118E+01 -0.39701022082E+02  0.44128167135E+02  0.47000000000E+01 0. -1.
<mgrwt>
<rscale>  0 0.27440049E+03</rscale>
<asrwt>0</asrwt>
<pdfrwt beam="1">  1        1 0.63897086E-01 0.27440049E+03</pdfrwt>
<pdfrwt beam="2">  1       -1 0.69727167E-02 0.27440049E+03</pdfrwt>
<totfact> 0.60977924E+03</totfact>
</mgrwt>
</event>
<event>
 9    1  0.2074770E-002  0.2742505E+03  0.7818608E-02  0.1098871E+00
          1   -1    0    0  501    0  0.00000000000E+00  0.00000000000E+00  0.23916947587E+03  0.23916947587E+03  0.00000000000E+00 0. -1.
         -1   -1    0    0    0  501 -0.00000000000E+00 -0.00000000000E+00 -0.78619297792E+02  0.78619297792E+02  0.00000000000E+00 0. -1.
         36    2    1    2    0    0 -0.71054273576E-14  0.71054273576E-14  0.16055017808E+03  0.31778877367E+03  0.27425051501E+03 0.  0.
         25    2    3    3    0    0  0.30050428426E+02  0.38162786661E+02  0.73012986652E+02  0.15618004453E+03  0.12923576732E+03 0.  0.
         25    2    3    3    0    0 -0.30050428426E+02 -0.38162786661E+02  0.87537191430E+02  0.16160872914E+03  0.12686683931E+03 0.  0.
          5    1    4    4  502    0 -0.36107585329E+02 -0.22993620369E+02  0.43618214972E+02  0.61295211667E+02  0.47000000000E+01 0. -1.
         -5    1    4    4    0  502  0.66158013755E+02  0.61156407030E+02  0.29394771679E+02  0.94884832860E+02  0.47000000000E+01 0. -1.
          5    1    5    5  503    0 -0.52018541165E+02 -0.61564955261E+02  0.14957949204E+02  0.82109698486E+02  0.47000000000E+01 0. -1.
         -5    1    5    5    0  503  0.21968112739E+02  0.23402168600E+02  0.72579242227E+02  0.79499030652E+02  0.47000000000E+01 0. -1.
<mgrwt>
<rscale>  0 0.27425052E+03</rscale>
<asrwt>0</asrwt>
<pdfrwt beam="1">  1        1 0.36795304E-01 0.27425052E+03</pdfrwt>
<pdfrwt beam="2">  1       -1 0.12095277E-01 0.27425052E+03</pdfrwt>
<totfact> 0.52483427E+03</totfact>
</mgrwt>
</event>
<event>
 9    1  0.2074770E-002  0.2750404E+03  0.7818608E-02  0.1098429E+00
          1   -1    0    0  501    0  0.00000000000E+00  0.00000000000E+00  0.65476669243E+03  0.65476669243E+03  0.00000000000E+00 0.  1.
         -1   -1    0    0    0  501 -0.00000000000E+00 -0.00000000000E+00 -0.28883282825E+02  0.28883282825E+02  0.00000000000E+00 0.  1.
         36    2    1    2    0    0  0.14210854715E-13  0.00000000000E+00  0.62588340960E+03  0.68364997525E+03  0.27504044475E+03 0.  0.
         25    2    3    3    0    0 -0.44499272310E+02  0.36680995780E+02  0.25829729565E+03  0.29257878744E+03  0.12473641502E+03 0.  0.
         25    2    3    3    0    0  0.44499272310E+02 -0.36680995780E+02  0.36758611395E+03  0.39107118781E+03  0.12038040571E+03 0.  0.
          5    1    4    4  502    0 -0.34021561678E+02  0.82924905681E+02  0.17096927868E+03  0.19309736118E+03  0.47000000000E+01 0.  1.
         -5    1    4    4    0  502 -0.10477710633E+02 -0.46243909901E+02  0.87328016969E+02  0.99481426260E+02  0.47000000000E+01 0.  1.
          5    1    5    5  503    0 -0.40528483308E+02 -0.93547842708E+00  0.10061454097E+03  0.10857628163E+03  0.47000000000E+01 0. -1.
         -5    1    5    5    0  503  0.85027755618E+02 -0.35745517353E+02  0.26697157298E+03  0.28249490618E+03  0.47000000000E+01 0. -1.
<mgrwt>
<rscale>  0 0.27504044E+03</rscale>
<asrwt>0</asrwt>
<pdfrwt beam="1">  1        1 0.10073333E+00 0.27504044E+03</pdfrwt>
<pdfrwt beam="2">  1       -1 0.44435825E-02 0.27504044E+03</pdfrwt>
<totfact> 0.65076219E+03</totfact>
</mgrwt>
</event>
<event>
 9    1  0.2074770E-002  0.2744440E+03  0.7818608E-02  0.1098763E+00
         -1   -1    0    0    0  501 -0.00000000000E+00  0.00000000000E+00  0.10028844546E+03  0.10028844546E+03  0.00000000000E+00 0.  1.
          1   -1    0    0  501    0  0.00000000000E+00 -0.00000000000E+00 -0.18775712919E+03  0.18775712919E+03  0.00000000000E+00 0.  1.
         36    2    1    2    0    0  0.00000000000E+00 -0.71054273576E-14 -0.87468683721E+02  0.28804557465E+03  0.27444395137E+03 0.  0.
         25    2    3    3    0    0  0.18325566066E+02  0.11513185245E+02  0.33196821545E+00  0.13053654558E+03  0.12872956041E+03 0.  0.
         25    2    3    3    0    0 -0.18325566066E+02 -0.11513185245E+02 -0.87800651937E+02  0.15750902907E+03  0.12896418088E+03 0.  0.
          5    1    4    4  502    0  0.65932170088E+01  0.70109253857E+02 -0.87774882144E+00  0.70580722792E+02  0.47000000000E+01 0. -1.
         -5    1    4    4    0  502  0.11732349057E+02 -0.58596068611E+02  0.12097170369E+01  0.59955822790E+02  0.47000000000E+01 0. -1.
          5    1    5    5  503    0  0.22714041112E+02 -0.46887373524E+02  0.21952498511E+01  0.52357068114E+02  0.47000000000E+01 0.  1.
         -5    1    5    5    0  503 -0.41039607178E+02  0.35374188279E+02 -0.89995901788E+02  0.10515196095E+03  0.47000000000E+01 0.  1.
<mgrwt>
<rscale>  0 0.27444395E+03</rscale>
<asrwt>0</asrwt>
<pdfrwt beam="1">  1        1 0.28885712E-01 0.27444395E+03</pdfrwt>
<pdfrwt beam="2">  1       -1 0.15428992E-01 0.27444395E+03</pdfrwt>
<totfact> 0.48498689E+03</totfact>
</mgrwt>
</event>
<event>
 9    1  0.2074770E-002  0.2753562E+03  0.7818608E-02  0.1098253E+00
         -1   -1    0    0    0  501 -0.00000000000E+00  0.00000000000E+00  0.39185192615E+03  0.39185192615E+03  0.00000000000E+00 0.  1.
          1   -1    0    0  501    0  0.00000000000E+00 -0.00000000000E+00 -0.48373517545E+02  0.48373517545E+02  0.00000000000E+00 0.  1.
         36    2    1    2    0    0  0.17763568394E-14  0.88817841970E-15  0.34347840861E+03  0.44022544369E+03  0.27535617679E+03 0.  0.
         25    2    3    3    0    0  0.11188762143E+02  0.24568629969E+01  0.84504401498E+02  0.15183260940E+03  0.12562214307E+03 0.  0.
         25    2    3    3    0    0 -0.11188762143E+02 -0.24568629969E+01  0.25897400711E+03  0.28839283430E+03  0.12637905658E+03 0.  0.
          5    1    4    4  502    0 -0.41351529991E+02  0.31966156082E+02  0.73633093121E+02  0.90419613856E+02  0.47000000000E+01 0.  1.
         -5    1    4    4    0  502  0.52540292134E+02 -0.29509293085E+02  0.10871308376E+02  0.61412995544E+02  0.47000000000E+01 0.  1.
          5    1    5    5  503    0 -0.26762794163E+02 -0.80295362680E+01  0.26764082387E+03  0.26913643604E+03  0.47000000000E+01 0. -1.
         -5    1    5    5    0  503  0.15574032020E+02  0.55726732712E+01 -0.86668167641E+01  0.19256398250E+02  0.47000000000E+01 0. -1.
<mgrwt>
<rscale>  0 0.27535618E+03</rscale>
<asrwt>0</asrwt>
<pdfrwt beam="1">  1        1 0.74420799E-02 0.27535618E+03</pdfrwt>
<pdfrwt beam="2">  1       -1 0.60284909E-01 0.27535618E+03</pdfrwt>
<totfact> 0.27566126E+03</totfact>
</mgrwt>
</event>
<event>
 9    1  0.2074770E-002  0.2763482E+03  0.7818608E-02  0.1097700E+00
         -1   -1    0    0    0  501 -0.00000000000E+00  0.00000000000E+00  0.22322778957E+03  0.22322778957E+03  0.00000000000E+00 0. -1.
          1   -1    0    0  501    0  0.00000000000E+00 -0.00000000000E+00 -0.85527326309E+02  0.85527326309E+02  0.00000000000E+00 0. -1.
         36    2    1    2    0    0 -0.71054273576E-14  0.00000000000E+00  0.13770046327E+03  0.30875511588E+03  0.27634815722E+03 0.  0.
         25    2    3    3    0    0 -0.34406117960E+02  0.50882756719E+02  0.77328726232E+02  0.15816662446E+03  0.12354802025E+03 0.  0.
         25    2    3    3    0    0  0.34406117960E+02 -0.50882756719E+02  0.60371737034E+02  0.15058849142E+03  0.12352858467E+03 0.  0.
          5    1    4    4  502    0 -0.69455415294E+02 -0.11934809638E+01  0.18576024839E+02  0.72059959820E+02  0.47000000000E+01 0.  1.
         -5    1    4    4    0  502  0.35049297334E+02  0.52076237683E+02  0.58752701393E+02  0.86106664642E+02  0.47000000000E+01 0.  1.
          5    1    5    5  503    0  0.45438739509E+02  0.16709081991E+01  0.80888669300E+02  0.92911451413E+02  0.47000000000E+01 0.  1.
         -5    1    5    5    0  503 -0.11032621550E+02 -0.52553664918E+02 -0.20516932266E+02  0.57677040009E+02  0.47000000000E+01 0.  1.
<mgrwt>
<rscale>  0 0.27634816E+03</rscale>
<asrwt>0</asrwt>
<pdfrwt beam="1">  1        1 0.13158050E-01 0.27634816E+03</pdfrwt>
<pdfrwt beam="2">  1       -1 0.34342737E-01 0.27634816E+03</pdfrwt>
<totfact> 0.35687731E+03</totfact>
</mgrwt>
</event>
<event>
 9    1  0.2074770E-002  0.2745145E+03  0.7818608E-02  0.1098723E+00
          1   -1    0    0  501    0  0.00000000000E+00  0.00000000000E+00  0.47819434506E+02  0.47819434506E+02  0.00000000000E+00 0. -1.
         -1   -1    0    0    0  501 -0.00000000000E+00 -0.00000000000E+00 -0.39397270866E+03  0.39397270866E+03  0.00000000000E+00 0. -1.
         36    2    1    2    0    0  0.14210854715E-13 -0.17763568394E-14 -0.34615327416E+03  0.44179214317E+03  0.27451449608E+03 0.  0.
         25    2    3    3    0    0 -0.64422161521E+02  0.45491344409E+01 -0.13168410368E+03  0.18673926450E+03  0.11558520763E+03 0.  0.
         25    2    3    3    0    0  0.64422161521E+02 -0.45491344409E+01 -0.21446917048E+03  0.25505287867E+03  0.12200014883E+03 0.  0.
          5    1    4    4  502    0 -0.42537227489E+01  0.41952416270E+02 -0.66428882116E+01  0.42945516086E+02  0.47000000000E+01 0.  1.
         -5    1    4    4    0  502 -0.60168438772E+02 -0.37403281829E+02 -0.12504121547E+03  0.14379374841E+03  0.47000000000E+01 0.  1.
          5    1    5    5  503    0  0.92289720562E+02  0.15098318113E+02 -0.10689085868E+03  0.14210241870E+03  0.47000000000E+01 0. -1.
         -5    1    5    5    0  503 -0.27867559041E+02 -0.19647452554E+02 -0.10757831180E+03  0.11295045998E+03  0.47000000000E+01 0. -1.
<mgrwt>
<rscale>  0 0.27451450E+03</rscale>
<asrwt>0</asrwt>
<pdfrwt beam="1">  1        1 0.73568359E-02 0.27451450E+03</pdfrwt>
<pdfrwt beam="2">  1       -1 0.60611188E-01 0.27451450E+03</pdfrwt>
<totfact> 0.27710920E+03</totfact>
</mgrwt>
</event>
<event>
 9    1  0.2074770E-002  0.2659823E+03  0.7818608E-02  0.1103601E+00
         -2   -1    0    0    0  501 -0.00000000000E+00  0.00000000000E+00  0.23305743417E+02  0.23305743417E+02  0.00000000000E+00 0.  1.
          2   -1    0    0  501    0  0.00000000000E+00 -0.00000000000E+00 -0.75889620398E+03  0.75889620398E+03  0.00000000000E+00 0.  1.
         36    2    1    2    0    0  0.71054273576E-14 -0.71054273576E-14 -0.73559046057E+03  0.78220194740E+03  0.26598225663E+03 0.  0.
         25    2    3    3    0    0  0.97364672027E+01 -0.33283014720E+02 -0.45179314998E+03  0.47037274216E+03  0.12621770213E+03 0.  0.
         25    2    3    3    0    0 -0.97364672027E+01  0.33283014720E+02 -0.28379731059E+03  0.31182920524E+03  0.12447482431E+03 0.  0.
          5    1    4    4  502    0 -0.22374583141E+02  0.21694746002E+02 -0.29137954034E+02  0.42923121276E+02  0.47000000000E+01 0.  1.
         -5    1    4    4    0  502  0.32111050344E+02 -0.54977760721E+02 -0.42265519595E+03  0.42744962088E+03  0.47000000000E+01 0.  1.
          5    1    5    5  503    0  0.56282108061E+02  0.79817101376E+01 -0.14897260405E+03  0.15951899618E+03  0.47000000000E+01 0.  1.
         -5    1    5    5    0  503 -0.66018575263E+02  0.25301304582E+02 -0.13482470653E+03  0.15231020906E+03  0.47000000000E+01 0.  1.
<mgrwt>
<rscale>  0 0.26598226E+03</rscale>
<asrwt>0</asrwt>
<pdfrwt beam="1">  1        2 0.11675324E+00 0.26598226E+03</pdfrwt>
<pdfrwt beam="2">  1       -2 0.35854996E-02 0.26598226E+03</pdfrwt>
<totfact> 0.12230868E+04</totfact>
</mgrwt>
</event>
<event>
 9    1  0.2074770E-002  0.2753063E+03  0.7818608E-02  0.1098281E+00
          2   -1    0    0  501    0  0.00000000000E+00  0.00000000000E+00  0.77228719494E+03  0.77228719494E+03  0.00000000000E+00 0.  1.
         -2   -1    0    0    0  501 -0.00000000000E+00 -0.00000000000E+00 -0.24535411884E+02  0.24535411884E+02  0.00000000000E+00 0.  1.
         36    2    1    2    0    0  0.00000000000E+00  0.14210854715E-13  0.74775178306E+03  0.79682260683E+03  0.27530626161E+03 0.  0.
         25    2    3    3    0    0 -0.43497492444E+02  0.42330393579E+02  0.32027404704E+03  0.34989803737E+03  0.12715847309E+03 0.  0.
         25    2    3    3    0    0  0.43497492444E+02 -0.42330393579E+02  0.42747773601E+03  0.44692456945E+03  0.11541430554E+03 0.  0.
          5    1    4    4  502    0 -0.79144568014E+02  0.29054425733E+02  0.28692603290E+03  0.29909306354E+03  0.47000000000E+01 0. -1.
         -5    1    4    4    0  502  0.35647075570E+02  0.13275967846E+02  0.33348014142E+02  0.50804973833E+02  0.47000000000E+01 0. -1.
          5    1    5    5  503    0  0.41160008628E+02 -0.81076273134E+02  0.28594093012E+03  0.30008634406E+03  0.47000000000E+01 0.  1.
         -5    1    5    5    0  503  0.23374838163E+01  0.38745879555E+02  0.14153680589E+03  0.14683822539E+03  0.47000000000E+01 0.  1.
<mgrwt>
<rscale>  0 0.27530626E+03</rscale>
<asrwt>0</asrwt>
<pdfrwt beam="1">  1        2 0.11881340E+00 0.27530626E+03</pdfrwt>
<pdfrwt beam="2">  1       -2 0.37746793E-02 0.27530626E+03</pdfrwt>
<totfact> 0.11092822E+04</totfact>
</mgrwt>
</event>
<event>
 9    1  0.2074770E-002  0.2748346E+03  0.7818608E-02  0.1098544E+00
         -1   -1    0    0    0  501 -0.00000000000E+00  0.00000000000E+00  0.42268857481E+02  0.42268857481E+02  0.00000000000E+00 0.  1.
          1   -1    0    0  501    0  0.00000000000E+00 -0.00000000000E+00 -0.44674775442E+03  0.44674775442E+03  0.00000000000E+00 0.  1.
         36    2    1    2    0    0  0.71054273576E-14  0.00000000000E+00 -0.40447889694E+03  0.48901661190E+03  0.27483462054E+03 0.  0.
         25    2    3    3    0    0 -0.55465380282E+02  0.87449728175E+01 -0.23801381030E+03  0.27409768594E+03  0.12379856457E+03 0.  0.
         25    2    3    3    0    0  0.55465380282E+02 -0.87449728175E+01 -0.16646508664E+03  0.21491892595E+03  0.12380079444E+03 0.  0.
          5    1    4    4  502    0  0.39599641402E+02 -0.22980344208E+01 -0.76472455039E+02  0.86275946480E+02  0.47000000000E+01 0.  1.
         -5    1    4    4    0  502 -0.95065021684E+02  0.11043007238E+02 -0.16154135526E+03  0.18782173946E+03  0.47000000000E+01 0.  1.
          5    1    5    5  503    0  0.82469796070E+02 -0.40669227962E+02 -0.97278599679E+02  0.13394203717E+03  0.47000000000E+01 0.  1.
         -5    1    5    5    0  503 -0.27004415788E+02  0.31924255145E+02 -0.69186486961E+02  0.80976888780E+02  0.47000000000E+01 0.  1.
<mgrwt>
<rscale>  0 0.27483462E+03</rscale>
<asrwt>0</asrwt>
<pdfrwt beam="1">  1        1 0.68730424E-01 0.27483462E+03</pdfrwt>
<pdfrwt beam="2">  1       -1 0.65029012E-02 0.27483462E+03</pdfrwt>
<totfact> 0.61672830E+03</totfact>
</mgrwt>
</event>
<event>
 9    1  0.2074770E-002  0.2759642E+03  0.7818608E-02  0.1097914E+00
         -1   -1    0    0    0  501 -0.00000000000E+00  0.00000000000E+00  0.39493838847E+02  0.39493838847E+02  0.00000000000E+00 0.  1.
          1   -1    0    0  501    0  0.00000000000E+00 -0.00000000000E+00 -0.48207675380E+03  0.48207675380E+03  0.00000000000E+00 0.  1.
         36    2    1    2    0    0  0.00000000000E+00  0.35527136788E-14 -0.44258291495E+03  0.52157059264E+03  0.27596421236E+03 0.  0.
         25    2    3    3    0    0  0.18709973973E+01  0.21752746414E+02 -0.31429812095E+03  0.33785817769E+03  0.12201703484E+03 0.  0.
         25    2    3    3    0    0 -0.18709973973E+01 -0.21752746414E+02 -0.12828479399E+03  0.18371241495E+03  0.12967875859E+03 0.  0.
          5    1    4    4  502    0  0.27607320988E+02 -0.20216246177E+02 -0.26766412286E+03  0.26988337008E+03  0.47000000000E+01 0. -1.
         -5    1    4    4    0  502 -0.25736323591E+02  0.41968992591E+02 -0.46633998095E+02  0.67974807609E+02  0.47000000000E+01 0. -1.
          5    1    5    5  503    0  0.57303821969E+02  0.16776526702E+02 -0.69208229041E+02  0.91526219344E+02  0.47000000000E+01 0. -1.
         -5    1    5    5    0  503 -0.59174819366E+02 -0.38529273116E+02 -0.59076564954E+02  0.92186195608E+02  0.47000000000E+01 0. -1.
<mgrwt>
<rscale>  0 0.27596421E+03</rscale>
<asrwt>0</asrwt>
<pdfrwt beam="1">  1        1 0.74165655E-01 0.27596421E+03</pdfrwt>
<pdfrwt beam="2">  1       -1 0.60759751E-02 0.27596421E+03</pdfrwt>
<totfact> 0.61859039E+03</totfact>
</mgrwt>
</event>
<event>
 9    1  0.2074770E-002  0.2745733E+03  0.7818608E-02  0.1098690E+00
          2   -1    0    0  501    0  0.00000000000E+00  0.00000000000E+00  0.39388120539E+04  0.39388120539E+04  0.00000000000E+00 0. -1.
         -2   -1    0    0    0  501 -0.00000000000E+00 -0.00000000000E+00 -0.47851046632E+01  0.47851046632E+01  0.00000000000E+00 0. -1.
         36    2    1    2    0    0  0.00000000000E+00 -0.14210854715E-13  0.39340269492E+04  0.39435971585E+04  0.27457332665E+03 0.  0.
         25    2    3    3    0    0 -0.26609401055E+02 -0.60641539240E+02  0.13153588539E+04  0.13211934334E+04  0.10487000257E+03 0.  0.
         25    2    3    3    0    0  0.26609401055E+02  0.60641539240E+02  0.26186680953E+04  0.26224037251E+04  0.12326089271E+03 0.  0.
          5    1    4    4  502    0  0.35695569737E+02 -0.72953168789E+01  0.25173231861E+03  0.25439859587E+03  0.47000000000E+01 0. -1.
         -5    1    4    4    0  502 -0.62304970792E+02 -0.53346222361E+02  0.10636265353E+04  0.10667948375E+04  0.47000000000E+01 0. -1.
          5    1    5    5  503    0  0.67230714081E+02  0.70826578938E+02  0.18122317214E+04  0.18148670131E+04  0.47000000000E+01 0.  1.
         -5    1    5    5    0  503 -0.40621313025E+02 -0.10185039698E+02  0.80643637394E+03  0.80753671206E+03  0.47000000000E+01 0.  1.
<mgrwt>
<rscale>  0 0.27457333E+03</rscale>
<asrwt>0</asrwt>
<pdfrwt beam="1">  1        2 0.60596849E+00 0.27457333E+03</pdfrwt>
<pdfrwt beam="2">  1       -2 0.73617310E-03 0.27457333E+03</pdfrwt>
<totfact> 0.16548032E+03</totfact>
</mgrwt>
</event>
<event>
 9    1  0.2074770E-002  0.2746925E+03  0.7818608E-02  0.1098624E+00
          2   -1    0    0  501    0  0.00000000000E+00  0.00000000000E+00  0.27470061621E+03  0.27470061621E+03  0.00000000000E+00 0.  1.
         -2   -1    0    0    0  501 -0.00000000000E+00 -0.00000000000E+00 -0.68671088586E+02  0.68671088586E+02  0.00000000000E+00 0.  1.
         36    2    1    2    0    0  0.35527136788E-14  0.00000000000E+00  0.20602952763E+03  0.34337170480E+03  0.27469248516E+03 0.  0.
         25    2    3    3    0    0  0.13712101366E+02 -0.41441733298E+02  0.15329799717E+03  0.20420494456E+03  0.12764773584E+03 0.  0.
         25    2    3    3    0    0 -0.13712101366E+02  0.41441733298E+02  0.52731530459E+02  0.13916676024E+03  0.12116655425E+03 0.  0.
          5    1    4    4  502    0 -0.44842098699E+02 -0.41661784789E+02  0.31540231629E+02  0.69017348100E+02  0.47000000000E+01 0.  1.
         -5    1    4    4    0  502  0.58554200065E+02  0.22005149067E+00  0.12175776554E+03  0.13518759646E+03  0.47000000000E+01 0.  1.
          5    1    5    5  503    0 -0.11597211496E+01 -0.49502945927E+01  0.82269045077E+02  0.82559894305E+02  0.47000000000E+01 0. -1.
         -5    1    5    5    0  503 -0.12552380216E+02  0.46392027891E+02 -0.29537514618E+02  0.56606865933E+02  0.47000000000E+01 0. -1.
<mgrwt>
<rscale>  0 0.27469249E+03</rscale>
<asrwt>0</asrwt>
<pdfrwt beam="1">  1        2 0.42261633E-01 0.27469249E+03</pdfrwt>
<pdfrwt beam="2">  1       -2 0.10564783E-01 0.27469249E+03</pdfrwt>
<totfact> 0.72557586E+03</totfact>
</mgrwt>
</event>
<event>
 9    1  0.2074770E-002  0.2753090E+03  0.7818608E-02  0.1098279E+00
         -2   -1    0    0    0  501 -0.00000000000E+00  0.00000000000E+00  0.34930639618E+02  0.34930639618E+02  0.00000000000E+00 0. -1.
          2   -1    0    0  501    0  0.00000000000E+00 -0.00000000000E+00 -0.54246829415E+03  0.54246829415E+03  0.00000000000E+00 0. -1.
         36    2    1    2    0    0 -0.71054273576E-14 -0.71054273576E-14 -0.50753765453E+03  0.57739893377E+03  0.27530902264E+03 0.  0.
         25    2    3    3    0    0 -0.23381926682E+02 -0.47141072937E+02 -0.24210749625E+03  0.27884485636E+03  0.12794303000E+03 0.  0.
         25    2    3    3    0    0  0.23381926682E+02  0.47141072937E+02 -0.26543015828E+03  0.29855407740E+03  0.12614425455E+03 0.  0.
          5    1    4    4  502    0  0.29013647758E+02  0.29069387723E+02 -0.11001844576E+03  0.11752859000E+03  0.47000000000E+01 0.  1.
         -5    1    4    4    0  502 -0.52395574441E+02 -0.76210460660E+02 -0.13208905049E+03  0.16131626637E+03  0.47000000000E+01 0.  1.
          5    1    5    5  503    0  0.53128716339E+02  0.72255671084E+02 -0.22485440151E+03  0.24212627776E+03  0.47000000000E+01 0.  1.
         -5    1    5    5    0  503 -0.29746789657E+02 -0.25114598148E+02 -0.40575756764E+02  0.56427799638E+02  0.47000000000E+01 0.  1.
<mgrwt>
<rscale>  0 0.27530902E+03</rscale>
<asrwt>0</asrwt>
<pdfrwt beam="1">  1        2 0.83456665E-01 0.27530902E+03</pdfrwt>
<pdfrwt beam="2">  1       -2 0.53739443E-02 0.27530902E+03</pdfrwt>
<totfact> 0.98936366E+03</totfact>
</mgrwt>
</event>
<event>
 9    1  0.2074770E-002  0.2753602E+03  0.7818608E-02  0.1098250E+00
         -2   -1    0    0    0  501 -0.00000000000E+00  0.00000000000E+00  0.68637212363E+02  0.68637212363E+02  0.00000000000E+00 0.  1.
          2   -1    0    0  501    0  0.00000000000E+00 -0.00000000000E+00 -0.27617389206E+03  0.27617389206E+03  0.00000000000E+00 0.  1.
         36    2    1    2    0    0 -0.53290705182E-14 -0.14210854715E-13 -0.20753667970E+03  0.34481110442E+03  0.27536017198E+03 0.  0.
         25    2    3    3    0    0  0.99879028433E+01  0.62742540721E+02 -0.10524347067E+03  0.17188555910E+03  0.12013356189E+03 0.  0.
         25    2    3    3    0    0 -0.99879028433E+01 -0.62742540721E+02 -0.10229320903E+03  0.17292554532E+03  0.12410865800E+03 0.  0.
          5    1    4    4  502    0 -0.52304780230E+02  0.48216368016E+02 -0.62509271425E+02  0.94816175801E+02  0.47000000000E+01 0. -1.
         -5    1    4    4    0  502  0.62292683073E+02  0.14526172705E+02 -0.42734199240E+02  0.77069383302E+02  0.47000000000E+01 0. -1.
          5    1    5    5  503    0 -0.13768622794E+01 -0.93456439315E+02 -0.38009316754E+02  0.10100891030E+03  0.47000000000E+01 0. -1.
         -5    1    5    5    0  503 -0.86110405639E+01  0.30713898595E+02 -0.64283892278E+02  0.71916635022E+02  0.47000000000E+01 0. -1.
<mgrwt>
<rscale>  0 0.27536017E+03</rscale>
<asrwt>0</asrwt>
<pdfrwt beam="1">  1        2 0.42488291E-01 0.27536017E+03</pdfrwt>
<pdfrwt beam="2">  1       -2 0.10559571E-01 0.27536017E+03</pdfrwt>
<totfact> 0.72204695E+03</totfact>
</mgrwt>
</event>
<event>
 9    1  0.2074770E-002  0.2735216E+03  0.7818608E-02  0.1099281E+00
         -1   -1    0    0    0  501 -0.00000000000E+00  0.00000000000E+00  0.15290195977E+02  0.15290195977E+02  0.00000000000E+00 0.  1.
          1   -1    0    0  501    0  0.00000000000E+00 -0.00000000000E+00 -0.12232356346E+04  0.12232356346E+04  0.00000000000E+00 0.  1.
         36    2    1    2    0    0 -0.17763568394E-14  0.35527136788E-14 -0.12079454386E+04  0.12385258305E+04  0.27352157194E+03 0.  0.
         25    2    3    3    0    0  0.14353046085E+02  0.12737645266E+02 -0.82558368268E+03  0.83528213051E+03  0.12545741470E+03 0.  0.
         25    2    3    3    0    0 -0.14353046085E+02 -0.12737645266E+02 -0.38236175590E+03  0.40324370002E+03  0.12663613898E+03 0.  0.
          5    1    4    4  502    0  0.26093857577E+02  0.34848752021E+01 -0.32694264594E+02  0.42237882236E+02  0.47000000000E+01 0. -1.
         -5    1    4    4    0  502 -0.11740811491E+02  0.92527700642E+01 -0.79288941808E+03  0.79304424827E+03  0.47000000000E+01 0. -1.
          5    1    5    5  503    0 -0.61749248814E+02  0.25518548741E+02 -0.19720767315E+03  0.20827175134E+03  0.47000000000E+01 0. -1.
         -5    1    5    5    0  503  0.47396202728E+02 -0.38256194008E+02 -0.18515408275E+03  0.19497194868E+03  0.47000000000E+01 0. -1.
<mgrwt>
<rscale>  0 0.27352157E+03</rscale>
<asrwt>0</asrwt>
<pdfrwt beam="1">  1        1 0.18819013E+00 0.27352157E+03</pdfrwt>
<pdfrwt beam="2">  1       -1 0.23523375E-02 0.27352157E+03</pdfrwt>
<totfact> 0.59563345E+03</totfact>
</mgrwt>
</event>
<event>
 9    1  0.2074770E-002  0.2745856E+03  0.7818608E-02  0.1098683E+00
         -2   -1    0    0    0  501 -0.00000000000E+00  0.00000000000E+00  0.17634218042E+02  0.17634218042E+02  0.00000000000E+00 0.  1.
          2   -1    0    0  501    0  0.00000000000E+00 -0.00000000000E+00 -0.10689053354E+04  0.10689053354E+04  0.00000000000E+00 0.  1.
         36    2    1    2    0    0  0.00000000000E+00  0.00000000000E+00 -0.10512711174E+04  0.10865395535E+04  0.27458557683E+03 0.  0.
         25    2    3    3    0    0  0.49418843025E+02 -0.13940758642E+02 -0.43797426712E+03  0.45837693946E+03  0.12510552814E+03 0.  0.
         25    2    3    3    0    0 -0.49418843025E+02  0.13940758642E+02 -0.61329685027E+03  0.62816261401E+03  0.12577231928E+03 0.  0.
          5    1    4    4  502    0 -0.15838405695E+02 -0.41367930284E+01 -0.33840317363E+03  0.33883147149E+03  0.47000000000E+01 0. -1.
         -5    1    4    4    0  502  0.65257248720E+02 -0.98039656134E+01 -0.99571093487E+02  0.11954546796E+03  0.47000000000E+01 0. -1.
          5    1    5    5  503    0 -0.81327114965E+02  0.12490755822E+02 -0.55861013007E+03  0.56465696314E+03  0.47000000000E+01 0.  1.
         -5    1    5    5    0  503  0.31908271941E+02  0.14500028202E+01 -0.54686720200E+02  0.63505650872E+02  0.47000000000E+01 0.  1.
<mgrwt>
<rscale>  0 0.27458558E+03</rscale>
<asrwt>0</asrwt>
<pdfrwt beam="1">  1        2 0.16444703E+00 0.27458558E+03</pdfrwt>
<pdfrwt beam="2">  1       -2 0.27129557E-02 0.27458558E+03</pdfrwt>
<totfact> 0.11707512E+04</totfact>
</mgrwt>
</event>
<event>
 9    1  0.2074770E-002  0.2752943E+03  0.7818608E-02  0.1098287E+00
         -2   -1    0    0    0  501 -0.00000000000E+00  0.00000000000E+00  0.23268585185E+02  0.23268585185E+02  0.00000000000E+00 0. -1.
          2   -1    0    0  501    0  0.00000000000E+00 -0.00000000000E+00 -0.81426251108E+03  0.81426251108E+03  0.00000000000E+00 0. -1.
         36    2    1    2    0    0 -0.14210854715E-13 -0.71054273576E-14 -0.79099392589E+03  0.83753109626E+03  0.27529429055E+03 0.  0.
         25    2    3    3    0    0 -0.41372853321E+02 -0.39250113497E+02 -0.44635891462E+03  0.46661418847E+03  0.12345134999E+03 0.  0.
         25    2    3    3    0    0  0.41372853321E+02  0.39250113497E+02 -0.34463501127E+03  0.37091690779E+03  0.12471478298E+03 0.  0.
          5    1    4    4  502    0  0.14287540131E+02 -0.53734416463E+02 -0.92089999650E+02  0.10767627107E+03  0.47000000000E+01 0. -1.
         -5    1    4    4    0  502 -0.55660393451E+02  0.14484302967E+02 -0.35426891497E+03  0.35893791740E+03  0.47000000000E+01 0. -1.
          5    1    5    5  503    0 -0.12061316437E+02 -0.12211019279E+02 -0.24974340036E+03  0.25037659709E+03  0.47000000000E+01 0.  1.
         -5    1    5    5    0  503  0.53434169758E+02  0.51461132776E+02 -0.94891610909E+02  0.12054031071E+03  0.47000000000E+01 0.  1.
<mgrwt>
<rscale>  0 0.27529429E+03</rscale>
<asrwt>0</asrwt>
<pdfrwt beam="1">  1        2 0.12527115E+00 0.27529429E+03</pdfrwt>
<pdfrwt beam="2">  1       -2 0.35797824E-02 0.27529429E+03</pdfrwt>
<totfact> 0.11230391E+04</totfact>
</mgrwt>
</event>
<event>
 9    1  0.2074770E-002  0.2739679E+03  0.7818608E-02  0.1099030E+00
         -2   -1    0    0    0  501 -0.00000000000E+00  0.00000000000E+00  0.10199020468E+02  0.10199020468E+02  0.00000000000E+00 0.  1.
          2   -1    0    0  501    0  0.00000000000E+00 -0.00000000000E+00 -0.18398440606E+04  0.18398440606E+04  0.00000000000E+00 0.  1.
         36    2    1    2    0    0 -0.35527136788E-14 -0.71054273576E-14 -0.18296450402E+04  0.18500430811E+04  0.27396793413E+03 0.  0.
         25    2    3    3    0    0  0.14624437224E+02  0.60462533957E+02 -0.96662240956E+03  0.97601223215E+03  0.11988078443E+03 0.  0.
         25    2    3    3    0    0 -0.14624437224E+02 -0.60462533957E+02 -0.86302263061E+03  0.87403084895E+03  0.12350008825E+03 0.  0.
          5    1    4    4  502    0  0.20478356178E+02  0.73227269153E+02 -0.95252415214E+03  0.95556577295E+03  0.47000000000E+01 0.  1.
         -5    1    4    4    0  502 -0.58539189539E+01 -0.12764735196E+02 -0.14098257414E+02  0.20446459201E+02  0.47000000000E+01 0.  1.
          5    1    5    5  503    0  0.18874703444E+02  0.26027531137E+02 -0.42663749124E+03  0.42787302525E+03  0.47000000000E+01 0. -1.
         -5    1    5    5    0  503 -0.33499140668E+02 -0.86490065093E+02 -0.43638513937E+03  0.44615782370E+03  0.47000000000E+01 0. -1.
<mgrwt>
<rscale>  0 0.27396793E+03</rscale>
<asrwt>0</asrwt>
<pdfrwt beam="1">  1        2 0.28305292E+00 0.27396793E+03</pdfrwt>
<pdfrwt beam="2">  1       -2 0.15690801E-02 0.27396793E+03</pdfrwt>
<totfact> 0.99601031E+03</totfact>
</mgrwt>
</event>
<event>
 9    1  0.2074770E-002  0.2743528E+03  0.7818608E-02  0.1098814E+00
          3   -1    0    0  501    0  0.00000000000E+00  0.00000000000E+00  0.41939650342E+02  0.41939650342E+02  0.00000000000E+00 0.  1.
         -3   -1    0    0    0  501 -0.00000000000E+00 -0.00000000000E+00 -0.44867732599E+03  0.44867732599E+03  0.00000000000E+00 0.  1.
         36    2    1    2    0    0  0.00000000000E+00  0.00000000000E+00 -0.40673767565E+03  0.49061697634E+03  0.27435283974E+03 0.  0.
         25    2    3    3    0    0  0.19745311686E+02  0.31968208124E+02 -0.28930747031E+03  0.31635660954E+03  0.12235541818E+03 0.  0.
         25    2    3    3    0    0 -0.19745311686E+02 -0.31968208124E+02 -0.11743020534E+03  0.17426036680E+03  0.12314616781E+03 0.  0.
          5    1    4    4  502    0 -0.55883424958E+01  0.48304816605E+02 -0.28032943158E+03  0.28455450284E+03  0.47000000000E+01 0.  1.
         -5    1    4    4    0  502  0.25333654182E+02 -0.16336608481E+02 -0.89780387309E+01  0.31802106696E+02  0.47000000000E+01 0.  1.
          5    1    5    5  503    0  0.29469699378E+02  0.33546183204E+02 -0.55806947192E+02  0.71626216875E+02  0.47000000000E+01 0. -1.
         -5    1    5    5    0  503 -0.49215011064E+02 -0.65514391328E+02 -0.61623258151E+02  0.10263414992E+03  0.47000000000E+01 0. -1.
<mgrwt>
<rscale>  0 0.27435284E+03</rscale>
<asrwt>0</asrwt>
<pdfrwt beam="1">  1        3 0.64522539E-02 0.27435284E+03</pdfrwt>
<pdfrwt beam="2">  1       -3 0.69027281E-01 0.27435284E+03</pdfrwt>
<totfact> 0.78834105E+02</totfact>
</mgrwt>
</event>
<event>
 9    1  0.2074770E-002  0.2749853E+03  0.7818608E-02  0.1098460E+00
         -2   -1    0    0    0  501 -0.00000000000E+00  0.00000000000E+00  0.67341496397E+03  0.67341496397E+03  0.00000000000E+00 0.  1.
          2   -1    0    0  501    0  0.00000000000E+00 -0.00000000000E+00 -0.28072181697E+02  0.28072181697E+02  0.00000000000E+00 0.  1.
         36    2    1    2    0    0 -0.35527136788E-14  0.00000000000E+00  0.64534278227E+03  0.70148714567E+03  0.27498528853E+03 0.  0.
         25    2    3    3    0    0 -0.22247092267E+02 -0.39597261052E+02  0.38360990385E+03  0.40688044735E+03  0.12779774609E+03 0.  0.
         25    2    3    3    0    0  0.22247092267E+02  0.39597261052E+02  0.26173287842E+03  0.29460669832E+03  0.12738183092E+03 0.  0.
          5    1    4    4  502    0 -0.16109911088E+01 -0.20677429413E+02 -0.93749186425E+00  0.21286621866E+02  0.47000000000E+01 0.  1.
         -5    1    4    4    0  502 -0.20636101159E+02 -0.18919831639E+02  0.38454739571E+03  0.38559382548E+03  0.47000000000E+01 0.  1.
          5    1    5    5  503    0  0.57822604200E+02  0.67683780760E+02  0.18512930975E+03  0.20547384033E+03  0.47000000000E+01 0. -1.
         -5    1    5    5    0  503 -0.35575511932E+02 -0.28086519708E+02  0.76603568676E+02  0.89132857984E+02  0.47000000000E+01 0. -1.
<mgrwt>
<rscale>  0 0.27498529E+03</rscale>
<asrwt>0</asrwt>
<pdfrwt beam="1">  1        2 0.43187977E-02 0.27498529E+03</pdfrwt>
<pdfrwt beam="2">  1       -2 0.10360229E+00 0.27498529E+03</pdfrwt>
<totfact> 0.15078437E+03</totfact>
</mgrwt>
</event>
<event>
 9    1  0.2074770E-002  0.2755620E+03  0.7818608E-02  0.1098138E+00
         -4   -1    0    0    0  501 -0.00000000000E+00  0.00000000000E+00  0.48578425634E+03  0.48578425634E+03  0.00000000000E+00 0. -1.
          4   -1    0    0  501    0  0.00000000000E+00 -0.00000000000E+00 -0.39078251974E+02  0.39078251974E+02  0.00000000000E+00 0. -1.
         36    2    1    2    0    0  0.00000000000E+00  0.00000000000E+00  0.44670600436E+03  0.52486250831E+03  0.27556196816E+03 0.  0.
         25    2    3    3    0    0 -0.24454980216E+01 -0.27785886600E+02  0.33754955733E+03  0.36038501780E+03  0.12312441451E+03 0.  0.
         25    2    3    3    0    0  0.24454980216E+01  0.27785886600E+02  0.10915644704E+03  0.16447749052E+03  0.11983187807E+03 0.  0.
          5    1    4    4  502    0 -0.35693787644E+02  0.22197409372E+02  0.25342789835E+03  0.25693298956E+03  0.47000000000E+01 0.  1.
         -5    1    4    4    0  502  0.33248289622E+02 -0.49983295971E+02  0.84121658973E+02  0.10345202824E+03  0.47000000000E+01 0.  1.
          5    1    5    5  503    0  0.27948400537E+02 -0.27118439704E+02  0.94056044386E+02  0.10190756768E+03  0.47000000000E+01 0.  1.
         -5    1    5    5    0  503 -0.25502902515E+02  0.54904326303E+02  0.15100402654E+02  0.62569922837E+02  0.47000000000E+01 0.  1.
<mgrwt>
<rscale>  0 0.27556197E+03</rscale>
<asrwt>0</asrwt>
<pdfrwt beam="1">  1        4 0.60120391E-02 0.27556197E+03</pdfrwt>
<pdfrwt beam="2">  1       -4 0.74736035E-01 0.27556197E+03</pdfrwt>
<totfact> 0.54767823E+02</totfact>
</mgrwt>
</event>
<event>
 8    1  0.2074770E-002  0.2950113E+03  0.7818608E-02  0.1087761E+00
         -2   -1    0    0    0  501 -0.00000000000E+00  0.00000000000E+00  0.40608793394E+02  0.40608793394E+02  0.00000000000E+00 0. -1.
          2   -1    0    0  501    0  0.00000000000E+00 -0.00000000000E+00 -0.53579313216E+03  0.53579313216E+03  0.00000000000E+00 0. -1.
         25    2    1    2    0    0  0.22104199740E+02  0.74240749878E+02 -0.25565001511E+03  0.29550417866E+03  0.12635467853E+03 0.  0.
         25    2    1    2    0    0 -0.22104199740E+02 -0.74240749878E+02 -0.23953432365E+03  0.28089774690E+03  0.12460564761E+03 0.  0.
          5    1    3    3  502    0 -0.52732733886E+02  0.32367041747E+02 -0.11614821504E+03  0.13168471617E+03  0.47000000000E+01 0.  1.
         -5    1    3    3    0  502  0.74836933626E+02  0.41873708131E+02 -0.13950180007E+03  0.16381946249E+03  0.47000000000E+01 0.  1.
          5    1    4    4  503    0 -0.15233535129E+02 -0.26750624269E+02  0.51016514124E+01  0.31555876449E+02  0.47000000000E+01 0. -1.
         -5    1    4    4    0  503 -0.68706646111E+01 -0.47490125609E+02 -0.24463597506E+03  0.24934187045E+03  0.47000000000E+01 0. -1.
<mgrwt>
<rscale>  0 0.29501127E+03</rscale>
<asrwt>0</asrwt>
<pdfrwt beam="1">  1        2 0.82429709E-01 0.29501127E+03</pdfrwt>
<pdfrwt beam="2">  1       -2 0.62475069E-02 0.29501127E+03</pdfrwt>
<totfact> 0.79842423E+03</totfact>
</mgrwt>
</event>
<event>
 9    1  0.2074770E-002  0.2745476E+03  0.7818608E-02  0.1098705E+00
         -1   -1    0    0    0  501 -0.00000000000E+00  0.00000000000E+00  0.93746734653E+01  0.93746734653E+01  0.00000000000E+00 0. -1.
          1   -1    0    0  501    0  0.00000000000E+00 -0.00000000000E+00 -0.20101074152E+04  0.20101074152E+04  0.00000000000E+00 0. -1.
         36    2    1    2    0    0  0.00000000000E+00 -0.17763568394E-14 -0.20007327418E+04  0.20194820887E+04  0.27454763265E+03 0.  0.
         25    2    3    3    0    0  0.39462115877E+02 -0.41473826514E+01 -0.13005511677E+04  0.13070271477E+04  0.12374233535E+03 0.  0.
         25    2    3    3    0    0 -0.39462115877E+02  0.41473826514E+01 -0.70018157404E+03  0.71245494100E+03  0.12555216830E+03 0.  0.
          5    1    4    4  502    0 -0.24305659146E+02  0.59144239323E+01 -0.65357755859E+02  0.70138945871E+02  0.47000000000E+01 0.  1.
         -5    1    4    4    0  502  0.63767775023E+02 -0.10061806584E+02 -0.12351934119E+04  0.12368882018E+04  0.47000000000E+01 0.  1.
          5    1    5    5  503    0 -0.56771411721E+02  0.39023890653E+02 -0.61277468926E+03  0.61665287401E+03  0.47000000000E+01 0.  1.
         -5    1    5    5    0  503  0.17309295844E+02 -0.34876508001E+02 -0.87406884778E+02  0.95802066990E+02  0.47000000000E+01 0.  1.
<mgrwt>
<rscale>  0 0.27454763E+03</rscale>
<asrwt>0</asrwt>
<pdfrwt beam="1">  1        1 0.30924738E+00 0.27454763E+03</pdfrwt>
<pdfrwt beam="2">  1       -1 0.14422571E-02 0.27454763E+03</pdfrwt>
<totfact> 0.36725327E+03</totfact>
</mgrwt>
</event>
<event>
 9    1  0.2074770E-002  0.2740521E+03  0.7818608E-02  0.1098983E+00
          1   -1    0    0  501    0  0.00000000000E+00  0.00000000000E+00  0.37534274150E+03  0.37534274150E+03  0.00000000000E+00 0.  1.
         -1   -1    0    0    0  501 -0.00000000000E+00 -0.00000000000E+00 -0.50023990257E+02  0.50023990257E+02  0.00000000000E+00 0.  1.
         36    2    1    2    0    0  0.00000000000E+00  0.00000000000E+00  0.32531875124E+03  0.42536673175E+03  0.27405212383E+03 0.  0.
         25    2    3    3    0    0  0.60699677711E+02  0.23210089080E+02  0.16634222818E+03  0.21362157396E+03  0.11722320964E+03 0.  0.
         25    2    3    3    0    0 -0.60699677711E+02 -0.23210089080E+02  0.15897652306E+03  0.21174515779E+03  0.12385199980E+03 0.  0.
          5    1    4    4  502    0 -0.29390723935E+02  0.30529143122E+02  0.65106296133E+02  0.77825208187E+02  0.47000000000E+01 0.  1.
         -5    1    4    4    0  502  0.90090401646E+02 -0.73190540417E+01  0.10123593205E+03  0.13579636578E+03  0.47000000000E+01 0.  1.
          5    1    5    5  503    0 -0.61064485777E+02  0.11013340148E+02  0.15446212085E+02  0.64115836984E+02  0.47000000000E+01 0.  1.
         -5    1    5    5    0  503  0.36480806553E+00 -0.34223429229E+02  0.14353031097E+03  0.14762932080E+03  0.47000000000E+01 0.  1.
<mgrwt>
<rscale>  0 0.27405212E+03</rscale>
<asrwt>0</asrwt>
<pdfrwt beam="1">  1        1 0.57745035E-01 0.27405212E+03</pdfrwt>
<pdfrwt beam="2">  1       -1 0.76959987E-02 0.27405212E+03</pdfrwt>
<totfact> 0.59741589E+03</totfact>
</mgrwt>
</event>
<event>
 9    1  0.2074770E-002  0.2749049E+03  0.7818608E-02  0.1098505E+00
         -1   -1    0    0    0  501 -0.00000000000E+00  0.00000000000E+00  0.37831157664E+02  0.37831157664E+02  0.00000000000E+00 0.  1.
          1   -1    0    0  501    0  0.00000000000E+00 -0.00000000000E+00 -0.49940782103E+03  0.49940782103E+03  0.00000000000E+00 0.  1.
         36    2    1    2    0    0  0.00000000000E+00 -0.14210854715E-13 -0.46157666337E+03  0.53723897869E+03  0.27490490004E+03 0.  0.
         25    2    3    3    0    0  0.18109390712E+02  0.68243962415E+02 -0.25956610123E+03  0.28856567667E+03  0.10445286211E+03 0.  0.
         25    2    3    3    0    0 -0.18109390712E+02 -0.68243962415E+02 -0.20201056213E+03  0.24867330203E+03  0.12666868393E+03 0.  0.
          5    1    4    4  502    0 -0.33719716513E+02  0.45076529895E+02 -0.19226892587E+03  0.20039546573E+03  0.47000000000E+01 0. -1.
         -5    1    4    4    0  502  0.51829107225E+02  0.23167432520E+02 -0.67297175360E+02  0.88170210937E+02  0.47000000000E+01 0. -1.
          5    1    5    5  503    0  0.32151720240E+02  0.92774086802E+01 -0.12125474456E+03  0.12587536099E+03  0.47000000000E+01 0.  1.
         -5    1    5    5    0  503 -0.50261110952E+02 -0.77521371096E+02 -0.80755817575E+02  0.12279794104E+03  0.47000000000E+01 0.  1.
<mgrwt>
<rscale>  0 0.27490490E+03</rscale>
<asrwt>0</asrwt>
<pdfrwt beam="1">  1        1 0.76831972E-01 0.27490490E+03</pdfrwt>
<pdfrwt beam="2">  1       -1 0.58201782E-02 0.27490490E+03</pdfrwt>
<totfact> 0.62981207E+03</totfact>
</mgrwt>
</event>
<event>
 9    1  0.2074770E-002  0.2745596E+03  0.7818608E-02  0.1098698E+00
         -2   -1    0    0    0  501 -0.00000000000E+00  0.00000000000E+00  0.19592314773E+02  0.19592314773E+02  0.00000000000E+00 0.  1.
          2   -1    0    0  501    0  0.00000000000E+00 -0.00000000000E+00 -0.96189487391E+03  0.96189487391E+03  0.00000000000E+00 0.  1.
         36    2    1    2    0    0  0.00000000000E+00  0.00000000000E+00 -0.94230255914E+03  0.98148718869E+03  0.27455962666E+03 0.  0.
         25    2    3    3    0    0 -0.37671447457E+02 -0.45743722643E+02 -0.51104089949E+03  0.52877345212E+03  0.12217584293E+03 0.  0.
         25    2    3    3    0    0  0.37671447457E+02  0.45743722643E+02 -0.43126165965E+03  0.45271373657E+03  0.12430399060E+03 0.  0.
          5    1    4    4  502    0  0.41193917233E+02  0.35361723009E+01 -0.12882304385E+03  0.13537691811E+03  0.47000000000E+01 0.  1.
         -5    1    4    4    0  502 -0.78865364690E+02 -0.49279894943E+02 -0.38221785564E+03  0.39339653400E+03  0.47000000000E+01 0.  1.
          5    1    5    5  503    0  0.66440360835E+01 -0.39736637371E+02 -0.78137762273E+02  0.88038306765E+02  0.47000000000E+01 0. -1.
         -5    1    5    5    0  503  0.31027411374E+02  0.85480360014E+02 -0.35312389738E+03  0.36467542981E+03  0.47000000000E+01 0. -1.
<mgrwt>
<rscale>  0 0.27455963E+03</rscale>
<asrwt>0</asrwt>
<pdfrwt beam="1">  1        2 0.14798379E+00 0.27455963E+03</pdfrwt>
<pdfrwt beam="2">  1       -2 0.30142029E-02 0.27455963E+03</pdfrwt>
<totfact> 0.11631537E+04</totfact>
</mgrwt>
</event>
<event>
 9    1  0.2074770E-002  0.2772805E+03  0.7818608E-02  0.1097184E+00
         -1   -1    0    0    0  501 -0.00000000000E+00  0.00000000000E+00  0.97103835689E+02  0.97103835689E+02  0.00000000000E+00 0.  1.
          1   -1    0    0  501    0  0.00000000000E+00 -0.00000000000E+00 -0.19794400368E+03  0.19794400368E+03  0.00000000000E+00 0.  1.
         36    2    1    2    0    0 -0.71054273576E-14  0.35527136788E-14 -0.10084016799E+03  0.29504783936E+03  0.27728052228E+03 0.  0.
         25    2    3    3    0    0 -0.38668051301E+02 -0.12904451541E+02 -0.94749229973E+02  0.16276204740E+03  0.12590601428E+03 0.  0.
         25    2    3    3    0    0  0.38668051301E+02  0.12904451541E+02 -0.60909380144E+01  0.13228579197E+03  0.12570078826E+03 0.  0.
          5    1    4    4  502    0 -0.21247241166E+02  0.56489172549E+02 -0.46594776976E+02  0.76391328787E+02  0.47000000000E+01 0.  1.
         -5    1    4    4    0  502 -0.17420810135E+02 -0.69393624090E+02 -0.48154452997E+02  0.86370718612E+02  0.47000000000E+01 0.  1.
          5    1    5    5  503    0  0.19919688745E+01 -0.22352731214E+02 -0.56215994348E+02  0.60711947369E+02  0.47000000000E+01 0. -1.
         -5    1    5    5    0  503  0.36676082426E+02  0.35257182755E+02  0.50125056334E+02  0.71573844597E+02  0.47000000000E+01 0. -1.
<mgrwt>
<rscale>  0 0.27728052E+03</rscale>
<asrwt>0</asrwt>
<pdfrwt beam="1">  1        1 0.30452924E-01 0.27728052E+03</pdfrwt>
<pdfrwt beam="2">  1       -1 0.14939052E-01 0.27728052E+03</pdfrwt>
<totfact> 0.47770849E+03</totfact>
</mgrwt>
</event>
<event>
 9    1  0.2074770E-002  0.2758127E+03  0.7818608E-02  0.1097998E+00
          2   -1    0    0  501    0  0.00000000000E+00  0.00000000000E+00  0.18623126514E+03  0.18623126514E+03  0.00000000000E+00 0.  1.
         -2   -1    0    0    0  501 -0.00000000000E+00 -0.00000000000E+00 -0.10212123252E+03  0.10212123252E+03  0.00000000000E+00 0.  1.
         36    2    1    2    0    0  0.35527136788E-14  0.71054273576E-14  0.84110032619E+02  0.28835249765E+03  0.27581273595E+03 0.  0.
         25    2    3    3    0    0  0.31782162797E+02  0.43384407008E+02  0.50649176274E+02  0.14588287457E+03  0.12579412304E+03 0.  0.
         25    2    3    3    0    0 -0.31782162797E+02 -0.43384407008E+02  0.33460856345E+02  0.14246962309E+03  0.12761524968E+03 0.  0.
          5    1    4    4  502    0 -0.22072951045E+02  0.25232787600E+02  0.76210036754E+02  0.83390457727E+02  0.47000000000E+01 0. -1.
         -5    1    4    4    0  502  0.53855113842E+02  0.18151619408E+02 -0.25560860480E+02  0.62492416840E+02  0.47000000000E+01 0. -1.
          5    1    5    5  503    0 -0.16728616392E+01 -0.40839297291E+02 -0.43367782485E+02  0.59778769031E+02  0.47000000000E+01 0.  1.
         -5    1    5    5    0  503 -0.30109301158E+02 -0.25451097173E+01  0.76828638830E+02  0.82690854054E+02  0.47000000000E+01 0.  1.
<mgrwt>
<rscale>  0 0.27581274E+03</rscale>
<asrwt>0</asrwt>
<pdfrwt beam="1">  1        2 0.28650964E-01 0.27581274E+03</pdfrwt>
<pdfrwt beam="2">  1       -2 0.15710959E-01 0.27581274E+03</pdfrwt>
<totfact> 0.58059284E+03</totfact>
</mgrwt>
</event>
<event>
 9    1  0.2074770E-002  0.2740493E+03  0.7818608E-02  0.1098984E+00
         -1   -1    0    0    0  501 -0.00000000000E+00  0.00000000000E+00  0.19499109666E+02  0.19499109666E+02  0.00000000000E+00 0. -1.
          1   -1    0    0  501    0  0.00000000000E+00 -0.00000000000E+00 -0.96290321277E+03  0.96290321277E+03  0.00000000000E+00 0. -1.
         36    2    1    2    0    0  0.00000000000E+00  0.00000000000E+00 -0.94340410310E+03  0.98240232243E+03  0.27404930464E+03 0.  0.
         25    2    3    3    0    0 -0.40811951665E+02 -0.43017604051E+02 -0.44483505315E+03  0.46450208934E+03  0.11986591192E+03 0.  0.
         25    2    3    3    0    0  0.40811951665E+02  0.43017604051E+02 -0.49856904996E+03  0.51790023309E+03  0.12701741693E+03 0.  0.
          5    1    4    4  502    0  0.29463447572E+02  0.89240044072E+01 -0.42088041701E+02  0.52356717350E+02  0.47000000000E+01 0.  1.
         -5    1    4    4    0  502 -0.70275399237E+02 -0.51941608458E+02 -0.40274701144E+03  0.41214537199E+03  0.47000000000E+01 0.  1.
          5    1    5    5  503    0  0.47598424352E+02  0.18406741496E+01 -0.45454330140E+03  0.45705656207E+03  0.47000000000E+01 0.  1.
         -5    1    5    5    0  503 -0.67864726870E+01  0.41176929901E+02 -0.44025748560E+02  0.60843671026E+02  0.47000000000E+01 0.  1.
<mgrwt>
<rscale>  0 0.27404930E+03</rscale>
<asrwt>0</asrwt>
<pdfrwt beam="1">  1        1 0.14813897E+00 0.27404930E+03</pdfrwt>
<pdfrwt beam="2">  1       -1 0.29998627E-02 0.27404930E+03</pdfrwt>
<totfact> 0.64300932E+03</totfact>
</mgrwt>
</event>
<event>
 9    1  0.2074770E-002  0.2747518E+03  0.7818608E-02  0.1098590E+00
          1   -1    0    0  501    0  0.00000000000E+00  0.00000000000E+00  0.73679308816E+03  0.73679308816E+03  0.00000000000E+00 0.  1.
         -1   -1    0    0    0  501 -0.00000000000E+00 -0.00000000000E+00 -0.25613892886E+02  0.25613892886E+02  0.00000000000E+00 0.  1.
         36    2    1    2    0    0  0.00000000000E+00  0.00000000000E+00  0.71117919528E+03  0.76240698105E+03  0.27475180974E+03 0.  0.
         25    2    3    3    0    0 -0.33905738719E+02  0.21192852882E+02  0.45395329575E+03  0.47261218046E+03  0.12525949969E+03 0.  0.
         25    2    3    3    0    0  0.33905738719E+02 -0.21192852882E+02  0.25722589952E+03  0.28979480059E+03  0.12734648378E+03 0.  0.
          5    1    4    4  502    0 -0.50376364611E+02  0.64526884781E+02  0.23926884434E+03  0.25292917357E+03  0.47000000000E+01 0.  1.
         -5    1    4    4    0  502  0.16470625892E+02 -0.43334031899E+02  0.21468445141E+03  0.21968300689E+03  0.47000000000E+01 0.  1.
          5    1    5    5  503    0 -0.40810379500E+02 -0.34732531994E+02  0.74753465574E+02  0.92097809252E+02  0.47000000000E+01 0.  1.
         -5    1    5    5    0  503  0.74716118219E+02  0.13539679111E+02  0.18247243395E+03  0.19769699134E+03  0.47000000000E+01 0.  1.
<mgrwt>
<rscale>  0 0.27475181E+03</rscale>
<asrwt>0</asrwt>
<pdfrwt beam="1">  1        1 0.11335277E+00 0.27475181E+03</pdfrwt>
<pdfrwt beam="2">  1       -1 0.39405995E-02 0.27475181E+03</pdfrwt>
<totfact> 0.65534590E+03</totfact>
</mgrwt>
</event>
<event>
 9    1  0.2074770E-002  0.2742323E+03  0.7818608E-02  0.1098882E+00
          2   -1    0    0  501    0  0.00000000000E+00  0.00000000000E+00  0.11073931423E+04  0.11073931423E+04  0.00000000000E+00 0.  1.
         -2   -1    0    0    0  501 -0.00000000000E+00 -0.00000000000E+00 -0.16977560063E+02  0.16977560063E+02  0.00000000000E+00 0.  1.
         36    2    1    2    0    0  0.35527136788E-14  0.35527136788E-14  0.10904155822E+04  0.11243707024E+04  0.27423226351E+03 0.  0.
         25    2    3    3    0    0 -0.10145528485E+01  0.33607755778E+01  0.29874771837E+03  0.32309014856E+03  0.12298260337E+03 0.  0.
         25    2    3    3    0    0  0.10145528485E+01 -0.33607755778E+01  0.79166786386E+03  0.80128055380E+03  0.12369395741E+03 0.  0.
          5    1    4    4  502    0  0.50214735132E+02  0.25993896661E+02  0.21404234048E+03  0.22143490196E+03  0.47000000000E+01 0.  1.
         -5    1    4    4    0  502 -0.51229287981E+02 -0.22633121083E+02  0.84705377891E+02  0.10165524660E+03  0.47000000000E+01 0.  1.
          5    1    5    5  503    0 -0.26301929020E+02  0.47780879381E+02  0.22198728756E+03  0.22863781346E+03  0.47000000000E+01 0.  1.
         -5    1    5    5    0  503  0.27316481869E+02 -0.51141654959E+02  0.56968057630E+03  0.57264274034E+03  0.47000000000E+01 0.  1.
<mgrwt>
<rscale>  0 0.27423226E+03</rscale>
<asrwt>0</asrwt>
<pdfrwt beam="1">  1        2 0.17036812E+00 0.27423226E+03</pdfrwt>
<pdfrwt beam="2">  1       -2 0.26119332E-02 0.27423226E+03</pdfrwt>
<totfact> 0.11753647E+04</totfact>
</mgrwt>
</event>
<event>
 9    1  0.2074770E-002  0.2753657E+03  0.7818608E-02  0.1098247E+00
         -1   -1    0    0    0  501 -0.00000000000E+00  0.00000000000E+00  0.57256925246E+02  0.57256925246E+02  0.00000000000E+00 0. -1.
          1   -1    0    0  501    0  0.00000000000E+00 -0.00000000000E+00 -0.33107896612E+03  0.33107896612E+03  0.00000000000E+00 0. -1.
         36    2    1    2    0    0  0.71054273576E-14 -0.14210854715E-13 -0.27382204087E+03  0.38833589136E+03  0.27536567407E+03 0.  0.
         25    2    3    3    0    0 -0.58113938883E+02 -0.18621919047E+02 -0.13726050015E+03  0.19498331689E+03  0.12431429204E+03 0.  0.
         25    2    3    3    0    0  0.58113938883E+02  0.18621919047E+02 -0.13656154072E+03  0.19335257447E+03  0.12252411146E+03 0.  0.
          5    1    4    4  502    0 -0.28367223495E+02  0.52633323815E+02 -0.72533362624E+02  0.94117717982E+02  0.47000000000E+01 0. -1.
         -5    1    4    4    0  502 -0.29746715389E+02 -0.71255242861E+02 -0.64727137523E+02  0.10086559891E+03  0.47000000000E+01 0. -1.
          5    1    5    5  503    0  0.12103896741E+02 -0.48791355292E+02 -0.77505798609E+02  0.92500483705E+02  0.47000000000E+01 0.  1.
         -5    1    5    5    0  503  0.46010042142E+02  0.67413274339E+02 -0.59055742113E+02  0.10085209076E+03  0.47000000000E+01 0.  1.
<mgrwt>
<rscale>  0 0.27536567E+03</rscale>
<asrwt>0</asrwt>
<pdfrwt beam="1">  1        1 0.50935226E-01 0.27536567E+03</pdfrwt>
<pdfrwt beam="2">  1       -1 0.88087577E-02 0.27536567E+03</pdfrwt>
<totfact> 0.56988717E+03</totfact>
</mgrwt>
</event>
<event>
 9    1  0.2074770E-002  0.2794415E+03  0.7818608E-02  0.1095994E+00
         -2   -1    0    0    0  501 -0.00000000000E+00  0.00000000000E+00  0.17170107000E+02  0.17170107000E+02  0.00000000000E+00 0.  1.
          2   -1    0    0  501    0  0.00000000000E+00 -0.00000000000E+00 -0.11369696679E+04  0.11369696679E+04  0.00000000000E+00 0.  1.
         36    2    1    2    0    0  0.00000000000E+00  0.35527136788E-14 -0.11197995609E+04  0.11541397749E+04  0.27944152056E+03 0.  0.
         25    2    3    3    0    0 -0.49285392411E+02  0.25565233602E+02 -0.67628496983E+03  0.69032245292E+03  0.12689010009E+03 0.  0.
         25    2    3    3    0    0  0.49285392411E+02 -0.25565233602E+02 -0.44351459108E+03  0.46381732200E+03  0.12384944332E+03 0.  0.
          5    1    4    4  502    0 -0.41450579533E+02  0.32912111443E+02 -0.94461812945E+02  0.10838118715E+03  0.47000000000E+01 0. -1.
         -5    1    4    4    0  502 -0.78348128777E+01 -0.73468778409E+01 -0.58182315689E+03  0.58194126577E+03  0.47000000000E+01 0. -1.
          5    1    5    5  503    0  0.84867736256E+01 -0.77070990560E+01  0.47883103297E+01  0.13283170489E+02  0.47000000000E+01 0.  1.
         -5    1    5    5    0  503  0.40798618785E+02 -0.17858134546E+02 -0.44830290141E+03  0.45053415151E+03  0.47000000000E+01 0.  1.
<mgrwt>
<rscale>  0 0.27944152E+03</rscale>
<asrwt>0</asrwt>
<pdfrwt beam="1">  1        2 0.17491846E+00 0.27944152E+03</pdfrwt>
<pdfrwt beam="2">  1       -2 0.26415542E-02 0.27944152E+03</pdfrwt>
<totfact> 0.11114983E+04</totfact>
</mgrwt>
</event>
<event>
 9    1  0.2074770E-002  0.2764665E+03  0.7818608E-02  0.1097635E+00
         -2   -1    0    0    0  501 -0.00000000000E+00  0.00000000000E+00  0.31976317284E+03  0.31976317284E+03  0.00000000000E+00 0.  1.
          2   -1    0    0  501    0  0.00000000000E+00 -0.00000000000E+00 -0.59758090433E+02  0.59758090433E+02  0.00000000000E+00 0.  1.
         36    2    1    2    0    0  0.00000000000E+00  0.00000000000E+00  0.26000508240E+03  0.37952126327E+03  0.27646653758E+03 0.  0.
         25    2    3    3    0    0  0.29372733149E+02  0.22229419397E+02  0.19427965818E+03  0.23309621188E+03  0.12341942258E+03 0.  0.
         25    2    3    3    0    0 -0.29372733149E+02 -0.22229419397E+02  0.65725424224E+02  0.14642505139E+03  0.12555301568E+03 0.  0.
          5    1    4    4  502    0  0.56802212228E+02 -0.25454252685E+02  0.14950114665E+03  0.16200954646E+03  0.47000000000E+01 0. -1.
         -5    1    4    4    0  502 -0.27429479079E+02  0.47683672082E+02  0.44778511525E+02  0.71086665417E+02  0.47000000000E+01 0. -1.
          5    1    5    5  503    0 -0.61984744260E+02 -0.35358363790E+02 -0.25508193569E+00  0.71515575071E+02  0.47000000000E+01 0. -1.
         -5    1    5    5    0  503  0.32612011111E+02  0.13128944393E+02  0.65980506160E+02  0.74909476321E+02  0.47000000000E+01 0. -1.
<mgrwt>
<rscale>  0 0.27646654E+03</rscale>
<asrwt>0</asrwt>
<pdfrwt beam="1">  1        2 0.91935526E-02 0.27646654E+03</pdfrwt>
<pdfrwt beam="2">  1       -2 0.49194333E-01 0.27646654E+03</pdfrwt>
<totfact> 0.28174286E+03</totfact>
</mgrwt>
</event>
<event>
 9    1  0.2074770E-002  0.2735775E+03  0.7818608E-02  0.1099249E+00
         -2   -1    0    0    0  501 -0.00000000000E+00  0.00000000000E+00  0.31957874495E+02  0.31957874495E+02  0.00000000000E+00 0.  1.
          2   -1    0    0  501    0  0.00000000000E+00 -0.00000000000E+00 -0.58549452330E+03  0.58549452330E+03  0.00000000000E+00 0.  1.
         36    2    1    2    0    0 -0.14210854715E-13 -0.35527136788E-14 -0.55353664881E+03  0.61745239780E+03  0.27357748806E+03 0.  0.
         25    2    3    3    0    0 -0.48788421903E+02 -0.15539645085E+02 -0.33362359109E+03  0.36021728575E+03  0.12581733483E+03 0.  0.
         25    2    3    3    0    0  0.48788421903E+02  0.15539645085E+02 -0.21991305772E+03  0.25723511205E+03  0.12323294702E+03 0.  0.
          5    1    4    4  502    0  0.35419891600E+02  0.53427473046E+01 -0.18122132690E+03  0.18478737239E+03  0.47000000000E+01 0.  1.
         -5    1    4    4    0  502 -0.84208313504E+02 -0.20882392389E+02 -0.15240226419E+03  0.17542991337E+03  0.47000000000E+01 0.  1.
          5    1    5    5  503    0  0.62495351624E+02  0.16509651609E+02 -0.23038709089E+03  0.23932935303E+03  0.47000000000E+01 0. -1.
         -5    1    5    5    0  503 -0.13706929721E+02 -0.97000652440E+00  0.10474033172E+02  0.17905759016E+02  0.47000000000E+01 0. -1.
<mgrwt>
<rscale>  0 0.27357749E+03</rscale>
<asrwt>0</asrwt>
<pdfrwt beam="1">  1        2 0.90076064E-01 0.27357749E+03</pdfrwt>
<pdfrwt beam="2">  1       -2 0.49165970E-02 0.27357749E+03</pdfrwt>
<totfact> 0.10377398E+04</totfact>
</mgrwt>
</event>
<event>
 9    1  0.2074770E-002  0.2757921E+03  0.7818608E-02  0.1098010E+00
         -2   -1    0    0    0  501 -0.00000000000E+00  0.00000000000E+00  0.63350180024E+02  0.63350180024E+02  0.00000000000E+00 0.  1.
          2   -1    0    0  501    0  0.00000000000E+00 -0.00000000000E+00 -0.30016207806E+03  0.30016207806E+03  0.00000000000E+00 0.  1.
         36    2    1    2    0    0 -0.71054273576E-14  0.00000000000E+00 -0.23681189804E+03  0.36351225809E+03  0.27579210780E+03 0.  0.
         25    2    3    3    0    0  0.17860381963E+02  0.20846228936E+02 -0.49060458074E+02  0.13443835848E+03  0.12211955281E+03 0.  0.
         25    2    3    3    0    0 -0.17860381963E+02 -0.20846228936E+02 -0.18775143996E+03  0.22907389961E+03  0.12833818515E+03 0.  0.
          5    1    4    4  502    0  0.61008421257E+02  0.36124648388E+02 -0.52422430748E+02  0.88301862557E+02  0.47000000000E+01 0. -1.
         -5    1    4    4    0  502 -0.43148039294E+02 -0.15278419451E+02  0.33619726740E+01  0.46136495924E+02  0.47000000000E+01 0. -1.
          5    1    5    5  503    0  0.44394202986E+02  0.21189531043E+02 -0.41250224280E+02  0.64370121079E+02  0.47000000000E+01 0. -1.
         -5    1    5    5    0  503 -0.62254584949E+02 -0.42035759979E+02 -0.14650121568E+03  0.16470377853E+03  0.47000000000E+01 0. -1.
<mgrwt>
<rscale>  0 0.27579211E+03</rscale>
<asrwt>0</asrwt>
<pdfrwt beam="1">  1        2 0.46178781E-01 0.27579211E+03</pdfrwt>
<pdfrwt beam="2">  1       -2 0.97461817E-02 0.27579211E+03</pdfrwt>
<totfact> 0.75003702E+03</totfact>
</mgrwt>
</event>
<event>
 9    1  0.2074770E-002  0.2745287E+03  0.7818608E-02  0.1098715E+00
         -3   -1    0    0    0  501 -0.00000000000E+00  0.00000000000E+00  0.12474178609E+02  0.12474178609E+02  0.00000000000E+00 0.  1.
          3   -1    0    0  501    0  0.00000000000E+00 -0.00000000000E+00 -0.15104407652E+04  0.15104407652E+04  0.00000000000E+00 0.  1.
         36    2    1    2    0    0  0.00000000000E+00  0.00000000000E+00 -0.14979665866E+04  0.15229149438E+04  0.27452874445E+03 0.  0.
         25    2    3    3    0    0 -0.40794693964E+02 -0.62585548376E+01 -0.94922316926E+03  0.95810912999E+03  0.12347106274E+03 0.  0.
         25    2    3    3    0    0  0.40794693964E+02  0.62585548376E+01 -0.54874341732E+03  0.56480581381E+03  0.12721199905E+03 0.  0.
          5    1    4    4  502    0 -0.62782273512E+02  0.42195067090E+02 -0.49776637426E+03  0.50350321836E+03  0.47000000000E+01 0.  1.
         -5    1    4    4    0  502  0.21987579548E+02 -0.48453621927E+02 -0.45145679500E+03  0.45460591163E+03  0.47000000000E+01 0.  1.
          5    1    5    5  503    0  0.81432789961E+02  0.26164159508E+02 -0.30250113899E+03  0.31439607442E+03  0.47000000000E+01 0. -1.
         -5    1    5    5    0  503 -0.40638095997E+02 -0.19905604671E+02 -0.24624227833E+03  0.25040973939E+03  0.47000000000E+01 0. -1.
<mgrwt>
<rscale>  0 0.27452874E+03</rscale>
<asrwt>0</asrwt>
<pdfrwt beam="1">  1        3 0.23237548E+00 0.27452874E+03</pdfrwt>
<pdfrwt beam="2">  1       -3 0.19191046E-02 0.27452874E+03</pdfrwt>
<totfact> 0.26673909E+02</totfact>
</mgrwt>
</event>
<event>
 9    1  0.2074770E-002  0.2748339E+03  0.7818608E-02  0.1098544E+00
         -2   -1    0    0    0  501 -0.00000000000E+00  0.00000000000E+00  0.29182218979E+02  0.29182218979E+02  0.00000000000E+00 0. -1.
          2   -1    0    0  501    0  0.00000000000E+00 -0.00000000000E+00 -0.64708640849E+03  0.64708640849E+03  0.00000000000E+00 0. -1.
         36    2    1    2    0    0  0.00000000000E+00 -0.14210854715E-13 -0.61790418951E+03  0.67626862747E+03  0.27483389362E+03 0.  0.
         25    2    3    3    0    0  0.32496232461E+02  0.44539875750E+02 -0.31117983512E+03  0.33980336123E+03  0.12487445239E+03 0.  0.
         25    2    3    3    0    0 -0.32496232461E+02 -0.44539875750E+02 -0.30672435439E+03  0.33646526624E+03  0.12684336858E+03 0.  0.
          5    1    4    4  502    0 -0.19774508727E+02 -0.84611584070E+01 -0.22396009831E+03  0.22503963658E+03  0.47000000000E+01 0.  1.
         -5    1    4    4    0  502  0.52270741188E+02  0.53001034157E+02 -0.87219736814E+02  0.11476372465E+03  0.47000000000E+01 0.  1.
          5    1    5    5  503    0  0.16809172541E+02  0.26263374983E+02 -0.20815674142E+02  0.37784857244E+02  0.47000000000E+01 0. -1.
         -5    1    5    5    0  503 -0.49305405002E+02 -0.70803250733E+02 -0.28590868024E+03  0.29868040899E+03  0.47000000000E+01 0. -1.
<mgrwt>
<rscale>  0 0.27483389E+03</rscale>
<asrwt>0</asrwt>
<pdfrwt beam="1">  1        2 0.99551758E-01 0.27483389E+03</pdfrwt>
<pdfrwt beam="2">  1       -2 0.44895720E-02 0.27483389E+03</pdfrwt>
<totfact> 0.10596349E+04</totfact>
</mgrwt>
</event>
<event>
 9    1  0.2074770E-002  0.2774953E+03  0.7818608E-02  0.1097065E+00
         -1   -1    0    0    0  501 -0.00000000000E+00  0.00000000000E+00  0.14297153272E+02  0.14297153272E+02  0.00000000000E+00 0. -1.
          1   -1    0    0  501    0  0.00000000000E+00 -0.00000000000E+00 -0.13464858953E+04  0.13464858953E+04  0.00000000000E+00 0. -1.
         36    2    1    2    0    0  0.35527136788E-14 -0.71054273576E-14 -0.13321887421E+04  0.13607830486E+04  0.27749533491E+03 0.  0.
         25    2    3    3    0    0 -0.49111940498E+01  0.23431381909E+02 -0.95097740318E+03  0.95964325997E+03  0.12642790657E+03 0.  0.
         25    2    3    3    0    0  0.49111940498E+01 -0.23431381909E+02 -0.38121133888E+03  0.40113978864E+03  0.12254752405E+03 0.  0.
          5    1    4    4  502    0 -0.64575827595E+02  0.17491207397E+02 -0.57284051752E+03  0.57675326471E+03  0.47000000000E+01 0. -1.
         -5    1    4    4    0  502  0.59664633545E+02  0.59401745124E+01 -0.37813688566E+03  0.38288999526E+03  0.47000000000E+01 0. -1.
          5    1    5    5  503    0  0.10078085101E+02 -0.35074914305E+02 -0.24580382427E+02  0.44250453252E+02  0.47000000000E+01 0. -1.
         -5    1    5    5    0  503 -0.51668910509E+01  0.11643532396E+02 -0.35663095646E+03  0.35688933539E+03  0.47000000000E+01 0. -1.
<mgrwt>
<rscale>  0 0.27749533E+03</rscale>
<asrwt>0</asrwt>
<pdfrwt beam="1">  1        1 0.20715169E+00 0.27749533E+03</pdfrwt>
<pdfrwt beam="2">  1       -1 0.21995619E-02 0.27749533E+03</pdfrwt>
<totfact> 0.54106749E+03</totfact>
</mgrwt>
</event>
<event>
 9    1  0.2074770E-002  0.2811026E+03  0.7818608E-02  0.1095088E+00
          2   -1    0    0  501    0  0.00000000000E+00  0.00000000000E+00  0.33081235398E+03  0.33081235398E+03  0.00000000000E+00 0.  1.
         -2   -1    0    0    0  501 -0.00000000000E+00 -0.00000000000E+00 -0.59715630300E+02  0.59715630300E+02  0.00000000000E+00 0.  1.
         36    2    1    2    0    0 -0.88817841970E-15  0.71054273576E-14  0.27109672368E+03  0.39052798428E+03  0.28110260212E+03 0.  0.
         25    2    3    3    0    0  0.45213219584E+01 -0.43863798768E+02  0.20199592248E+03  0.24116386943E+03  0.12414984504E+03 0.  0.
         25    2    3    3    0    0 -0.45213219584E+01  0.43863798768E+02  0.69100801202E+02  0.14936411486E+03  0.12486089414E+03 0.  0.
          5    1    4    4  502    0 -0.96951387920E+01  0.39162663559E+02  0.33204682890E+02  0.52462852563E+02  0.47000000000E+01 0.  1.
         -5    1    4    4    0  502  0.14216460750E+02 -0.83026462327E+02  0.16879123959E+03  0.18870101686E+03  0.47000000000E+01 0.  1.
          5    1    5    5  503    0  0.27195778701E+01  0.62088987014E+02 -0.13976825596E+02  0.63873938864E+02  0.47000000000E+01 0. -1.
         -5    1    5    5    0  503 -0.72408998284E+01 -0.18225188246E+02  0.83077626799E+02  0.85490175993E+02  0.47000000000E+01 0. -1.
<mgrwt>
<rscale>  0 0.28110260E+03</rscale>
<asrwt>0</asrwt>
<pdfrwt beam="1">  1        2 0.50894207E-01 0.28110260E+03</pdfrwt>
<pdfrwt beam="2">  1       -2 0.91870202E-02 0.28110260E+03</pdfrwt>
<totfact> 0.74225917E+03</totfact>
</mgrwt>
</event>
<event>
 9    1  0.2074770E-002  0.2754842E+03  0.7818608E-02  0.1098181E+00
         -2   -1    0    0    0  501 -0.00000000000E+00  0.00000000000E+00  0.73338707488E+02  0.73338707488E+02  0.00000000000E+00 0.  1.
          2   -1    0    0  501    0  0.00000000000E+00 -0.00000000000E+00 -0.25870229921E+03  0.25870229921E+03  0.00000000000E+00 0.  1.
         36    2    1    2    0    0 -0.71054273576E-14  0.00000000000E+00 -0.18536359173E+03  0.33204100670E+03  0.27548424455E+03 0.  0.
         25    2    3    3    0    0  0.39830082854E+02  0.27278926511E+01 -0.14565838575E+03  0.19620422720E+03  0.12524318958E+03 0.  0.
         25    2    3    3    0    0 -0.39830082854E+02 -0.27278926511E+01 -0.39705205977E+02  0.13583677950E+03  0.12361735471E+03 0.  0.
          5    1    4    4  502    0  0.65579684967E+02  0.45972941226E+02 -0.79505277445E+02  0.11294859692E+03  0.47000000000E+01 0.  1.
         -5    1    4    4    0  502 -0.25749602112E+02 -0.43245048575E+02 -0.66153108304E+02  0.83255630281E+02  0.47000000000E+01 0.  1.
          5    1    5    5  503    0 -0.62922910812E+01  0.56792941919E+02 -0.35049266081E+02  0.67198007647E+02  0.47000000000E+01 0. -1.
         -5    1    5    5    0  503 -0.33537791773E+02 -0.59520834570E+02 -0.46559398957E+01  0.68638771851E+02  0.47000000000E+01 0. -1.
<mgrwt>
<rscale>  0 0.27548424E+03</rscale>
<asrwt>0</asrwt>
<pdfrwt beam="1">  1        2 0.39800355E-01 0.27548424E+03</pdfrwt>
<pdfrwt beam="2">  1       -2 0.11282878E-01 0.27548424E+03</pdfrwt>
<totfact> 0.69672846E+03</totfact>
</mgrwt>
</event>
<event>
 9    1  0.2074770E-002  0.2821364E+03  0.7818608E-02  0.1094528E+00
         -2   -1    0    0    0  501 -0.00000000000E+00  0.00000000000E+00  0.71957738103E+01  0.71957738103E+01  0.00000000000E+00 0.  1.
          2   -1    0    0  501    0  0.00000000000E+00 -0.00000000000E+00 -0.27655453827E+04  0.27655453827E+04  0.00000000000E+00 0.  1.
         36    2    1    2    0    0  0.71054273576E-14  0.71054273576E-14 -0.27583496089E+04  0.27727411565E+04  0.28213641407E+03 0.  0.
         25    2    3    3    0    0 -0.35887933890E+02 -0.30554231022E+01 -0.85847052213E+03  0.86816166139E+03  0.12424070808E+03 0.  0.
         25    2    3    3    0    0  0.35887933890E+02  0.30554231022E+01 -0.18998790868E+04  0.19045794951E+04  0.12878365381E+03 0.  0.
          5    1    4    4  502    0 -0.33047644373E+02 -0.61822192325E+02 -0.45175328488E+03  0.45718404462E+03  0.47000000000E+01 0.  1.
         -5    1    4    4    0  502 -0.28402895168E+01  0.58766769222E+02 -0.40671723725E+03  0.41097761677E+03  0.47000000000E+01 0.  1.
          5    1    5    5  503    0 -0.16030742282E+02 -0.47456066546E+02 -0.11746174746E+04  0.11756944181E+04  0.47000000000E+01 0.  1.
         -5    1    5    5    0  503  0.51918676172E+02  0.50511489649E+02 -0.72526161211E+03  0.72888507703E+03  0.47000000000E+01 0.  1.
<mgrwt>
<rscale>  0 0.28213641E+03</rscale>
<asrwt>0</asrwt>
<pdfrwt beam="1">  1        2 0.42546879E+00 0.28213641E+03</pdfrwt>
<pdfrwt beam="2">  1       -2 0.11070414E-02 0.28213641E+03</pdfrwt>
<totfact> 0.52403097E+03</totfact>
</mgrwt>
</event>
<event>
 9    1  0.2074770E-002  0.2747242E+03  0.7818608E-02  0.1098606E+00
         -1   -1    0    0    0  501 -0.00000000000E+00  0.00000000000E+00  0.15574578422E+02  0.15574578422E+02  0.00000000000E+00 0. -1.
          1   -1    0    0  501    0  0.00000000000E+00 -0.00000000000E+00 -0.12114835956E+04  0.12114835956E+04  0.00000000000E+00 0. -1.
         36    2    1    2    0    0  0.35527136788E-14  0.71054273576E-14 -0.11959090172E+04  0.12270581740E+04  0.27472419818E+03 0.  0.
         25    2    3    3    0    0  0.25376321981E+02  0.24661074652E+02 -0.80385161695E+03  0.81379318415E+03  0.12177765873E+03 0.  0.
         25    2    3    3    0    0 -0.25376321981E+02 -0.24661074652E+02 -0.39205740024E+03  0.41326498989E+03  0.12580469174E+03 0.  0.
          5    1    4    4  502    0 -0.20068537937E+02  0.63391589728E+02 -0.39723827589E+03  0.40279222646E+03  0.47000000000E+01 0.  1.
         -5    1    4    4    0  502  0.45444859919E+02 -0.38730515076E+02 -0.40661334106E+03  0.41100095769E+03  0.47000000000E+01 0.  1.
          5    1    5    5  503    0 -0.71927092189E+02 -0.34272431780E+02 -0.28639024651E+03  0.29730383359E+03  0.47000000000E+01 0. -1.
         -5    1    5    5    0  503  0.46550770208E+02  0.96113571275E+01 -0.10566715373E+03  0.11596115629E+03  0.47000000000E+01 0. -1.
<mgrwt>
<rscale>  0 0.27472420E+03</rscale>
<asrwt>0</asrwt>
<pdfrwt beam="1">  1        1 0.18638212E+00 0.27472420E+03</pdfrwt>
<pdfrwt beam="2">  1       -1 0.23960886E-02 0.27472420E+03</pdfrwt>
<totfact> 0.59081515E+03</totfact>
</mgrwt>
</event>
<event>
 9    1  0.2074770E-002  0.2758080E+03  0.7818608E-02  0.1098001E+00
         -1   -1    0    0    0  501 -0.00000000000E+00  0.00000000000E+00  0.18387053905E+02  0.18387053905E+02  0.00000000000E+00 0. -1.
          1   -1    0    0  501    0  0.00000000000E+00 -0.00000000000E+00 -0.10342878905E+04  0.10342878905E+04  0.00000000000E+00 0. -1.
         36    2    1    2    0    0 -0.35527136788E-14  0.00000000000E+00 -0.10159008366E+04  0.10526749444E+04  0.27580795634E+03 0.  0.
         25    2    3    3    0    0 -0.13512733509E+02 -0.53339681265E+02 -0.48630862517E+03  0.50552717703E+03  0.12662516431E+03 0.  0.
         25    2    3    3    0    0  0.13512733509E+02  0.53339681265E+02 -0.52959221143E+03  0.54714776738E+03  0.12599624350E+03 0.  0.
          5    1    4    4  502    0  0.27749475683E+02 -0.29186402187E+02 -0.42826752183E+03  0.43018256558E+03  0.47000000000E+01 0.  1.
         -5    1    4    4    0  502 -0.41262209191E+02 -0.24153279078E+02 -0.58041103333E+02  0.75344611444E+02  0.47000000000E+01 0.  1.
          5    1    5    5  503    0 -0.35152935932E+02 -0.25506660346E+02 -0.20213483143E+03  0.20680159260E+03  0.47000000000E+01 0.  1.
         -5    1    5    5    0  503  0.48665669441E+02  0.78846341610E+02 -0.32745738000E+03  0.34034617478E+03  0.47000000000E+01 0.  1.
<mgrwt>
<rscale>  0 0.27580796E+03</rscale>
<asrwt>0</asrwt>
<pdfrwt beam="1">  1        1 0.15912126E+00 0.27580796E+03</pdfrwt>
<pdfrwt beam="2">  1       -1 0.28287767E-02 0.27580796E+03</pdfrwt>
<totfact> 0.62000127E+03</totfact>
</mgrwt>
</event>
<event>
 9    1  0.2074770E-002  0.2755067E+03  0.7818608E-02  0.1098169E+00
          2   -1    0    0  501    0  0.00000000000E+00  0.00000000000E+00  0.14629624440E+02  0.14629624440E+02  0.00000000000E+00 0.  1.
         -2   -1    0    0    0  501 -0.00000000000E+00 -0.00000000000E+00 -0.12970930608E+04  0.12970930608E+04  0.00000000000E+00 0.  1.
         36    2    1    2    0    0 -0.71054273576E-14  0.14210854715E-13 -0.12824634363E+04  0.13117226852E+04  0.27550669206E+03 0.  0.
         25    2    3    3    0    0  0.33481458597E+02 -0.44268982444E+02 -0.74842529347E+03  0.75997137559E+03  0.11973020056E+03 0.  0.
         25    2    3    3    0    0 -0.33481458597E+02  0.44268982444E+02 -0.53403814285E+03  0.55175130962E+03  0.12709059276E+03 0.  0.
          5    1    4    4  502    0  0.75113593659E+02 -0.32113182940E+02 -0.36427148177E+03  0.37334851131E+03  0.47000000000E+01 0. -1.
         -5    1    4    4    0  502 -0.41632135062E+02 -0.12155799504E+02 -0.38415381171E+03  0.38662286428E+03  0.47000000000E+01 0. -1.
          5    1    5    5  503    0 -0.60726879592E+02  0.78887579565E+01 -0.11629505994E+03  0.13151660493E+03  0.47000000000E+01 0.  1.
         -5    1    5    5    0  503  0.27245420995E+02  0.36380224488E+02 -0.41774308291E+03  0.42023470468E+03  0.47000000000E+01 0.  1.
<mgrwt>
<rscale>  0 0.27550669E+03</rscale>
<asrwt>0</asrwt>
<pdfrwt beam="1">  1        2 0.22507101E-02 0.27550669E+03</pdfrwt>
<pdfrwt beam="2">  1       -2 0.19955290E+00 0.27550669E+03</pdfrwt>
<totfact> 0.67516410E+02</totfact>
</mgrwt>
</event>
<event>
 9    1  0.2074770E-002  0.2757313E+03  0.7818608E-02  0.1098044E+00
         -2   -1    0    0    0  501 -0.00000000000E+00  0.00000000000E+00  0.50889298935E+02  0.50889298935E+02  0.00000000000E+00 0.  1.
          2   -1    0    0  501    0  0.00000000000E+00 -0.00000000000E+00 -0.37349570083E+03  0.37349570083E+03  0.00000000000E+00 0.  1.
         36    2    1    2    0    0 -0.35527136788E-14 -0.35527136788E-14 -0.32260640190E+03  0.42438499977E+03  0.27573127766E+03 0.  0.
         25    2    3    3    0    0  0.24029108313E+02 -0.31133451634E+02 -0.23397525965E+03  0.26667665416E+03  0.12175929489E+03 0.  0.
         25    2    3    3    0    0 -0.24029108313E+02  0.31133451634E+02 -0.88631142252E+02  0.15770834560E+03  0.12437746194E+03 0.  0.
          5    1    4    4  502    0  0.26296013607E+02 -0.76365941499E+02 -0.12926671597E+03  0.15249659409E+03  0.47000000000E+01 0.  1.
         -5    1    4    4    0  502 -0.22669052943E+01  0.45232489865E+02 -0.10470854368E+03  0.11418006007E+03  0.47000000000E+01 0.  1.
          5    1    5    5  503    0 -0.77930745546E+01 -0.28699326872E+00 -0.11372507350E+03  0.11408898596E+03  0.47000000000E+01 0.  1.
         -5    1    5    5    0  503 -0.16236033759E+02  0.31420444902E+02  0.25093931245E+02  0.43619359640E+02  0.47000000000E+01 0.  1.
<mgrwt>
<rscale>  0 0.27573128E+03</rscale>
<asrwt>0</asrwt>
<pdfrwt beam="1">  1        2 0.57460879E-01 0.27573128E+03</pdfrwt>
<pdfrwt beam="2">  1       -2 0.78291226E-02 0.27573128E+03</pdfrwt>
<totfact> 0.83622654E+03</totfact>
</mgrwt>
</event>
<event>
 9    1  0.2074770E-002  0.2751124E+03  0.7818608E-02  0.1098389E+00
          2   -1    0    0  501    0  0.00000000000E+00  0.00000000000E+00  0.18365767083E+04  0.18365767083E+04  0.00000000000E+00 0.  1.
         -2   -1    0    0    0  501 -0.00000000000E+00 -0.00000000000E+00 -0.10302701888E+02  0.10302701888E+02  0.00000000000E+00 0.  1.
         36    2    1    2    0    0  0.71054273576E-14 -0.35527136788E-14  0.18262740064E+04  0.18468794101E+04  0.27511235756E+03 0.  0.
         25    2    3    3    0    0 -0.62149986056E+02 -0.31621130092E+02  0.71978920443E+03  0.73045767782E+03  0.10300195938E+03 0.  0.
         25    2    3    3    0    0  0.62149986056E+02  0.31621130092E+02  0.11064848019E+04  0.11164217323E+04  0.13124919373E+03 0.  0.
          5    1    4    4  502    0  0.15079522702E+01  0.30929807398E+02  0.11878225260E+03  0.12284233977E+03  0.47000000000E+01 0.  1.
         -5    1    4    4    0  502 -0.63657938327E+02 -0.62550937490E+02  0.60100695183E+03  0.60761533806E+03  0.47000000000E+01 0.  1.
          5    1    5    5  503    0 -0.15610557274E+02  0.65582844297E+01  0.76741793823E+03  0.76761909989E+03  0.47000000000E+01 0.  1.
         -5    1    5    5    0  503  0.77760543331E+02  0.25062845663E+02  0.33906686370E+03  0.34880263243E+03  0.47000000000E+01 0.  1.
<mgrwt>
<rscale>  0 0.27511236E+03</rscale>
<asrwt>0</asrwt>
<pdfrwt beam="1">  1        2 0.28255000E+00 0.27511236E+03</pdfrwt>
<pdfrwt beam="2">  1       -2 0.15850325E-02 0.27511236E+03</pdfrwt>
<totfact> 0.98530804E+03</totfact>
</mgrwt>
</event>
<event>
 9    1  0.2074770E-002  0.2752383E+03  0.7818608E-02  0.1098318E+00
          2   -1    0    0  501    0  0.00000000000E+00  0.00000000000E+00  0.35197078205E+03  0.35197078205E+03  0.00000000000E+00 0. -1.
         -2   -1    0    0    0  501 -0.00000000000E+00 -0.00000000000E+00 -0.53808522681E+02  0.53808522681E+02  0.00000000000E+00 0. -1.
         36    2    1    2    0    0  0.35527136788E-14 -0.14210854715E-13  0.29816225937E+03  0.40577930473E+03  0.27523828083E+03 0.  0.
         25    2    3    3    0    0  0.29761473726E+02  0.41175704972E+02  0.18154525918E+03  0.22762424881E+03  0.12756540879E+03 0.  0.
         25    2    3    3    0    0 -0.29761473726E+02 -0.41175704972E+02  0.11661700019E+03  0.17815505592E+03  0.12473377737E+03 0.  0.
          5    1    4    4  502    0  0.17641041940E+02  0.10135159414E+02 -0.16578924523E+02  0.26662305891E+02  0.47000000000E+01 0.  1.
         -5    1    4    4    0  502  0.12120431785E+02  0.31040545558E+02  0.19812418370E+03  0.20096194292E+03  0.47000000000E+01 0.  1.
          5    1    5    5  503    0  0.35974684487E+02 -0.60331569822E+01 -0.32513796581E+01  0.36922058133E+02  0.47000000000E+01 0. -1.
         -5    1    5    5    0  503 -0.65736158212E+02 -0.35142547990E+02  0.11986837985E+03  0.14123299778E+03  0.47000000000E+01 0. -1.
<mgrwt>
<rscale>  0 0.27523828E+03</rscale>
<asrwt>0</asrwt>
<pdfrwt beam="1">  1        2 0.54149350E-01 0.27523828E+03</pdfrwt>
<pdfrwt beam="2">  1       -2 0.82782345E-02 0.27523828E+03</pdfrwt>
<totfact> 0.81715589E+03</totfact>
</mgrwt>
</event>
<event>
 9    1  0.2074770E-002  0.2760958E+03  0.7818608E-02  0.1097841E+00
         -1   -1    0    0    0  501 -0.00000000000E+00  0.00000000000E+00  0.11665184913E+02  0.11665184913E+02  0.00000000000E+00 0. -1.
          1   -1    0    0  501    0  0.00000000000E+00 -0.00000000000E+00 -0.16336839593E+04  0.16336839593E+04  0.00000000000E+00 0. -1.
         36    2    1    2    0    0  0.00000000000E+00 -0.21316282073E-13 -0.16220187744E+04  0.16453491442E+04  0.27609582014E+03 0.  0.
         25    2    3    3    0    0  0.18987941262E+01 -0.55882121786E+02 -0.73399105357E+03  0.74688755973E+03  0.12637936225E+03 0.  0.
         25    2    3    3    0    0 -0.18987941262E+01  0.55882121786E+02 -0.88802772083E+03  0.89846158450E+03  0.12455347807E+03 0.  0.
          5    1    4    4  502    0 -0.10291774722E+02 -0.77331972511E+02 -0.24309883540E+03  0.25535326192E+03  0.47000000000E+01 0.  1.
         -5    1    4    4    0  502  0.12190568848E+02  0.21449850725E+02 -0.49089221817E+03  0.49153429781E+03  0.47000000000E+01 0.  1.
          5    1    5    5  503    0 -0.39132983289E+02  0.66838733638E+02 -0.32728208459E+03  0.33635466340E+03  0.47000000000E+01 0.  1.
         -5    1    5    5    0  503  0.37234189163E+02 -0.10956611853E+02 -0.56074563624E+03  0.56210692110E+03  0.47000000000E+01 0.  1.
<mgrwt>
<rscale>  0 0.27609582E+03</rscale>
<asrwt>0</asrwt>
<pdfrwt beam="1">  1        1 0.25133575E+00 0.27609582E+03</pdfrwt>
<pdfrwt beam="2">  1       -1 0.17946456E-02 0.27609582E+03</pdfrwt>
<totfact> 0.46939565E+03</totfact>
</mgrwt>
</event>
<event>
 9    1  0.2074770E-002  0.2735104E+03  0.7818608E-02  0.1099287E+00
          1   -1    0    0  501    0  0.00000000000E+00  0.00000000000E+00  0.28919868597E+03  0.28919868597E+03  0.00000000000E+00 0.  1.
         -1   -1    0    0    0  501 -0.00000000000E+00 -0.00000000000E+00 -0.64668299746E+02  0.64668299746E+02  0.00000000000E+00 0.  1.
         36    2    1    2    0    0  0.00000000000E+00  0.35527136788E-14  0.22453038622E+03  0.35386698571E+03  0.27351041889E+03 0.  0.
         25    2    3    3    0    0 -0.44387492203E+02 -0.23031229391E+02  0.13712762090E+03  0.19206355041E+03  0.12483483485E+03 0.  0.
         25    2    3    3    0    0  0.44387492203E+02  0.23031229391E+02  0.87402765323E+02  0.16180343530E+03  0.12665078483E+03 0.  0.
          5    1    4    4  502    0 -0.92083778292E+01 -0.67685091905E+02  0.10835876820E+03  0.12817869766E+03  0.47000000000E+01 0. -1.
         -5    1    4    4    0  502 -0.35179114373E+02  0.44653862514E+02  0.28768852703E+02  0.63884852753E+02  0.47000000000E+01 0. -1.
          5    1    5    5  503    0 -0.34375583514E+02 -0.17724027327E+02  0.26593492801E+01  0.39051043843E+02  0.47000000000E+01 0. -1.
         -5    1    5    5    0  503  0.78763075716E+02  0.40755256718E+02  0.84743416043E+02  0.12275239146E+03  0.47000000000E+01 0. -1.
<mgrwt>
<rscale>  0 0.27351042E+03</rscale>
<asrwt>0</asrwt>
<pdfrwt beam="1">  1        1 0.44492105E-01 0.27351042E+03</pdfrwt>
<pdfrwt beam="2">  1       -1 0.99489693E-02 0.27351042E+03</pdfrwt>
<totfact> 0.56009037E+03</totfact>
</mgrwt>
</event>
<event>
 9    1  0.2074770E-002  0.2757148E+03  0.7818608E-02  0.1098053E+00
          2   -1    0    0  501    0  0.00000000000E+00  0.00000000000E+00  0.44404242326E+03  0.44404242326E+03  0.00000000000E+00 0. -1.
         -2   -1    0    0    0  501 -0.00000000000E+00 -0.00000000000E+00 -0.42799205203E+02  0.42799205203E+02  0.00000000000E+00 0. -1.
         36    2    1    2    0    0 -0.71054273576E-14 -0.71054273576E-14  0.40124321806E+03  0.48684162847E+03  0.27571480042E+03 0.  0.
         25    2    3    3    0    0  0.19335439036E+02  0.37875524895E+02  0.16116036639E+03  0.21315086430E+03  0.13286162977E+03 0.  0.
         25    2    3    3    0    0 -0.19335439036E+02 -0.37875524895E+02  0.24008285167E+03  0.27369076417E+03  0.12433199161E+03 0.  0.
          5    1    4    4  502    0 -0.31148936897E+02  0.25975133000E+02  0.15549147103E+03  0.16076271759E+03  0.47000000000E+01 0.  1.
         -5    1    4    4    0  502  0.50484375933E+02  0.11900391895E+02  0.56688953620E+01  0.52388146706E+02  0.47000000000E+01 0.  1.
          5    1    5    5  503    0 -0.50209870333E+02 -0.69860568707E+02  0.16951819190E+03  0.19015792785E+03  0.47000000000E+01 0.  1.
         -5    1    5    5    0  503  0.30874431298E+02  0.31985043811E+02  0.70564659766E+02  0.83532836319E+02  0.47000000000E+01 0.  1.
<mgrwt>
<rscale>  0 0.27571480E+03</rscale>
<asrwt>0</asrwt>
<pdfrwt beam="1">  1        2 0.68314216E-01 0.27571480E+03</pdfrwt>
<pdfrwt beam="2">  1       -2 0.65844934E-02 0.27571480E+03</pdfrwt>
<totfact> 0.90596276E+03</totfact>
</mgrwt>
</event>
<event>
 8    1  0.2074770E-002  0.2995785E+03  0.7818608E-02  0.1085452E+00
         -2   -1    0    0    0  501 -0.00000000000E+00  0.00000000000E+00  0.86219909303E+01  0.86219909303E+01  0.00000000000E+00 0.  1.
          2   -1    0    0  501    0  0.00000000000E+00 -0.00000000000E+00 -0.26022783604E+04  0.26022783604E+04  0.00000000000E+00 0.  1.
         25    2    1    2    0    0  0.26301388252E+02 -0.66787856797E+02 -0.87553504376E+03  0.88663954970E+03  0.12006538800E+03 0.  0.
         25    2    1    2    0    0 -0.26301388252E+02  0.66787856797E+02 -0.17181213257E+04  0.17242608017E+04  0.12642009869E+03 0.  0.
          5    1    3    3  502    0 -0.67643354135E+01 -0.92853007923E+02 -0.49036786634E+03  0.49914944822E+03  0.47000000000E+01 0.  1.
         -5    1    3    3    0  502  0.33065723665E+02  0.26065151127E+02 -0.38516717742E+03  0.38749010148E+03  0.47000000000E+01 0.  1.
          5    1    4    4  503    0 -0.18288657721E+01  0.77242146324E+02 -0.16355310203E+04  0.16373617505E+04  0.47000000000E+01 0.  1.
         -5    1    4    4    0  503 -0.24472522480E+02 -0.10454289528E+02 -0.82590305494E+02  0.86899051132E+02  0.47000000000E+01 0.  1.
<mgrwt>
<rscale>  0 0.29957851E+03</rscale>
<asrwt>0</asrwt>
<pdfrwt beam="1">  1        2 0.40035132E+00 0.29957851E+03</pdfrwt>
<pdfrwt beam="2">  1       -2 0.13264575E-02 0.29957851E+03</pdfrwt>
<totfact> 0.49699718E+03</totfact>
</mgrwt>
</event>
<event>
 9    1  0.2074770E-002  0.2752372E+03  0.7818608E-02  0.1098319E+00
          2   -1    0    0  501    0  0.00000000000E+00  0.00000000000E+00  0.61261250067E+03  0.61261250067E+03  0.00000000000E+00 0.  1.
         -2   -1    0    0    0  501 -0.00000000000E+00 -0.00000000000E+00 -0.30914932691E+02  0.30914932691E+02  0.00000000000E+00 0.  1.
         36    2    1    2    0    0 -0.71054273576E-14  0.00000000000E+00  0.58169756798E+03  0.64352743336E+03  0.27523716482E+03 0.  0.
         25    2    3    3    0    0  0.29991124616E+02 -0.44734482240E+02  0.33958332798E+03  0.36639314247E+03  0.12659564271E+03 0.  0.
         25    2    3    3    0    0 -0.29991124616E+02  0.44734482240E+02  0.24211424000E+03  0.27713429089E+03  0.12362632615E+03 0.  0.
          5    1    4    4  502    0  0.10628590374E+02  0.17905637701E+02  0.87381312811E+00  0.21364277291E+02  0.47000000000E+01 0. -1.
         -5    1    4    4    0  502  0.19362534242E+02 -0.62640119941E+02  0.33870951485E+03  0.34502886518E+03  0.47000000000E+01 0. -1.
          5    1    5    5  503    0  0.22434841048E+02 -0.29887103288E+01 -0.17003370824E+01  0.23178343954E+02  0.47000000000E+01 0. -1.
         -5    1    5    5    0  503 -0.52425965664E+02  0.47723192569E+02  0.24381457709E+03  0.25395594694E+03  0.47000000000E+01 0. -1.
<mgrwt>
<rscale>  0 0.27523716E+03</rscale>
<asrwt>0</asrwt>
<pdfrwt beam="1">  1        2 0.94248068E-01 0.27523716E+03</pdfrwt>
<pdfrwt beam="2">  1       -2 0.47561440E-02 0.27523716E+03</pdfrwt>
<totfact> 0.10356699E+04</totfact>
</mgrwt>
</event>
<event>
 9    1  0.2074770E-002  0.2749361E+03  0.7818608E-02  0.1098487E+00
          1   -1    0    0  501    0  0.00000000000E+00  0.00000000000E+00  0.39479219414E+02  0.39479219414E+02  0.00000000000E+00 0. -1.
         -1   -1    0    0    0  501 -0.00000000000E+00 -0.00000000000E+00 -0.47866877019E+03  0.47866877019E+03  0.00000000000E+00 0. -1.
         36    2    1    2    0    0  0.71054273576E-14 -0.35527136788E-14 -0.43918955077E+03  0.51814798960E+03  0.27493613371E+03 0.  0.
         25    2    3    3    0    0 -0.32261258268E+02  0.23837904039E+02 -0.11965957799E+03  0.17214794623E+03  0.11707888936E+03 0.  0.
         25    2    3    3    0    0  0.32261258268E+02 -0.23837904039E+02 -0.31952997278E+03  0.34600004337E+03  0.12652111305E+03 0.  0.
          5    1    4    4  502    0 -0.21015352434E+02 -0.26058131293E+02 -0.11580750363E+03  0.12064053689E+03  0.47000000000E+01 0.  1.
         -5    1    4    4    0  502 -0.11245905834E+02  0.49896035333E+02 -0.38520743527E+01  0.51507409338E+02  0.47000000000E+01 0.  1.
          5    1    5    5  503    0 -0.12475598485E+02  0.25769362479E+02 -0.24123523179E+03  0.24297371803E+03  0.47000000000E+01 0. -1.
         -5    1    5    5    0  503  0.44736856753E+02 -0.49607266519E+02 -0.78294740999E+02  0.10302632533E+03  0.47000000000E+01 0. -1.
<mgrwt>
<rscale>  0 0.27493613E+03</rscale>
<asrwt>0</asrwt>
<pdfrwt beam="1">  1        1 0.60737260E-02 0.27493613E+03</pdfrwt>
<pdfrwt beam="2">  1       -1 0.73641350E-01 0.27493613E+03</pdfrwt>
<totfact> 0.24528580E+03</totfact>
</mgrwt>
</event>
<event>
 9    1  0.2074770E-002  0.2758436E+03  0.7818608E-02  0.1097981E+00
         -2   -1    0    0    0  501 -0.00000000000E+00  0.00000000000E+00  0.71891239895E+02  0.71891239895E+02  0.00000000000E+00 0. -1.
          2   -1    0    0  501    0  0.00000000000E+00 -0.00000000000E+00 -0.26459992190E+03  0.26459992190E+03  0.00000000000E+00 0. -1.
         36    2    1    2    0    0 -0.14210854715E-13  0.00000000000E+00 -0.19270868200E+03  0.33649116179E+03  0.27584355321E+03 0.  0.
         25    2    3    3    0    0  0.42725936101E+02 -0.23105255433E+02 -0.62423239091E+02  0.15032904707E+03  0.12783897360E+03 0.  0.
         25    2    3    3    0    0 -0.42725936101E+02  0.23105255433E+02 -0.13028544291E+03  0.18616211472E+03  0.12378480472E+03 0.  0.
          5    1    4    4  502    0 -0.37016831118E+02 -0.40005143782E+02 -0.19444382627E+02  0.58058860916E+02  0.47000000000E+01 0.  1.
         -5    1    4    4    0  502  0.79742767220E+02  0.16899888349E+02 -0.42978856463E+02  0.92270186154E+02  0.47000000000E+01 0.  1.
          5    1    5    5  503    0  0.60888964561E+01  0.60443691833E+02 -0.28728474827E+02  0.67364158188E+02  0.47000000000E+01 0.  1.
         -5    1    5    5    0  503 -0.48814832557E+02 -0.37338436400E+02 -0.10155696809E+03  0.11879795654E+03  0.47000000000E+01 0.  1.
<mgrwt>
<rscale>  0 0.27584355E+03</rscale>
<asrwt>0</asrwt>
<pdfrwt beam="1">  1        2 0.40707679E-01 0.27584355E+03</pdfrwt>
<pdfrwt beam="2">  1       -2 0.11060191E-01 0.27584355E+03</pdfrwt>
<totfact> 0.70214555E+03</totfact>
</mgrwt>
</event>
<event>
 9    1  0.2074770E-002  0.2803505E+03  0.7818608E-02  0.1095498E+00
         -1   -1    0    0    0  501 -0.00000000000E+00  0.00000000000E+00  0.89798367568E+02  0.89798367568E+02  0.00000000000E+00 0. -1.
          1   -1    0    0  501    0  0.00000000000E+00 -0.00000000000E+00 -0.21881363757E+03  0.21881363757E+03  0.00000000000E+00 0. -1.
         36    2    1    2    0    0  0.35527136788E-14  0.00000000000E+00 -0.12901527000E+03  0.30861200514E+03  0.28035054810E+03 0.  0.
         25    2    3    3    0    0  0.15723522215E+02  0.57627602004E+01 -0.70923514024E+02  0.15920524860E+03  0.14154761667E+03 0.  0.
         25    2    3    3    0    0 -0.15723522215E+02 -0.57627602004E+01 -0.58091755979E+02  0.14940675654E+03  0.13662828488E+03 0.  0.
          5    1    4    4  502    0 -0.19393823531E+02  0.62384946357E+02 -0.55336566693E+01  0.65732132776E+02  0.47000000000E+01 0. -1.
         -5    1    4    4    0  502  0.35117345746E+02 -0.56622186157E+02 -0.65389857355E+02  0.93473115827E+02  0.47000000000E+01 0. -1.
          5    1    5    5  503    0 -0.25206164010E+00  0.64659825491E+02 -0.20735512947E+02  0.68066203543E+02  0.47000000000E+01 0. -1.
         -5    1    5    5    0  503 -0.15471460575E+02 -0.70422585691E+02 -0.37356243033E+02  0.81340552993E+02  0.47000000000E+01 0. -1.
<mgrwt>
<rscale>  0 0.28035055E+03</rscale>
<asrwt>0</asrwt>
<pdfrwt beam="1">  1        1 0.33663636E-01 0.28035055E+03</pdfrwt>
<pdfrwt beam="2">  1       -1 0.13815134E-01 0.28035055E+03</pdfrwt>
<totfact> 0.47666977E+03</totfact>
</mgrwt>
</event>
<event>
 9    1  0.2074770E-002  0.2753353E+03  0.7818608E-02  0.1098264E+00
         -1   -1    0    0    0  501 -0.00000000000E+00  0.00000000000E+00  0.29987656007E+02  0.29987656007E+02  0.00000000000E+00 0.  1.
          1   -1    0    0  501    0  0.00000000000E+00 -0.00000000000E+00 -0.63200588483E+03  0.63200588483E+03  0.00000000000E+00 0.  1.
         36    2    1    2    0    0  0.71054273576E-14  0.00000000000E+00 -0.60201822882E+03  0.66199354084E+03  0.27533525070E+03 0.  0.
         25    2    3    3    0    0  0.60683202457E+02 -0.13447166687E+02 -0.27327761205E+03  0.30512570601E+03  0.12065556709E+03 0.  0.
         25    2    3    3    0    0 -0.60683202457E+02  0.13447166687E+02 -0.32874061677E+03  0.35686783483E+03  0.12418124280E+03 0.  0.
          5    1    4    4  502    0  0.45649635087E+02  0.51448687956E+02 -0.13974325502E+03  0.15582401612E+03  0.47000000000E+01 0.  1.
         -5    1    4    4    0  502  0.15033567370E+02 -0.64895854643E+02 -0.13353435703E+03  0.14930168989E+03  0.47000000000E+01 0.  1.
          5    1    5    5  503    0 -0.57180574429E+02  0.64757706245E+02 -0.18804329101E+03  0.20699166144E+03  0.47000000000E+01 0.  1.
         -5    1    5    5    0  503 -0.35026280284E+01 -0.51310539559E+02 -0.14069732576E+03  0.14987617339E+03  0.47000000000E+01 0.  1.
<mgrwt>
<rscale>  0 0.27533525E+03</rscale>
<asrwt>0</asrwt>
<pdfrwt beam="1">  1        1 0.97231678E-01 0.27533525E+03</pdfrwt>
<pdfrwt beam="2">  1       -1 0.46134854E-02 0.27533525E+03</pdfrwt>
<totfact> 0.64698604E+03</totfact>
</mgrwt>
</event>
<event>
 9    1  0.2074770E-002  0.2757190E+03  0.7818608E-02  0.1098050E+00
         -1   -1    0    0    0  501 -0.00000000000E+00  0.00000000000E+00  0.33590005233E+02  0.33590005233E+02  0.00000000000E+00 0. -1.
          1   -1    0    0  501    0  0.00000000000E+00 -0.00000000000E+00 -0.56580066926E+03  0.56580066926E+03  0.00000000000E+00 0. -1.
         36    2    1    2    0    0 -0.14210854715E-13  0.35527136788E-14 -0.53221066403E+03  0.59939067450E+03  0.27571904136E+03 0.  0.
         25    2    3    3    0    0 -0.60255615373E+02 -0.10890888855E+02 -0.27794207777E+03  0.30981483894E+03  0.12240949795E+03 0.  0.
         25    2    3    3    0    0  0.60255615373E+02  0.10890888855E+02 -0.25426858626E+03  0.28957583556E+03  0.12430728030E+03 0.  0.
          5    1    4    4  502    0  0.26585818765E+02 -0.37142489011E+02 -0.87580665241E+02  0.98887982957E+02  0.47000000000E+01 0.  1.
         -5    1    4    4    0  502 -0.86841434137E+02  0.26251600157E+02 -0.19036141253E+03  0.21092685598E+03  0.47000000000E+01 0.  1.
          5    1    5    5  503    0  0.90314668855E+02 -0.10460673614E+02 -0.12225055937E+03  0.15242524190E+03  0.47000000000E+01 0.  1.
         -5    1    5    5    0  503 -0.30059053482E+02  0.21351562469E+02 -0.13201802689E+03  0.13715059366E+03  0.47000000000E+01 0.  1.
<mgrwt>
<rscale>  0 0.27571904E+03</rscale>
<asrwt>0</asrwt>
<pdfrwt beam="1">  1        1 0.87046248E-01 0.27571904E+03</pdfrwt>
<pdfrwt beam="2">  1       -1 0.51676936E-02 0.27571904E+03</pdfrwt>
<totfact> 0.63659119E+03</totfact>
</mgrwt>
</event>
<event>
 9    1  0.2074770E-002  0.2753168E+03  0.7818608E-02  0.1098275E+00
          2   -1    0    0  501    0  0.00000000000E+00  0.00000000000E+00  0.22738291179E+03  0.22738291179E+03  0.00000000000E+00 0.  1.
         -2   -1    0    0    0  501 -0.00000000000E+00 -0.00000000000E+00 -0.83338846959E+02  0.83338846959E+02  0.00000000000E+00 0.  1.
         36    2    1    2    0    0  0.71054273576E-14  0.35527136788E-14  0.14404406483E+03  0.31072175875E+03  0.27531676075E+03 0.  0.
         25    2    3    3    0    0  0.54132869098E+02  0.25933031201E+02  0.60389485768E+02  0.15155561622E+03  0.12537673305E+03 0.  0.
         25    2    3    3    0    0 -0.54132869098E+02 -0.25933031201E+02  0.83654579067E+02  0.15916614253E+03  0.12137908678E+03 0.  0.
          5    1    4    4  502    0 -0.35777383005E+02 -0.15421918459E+02  0.10476593846E+02  0.40616569553E+02  0.47000000000E+01 0. -1.
         -5    1    4    4    0  502  0.89910252103E+02  0.41354949660E+02  0.49912891922E+02  0.11093904666E+03  0.47000000000E+01 0. -1.
          5    1    5    5  503    0 -0.75658148239E+02  0.21396472907E+02  0.29948617450E+02  0.84267277961E+02  0.47000000000E+01 0.  1.
         -5    1    5    5    0  503  0.21525279141E+02 -0.47329504109E+02  0.53705961617E+02  0.74898864574E+02  0.47000000000E+01 0.  1.
<mgrwt>
<rscale>  0 0.27531676E+03</rscale>
<asrwt>0</asrwt>
<pdfrwt beam="1">  1        2 0.34981986E-01 0.27531676E+03</pdfrwt>
<pdfrwt beam="2">  1       -2 0.12821361E-01 0.27531676E+03</pdfrwt>
<totfact> 0.65169464E+03</totfact>
</mgrwt>
</event>
<event>
 9    1  0.2074770E-002  0.2749649E+03  0.7818608E-02  0.1098471E+00
         -4   -1    0    0    0  501 -0.00000000000E+00  0.00000000000E+00  0.21081921955E+02  0.21081921955E+02  0.00000000000E+00 0.  1.
          4   -1    0    0  501    0  0.00000000000E+00 -0.00000000000E+00 -0.89657022430E+03  0.89657022430E+03  0.00000000000E+00 0.  1.
         36    2    1    2    0    0  0.35527136788E-14 -0.14210854715E-13 -0.87548830235E+03  0.91765214626E+03  0.27496489591E+03 0.  0.
         25    2    3    3    0    0 -0.15152421785E+02 -0.35251465485E+02 -0.34132496964E+03  0.36829253009E+03  0.13290745321E+03 0.  0.
         25    2    3    3    0    0  0.15152421785E+02  0.35251465485E+02 -0.53416333271E+03  0.54935961617E+03  0.12244696876E+03 0.  0.
          5    1    4    4  502    0  0.19855192143E+02  0.45378289692E+02 -0.13945125954E+03  0.14806134411E+03  0.47000000000E+01 0.  1.
         -5    1    4    4    0  502 -0.35007613928E+02 -0.80629755177E+02 -0.20187371010E+03  0.22023118599E+03  0.47000000000E+01 0.  1.
          5    1    5    5  503    0  0.32942711960E+02  0.75956410736E+02 -0.31849375091E+03  0.32911237894E+03  0.47000000000E+01 0.  1.
         -5    1    5    5    0  503 -0.17790290175E+02 -0.40704945251E+02 -0.21566958180E+03  0.22024723723E+03  0.47000000000E+01 0.  1.
<mgrwt>
<rscale>  0 0.27496490E+03</rscale>
<asrwt>0</asrwt>
<pdfrwt beam="1">  1        4 0.13793389E+00 0.27496490E+03</pdfrwt>
<pdfrwt beam="2">  1       -4 0.32433724E-02 0.27496490E+03</pdfrwt>
<totfact> 0.34985690E+02</totfact>
</mgrwt>
</event>
<event>
 9    1  0.2074770E-002  0.2761120E+03  0.7818608E-02  0.1097832E+00
         -1   -1    0    0    0  501 -0.00000000000E+00  0.00000000000E+00  0.21190850507E+03  0.21190850507E+03  0.00000000000E+00 0. -1.
          1   -1    0    0  501    0  0.00000000000E+00 -0.00000000000E+00 -0.89941896390E+02  0.89941896390E+02  0.00000000000E+00 0. -1.
         36    2    1    2    0    0  0.00000000000E+00  0.00000000000E+00  0.12196660868E+03  0.30185040146E+03  0.27611195415E+03 0.  0.
         25    2    3    3    0    0 -0.46060792588E+02 -0.24502203574E+02  0.52948924808E+02  0.15095066117E+03  0.13137944616E+03 0.  0.
         25    2    3    3    0    0  0.46060792588E+02  0.24502203574E+02  0.69017683868E+02  0.15089974029E+03  0.12363388022E+03 0.  0.
          5    1    4    4  502    0  0.13208800713E+02 -0.59413442076E+02 -0.44928439736E+01  0.61210335422E+02  0.47000000000E+01 0. -1.
         -5    1    4    4    0  502 -0.59269593301E+02  0.34911238501E+02  0.57441768781E+02  0.89740325743E+02  0.47000000000E+01 0. -1.
          5    1    5    5  503    0 -0.19500784366E+01 -0.13124983478E+02 -0.30777601639E+02  0.33844035809E+02  0.47000000000E+01 0. -1.
         -5    1    5    5    0  503  0.48010871025E+02  0.37627187052E+02  0.99795285507E+02  0.11705570448E+03  0.47000000000E+01 0. -1.
<mgrwt>
<rscale>  0 0.27611195E+03</rscale>
<asrwt>0</asrwt>
<pdfrwt beam="1">  1        1 0.13837215E-01 0.27611195E+03</pdfrwt>
<pdfrwt beam="2">  1       -1 0.32601308E-01 0.27611195E+03</pdfrwt>
<totfact> 0.36531133E+03</totfact>
</mgrwt>
</event>
<event>
 9    1  0.2074770E-002  0.2753693E+03  0.7818608E-02  0.1098245E+00
         -1   -1    0    0    0  501 -0.00000000000E+00  0.00000000000E+00  0.79461692981E+03  0.79461692981E+03  0.00000000000E+00 0.  1.
          1   -1    0    0  501    0  0.00000000000E+00 -0.00000000000E+00 -0.23856856970E+02  0.23856856970E+02  0.00000000000E+00 0.  1.
         36    2    1    2    0    0  0.00000000000E+00 -0.71054273576E-14  0.77076007284E+03  0.81847378678E+03  0.27536929705E+03 0.  0.
         25    2    3    3    0    0  0.20263164652E+02  0.41014438426E+02  0.26175501614E+03  0.29230671164E+03  0.12179796874E+03 0.  0.
         25    2    3    3    0    0 -0.20263164652E+02 -0.41014438426E+02  0.50900505669E+03  0.52616707514E+03  0.12519130650E+03 0.  0.
          5    1    4    4  502    0  0.42814948801E+02  0.99645667348E+01  0.21865105631E+02  0.49321245679E+02  0.47000000000E+01 0.  1.
         -5    1    4    4    0  502 -0.22551784149E+02  0.31049871691E+02  0.23988991051E+03  0.24298546596E+03  0.47000000000E+01 0.  1.
          5    1    5    5  503    0 -0.35231422141E+02  0.18781936022E+02  0.38996622258E+03  0.39203285446E+03  0.47000000000E+01 0.  1.
         -5    1    5    5    0  503  0.14968257489E+02 -0.59796374448E+02  0.11903883411E+03  0.13413422068E+03  0.47000000000E+01 0.  1.
<mgrwt>
<rscale>  0 0.27536930E+03</rscale>
<asrwt>0</asrwt>
<pdfrwt beam="1">  1        1 0.36702863E-02 0.27536930E+03</pdfrwt>
<pdfrwt beam="2">  1       -1 0.12224874E+00 0.27536930E+03</pdfrwt>
<totfact> 0.16219000E+03</totfact>
</mgrwt>
</event>
<event>
 9    1  0.2074770E-002  0.2765354E+03  0.7818608E-02  0.1097596E+00
         -2   -1    0    0    0  501 -0.00000000000E+00  0.00000000000E+00  0.91360734725E+02  0.91360734725E+02  0.00000000000E+00 0.  1.
          2   -1    0    0  501    0  0.00000000000E+00 -0.00000000000E+00 -0.20925792421E+03  0.20925792421E+03  0.00000000000E+00 0.  1.
         36    2    1    2    0    0  0.00000000000E+00 -0.35527136788E-14 -0.11789718948E+03  0.30061865893E+03  0.27653540607E+03 0.  0.
         25    2    3    3    0    0  0.53042158536E+01 -0.30126244606E+02 -0.13688327553E+03  0.18525357527E+03  0.12102119944E+03 0.  0.
         25    2    3    3    0    0 -0.53042158536E+01  0.30126244606E+02  0.18986086043E+02  0.11536508366E+03  0.10960340207E+03 0.  0.
          5    1    4    4  502    0  0.27233704708E+02 -0.47629150416E+02 -0.10946907241E+02  0.56143881409E+02  0.47000000000E+01 0.  1.
         -5    1    4    4    0  502 -0.21929488854E+02  0.17502905810E+02 -0.12593636828E+03  0.12910969386E+03  0.47000000000E+01 0.  1.
          5    1    5    5  503    0  0.15039369648E+02  0.86780291992E+01 -0.42955657366E+02  0.46570047562E+02  0.47000000000E+01 0.  1.
         -5    1    5    5    0  503 -0.20343585502E+02  0.21448215407E+02  0.61941743409E+02  0.68795036098E+02  0.47000000000E+01 0.  1.
<mgrwt>
<rscale>  0 0.27653541E+03</rscale>
<asrwt>0</asrwt>
<pdfrwt beam="1">  1        2 0.32193527E-01 0.27653541E+03</pdfrwt>
<pdfrwt beam="2">  1       -2 0.14055498E-01 0.27653541E+03</pdfrwt>
<totfact> 0.61405843E+03</totfact>
</mgrwt>
</event>
<event>
 9    1  0.2074770E-002  0.2756026E+03  0.7818608E-02  0.1098115E+00
          2   -1    0    0  501    0  0.00000000000E+00  0.00000000000E+00  0.31221404221E+03  0.31221404221E+03  0.00000000000E+00 0.  1.
         -2   -1    0    0    0  501 -0.00000000000E+00 -0.00000000000E+00 -0.60821087304E+02  0.60821087304E+02  0.00000000000E+00 0.  1.
         36    2    1    2    0    0  0.00000000000E+00  0.00000000000E+00  0.25139295491E+03  0.37303512952E+03  0.27560259447E+03 0.  0.
         25    2    3    3    0    0 -0.40043219313E+02  0.35509992550E+01  0.59447113091E+02  0.14268223629E+03  0.12332149971E+03 0.  0.
         25    2    3    3    0    0  0.40043219313E+02 -0.35509992550E+01  0.19194584182E+03  0.23035289322E+03  0.12084361885E+03 0.  0.
          5    1    4    4  502    0 -0.68578781863E+02 -0.32253596239E+02  0.59806678738E+02  0.96655432407E+02  0.47000000000E+01 0. -1.
         -5    1    4    4    0  502  0.28535562549E+02  0.35804595494E+02 -0.35956564703E+00  0.46026803886E+02  0.47000000000E+01 0. -1.
          5    1    5    5  503    0  0.23547047207E+02  0.58097593822E+02  0.84927078490E+02  0.10566216211E+03  0.47000000000E+01 0. -1.
         -5    1    5    5    0  503  0.16496172106E+02 -0.61648593077E+02  0.10701876333E+03  0.12469073112E+03  0.47000000000E+01 0. -1.
<mgrwt>
<rscale>  0 0.27560259E+03</rscale>
<asrwt>0</asrwt>
<pdfrwt beam="1">  1        2 0.48032929E-01 0.27560259E+03</pdfrwt>
<pdfrwt beam="2">  1       -2 0.93570905E-02 0.27560259E+03</pdfrwt>
<totfact> 0.76683539E+03</totfact>
</mgrwt>
</event>
<event>
 9    1  0.2074770E-002  0.2741561E+03  0.7818608E-02  0.1098924E+00
          3   -1    0    0  501    0  0.00000000000E+00  0.00000000000E+00  0.55418141436E+02  0.55418141436E+02  0.00000000000E+00 0. -1.
         -3   -1    0    0    0  501 -0.00000000000E+00 -0.00000000000E+00 -0.33906560142E+03  0.33906560142E+03  0.00000000000E+00 0. -1.
         36    2    1    2    0    0  0.00000000000E+00  0.00000000000E+00 -0.28364745998E+03  0.39448374285E+03  0.27415605377E+03 0.  0.
         25    2    3    3    0    0 -0.14025986962E+02 -0.39542979579E+02 -0.18649383033E+03  0.22996256894E+03  0.12783762677E+03 0.  0.
         25    2    3    3    0    0  0.14025986962E+02  0.39542979579E+02 -0.97153629646E+02  0.16452117391E+03  0.12596830303E+03 0.  0.
          5    1    4    4  502    0 -0.66837307458E+02 -0.10747830782E+02 -0.63355084805E+02  0.92836944723E+02  0.47000000000E+01 0.  1.
         -5    1    4    4    0  502  0.52811320496E+02 -0.28795148797E+02 -0.12313874553E+03  0.13712562422E+03  0.47000000000E+01 0.  1.
          5    1    5    5  503    0  0.36678412305E+02 -0.15018379101E+02  0.10820287976E+02  0.41352463916E+02  0.47000000000E+01 0. -1.
         -5    1    5    5    0  503 -0.22652425343E+02  0.54561358680E+02 -0.10797391762E+03  0.12316870999E+03  0.47000000000E+01 0. -1.
<mgrwt>
<rscale>  0 0.27415605E+03</rscale>
<asrwt>0</asrwt>
<pdfrwt beam="1">  1        3 0.85258682E-02 0.27415605E+03</pdfrwt>
<pdfrwt beam="2">  1       -3 0.52163937E-01 0.27415605E+03</pdfrwt>
<totfact> 0.89550507E+02</totfact>
</mgrwt>
</event>
<event>
 8    1  0.2074770E-002  0.4071644E+03  0.7818608E-02  0.1041327E+00
          2   -1    0    0  501    0  0.00000000000E+00  0.00000000000E+00  0.14067899373E+04  0.14067899373E+04  0.00000000000E+00 0. -1.
         -2   -1    0    0    0  501 -0.00000000000E+00 -0.00000000000E+00 -0.29461188870E+02  0.29461188870E+02  0.00000000000E+00 0. -1.
         25    2    1    2    0    0  0.14442584488E+03  0.70992367957E+02  0.62241068521E+03  0.65508532675E+03  0.12586891309E+03 0.  0.
         25    2    1    2    0    0 -0.14442584488E+03 -0.70992367957E+02  0.75491806321E+03  0.78116579941E+03  0.12008323376E+03 0.  0.
          5    1    3    3  502    0  0.94355186323E+01 -0.72058935610E+01  0.26225688460E+03  0.26256754833E+03  0.47000000000E+01 0.  1.
         -5    1    3    3    0  502  0.13499032625E+03  0.78198261518E+02  0.36015380061E+03  0.39251777843E+03  0.47000000000E+01 0.  1.
          5    1    4    4  503    0  0.82590472504E+01 -0.28960761197E+02  0.25316547006E+03  0.25499369165E+03  0.47000000000E+01 0.  1.
         -5    1    4    4    0  503 -0.15268489213E+03 -0.42031606759E+02  0.50175259314E+03  0.52617210775E+03  0.47000000000E+01 0.  1.
<mgrwt>
<rscale>  0 0.40716436E+03</rscale>
<asrwt>0</asrwt>
<pdfrwt beam="1">  1        2 0.21642917E+00 0.40716436E+03</pdfrwt>
<pdfrwt beam="2">  1       -2 0.45324917E-02 0.40716436E+03</pdfrwt>
<totfact> 0.34899875E+03</totfact>
</mgrwt>
</event>
<event>
 9    1  0.2074770E-002  0.2760791E+03  0.7818608E-02  0.1097850E+00
          2   -1    0    0  501    0  0.00000000000E+00  0.00000000000E+00  0.19377209292E+04  0.19377209292E+04  0.00000000000E+00 0. -1.
         -2   -1    0    0    0  501 -0.00000000000E+00 -0.00000000000E+00 -0.98336761688E+01  0.98336761688E+01  0.00000000000E+00 0. -1.
         36    2    1    2    0    0  0.00000000000E+00  0.00000000000E+00  0.19278872530E+04  0.19475546053E+04  0.27607911998E+03 0.  0.
         25    2    3    3    0    0  0.57058699806E+02 -0.84878067098E+01  0.94242246322E+03  0.95221405984E+03  0.12338467691E+03 0.  0.
         25    2    3    3    0    0 -0.57058699806E+02  0.84878067098E+01  0.98546478978E+03  0.99534054550E+03  0.12741354529E+03 0.  0.
          5    1    4    4  502    0  0.18455991698E+02 -0.42494937268E+02  0.12891374875E+03  0.13706672805E+03  0.47000000000E+01 0.  1.
         -5    1    4    4    0  502  0.38602708108E+02  0.34007130559E+02  0.81350871447E+03  0.81514733179E+03  0.47000000000E+01 0.  1.
          5    1    5    5  503    0  0.39398153892E+02  0.11591475793E+02  0.22539248675E+03  0.22915156540E+03  0.47000000000E+01 0.  1.
         -5    1    5    5    0  503 -0.96456853698E+02 -0.31036690836E+01  0.76007230304E+03  0.76618898010E+03  0.47000000000E+01 0.  1.
<mgrwt>
<rscale>  0 0.27607912E+03</rscale>
<asrwt>0</asrwt>
<pdfrwt beam="1">  1        2 0.29811061E+00 0.27607912E+03</pdfrwt>
<pdfrwt beam="2">  1       -2 0.15128748E-02 0.27607912E+03</pdfrwt>
<totfact> 0.93349419E+03</totfact>
</mgrwt>
</event>
<event>
 9    1  0.2074770E-002  0.2749587E+03  0.7818608E-02  0.1098475E+00
         -2   -1    0    0    0  501 -0.00000000000E+00  0.00000000000E+00  0.18238371535E+02  0.18238371535E+02  0.00000000000E+00 0.  1.
          2   -1    0    0  501    0  0.00000000000E+00 -0.00000000000E+00 -0.10363081454E+04  0.10363081454E+04  0.00000000000E+00 0.  1.
         36    2    1    2    0    0  0.00000000000E+00  0.35527136788E-14 -0.10180697738E+04  0.10545465169E+04  0.27495870948E+03 0.  0.
         25    2    3    3    0    0 -0.49385915239E+02  0.14009005553E+02 -0.43718692681E+03  0.45856823987E+03  0.12851926231E+03 0.  0.
         25    2    3    3    0    0  0.49385915239E+02 -0.14009005553E+02 -0.58088284704E+03  0.59597827704E+03  0.12300408070E+03 0.  0.
          5    1    4    4  502    0 -0.51882276196E+02  0.59925207326E+02 -0.17279013699E+03  0.19016130652E+03  0.47000000000E+01 0. -1.
         -5    1    4    4    0  502  0.24963609568E+01 -0.45916201773E+02 -0.26439678982E+03  0.26840693335E+03  0.47000000000E+01 0. -1.
          5    1    5    5  503    0  0.68113366575E+00  0.25093029598E+02 -0.22328869711E+02  0.33923332678E+02  0.47000000000E+01 0. -1.
         -5    1    5    5    0  503  0.48704781573E+02 -0.39102035151E+02 -0.55855397732E+03  0.56205494437E+03  0.47000000000E+01 0. -1.
<mgrwt>
<rscale>  0 0.27495871E+03</rscale>
<asrwt>0</asrwt>
<pdfrwt beam="1">  1        2 0.15943209E+00 0.27495871E+03</pdfrwt>
<pdfrwt beam="2">  1       -2 0.28059020E-02 0.27495871E+03</pdfrwt>
<totfact> 0.11648713E+04</totfact>
</mgrwt>
</event>
<event>
 9    1  0.2074770E-002  0.2750143E+03  0.7818608E-02  0.1098444E+00
         -2   -1    0    0    0  501 -0.00000000000E+00  0.00000000000E+00  0.75635209205E+03  0.75635209205E+03  0.00000000000E+00 0. -1.
          2   -1    0    0  501    0  0.00000000000E+00 -0.00000000000E+00 -0.24999229977E+02  0.24999229977E+02  0.00000000000E+00 0. -1.
         36    2    1    2    0    0 -0.35527136788E-14  0.00000000000E+00  0.73135286207E+03  0.78135132202E+03  0.27501432612E+03 0.  0.
         25    2    3    3    0    0  0.28664163940E+02  0.27094155186E+02  0.48628604052E+03  0.50340860432E+03  0.12405797899E+03 0.  0.
         25    2    3    3    0    0 -0.28664163940E+02 -0.27094155186E+02  0.24506682155E+03  0.27794271771E+03  0.12505470709E+03 0.  0.
          5    1    4    4  502    0 -0.25254781536E+02 -0.17280755039E+02  0.33822257692E+03  0.33963661467E+03  0.47000000000E+01 0.  1.
         -5    1    4    4    0  502  0.53918945476E+02  0.44374910225E+02  0.14806346361E+03  0.16377198965E+03  0.47000000000E+01 0.  1.
          5    1    5    5  503    0 -0.75910391008E+01  0.50139386554E+02  0.94043642399E+02  0.10694801838E+03  0.47000000000E+01 0. -1.
         -5    1    5    5    0  503 -0.21073124840E+02 -0.77233541740E+02  0.15102317915E+03  0.17099469933E+03  0.47000000000E+01 0. -1.
<mgrwt>
<rscale>  0 0.27501433E+03</rscale>
<asrwt>0</asrwt>
<pdfrwt beam="1">  1        2 0.38460360E-02 0.27501433E+03</pdfrwt>
<pdfrwt beam="2">  1       -2 0.11636184E+00 0.27501433E+03</pdfrwt>
<totfact> 0.13369596E+03</totfact>
</mgrwt>
</event>
<event>
 9    1  0.2074770E-002  0.2736465E+03  0.7818608E-02  0.1099211E+00
         -2   -1    0    0    0  501 -0.00000000000E+00  0.00000000000E+00  0.14963529987E+02  0.14963529987E+02  0.00000000000E+00 0.  1.
          2   -1    0    0  501    0  0.00000000000E+00 -0.00000000000E+00 -0.12510822748E+04  0.12510822748E+04  0.00000000000E+00 0.  1.
         36    2    1    2    0    0 -0.35527136788E-14  0.00000000000E+00 -0.12361187448E+04  0.12660458048E+04  0.27364653942E+03 0.  0.
         25    2    3    3    0    0  0.31306727188E+02 -0.14789806383E+00 -0.47095976586E+03  0.48824294373E+03  0.12489170511E+03 0.  0.
         25    2    3    3    0    0 -0.31306727188E+02  0.14789806383E+00 -0.76515897894E+03  0.77780286104E+03  0.13612088212E+03 0.  0.
          5    1    4    4  502    0  0.34361197098E+02 -0.56170258921E+02 -0.17633420066E+03  0.18828603287E+03  0.47000000000E+01 0. -1.
         -5    1    4    4    0  502 -0.30544699102E+01  0.56022360857E+02 -0.29462556520E+03  0.29995691086E+03  0.47000000000E+01 0. -1.
          5    1    5    5  503    0 -0.80392629266E+02  0.22922588076E+02 -0.40428860739E+03  0.41286776085E+03  0.47000000000E+01 0.  1.
         -5    1    5    5    0  503  0.49085902078E+02 -0.22774690012E+02 -0.36087037155E+03  0.36493510019E+03  0.47000000000E+01 0.  1.
<mgrwt>
<rscale>  0 0.27364654E+03</rscale>
<asrwt>0</asrwt>
<pdfrwt beam="1">  1        2 0.19247428E+00 0.27364654E+03</pdfrwt>
<pdfrwt beam="2">  1       -2 0.23020806E-02 0.27364654E+03</pdfrwt>
<totfact> 0.11723154E+04</totfact>
</mgrwt>
</event>
<event>
 9    1  0.2074770E-002  0.2746810E+03  0.7818608E-02  0.1098630E+00
          2   -1    0    0  501    0  0.00000000000E+00  0.00000000000E+00  0.11300613802E+04  0.11300613802E+04  0.00000000000E+00 0. -1.
         -2   -1    0    0    0  501 -0.00000000000E+00 -0.00000000000E+00 -0.16691497233E+02  0.16691497233E+02  0.00000000000E+00 0. -1.
         36    2    1    2    0    0  0.00000000000E+00  0.00000000000E+00  0.11133698829E+04  0.11467528774E+04  0.27468102519E+03 0.  0.
         25    2    3    3    0    0 -0.61255079649E+02  0.88677658744E+01  0.60896466449E+03  0.62326544271E+03  0.11743520522E+03 0.  0.
         25    2    3    3    0    0  0.61255079649E+02 -0.88677658744E+01  0.50440521843E+03  0.52348743467E+03  0.12563298862E+03 0.  0.
          5    1    4    4  502    0 -0.59748278590E+02  0.16274868412E+01  0.61127119335E+03  0.61420441819E+03  0.47000000000E+01 0.  1.
         -5    1    4    4    0  502 -0.15068010590E+01  0.72402790332E+01 -0.23065288600E+01  0.90610245167E+01  0.47000000000E+01 0.  1.
          5    1    5    5  503    0 -0.18146692054E-01 -0.36502526974E+02  0.38194208100E+03  0.38371119093E+03  0.47000000000E+01 0.  1.
         -5    1    5    5    0  503  0.61273226341E+02  0.27634761100E+02  0.12246313743E+03  0.13977624375E+03  0.47000000000E+01 0.  1.
<mgrwt>
<rscale>  0 0.27468103E+03</rscale>
<asrwt>0</asrwt>
<pdfrwt beam="1">  1        2 0.17385554E+00 0.27468103E+03</pdfrwt>
<pdfrwt beam="2">  1       -2 0.25679235E-02 0.27468103E+03</pdfrwt>
<totfact> 0.11692350E+04</totfact>
</mgrwt>
</event>
<event>
 9    1  0.2074770E-002  0.2748645E+03  0.7818608E-02  0.1098527E+00
          1   -1    0    0  501    0  0.00000000000E+00  0.00000000000E+00  0.10809553299E+04  0.10809553299E+04  0.00000000000E+00 0.  1.
         -1   -1    0    0    0  501 -0.00000000000E+00 -0.00000000000E+00 -0.17473088445E+02  0.17473088445E+02  0.00000000000E+00 0.  1.
         36    2    1    2    0    0  0.00000000000E+00  0.00000000000E+00  0.10634822415E+04  0.10984284184E+04  0.27486453453E+03 0.  0.
         25    2    3    3    0    0  0.28468578239E+02  0.15419191221E+02  0.52281443413E+03  0.53897971231E+03  0.12694875481E+03 0.  0.
         25    2    3    3    0    0 -0.28468578239E+02 -0.15419191221E+02  0.54066780737E+03  0.55944870608E+03  0.14004629734E+03 0.  0.
          5    1    4    4  502    0 -0.25399007649E+02 -0.28484031676E+01  0.42453454531E+03  0.42532915860E+03  0.47000000000E+01 0. -1.
         -5    1    4    4    0  502  0.53867585888E+02  0.18267594389E+02  0.98279888814E+02  0.11365055371E+03  0.47000000000E+01 0. -1.
          5    1    5    5  503    0  0.89232644872E+01 -0.72376619692E+02  0.22864069815E+03  0.24003470286E+03  0.47000000000E+01 0.  1.
         -5    1    5    5    0  503 -0.37391842726E+02  0.56957428471E+02  0.31202710922E+03  0.31941400322E+03  0.47000000000E+01 0.  1.
<mgrwt>
<rscale>  0 0.27486453E+03</rscale>
<asrwt>0</asrwt>
<pdfrwt beam="1">  1        1 0.16630077E+00 0.27486453E+03</pdfrwt>
<pdfrwt beam="2">  1       -1 0.26881683E-02 0.27486453E+03</pdfrwt>
<totfact> 0.61775543E+03</totfact>
</mgrwt>
</event>
<event>
 9    1  0.2074770E-002  0.2750727E+03  0.7818608E-02  0.1098411E+00
          2   -1    0    0  501    0  0.00000000000E+00  0.00000000000E+00  0.85633164536E+01  0.85633164536E+01  0.00000000000E+00 0. -1.
         -2   -1    0    0    0  501 -0.00000000000E+00 -0.00000000000E+00 -0.22089865798E+04  0.22089865798E+04  0.00000000000E+00 0. -1.
         36    2    1    2    0    0  0.35527136788E-14  0.71054273576E-14 -0.22004232633E+04  0.22175498962E+04  0.27507272583E+03 0.  0.
         25    2    3    3    0    0  0.26606802045E+02  0.27768360734E+02 -0.13773165100E+04  0.13836482361E+04  0.12650165500E+03 0.  0.
         25    2    3    3    0    0 -0.26606802045E+02 -0.27768360734E+02 -0.82310675330E+03  0.83390166013E+03  0.12809468241E+03 0.  0.
          5    1    4    4  502    0  0.40860867785E+02  0.66886996066E+02 -0.11368727229E+04  0.11395811331E+04  0.47000000000E+01 0. -1.
         -5    1    4    4    0  502 -0.14254065740E+02 -0.39118635332E+02 -0.24044378709E+03  0.24406710301E+03  0.47000000000E+01 0. -1.
          5    1    5    5  503    0  0.22129292955E+02 -0.62794780300E+02 -0.56173942779E+03  0.56569087386E+03  0.47000000000E+01 0.  1.
         -5    1    5    5    0  503 -0.48736094999E+02  0.35026419566E+02 -0.26136732551E+03  0.26821078626E+03  0.47000000000E+01 0.  1.
<mgrwt>
<rscale>  0 0.27507273E+03</rscale>
<asrwt>0</asrwt>
<pdfrwt beam="1">  1        2 0.13174348E-02 0.27507273E+03</pdfrwt>
<pdfrwt beam="2">  1       -2 0.33984370E+00 0.27507273E+03</pdfrwt>
<totfact> 0.20834366E+02</totfact>
</mgrwt>
</event>
<event>
 9    1  0.2074770E-002  0.2753505E+03  0.7818608E-02  0.1098256E+00
         -1   -1    0    0    0  501 -0.00000000000E+00  0.00000000000E+00  0.19427400012E+03  0.19427400012E+03  0.00000000000E+00 0. -1.
          1   -1    0    0  501    0  0.00000000000E+00 -0.00000000000E+00 -0.97565663546E+02  0.97565663546E+02  0.00000000000E+00 0. -1.
         36    2    1    2    0    0  0.35527136788E-14  0.71054273576E-14  0.96708336576E+02  0.29183966367E+03  0.27535048016E+03 0.  0.
         25    2    3    3    0    0 -0.18367990472E+02  0.16747261908E+02  0.26616011393E+01  0.12867280032E+03  0.12622104248E+03 0.  0.
         25    2    3    3    0    0  0.18367990472E+02 -0.16747261908E+02  0.94046735437E+02  0.16316686335E+03  0.13099917173E+03 0.  0.
          5    1    4    4  502    0  0.34891998841E+02  0.52927954319E+02 -0.44521142317E+01  0.63723867214E+02  0.47000000000E+01 0. -1.
         -5    1    4    4    0  502 -0.53259989313E+02 -0.36180692411E+02  0.71137153709E+01  0.64948933104E+02  0.47000000000E+01 0. -1.
          5    1    5    5  503    0  0.68003791106E+00 -0.67698270737E+02  0.18712458773E+02  0.70397190467E+02  0.47000000000E+01 0.  1.
         -5    1    5    5    0  503  0.17687952561E+02  0.50951008829E+02  0.75334276664E+02  0.92769672884E+02  0.47000000000E+01 0.  1.
<mgrwt>
<rscale>  0 0.27535048E+03</rscale>
<asrwt>0</asrwt>
<pdfrwt beam="1">  1        1 0.15010102E-01 0.27535048E+03</pdfrwt>
<pdfrwt beam="2">  1       -1 0.29888307E-01 0.27535048E+03</pdfrwt>
<totfact> 0.38078654E+03</totfact>
</mgrwt>
</event>
<event>
 9    1  0.2074770E-002  0.2736295E+03  0.7818608E-02  0.1099220E+00
          1   -1    0    0  501    0  0.00000000000E+00  0.00000000000E+00  0.10664065305E+03  0.10664065305E+03  0.00000000000E+00 0. -1.
         -1   -1    0    0    0  501 -0.00000000000E+00 -0.00000000000E+00 -0.17552660569E+03  0.17552660569E+03  0.00000000000E+00 0. -1.
         36    2    1    2    0    0  0.35527136788E-14  0.14210854715E-13 -0.68885952636E+02  0.28216725874E+03  0.27362947106E+03 0.  0.
         25    2    3    3    0    0 -0.13671800232E+02  0.42874967756E+02 -0.66310855686E+02  0.14717206073E+03  0.12343947867E+03 0.  0.
         25    2    3    3    0    0  0.13671800232E+02 -0.42874967756E+02 -0.25750969496E+01  0.13499519801E+03  0.12724736296E+03 0.  0.
          5    1    4    4  502    0 -0.65420930163E+02  0.56218805328E+01 -0.22107250007E+02  0.69442956065E+02  0.47000000000E+01 0. -1.
         -5    1    4    4    0  502  0.51749129932E+02  0.37253087223E+02 -0.44203605679E+02  0.77729104660E+02  0.47000000000E+01 0. -1.
          5    1    5    5  503    0 -0.20155998960E+02 -0.79188652972E+02 -0.15934844353E+02  0.83385348342E+02  0.47000000000E+01 0.  1.
         -5    1    5    5    0  503  0.33827799192E+02  0.36313685216E+02  0.13359747403E+02  0.51609849668E+02  0.47000000000E+01 0.  1.
<mgrwt>
<rscale>  0 0.27362947E+03</rscale>
<asrwt>0</asrwt>
<pdfrwt beam="1">  1        1 0.16406255E-01 0.27362947E+03</pdfrwt>
<pdfrwt beam="2">  1       -1 0.27004093E-01 0.27362947E+03</pdfrwt>
<totfact> 0.40226827E+03</totfact>
</mgrwt>
</event>
<event>
 9    1  0.2074770E-002  0.2747447E+03  0.7818608E-02  0.1098594E+00
          1   -1    0    0  501    0  0.00000000000E+00  0.00000000000E+00  0.15131228866E+04  0.15131228866E+04  0.00000000000E+00 0.  1.
         -1   -1    0    0    0  501 -0.00000000000E+00 -0.00000000000E+00 -0.12471668209E+02  0.12471668209E+02  0.00000000000E+00 0.  1.
         36    2    1    2    0    0  0.71054273576E-14  0.00000000000E+00  0.15006512184E+04  0.15255945549E+04  0.27474472953E+03 0.  0.
         25    2    3    3    0    0  0.19776574491E+02  0.42732660516E+02  0.58002255858E+03  0.59481221534E+03  0.12311868209E+03 0.  0.
         25    2    3    3    0    0 -0.19776574491E+02 -0.42732660516E+02  0.92062865985E+03  0.93078233951E+03  0.12876894437E+03 0.  0.
          5    1    4    4  502    0  0.11569045768E+02 -0.36230623530E+02  0.33551072187E+03  0.33769221991E+03  0.47000000000E+01 0.  1.
         -5    1    4    4    0  502  0.82075287232E+01  0.78963284045E+02  0.24451183671E+03  0.25711999542E+03  0.47000000000E+01 0.  1.
          5    1    5    5  503    0  0.35767662427E+02 -0.57555230963E+01  0.68137301788E+03  0.68235161846E+03  0.47000000000E+01 0. -1.
         -5    1    5    5    0  503 -0.55544236918E+02 -0.36977137419E+02  0.23925564197E+03  0.24843072105E+03  0.47000000000E+01 0. -1.
<mgrwt>
<rscale>  0 0.27474473E+03</rscale>
<asrwt>0</asrwt>
<pdfrwt beam="1">  1        1 0.23278799E+00 0.27474473E+03</pdfrwt>
<pdfrwt beam="2">  1       -1 0.19187194E-02 0.27474473E+03</pdfrwt>
<totfact> 0.51108588E+03</totfact>
</mgrwt>
</event>
<event>
 9    1  0.2074770E-002  0.2771129E+03  0.7818608E-02  0.1097276E+00
          1   -1    0    0  501    0  0.00000000000E+00  0.00000000000E+00  0.38312951708E+03  0.38312951708E+03  0.00000000000E+00 0.  1.
         -1   -1    0    0    0  501 -0.00000000000E+00 -0.00000000000E+00 -0.50108097892E+02  0.50108097892E+02  0.00000000000E+00 0.  1.
         36    2    1    2    0    0  0.35527136788E-14 -0.14210854715E-13  0.33302141918E+03  0.43323761497E+03  0.27711291090E+03 0.  0.
         25    2    3    3    0    0 -0.23728000334E+02  0.82914818312E+02  0.13354494112E+03  0.18204250503E+03  0.88698011504E+02 0.  0.
         25    2    3    3    0    0  0.23728000334E+02 -0.82914818312E+02  0.19947647807E+03  0.25119510994E+03  0.12597711244E+03 0.  0.
          5    1    4    4  502    0 -0.34134633365E+02  0.15996313890E+02  0.72724793057E+01  0.38678601426E+02  0.47000000000E+01 0. -1.
         -5    1    4    4    0  502  0.10406633031E+02  0.66918504422E+02  0.12627246181E+03  0.14336390361E+03  0.47000000000E+01 0. -1.
          5    1    5    5  503    0 -0.20560323813E+02 -0.10173754815E+03  0.14458095298E+03  0.17804212306E+03  0.47000000000E+01 0.  1.
         -5    1    5    5    0  503  0.44288324148E+02  0.18822729837E+02  0.54895525088E+02  0.73152986877E+02  0.47000000000E+01 0.  1.
<mgrwt>
<rscale>  0 0.27711291E+03</rscale>
<asrwt>0</asrwt>
<pdfrwt beam="1">  1        1 0.58943001E-01 0.27711291E+03</pdfrwt>
<pdfrwt beam="2">  1       -1 0.77089384E-02 0.27711291E+03</pdfrwt>
<totfact> 0.58068729E+03</totfact>
</mgrwt>
</event>
<event>
 9    1  0.2074770E-002  0.2764940E+03  0.7818608E-02  0.1097619E+00
         -2   -1    0    0    0  501 -0.00000000000E+00  0.00000000000E+00  0.14184302206E+02  0.14184302206E+02  0.00000000000E+00 0. -1.
          2   -1    0    0  501    0  0.00000000000E+00 -0.00000000000E+00 -0.13474213671E+04  0.13474213671E+04  0.00000000000E+00 0. -1.
         36    2    1    2    0    0  0.00000000000E+00  0.00000000000E+00 -0.13332370649E+04  0.13616056693E+04  0.27649399176E+03 0.  0.
         25    2    3    3    0    0 -0.35307662496E+02 -0.53645576831E+02 -0.74634467642E+03  0.75914986698E+03  0.12310022570E+03 0.  0.
         25    2    3    3    0    0  0.35307662496E+02  0.53645576831E+02 -0.58689238848E+03  0.60245580233E+03  0.11994098202E+03 0.  0.
          5    1    4    4  502    0 -0.73531859970E+02 -0.30115963492E+02 -0.29486162926E+03  0.30541672531E+03  0.47000000000E+01 0. -1.
         -5    1    4    4    0  502  0.38224197474E+02 -0.23529613339E+02 -0.45148304716E+03  0.45373314167E+03  0.47000000000E+01 0. -1.
          5    1    5    5  503    0  0.74060734469E+02  0.60620439641E+02 -0.38888024583E+03  0.40051187959E+03  0.47000000000E+01 0. -1.
         -5    1    5    5    0  503 -0.38753071974E+02 -0.69748628101E+01 -0.19801214265E+03  0.20194392275E+03  0.47000000000E+01 0. -1.
<mgrwt>
<rscale>  0 0.27649399E+03</rscale>
<asrwt>0</asrwt>
<pdfrwt beam="1">  1        2 0.20729561E+00 0.27649399E+03</pdfrwt>
<pdfrwt beam="2">  1       -2 0.21822002E-02 0.27649399E+03</pdfrwt>
<totfact> 0.11221546E+04</totfact>
</mgrwt>
</event>
<event>
 9    1  0.2074770E-002  0.2741477E+03  0.7818608E-02  0.1098929E+00
          1   -1    0    0  501    0  0.00000000000E+00  0.00000000000E+00  0.68018883165E+03  0.68018883165E+03  0.00000000000E+00 0. -1.
         -1   -1    0    0    0  501 -0.00000000000E+00 -0.00000000000E+00 -0.27623571870E+02  0.27623571870E+02  0.00000000000E+00 0. -1.
         36    2    1    2    0    0 -0.71054273576E-14  0.00000000000E+00  0.65256525978E+03  0.70781240352E+03  0.27414773445E+03 0.  0.
         25    2    3    3    0    0  0.15142092618E+02 -0.24866820252E+02  0.21238834097E+03  0.24898577921E+03  0.12663912962E+03 0.  0.
         25    2    3    3    0    0 -0.15142092618E+02  0.24866820252E+02  0.44017691881E+03  0.45882662431E+03  0.12616857614E+03 0.  0.
          5    1    4    4  502    0 -0.51421049376E+02  0.10971160497E+02  0.10564618922E+03  0.11810037247E+03  0.47000000000E+01 0.  1.
         -5    1    4    4    0  502  0.66563141995E+02 -0.35837980749E+02  0.10674215176E+03  0.13088540674E+03  0.47000000000E+01 0.  1.
          5    1    5    5  503    0 -0.54702686915E+02 -0.87526063657E+01  0.35223347535E+03  0.35659431183E+03  0.47000000000E+01 0. -1.
         -5    1    5    5    0  503  0.39560594297E+02  0.33619426617E+02  0.87943443456E+02  0.10223231248E+03  0.47000000000E+01 0. -1.
<mgrwt>
<rscale>  0 0.27414773E+03</rscale>
<asrwt>0</asrwt>
<pdfrwt beam="1">  1        1 0.10464442E+00 0.27414773E+03</pdfrwt>
<pdfrwt beam="2">  1       -1 0.42497808E-02 0.27414773E+03</pdfrwt>
<totfact> 0.65842930E+03</totfact>
</mgrwt>
</event>
<event>
 9    1  0.2074770E-002  0.2756048E+03  0.7818608E-02  0.1098114E+00
         -1   -1    0    0    0  501 -0.00000000000E+00  0.00000000000E+00  0.22813939765E+02  0.22813939765E+02  0.00000000000E+00 0. -1.
          1   -1    0    0  501    0  0.00000000000E+00 -0.00000000000E+00 -0.83236390173E+03  0.83236390173E+03  0.00000000000E+00 0. -1.
         36    2    1    2    0    0 -0.44408920985E-14  0.00000000000E+00 -0.80954996197E+03  0.85517784150E+03  0.27560478890E+03 0.  0.
         25    2    3    3    0    0  0.73080677269E+01 -0.27992494155E+02 -0.22193357099E+03  0.25360716972E+03  0.11926901953E+03 0.  0.
         25    2    3    3    0    0 -0.73080677269E+01  0.27992494155E+02 -0.58761639097E+03  0.60157067177E+03  0.12552793559E+03 0.  0.
          5    1    4    4  502    0 -0.54475546142E+02 -0.26450456759E+02 -0.11117494586E+03  0.12668532029E+03  0.47000000000E+01 0. -1.
         -5    1    4    4    0  502  0.61783613869E+02 -0.15420373967E+01 -0.11075862513E+03  0.12692184943E+03  0.47000000000E+01 0. -1.
          5    1    5    5  503    0 -0.88640227246E+01  0.59759764457E+02 -0.13692832430E+03  0.14973729109E+03  0.47000000000E+01 0.  1.
         -5    1    5    5    0  503  0.15559549977E+01 -0.31767270302E+02 -0.45068806668E+03  0.45183338069E+03  0.47000000000E+01 0.  1.
<mgrwt>
<rscale>  0 0.27560479E+03</rscale>
<asrwt>0</asrwt>
<pdfrwt beam="1">  1        1 0.12805596E+00 0.27560479E+03</pdfrwt>
<pdfrwt beam="2">  1       -1 0.35098374E-02 0.27560479E+03</pdfrwt>
<totfact> 0.64605906E+03</totfact>
</mgrwt>
</event>
<event>
 9    1  0.2074770E-002  0.2737630E+03  0.7818608E-02  0.1099145E+00
          2   -1    0    0  501    0  0.00000000000E+00  0.00000000000E+00  0.32041314415E+02  0.32041314415E+02  0.00000000000E+00 0. -1.
         -2   -1    0    0    0  501 -0.00000000000E+00 -0.00000000000E+00 -0.58476207295E+03  0.58476207295E+03  0.00000000000E+00 0. -1.
         36    2    1    2    0    0  0.00000000000E+00  0.00000000000E+00 -0.55272075853E+03  0.61680338736E+03  0.27376300288E+03 0.  0.
         25    2    3    3    0    0  0.39654271528E+02 -0.41363231762E+02 -0.26372457974E+03  0.29710388477E+03  0.12424446141E+03 0.  0.
         25    2    3    3    0    0 -0.39654271528E+02  0.41363231762E+02 -0.28899617879E+03  0.31969950260E+03  0.12411930717E+03 0.  0.
          5    1    4    4  502    0  0.72870657335E+01 -0.50869893920E+02 -0.27572044202E+02  0.58507735009E+02  0.47000000000E+01 0.  1.
         -5    1    4    4    0  502  0.32367205794E+02  0.95066621582E+01 -0.23615253554E+03  0.23859614976E+03  0.47000000000E+01 0.  1.
          5    1    5    5  503    0  0.29639871539E+02 -0.26036749793E+02 -0.76503759003E+02  0.86205275165E+02  0.47000000000E+01 0.  1.
         -5    1    5    5    0  503 -0.69294143067E+02  0.67399981555E+02 -0.21249241979E+03  0.23349422743E+03  0.47000000000E+01 0.  1.
<mgrwt>
<rscale>  0 0.27376300E+03</rscale>
<asrwt>0</asrwt>
<pdfrwt beam="1">  1        2 0.49294334E-02 0.27376300E+03</pdfrwt>
<pdfrwt beam="2">  1       -2 0.89963388E-01 0.27376300E+03</pdfrwt>
<totfact> 0.17504360E+03</totfact>
</mgrwt>
</event>
<event>
 9    1  0.2074770E-002  0.2762140E+03  0.7818608E-02  0.1097775E+00
         -1   -1    0    0    0  501 -0.00000000000E+00  0.00000000000E+00  0.23583957221E+02  0.23583957221E+02  0.00000000000E+00 0.  1.
          1   -1    0    0  501    0  0.00000000000E+00 -0.00000000000E+00 -0.80875055039E+03  0.80875055039E+03  0.00000000000E+00 0.  1.
         36    2    1    2    0    0 -0.35527136788E-14 -0.71054273576E-14 -0.78516659317E+03  0.83233450761E+03  0.27621396332E+03 0.  0.
         25    2    3    3    0    0  0.17282284670E+02 -0.52692305362E+02 -0.48681334570E+03  0.50571303748E+03  0.12523292823E+03 0.  0.
         25    2    3    3    0    0 -0.17282284670E+02  0.52692305362E+02 -0.29835324747E+03  0.32662147013E+03  0.12079639096E+03 0.  0.
          5    1    4    4  502    0  0.18927271089E+02 -0.71561202823E+02 -0.14072577684E+03  0.15907571030E+03  0.47000000000E+01 0. -1.
         -5    1    4    4    0  502 -0.16449864187E+01  0.18868897461E+02 -0.34608756886E+03  0.34663732718E+03  0.47000000000E+01 0. -1.
          5    1    5    5  503    0  0.26240495570E+02  0.62480549787E+02 -0.86052054416E+02  0.10963315547E+03  0.47000000000E+01 0. -1.
         -5    1    5    5    0  503 -0.43522780240E+02 -0.97882444247E+01 -0.21230119305E+03  0.21698831466E+03  0.47000000000E+01 0. -1.
<mgrwt>
<rscale>  0 0.27621396E+03</rscale>
<asrwt>0</asrwt>
<pdfrwt beam="1">  1        1 0.12442318E+00 0.27621396E+03</pdfrwt>
<pdfrwt beam="2">  1       -1 0.36283006E-02 0.27621396E+03</pdfrwt>
<totfact> 0.64326893E+03</totfact>
</mgrwt>
</event>
<event>
 9    1  0.2074770E-002  0.2793962E+03  0.7818608E-02  0.1096019E+00
          2   -1    0    0  501    0  0.00000000000E+00  0.00000000000E+00  0.14262242044E+03  0.14262242044E+03  0.00000000000E+00 0. -1.
         -2   -1    0    0    0  501 -0.00000000000E+00 -0.00000000000E+00 -0.13683377185E+03  0.13683377185E+03  0.00000000000E+00 0. -1.
         36    2    1    2    0    0 -0.71054273576E-14  0.00000000000E+00  0.57886485916E+01  0.27945619229E+03  0.27939623289E+03 0.  0.
         25    2    3    3    0    0  0.26065378077E+02 -0.11359164635E+02  0.14235609393E+02  0.13016187830E+03  0.12621817394E+03 0.  0.
         25    2    3    3    0    0 -0.26065378077E+02  0.11359164635E+02 -0.84469608015E+01  0.14929431398E+03  0.14631816868E+03 0.  0.
          5    1    4    4  502    0  0.22038499918E+01 -0.67669526314E+02  0.40972624229E+01  0.67991906178E+02  0.47000000000E+01 0. -1.
         -5    1    4    4    0  502  0.23861528085E+02  0.56310361678E+02  0.10138346970E+02  0.62169972126E+02  0.47000000000E+01 0. -1.
          5    1    5    5  503    0 -0.40492186577E+02  0.52322431580E+02  0.45085945841E+02  0.80200290103E+02  0.47000000000E+01 0.  1.
         -5    1    5    5    0  503  0.14426808500E+02 -0.40963266945E+02 -0.53532906643E+02  0.69094023880E+02  0.47000000000E+01 0.  1.
<mgrwt>
<rscale>  0 0.27939623E+03</rscale>
<asrwt>0</asrwt>
<pdfrwt beam="1">  1        2 0.21941911E-01 0.27939623E+03</pdfrwt>
<pdfrwt beam="2">  1       -2 0.21051350E-01 0.27939623E+03</pdfrwt>
<totfact> 0.47722799E+03</totfact>
</mgrwt>
</event>
<event>
 9    1  0.2074770E-002  0.2750117E+03  0.7818608E-02  0.1098445E+00
         -2   -1    0    0    0  501 -0.00000000000E+00  0.00000000000E+00  0.13969191279E+02  0.13969191279E+02  0.00000000000E+00 0. -1.
          2   -1    0    0  501    0  0.00000000000E+00 -0.00000000000E+00 -0.13535394989E+04  0.13535394989E+04  0.00000000000E+00 0. -1.
         36    2    1    2    0    0  0.00000000000E+00  0.00000000000E+00 -0.13395703076E+04  0.13675086902E+04  0.27501165186E+03 0.  0.
         25    2    3    3    0    0  0.18792627419E+02 -0.38760702336E+02 -0.91097743027E+03  0.92075854020E+03  0.12673143262E+03 0.  0.
         25    2    3    3    0    0 -0.18792627419E+02  0.38760702336E+02 -0.42859287738E+03  0.44675015000E+03  0.11848327770E+03 0.  0.
          5    1    4    4  502    0 -0.33588562342E+02 -0.66287450648E+02 -0.51688860831E+03  0.52222422486E+03  0.47000000000E+01 0. -1.
         -5    1    4    4    0  502  0.52381189761E+02  0.27526748311E+02 -0.39408882196E+03  0.39853431534E+03  0.47000000000E+01 0. -1.
          5    1    5    5  503    0  0.36765142702E+02  0.17005545203E+02 -0.32143285916E+03  0.32400931659E+03  0.47000000000E+01 0.  1.
         -5    1    5    5    0  503 -0.55557770121E+02  0.21755157133E+02 -0.10716001821E+03  0.12274083341E+03  0.47000000000E+01 0.  1.
<mgrwt>
<rscale>  0 0.27501165E+03</rscale>
<asrwt>0</asrwt>
<pdfrwt beam="1">  1        2 0.20823684E+00 0.27501165E+03</pdfrwt>
<pdfrwt beam="2">  1       -2 0.21491065E-02 0.27501165E+03</pdfrwt>
<totfact> 0.11387498E+04</totfact>
</mgrwt>
</event>
<event>
 9    1  0.2074770E-002  0.2740766E+03  0.7818608E-02  0.1098969E+00
          2   -1    0    0  501    0  0.00000000000E+00  0.00000000000E+00  0.22520521784E+02  0.22520521784E+02  0.00000000000E+00 0. -1.
         -2   -1    0    0    0  501 -0.00000000000E+00 -0.00000000000E+00 -0.83388363746E+03  0.83388363746E+03  0.00000000000E+00 0. -1.
         36    2    1    2    0    0  0.35527136788E-14  0.12434497876E-13 -0.81136311568E+03  0.85640415924E+03  0.27407659238E+03 0.  0.
         25    2    3    3    0    0  0.21011819219E+02  0.14910659543E+02 -0.24675634323E+03  0.27770219427E+03  0.12476374260E+03 0.  0.
         25    2    3    3    0    0 -0.21011819219E+02 -0.14910659543E+02 -0.56460677245E+03  0.57870196497E+03  0.12430338872E+03 0.  0.
          5    1    4    4  502    0  0.24863836421E+02  0.36135845538E+00 -0.25742413979E+03  0.25866507048E+03  0.47000000000E+01 0.  1.
         -5    1    4    4    0  502 -0.38520172020E+01  0.14549301087E+02  0.10667796565E+02  0.19037123790E+02  0.47000000000E+01 0.  1.
          5    1    5    5  503    0 -0.29896178786E+02 -0.66657269537E+02 -0.36374031959E+03  0.37103380329E+03  0.47000000000E+01 0. -1.
         -5    1    5    5    0  503  0.88843595673E+01  0.51746609994E+02 -0.20086645286E+03  0.20766816168E+03  0.47000000000E+01 0. -1.
<mgrwt>
<rscale>  0 0.27407659E+03</rscale>
<asrwt>0</asrwt>
<pdfrwt beam="1">  1        2 0.34646965E-02 0.27407659E+03</pdfrwt>
<pdfrwt beam="2">  1       -2 0.12828976E+00 0.27407659E+03</pdfrwt>
<totfact> 0.12128775E+03</totfact>
</mgrwt>
</event>
<event>
 9    1  0.2074770E-002  0.2746503E+03  0.7818608E-02  0.1098647E+00
         -1   -1    0    0    0  501 -0.00000000000E+00  0.00000000000E+00  0.21193303584E+02  0.21193303584E+02  0.00000000000E+00 0. -1.
          1   -1    0    0  501    0  0.00000000000E+00 -0.00000000000E+00 -0.88981850460E+03  0.88981850460E+03  0.00000000000E+00 0. -1.
         36    2    1    2    0    0  0.00000000000E+00  0.35527136788E-14 -0.86862520102E+03  0.91101180819E+03  0.27465027728E+03 0.  0.
         25    2    3    3    0    0 -0.51155724153E+02  0.48053426794E+00 -0.51650210224E+03  0.53392281789E+03  0.12522785161E+03 0.  0.
         25    2    3    3    0    0  0.51155724153E+02 -0.48053426794E+00 -0.35212309878E+03  0.37708899030E+03  0.12485307719E+03 0.  0.
          5    1    4    4  502    0  0.41044727554E+02 -0.95343440974E+01 -0.16545010265E+03  0.17079636953E+03  0.47000000000E+01 0.  1.
         -5    1    4    4    0  502 -0.92200451707E+02  0.10014878365E+02 -0.35105199959E+03  0.36312644836E+03  0.47000000000E+01 0.  1.
          5    1    5    5  503    0  0.53874851072E+02 -0.42752246651E+02 -0.10043269176E+03  0.12181572044E+03  0.47000000000E+01 0.  1.
         -5    1    5    5    0  503 -0.27191269193E+01  0.42271712383E+02 -0.25169040702E+03  0.25527326986E+03  0.47000000000E+01 0.  1.
<mgrwt>
<rscale>  0 0.27465028E+03</rscale>
<asrwt>0</asrwt>
<pdfrwt beam="1">  1        1 0.13689519E+00 0.27465028E+03</pdfrwt>
<pdfrwt beam="2">  1       -1 0.32605074E-02 0.27465028E+03</pdfrwt>
<totfact> 0.64779801E+03</totfact>
</mgrwt>
</event>
<event>
 9    1  0.2074770E-002  0.2750929E+03  0.7818608E-02  0.1098400E+00
         -2   -1    0    0    0  501 -0.00000000000E+00  0.00000000000E+00  0.75666011401E+03  0.75666011401E+03  0.00000000000E+00 0.  1.
          2   -1    0    0  501    0  0.00000000000E+00 -0.00000000000E+00 -0.25003343391E+02  0.25003343391E+02  0.00000000000E+00 0.  1.
         36    2    1    2    0    0  0.71054273576E-14  0.00000000000E+00  0.73165677062E+03  0.78166345740E+03  0.27509294910E+03 0.  0.
         25    2    3    3    0    0  0.34881107945E+02 -0.36799519129E+02  0.28161622228E+03  0.31220188683E+03  0.12486562854E+03 0.  0.
         25    2    3    3    0    0 -0.34881107945E+02  0.36799519129E+02  0.45004054834E+03  0.46946157057E+03  0.12363969748E+03 0.  0.
          5    1    4    4  502    0  0.66698685936E+02  0.11042470186E+02  0.93681357477E+02  0.11562412202E+03  0.47000000000E+01 0. -1.
         -5    1    4    4    0  502 -0.31817577991E+02 -0.47841989316E+02  0.18793486480E+03  0.19657776482E+03  0.47000000000E+01 0. -1.
          5    1    5    5  503    0  0.89916960458E+01 -0.41638318156E+02  0.12241983009E+03  0.12970468355E+03  0.47000000000E+01 0.  1.
         -5    1    5    5    0  503 -0.43872803991E+02  0.78437837285E+02  0.32762071825E+03  0.33975688702E+03  0.47000000000E+01 0.  1.
<mgrwt>
<rscale>  0 0.27509295E+03</rscale>
<asrwt>0</asrwt>
<pdfrwt beam="1">  1        2 0.38466688E-02 0.27509295E+03</pdfrwt>
<pdfrwt beam="2">  1       -2 0.11640923E+00 0.27509295E+03</pdfrwt>
<totfact> 0.13353688E+03</totfact>
</mgrwt>
</event>
<event>
 9    1  0.2074770E-002  0.2762319E+03  0.7818608E-02  0.1097765E+00
          2   -1    0    0  501    0  0.00000000000E+00  0.00000000000E+00  0.42724720795E+03  0.42724720795E+03  0.00000000000E+00 0. -1.
         -2   -1    0    0    0  501 -0.00000000000E+00 -0.00000000000E+00 -0.44648647769E+02  0.44648647769E+02  0.00000000000E+00 0. -1.
         36    2    1    2    0    0  0.00000000000E+00 -0.35527136788E-14  0.38259856018E+03  0.47189585572E+03  0.27623185984E+03 0.  0.
         25    2    3    3    0    0 -0.44781598088E+02 -0.23548717329E+02  0.14749805935E+03  0.20068563560E+03  0.12632938380E+03 0.  0.
         25    2    3    3    0    0  0.44781598088E+02  0.23548717329E+02  0.23510050083E+03  0.27121022012E+03  0.12539060726E+03 0.  0.
          5    1    4    4  502    0 -0.58763585436E+02 -0.38883960826E+01  0.86861100377E+01  0.59714463114E+02  0.47000000000E+01 0.  1.
         -5    1    4    4    0  502  0.13981987348E+02 -0.19660321246E+02  0.13881194931E+03  0.14097117249E+03  0.47000000000E+01 0.  1.
          5    1    5    5  503    0 -0.35488132453E+02  0.83524832889E+01  0.14460156140E+03  0.14920078110E+03  0.47000000000E+01 0. -1.
         -5    1    5    5    0  503  0.80269730541E+02  0.15196234040E+02  0.90498939433E+02  0.12200943901E+03  0.47000000000E+01 0. -1.
<mgrwt>
<rscale>  0 0.27623186E+03</rscale>
<asrwt>0</asrwt>
<pdfrwt beam="1">  1        2 0.65730337E-01 0.27623186E+03</pdfrwt>
<pdfrwt beam="2">  1       -2 0.68690230E-02 0.27623186E+03</pdfrwt>
<totfact> 0.88536794E+03</totfact>
</mgrwt>
</event>
<event>
 9    1  0.2074770E-002  0.2735248E+03  0.7818608E-02  0.1099279E+00
         -4   -1    0    0    0  501 -0.00000000000E+00  0.00000000000E+00  0.44168634421E+03  0.44168634421E+03  0.00000000000E+00 0. -1.
          4   -1    0    0  501    0  0.00000000000E+00 -0.00000000000E+00 -0.42346683191E+02  0.42346683191E+02  0.00000000000E+00 0. -1.
         36    2    1    2    0    0  0.00000000000E+00 -0.14210854715E-13  0.39933966102E+03  0.48403302741E+03  0.27352478270E+03 0.  0.
         25    2    3    3    0    0  0.31353015133E+02 -0.39827245558E+02  0.22599468553E+03  0.26301051305E+03  0.12462628550E+03 0.  0.
         25    2    3    3    0    0 -0.31353015133E+02  0.39827245558E+02  0.17334497549E+03  0.22102251436E+03  0.12740977309E+03 0.  0.
          5    1    4    4  502    0  0.30466698535E+02  0.24785251903E+02  0.17810181347E+03  0.18244142729E+03  0.47000000000E+01 0. -1.
         -5    1    4    4    0  502  0.88631659812E+00 -0.64612497460E+02  0.47892872066E+02  0.80569085758E+02  0.47000000000E+01 0. -1.
          5    1    5    5  503    0 -0.62951764845E+02 -0.14796762845E+02  0.48209204065E+02  0.80796573221E+02  0.47000000000E+01 0.  1.
         -5    1    5    5    0  503  0.31598749712E+02  0.54624008403E+02  0.12513577143E+03  0.14022594114E+03  0.47000000000E+01 0.  1.
<mgrwt>
<rscale>  0 0.27352478E+03</rscale>
<asrwt>0</asrwt>
<pdfrwt beam="1">  1        4 0.65148747E-02 0.27352478E+03</pdfrwt>
<pdfrwt beam="2">  1       -4 0.67951742E-01 0.27352478E+03</pdfrwt>
<totfact> 0.59043766E+02</totfact>
</mgrwt>
</event>
<event>
 9    1  0.2074770E-002  0.2739621E+03  0.7818608E-02  0.1099033E+00
         -2   -1    0    0    0  501 -0.00000000000E+00  0.00000000000E+00  0.30772080087E+02  0.30772080087E+02  0.00000000000E+00 0.  1.
          2   -1    0    0  501    0  0.00000000000E+00 -0.00000000000E+00 -0.60976745962E+03  0.60976745962E+03  0.00000000000E+00 0.  1.
         36    2    1    2    0    0  0.71054273576E-14  0.53290705182E-14 -0.57899537953E+03  0.64053953971E+03  0.27396213681E+03 0.  0.
         25    2    3    3    0    0 -0.35151896840E+02 -0.81350838611E+01 -0.14380543746E+03  0.18608898060E+03  0.11246007922E+03 0.  0.
         25    2    3    3    0    0  0.35151896840E+02  0.81350838611E+01 -0.43518994208E+03  0.45445055911E+03  0.12583000256E+03 0.  0.
          5    1    4    4  502    0 -0.69770420288E+02 -0.33318875949E+01 -0.13107026898E+03  0.14859514943E+03  0.47000000000E+01 0.  1.
         -5    1    4    4    0  502  0.34618523448E+02 -0.48031962662E+01 -0.12735168475E+02  0.37493831175E+02  0.47000000000E+01 0.  1.
          5    1    5    5  503    0  0.31455956976E+02  0.63848916628E+02 -0.19024732719E+03  0.20318045400E+03  0.47000000000E+01 0.  1.
         -5    1    5    5    0  503  0.36959398635E+01 -0.55713832767E+02 -0.24494261488E+03  0.25127010510E+03  0.47000000000E+01 0.  1.
<mgrwt>
<rscale>  0 0.27396214E+03</rscale>
<asrwt>0</asrwt>
<pdfrwt beam="1">  1        2 0.93810374E-01 0.27396214E+03</pdfrwt>
<pdfrwt beam="2">  1       -2 0.47341664E-02 0.27396214E+03</pdfrwt>
<totfact> 0.10484633E+04</totfact>
</mgrwt>
</event>
<event>
 9    1  0.2074770E-002  0.2758423E+03  0.7818608E-02  0.1097982E+00
         -2   -1    0    0    0  501 -0.00000000000E+00  0.00000000000E+00  0.21297884301E+02  0.21297884301E+02  0.00000000000E+00 0.  1.
          2   -1    0    0  501    0  0.00000000000E+00 -0.00000000000E+00 -0.89315156284E+03  0.89315156284E+03  0.00000000000E+00 0.  1.
         36    2    1    2    0    0  0.35527136788E-14  0.00000000000E+00 -0.87185367854E+03  0.91444944714E+03  0.27584226397E+03 0.  0.
         25    2    3    3    0    0  0.29995476848E+02 -0.34022657121E+02 -0.27554521597E+03  0.30405365848E+03  0.12027548114E+03 0.  0.
         25    2    3    3    0    0 -0.29995476848E+02  0.34022657121E+02 -0.59630846257E+03  0.61039578866E+03  0.12223733657E+03 0.  0.
          5    1    4    4  502    0  0.68462625507E+02 -0.12388034676E+02 -0.93288817043E+02  0.11647097441E+03  0.47000000000E+01 0. -1.
         -5    1    4    4    0  502 -0.38467148659E+02 -0.21634622445E+02 -0.18225639892E+03  0.18758268407E+03  0.47000000000E+01 0. -1.
          5    1    5    5  503    0 -0.32009883292E+02  0.52251118985E+02 -0.58525549926E+03  0.58847336513E+03  0.47000000000E+01 0. -1.
         -5    1    5    5    0  503  0.20144064438E+01 -0.18228461864E+02 -0.11052963318E+02  0.21922423528E+02  0.47000000000E+01 0. -1.
<mgrwt>
<rscale>  0 0.27584226E+03</rscale>
<asrwt>0</asrwt>
<pdfrwt beam="1">  1        2 0.13740793E+00 0.27584226E+03</pdfrwt>
<pdfrwt beam="2">  1       -2 0.32765977E-02 0.27584226E+03</pdfrwt>
<totfact> 0.11360258E+04</totfact>
</mgrwt>
</event>
<event>
 9    1  0.2074770E-002  0.2786197E+03  0.7818608E-02  0.1096445E+00
          2   -1    0    0  501    0  0.00000000000E+00  0.00000000000E+00  0.35534953188E+03  0.35534953188E+03  0.00000000000E+00 0. -1.
         -2   -1    0    0    0  501 -0.00000000000E+00 -0.00000000000E+00 -0.54614495297E+02  0.54614495297E+02  0.00000000000E+00 0. -1.
         36    2    1    2    0    0  0.00000000000E+00  0.00000000000E+00  0.30073503659E+03  0.40996402718E+03  0.27861970740E+03 0.  0.
         25    2    3    3    0    0 -0.52047939484E+02 -0.47335615031E+01  0.11462728648E+03  0.17801411870E+03  0.12577049353E+03 0.  0.
         25    2    3    3    0    0  0.52047939484E+02  0.47335615031E+01  0.18610775011E+03  0.23194990848E+03  0.12819231953E+03 0.  0.
          5    1    4    4  502    0 -0.34087048803E+02 -0.46695940591E+02  0.38765213514E+01  0.58133941734E+02  0.47000000000E+01 0. -1.
         -5    1    4    4    0  502 -0.17960890681E+02  0.41962379088E+02  0.11075076513E+03  0.11988017697E+03  0.47000000000E+01 0. -1.
          5    1    5    5  503    0  0.11131685191E+02  0.61236611710E+02  0.54238417357E+02  0.82690585596E+02  0.47000000000E+01 0.  1.
         -5    1    5    5    0  503  0.40916254293E+02 -0.56503050207E+02  0.13186933275E+03  0.14925932288E+03  0.47000000000E+01 0.  1.
<mgrwt>
<rscale>  0 0.27861971E+03</rscale>
<asrwt>0</asrwt>
<pdfrwt beam="1">  1        2 0.54669157E-01 0.27861971E+03</pdfrwt>
<pdfrwt beam="2">  1       -2 0.84022303E-02 0.27861971E+03</pdfrwt>
<totfact> 0.79050872E+03</totfact>
</mgrwt>
</event>
<event>
 9    1  0.2074770E-002  0.2673000E+03  0.7818608E-02  0.1102835E+00
         -2   -1    0    0    0  501 -0.00000000000E+00  0.00000000000E+00  0.25315512359E+02  0.25315512359E+02  0.00000000000E+00 0. -1.
          2   -1    0    0  501    0  0.00000000000E+00 -0.00000000000E+00 -0.70558823429E+03  0.70558823429E+03  0.00000000000E+00 0. -1.
         36    2    1    2    0    0 -0.88817841970E-15 -0.71054273576E-14 -0.68027272193E+03  0.73090374665E+03  0.26730003865E+03 0.  0.
         25    2    3    3    0    0 -0.78573083225E+01  0.46508717160E+02 -0.32773420962E+03  0.35400946708E+03  0.12525251518E+03 0.  0.
         25    2    3    3    0    0  0.78573083225E+01 -0.46508717160E+02 -0.35253851231E+03  0.37689427957E+03  0.12466393724E+03 0.  0.
          5    1    4    4  502    0 -0.31302092676E+02  0.76976401926E+02 -0.14476076806E+03  0.16698190749E+03  0.47000000000E+01 0. -1.
         -5    1    4    4    0  502  0.23444784354E+02 -0.30467684766E+02 -0.18297344156E+03  0.18702755959E+03  0.47000000000E+01 0. -1.
          5    1    5    5  503    0 -0.66960951434E+01 -0.69376610353E+02 -0.95154199500E+02  0.11804390470E+03  0.47000000000E+01 0.  1.
         -5    1    5    5    0  503  0.14553403466E+02  0.22867893193E+02 -0.25738431281E+03  0.25885037487E+03  0.47000000000E+01 0.  1.
<mgrwt>
<rscale>  0 0.26730004E+03</rscale>
<asrwt>0</asrwt>
<pdfrwt beam="1">  1        2 0.10855204E+00 0.26730004E+03</pdfrwt>
<pdfrwt beam="2">  1       -2 0.38946939E-02 0.26730004E+03</pdfrwt>
<totfact> 0.11819657E+04</totfact>
</mgrwt>
</event>
<event>
 9    1  0.2074770E-002  0.2811023E+03  0.7818608E-02  0.1095088E+00
         -2   -1    0    0    0  501 -0.00000000000E+00  0.00000000000E+00  0.12802609528E+02  0.12802609528E+02  0.00000000000E+00 0. -1.
          2   -1    0    0  501    0  0.00000000000E+00 -0.00000000000E+00 -0.15430160058E+04  0.15430160058E+04  0.00000000000E+00 0. -1.
         36    2    1    2    0    0  0.00000000000E+00  0.71054273576E-14 -0.15302133962E+04  0.15558186153E+04  0.28110234020E+03 0.  0.
         25    2    3    3    0    0 -0.47108956076E+02  0.21411655646E+02 -0.72091807816E+03  0.73487218003E+03  0.13280260851E+03 0.  0.
         25    2    3    3    0    0  0.47108956076E+02 -0.21411655646E+02 -0.80929531809E+03  0.82094643528E+03  0.12773576228E+03 0.  0.
          5    1    4    4  502    0 -0.83134357292E+02 -0.16291877340E+02 -0.53641145706E+03  0.54308018551E+03  0.47000000000E+01 0.  1.
         -5    1    4    4    0  502  0.36025401216E+02  0.37703532986E+02 -0.18450662110E+03  0.19179199452E+03  0.47000000000E+01 0.  1.
          5    1    5    5  503    0  0.52963240525E+02 -0.63209778001E+02 -0.34660069370E+03  0.35630704702E+03  0.47000000000E+01 0.  1.
         -5    1    5    5    0  503 -0.58542844490E+01  0.41798122355E+02 -0.46269462439E+03  0.46463938825E+03  0.47000000000E+01 0.  1.
<mgrwt>
<rscale>  0 0.28110234E+03</rscale>
<asrwt>0</asrwt>
<pdfrwt beam="1">  1        2 0.23738722E+00 0.28110234E+03</pdfrwt>
<pdfrwt beam="2">  1       -2 0.19696310E-02 0.28110234E+03</pdfrwt>
<totfact> 0.10236786E+04</totfact>
</mgrwt>
</event>
<event>
 9    1  0.2074770E-002  0.2752759E+03  0.7818608E-02  0.1098298E+00
          3   -1    0    0  501    0  0.00000000000E+00  0.00000000000E+00  0.26222604246E+03  0.26222604246E+03  0.00000000000E+00 0. -1.
         -3   -1    0    0    0  501 -0.00000000000E+00 -0.00000000000E+00 -0.72243772936E+02  0.72243772936E+02  0.00000000000E+00 0. -1.
         36    2    1    2    0    0  0.00000000000E+00 -0.35527136788E-14  0.18998226953E+03  0.33446981540E+03  0.27527585197E+03 0.  0.
         25    2    3    3    0    0  0.46878517732E+02 -0.12908470082E+02  0.13207531698E+03  0.18857337970E+03  0.12550619966E+03 0.  0.
         25    2    3    3    0    0 -0.46878517732E+02  0.12908470082E+02  0.57906952552E+02  0.14589643570E+03  0.12477311718E+03 0.  0.
          5    1    4    4  502    0 -0.72771775326E+01 -0.51736252533E+02  0.10326248484E+03  0.11582239816E+03  0.47000000000E+01 0.  1.
         -5    1    4    4    0  502  0.54155695265E+02  0.38827782451E+02  0.28812832132E+02  0.72750981541E+02  0.47000000000E+01 0.  1.
          5    1    5    5  503    0 -0.74602069796E+02  0.11658276482E+02  0.80005797877E+02  0.11011086196E+03  0.47000000000E+01 0. -1.
         -5    1    5    5    0  503  0.27723552063E+02  0.12501936004E+01 -0.22098845325E+02  0.35785573738E+02  0.47000000000E+01 0. -1.
<mgrwt>
<rscale>  0 0.27527585E+03</rscale>
<asrwt>0</asrwt>
<pdfrwt beam="1">  1        3 0.40342468E-01 0.27527585E+03</pdfrwt>
<pdfrwt beam="2">  1       -3 0.11114427E-01 0.27527585E+03</pdfrwt>
<totfact> 0.96063620E+02</totfact>
</mgrwt>
</event>
<event>
 9    1  0.2074770E-002  0.2752256E+03  0.7818608E-02  0.1098326E+00
          1   -1    0    0  501    0  0.00000000000E+00  0.00000000000E+00  0.12351058128E+04  0.12351058128E+04  0.00000000000E+00 0. -1.
         -1   -1    0    0    0  501 -0.00000000000E+00 -0.00000000000E+00 -0.15332519125E+02  0.15332519125E+02  0.00000000000E+00 0. -1.
         36    2    1    2    0    0  0.71054273576E-14  0.35527136788E-14  0.12197732937E+04  0.12504383319E+04  0.27522560561E+03 0.  0.
         25    2    3    3    0    0  0.57767947454E+02 -0.53445639616E+01  0.62884819470E+03  0.64332085856E+03  0.12266203555E+03 0.  0.
         25    2    3    3    0    0 -0.57767947454E+02  0.53445639616E+01  0.59092509896E+03  0.60711747335E+03  0.12662327490E+03 0.  0.
          5    1    4    4  502    0 -0.28807225336E+02 -0.32476634583E+02  0.24564550313E+03  0.24949627499E+03  0.47000000000E+01 0.  1.
         -5    1    4    4    0  502  0.86575172790E+02  0.27132070621E+02  0.38320269157E+03  0.39382458357E+03  0.47000000000E+01 0.  1.
          5    1    5    5  503    0 -0.14946074735E+02  0.46153634823E+02  0.87100627834E+02  0.99810583238E+02  0.47000000000E+01 0. -1.
         -5    1    5    5    0  503 -0.42821872719E+02 -0.40809070861E+02  0.50382447113E+03  0.50730689011E+03  0.47000000000E+01 0. -1.
<mgrwt>
<rscale>  0 0.27522561E+03</rscale>
<asrwt>0</asrwt>
<pdfrwt beam="1">  1        1 0.19001620E+00 0.27522561E+03</pdfrwt>
<pdfrwt beam="2">  1       -1 0.23588501E-02 0.27522561E+03</pdfrwt>
<totfact> 0.58212353E+03</totfact>
</mgrwt>
</event>
<event>
 9    1  0.2074770E-002  0.2741109E+03  0.7818608E-02  0.1098950E+00
         -1   -1    0    0    0  501 -0.00000000000E+00  0.00000000000E+00  0.64434384033E+03  0.64434384033E+03  0.00000000000E+00 0. -1.
          1   -1    0    0  501    0  0.00000000000E+00 -0.00000000000E+00 -0.29152446417E+02  0.29152446417E+02  0.00000000000E+00 0. -1.
         36    2    1    2    0    0  0.00000000000E+00  0.00000000000E+00  0.61519139391E+03  0.67349628675E+03  0.27411092119E+03 0.  0.
         25    2    3    3    0    0  0.38649076511E+02  0.20788818768E+02  0.29506479264E+03  0.32694954522E+03  0.13381646821E+03 0.  0.
         25    2    3    3    0    0 -0.38649076511E+02 -0.20788818768E+02  0.32012660128E+03  0.34654674153E+03  0.12525045756E+03 0.  0.
          5    1    4    4  502    0  0.41972655520E+02 -0.47059379068E+02  0.83783674344E+02  0.10496705700E+03  0.47000000000E+01 0.  1.
         -5    1    4    4    0  502 -0.33235790088E+01  0.67848197836E+02  0.21128111829E+03  0.22198248821E+03  0.47000000000E+01 0.  1.
          5    1    5    5  503    0 -0.18723707785E+02  0.42552003243E+02  0.50401543081E+02  0.68728856808E+02  0.47000000000E+01 0. -1.
         -5    1    5    5    0  503 -0.19925368726E+02 -0.63340822011E+02  0.26972505820E+03  0.27781788472E+03  0.47000000000E+01 0. -1.
<mgrwt>
<rscale>  0 0.27411092E+03</rscale>
<asrwt>0</asrwt>
<pdfrwt beam="1">  1        1 0.44849922E-02 0.27411092E+03</pdfrwt>
<pdfrwt beam="2">  1       -1 0.99129811E-01 0.27411092E+03</pdfrwt>
<totfact> 0.19887450E+03</totfact>
</mgrwt>
</event>
<event>
 9    1  0.2074770E-002  0.2705685E+03  0.7818608E-02  0.1100955E+00
         -1   -1    0    0    0  501 -0.00000000000E+00  0.00000000000E+00  0.59516218914E+03  0.59516218914E+03  0.00000000000E+00 0. -1.
          1   -1    0    0  501    0  0.00000000000E+00 -0.00000000000E+00 -0.30750983574E+02  0.30750983574E+02  0.00000000000E+00 0. -1.
         36    2    1    2    0    0  0.00000000000E+00  0.00000000000E+00  0.56441120557E+03  0.62591317272E+03  0.27056845864E+03 0.  0.
         25    2    3    3    0    0 -0.41661223270E+02 -0.27120763409E+02  0.26702384459E+03  0.29947619667E+03  0.12614699942E+03 0.  0.
         25    2    3    3    0    0  0.41661223270E+02  0.27120763409E+02  0.29738736098E+03  0.32643697604E+03  0.12510261199E+03 0.  0.
          5    1    4    4  502    0 -0.61806818502E+02 -0.35996087668E+02  0.66765658967E+02  0.97956849470E+02  0.47000000000E+01 0. -1.
         -5    1    4    4    0  502  0.20145595232E+02  0.88753242599E+01  0.20025818562E+03  0.20151934720E+03  0.47000000000E+01 0. -1.
          5    1    5    5  503    0  0.36847222359E+02 -0.24329235316E+02  0.28897341724E+02  0.52979013254E+02  0.47000000000E+01 0.  1.
         -5    1    5    5    0  503  0.48140009113E+01  0.51449998725E+02  0.26849001926E+03  0.27345796279E+03  0.47000000000E+01 0.  1.
<mgrwt>
<rscale>  0 0.27056846E+03</rscale>
<asrwt>0</asrwt>
<pdfrwt beam="1">  1        1 0.47309210E-02 0.27056846E+03</pdfrwt>
<pdfrwt beam="2">  1       -1 0.91563405E-01 0.27056846E+03</pdfrwt>
<totfact> 0.21965503E+03</totfact>
</mgrwt>
</event>
<event>
 9    1  0.2074770E-002  0.2749925E+03  0.7818608E-02  0.1098456E+00
          1   -1    0    0  501    0  0.00000000000E+00  0.00000000000E+00  0.48042244771E+03  0.48042244771E+03  0.00000000000E+00 0. -1.
         -1   -1    0    0    0  501 -0.00000000000E+00 -0.00000000000E+00 -0.39351239290E+02  0.39351239290E+02  0.00000000000E+00 0. -1.
         36    2    1    2    0    0  0.00000000000E+00  0.35527136788E-14  0.44107120842E+03  0.51977368700E+03  0.27499249954E+03 0.  0.
         25    2    3    3    0    0  0.53327150961E+02 -0.12098428485E+02  0.20309263830E+03  0.24526976166E+03  0.12617638151E+03 0.  0.
         25    2    3    3    0    0 -0.53327150961E+02  0.12098428485E+02  0.23797857012E+03  0.27450392534E+03  0.12541311013E+03 0.  0.
          5    1    4    4  502    0  0.49458500897E+01  0.34115965364E+02  0.38060523865E+01  0.34999093711E+02  0.47000000000E+01 0.  1.
         -5    1    4    4    0  502  0.48381300871E+02 -0.46214393849E+02  0.19928658592E+03  0.21027066795E+03  0.47000000000E+01 0.  1.
          5    1    5    5  503    0 -0.29175299470E+01 -0.29008155756E+02  0.19308609155E+03  0.19533129250E+03  0.47000000000E+01 0. -1.
         -5    1    5    5    0  503 -0.50409621014E+02  0.41106584240E+02  0.44892478570E+02  0.79172632840E+02  0.47000000000E+01 0. -1.
<mgrwt>
<rscale>  0 0.27499250E+03</rscale>
<asrwt>0</asrwt>
<pdfrwt beam="1">  1        1 0.73911142E-01 0.27499250E+03</pdfrwt>
<pdfrwt beam="2">  1       -1 0.60540372E-02 0.27499250E+03</pdfrwt>
<totfact> 0.62473451E+03</totfact>
</mgrwt>
</event>
<event>
 9    1  0.2074770E-002  0.2769125E+03  0.7818608E-02  0.1097387E+00
          2   -1    0    0  501    0  0.00000000000E+00  0.00000000000E+00  0.20769131685E+04  0.20769131685E+04  0.00000000000E+00 0.  1.
         -2   -1    0    0    0  501 -0.00000000000E+00 -0.00000000000E+00 -0.92301055804E+01  0.92301055804E+01  0.00000000000E+00 0.  1.
         36    2    1    2    0    0  0.00000000000E+00  0.00000000000E+00  0.20676830629E+04  0.20861432741E+04  0.27691246145E+03 0.  0.
         25    2    3    3    0    0 -0.25295721590E+02  0.38430816334E+02  0.75275598878E+03  0.76440113274E+03  0.12470249368E+03 0.  0.
         25    2    3    3    0    0  0.25295721590E+02 -0.38430816334E+02  0.13149270741E+04  0.13217421413E+04  0.12590582469E+03 0.  0.
          5    1    4    4  502    0 -0.67517486592E+02  0.54971898620E+01  0.25996045958E+03  0.26868263926E+03  0.47000000000E+01 0.  1.
         -5    1    4    4    0  502  0.42221765002E+02  0.32933626472E+02  0.49279552919E+03  0.49571849349E+03  0.47000000000E+01 0.  1.
          5    1    5    5  503    0  0.13096456067E+02  0.10177493734E+02  0.11287193130E+04  0.11288509539E+04  0.47000000000E+01 0. -1.
         -5    1    5    5    0  503  0.12199265523E+02 -0.48608310068E+02  0.18620776113E+03  0.19289118744E+03  0.47000000000E+01 0. -1.
<mgrwt>
<rscale>  0 0.27691246E+03</rscale>
<asrwt>0</asrwt>
<pdfrwt beam="1">  1        2 0.31952473E+00 0.27691246E+03</pdfrwt>
<pdfrwt beam="2">  1       -2 0.14200179E-02 0.27691246E+03</pdfrwt>
<totfact> 0.86511221E+03</totfact>
</mgrwt>
</event>
<event>
 9    1  0.2074770E-002  0.2784249E+03  0.7818608E-02  0.1096552E+00
          2   -1    0    0  501    0  0.00000000000E+00  0.00000000000E+00  0.45488171179E+03  0.45488171179E+03  0.00000000000E+00 0. -1.
         -2   -1    0    0    0  501 -0.00000000000E+00 -0.00000000000E+00 -0.42604712894E+02  0.42604712894E+02  0.00000000000E+00 0. -1.
         36    2    1    2    0    0 -0.71054273576E-14  0.71054273576E-14  0.41227699890E+03  0.49748642469E+03  0.27842488920E+03 0.  0.
         25    2    3    3    0    0  0.37530351734E+02 -0.41797753144E+02  0.18206292938E+03  0.22934763588E+03  0.12766302661E+03 0.  0.
         25    2    3    3    0    0 -0.37530351734E+02  0.41797753144E+02  0.23021406952E+03  0.26813878880E+03  0.12547634353E+03 0.  0.
          5    1    4    4  502    0  0.47495396319E+02 -0.58431743134E+01  0.50086074947E+01  0.48343887996E+02  0.47000000000E+01 0. -1.
         -5    1    4    4    0  502 -0.99650445854E+01 -0.35954578831E+02  0.17705432188E+03  0.18100374789E+03  0.47000000000E+01 0. -1.
          5    1    5    5  503    0 -0.40185069965E+02 -0.39047895430E+02  0.86878758270E+02  0.10348713265E+03  0.47000000000E+01 0.  1.
         -5    1    5    5    0  503  0.26547182307E+01  0.80845648574E+02  0.14333531125E+03  0.16465165615E+03  0.47000000000E+01 0.  1.
<mgrwt>
<rscale>  0 0.27842489E+03</rscale>
<asrwt>0</asrwt>
<pdfrwt beam="1">  1        2 0.69981799E-01 0.27842489E+03</pdfrwt>
<pdfrwt beam="2">  1       -2 0.65545715E-02 0.27842489E+03</pdfrwt>
<totfact> 0.88877089E+03</totfact>
</mgrwt>
</event>
<event>
 9    1  0.2074770E-002  0.2777848E+03  0.7818608E-02  0.1096905E+00
          2   -1    0    0  501    0  0.00000000000E+00  0.00000000000E+00  0.23918416284E+03  0.23918416284E+03  0.00000000000E+00 0. -1.
         -2   -1    0    0    0  501 -0.00000000000E+00 -0.00000000000E+00 -0.80653754608E+02  0.80653754608E+02  0.00000000000E+00 0. -1.
         36    2    1    2    0    0  0.00000000000E+00  0.00000000000E+00  0.15853040824E+03  0.31983791745E+03  0.27778481439E+03 0.  0.
         25    2    3    3    0    0  0.35009360606E+02  0.21041088228E+02  0.57254003837E+02  0.15098748104E+03  0.13360694499E+03 0.  0.
         25    2    3    3    0    0 -0.35009360606E+02 -0.21041088228E+02  0.10127640440E+03  0.16885043642E+03  0.12878345028E+03 0.  0.
          5    1    4    4  502    0  0.78240921143E+02  0.42260804892E+02  0.23842321340E+02  0.92185485074E+02  0.47000000000E+01 0. -1.
         -5    1    4    4    0  502 -0.43231560537E+02 -0.21219716664E+02  0.33411682497E+02  0.58801995961E+02  0.47000000000E+01 0. -1.
          5    1    5    5  503    0  0.41780838407E+02 -0.35910149992E+02  0.54264342958E+02  0.77471841640E+02  0.47000000000E+01 0. -1.
         -5    1    5    5    0  503 -0.76790199013E+02  0.14869061764E+02  0.47012061440E+02  0.91378594775E+02  0.47000000000E+01 0. -1.
<mgrwt>
<rscale>  0 0.27778481E+03</rscale>
<asrwt>0</asrwt>
<pdfrwt beam="1">  1        2 0.36797563E-01 0.27778481E+03</pdfrwt>
<pdfrwt beam="2">  1       -2 0.12408270E-01 0.27778481E+03</pdfrwt>
<totfact> 0.65077535E+03</totfact>
</mgrwt>
</event>
<event>
 9    1  0.2074770E-002  0.2749153E+03  0.7818608E-02  0.1098499E+00
          2   -1    0    0  501    0  0.00000000000E+00  0.00000000000E+00  0.11981430763E+03  0.11981430763E+03  0.00000000000E+00 0. -1.
         -2   -1    0    0    0  501 -0.00000000000E+00 -0.00000000000E+00 -0.15769909212E+03  0.15769909212E+03  0.00000000000E+00 0. -1.
         36    2    1    2    0    0 -0.17763568394E-14  0.00000000000E+00 -0.37884784491E+02  0.27751339974E+03  0.27491531449E+03 0.  0.
         25    2    3    3    0    0  0.49527258828E+01  0.59882548319E+02 -0.21137601083E+02  0.13869943391E+03  0.12320830207E+03 0.  0.
         25    2    3    3    0    0 -0.49527258828E+01 -0.59882548319E+02 -0.16747183408E+02  0.13881396584E+03  0.12400967653E+03 0.  0.
          5    1    4    4  502    0 -0.43652787290E+02  0.63635765227E+02 -0.38969156686E+02  0.86578066663E+02  0.47000000000E+01 0.  1.
         -5    1    4    4    0  502  0.48605513173E+02 -0.37532169083E+01  0.17831555603E+02  0.52121367242E+02  0.47000000000E+01 0.  1.
          5    1    5    5  503    0 -0.16436163324E+02  0.35258979125E+02 -0.17376638494E+02  0.42864678222E+02  0.47000000000E+01 0.  1.
         -5    1    5    5    0  503  0.11483437442E+02 -0.95141527444E+02  0.62945508608E+00  0.95949287614E+02  0.47000000000E+01 0.  1.
<mgrwt>
<rscale>  0 0.27491531E+03</rscale>
<asrwt>0</asrwt>
<pdfrwt beam="1">  1        2 0.18432971E-01 0.27491531E+03</pdfrwt>
<pdfrwt beam="2">  1       -2 0.24261399E-01 0.27491531E+03</pdfrwt>
<totfact> 0.45488813E+03</totfact>
</mgrwt>
</event>
<event>
 9    1  0.2074770E-002  0.2745111E+03  0.7818608E-02  0.1098725E+00
         -1   -1    0    0    0  501 -0.00000000000E+00  0.00000000000E+00  0.21929943103E+02  0.21929943103E+02  0.00000000000E+00 0.  1.
          1   -1    0    0  501    0  0.00000000000E+00 -0.00000000000E+00 -0.85905797991E+03  0.85905797991E+03  0.00000000000E+00 0.  1.
         36    2    1    2    0    0  0.00000000000E+00  0.35527136788E-14 -0.83712803681E+03  0.88098792301E+03  0.27451114820E+03 0.  0.
         25    2    3    3    0    0  0.33137557038E+02  0.19341048041E+02 -0.25378629591E+03  0.28335892771E+03  0.12005258888E+03 0.  0.
         25    2    3    3    0    0 -0.33137557038E+02 -0.19341048041E+02 -0.58334174090E+03  0.59762899530E+03  0.12409937762E+03 0.  0.
          5    1    4    4  502    0  0.79894064262E+00  0.65694950867E+02 -0.10300880410E+03  0.12226761058E+03  0.47000000000E+01 0.  1.
         -5    1    4    4    0  502  0.32338616396E+02 -0.46353902826E+02 -0.15077749181E+03  0.16109131712E+03  0.47000000000E+01 0.  1.
          5    1    5    5  503    0  0.74232656945E+01  0.31267219268E+02 -0.42794134946E+03  0.42917203130E+03  0.47000000000E+01 0.  1.
         -5    1    5    5    0  503 -0.40560822733E+02 -0.50608267309E+02 -0.15540039144E+03  0.16845696400E+03  0.47000000000E+01 0.  1.
<mgrwt>
<rscale>  0 0.27451115E+03</rscale>
<asrwt>0</asrwt>
<pdfrwt beam="1">  1        1 0.13216277E+00 0.27451115E+03</pdfrwt>
<pdfrwt beam="2">  1       -1 0.33738372E-02 0.27451115E+03</pdfrwt>
<totfact> 0.65162399E+03</totfact>
</mgrwt>
</event>
<event>
 9    1  0.2074770E-002  0.2794933E+03  0.7818608E-02  0.1095966E+00
          2   -1    0    0  501    0  0.00000000000E+00  0.00000000000E+00  0.40187656895E+03  0.40187656895E+03  0.00000000000E+00 0. -1.
         -2   -1    0    0    0  501 -0.00000000000E+00 -0.00000000000E+00 -0.48594832724E+02  0.48594832724E+02  0.00000000000E+00 0. -1.
         36    2    1    2    0    0  0.00000000000E+00  0.00000000000E+00  0.35328173622E+03  0.45047140167E+03  0.27949328896E+03 0.  0.
         25    2    3    3    0    0  0.18960876418E+02  0.36561207990E+02  0.24976059103E+03  0.28208977559E+03  0.12449117197E+03 0.  0.
         25    2    3    3    0    0 -0.18960876418E+02 -0.36561207990E+02  0.10352114520E+03  0.16838162608E+03  0.12625176329E+03 0.  0.
          5    1    4    4  502    0  0.86216929152E+01  0.82101378686E+02  0.17904168034E+03  0.19721304032E+03  0.47000000000E+01 0. -1.
         -5    1    4    4    0  502  0.10339183503E+02 -0.45540170696E+02  0.70718910685E+02  0.84876735276E+02  0.47000000000E+01 0. -1.
          5    1    5    5  503    0  0.35750850420E+02 -0.59395578161E+02  0.35497919528E+02  0.78026599962E+02  0.47000000000E+01 0. -1.
         -5    1    5    5    0  503 -0.54711726838E+02  0.22834370171E+02  0.68023225668E+02  0.90355026119E+02  0.47000000000E+01 0. -1.
<mgrwt>
<rscale>  0 0.27949329E+03</rscale>
<asrwt>0</asrwt>
<pdfrwt beam="1">  1        2 0.61827162E-01 0.27949329E+03</pdfrwt>
<pdfrwt beam="2">  1       -2 0.74761284E-02 0.27949329E+03</pdfrwt>
<totfact> 0.83035867E+03</totfact>
</mgrwt>
</event>
<event>
 9    1  0.2074770E-002  0.2706434E+03  0.7818608E-02  0.1100912E+00
          3   -1    0    0  501    0  0.00000000000E+00  0.00000000000E+00  0.93954094040E+03  0.93954094040E+03  0.00000000000E+00 0.  1.
         -3   -1    0    0    0  501 -0.00000000000E+00 -0.00000000000E+00 -0.19490335893E+02  0.19490335893E+02  0.00000000000E+00 0.  1.
         36    2    1    2    0    0 -0.71054273576E-14 -0.71054273576E-14  0.92005060450E+03  0.95903127629E+03  0.27064344451E+03 0.  0.
         25    2    3    3    0    0 -0.35516311214E+02  0.39285209982E+02  0.44612123126E+03  0.46667080139E+03  0.12630418759E+03 0.  0.
         25    2    3    3    0    0  0.35516311214E+02 -0.39285209982E+02  0.47392937324E+03  0.49236047490E+03  0.12249510332E+03 0.  0.
          5    1    4    4  502    0 -0.54903133141E+02 -0.31273621068E+02  0.22156309311E+03  0.23044454351E+03  0.47000000000E+01 0.  1.
         -5    1    4    4    0  502  0.19386821927E+02  0.70558831050E+02  0.22455813815E+03  0.23622625788E+03  0.47000000000E+01 0.  1.
          5    1    5    5  503    0  0.14505096200E+02 -0.15262814687E+02  0.45385083087E+03  0.45436331059E+03  0.47000000000E+01 0. -1.
         -5    1    5    5    0  503  0.21011215014E+02 -0.24022395296E+02  0.20078542378E+02  0.37997164317E+02  0.47000000000E+01 0. -1.
<mgrwt>
<rscale>  0 0.27064344E+03</rscale>
<asrwt>0</asrwt>
<pdfrwt beam="1">  1        3 0.14454472E+00 0.27064344E+03</pdfrwt>
<pdfrwt beam="2">  1       -3 0.29985139E-02 0.27064344E+03</pdfrwt>
<totfact> 0.48637881E+02</totfact>
</mgrwt>
</event>
<event>
 9    1  0.2074770E-002  0.2748968E+03  0.7818608E-02  0.1098509E+00
         -2   -1    0    0    0  501 -0.00000000000E+00  0.00000000000E+00  0.18557351811E+02  0.18557351811E+02  0.00000000000E+00 0.  1.
          2   -1    0    0  501    0  0.00000000000E+00 -0.00000000000E+00 -0.10180363441E+04  0.10180363441E+04  0.00000000000E+00 0.  1.
         36    2    1    2    0    0 -0.71054273576E-14  0.00000000000E+00 -0.99947899226E+03  0.10365936959E+04  0.27489677039E+03 0.  0.
         25    2    3    3    0    0 -0.11264832138E+02 -0.14780411251E+02 -0.29230184770E+03  0.31907342700E+03  0.12657853155E+03 0.  0.
         25    2    3    3    0    0  0.11264832138E+02  0.14780411251E+02 -0.70717714456E+03  0.71752026888E+03  0.11996026619E+03 0.  0.
          5    1    4    4  502    0 -0.24900234300E+02 -0.43838938106E+02 -0.39557002568E+02  0.64255121311E+02  0.47000000000E+01 0.  1.
         -5    1    4    4    0  502  0.13635402162E+02  0.29058526855E+02 -0.25274484513E+03  0.25481830569E+03  0.47000000000E+01 0.  1.
          5    1    5    5  503    0 -0.40057187163E+02 -0.21661381728E+02 -0.15139730774E+03  0.15816772266E+03  0.47000000000E+01 0. -1.
         -5    1    5    5    0  503  0.51322019301E+02  0.36441792980E+02 -0.55577983682E+03  0.55935254622E+03  0.47000000000E+01 0. -1.
<mgrwt>
<rscale>  0 0.27489677E+03</rscale>
<asrwt>0</asrwt>
<pdfrwt beam="1">  1        2 0.15662103E+00 0.27489677E+03</pdfrwt>
<pdfrwt beam="2">  1       -2 0.28549763E-02 0.27489677E+03</pdfrwt>
<totfact> 0.11645152E+04</totfact>
</mgrwt>
</event>
<event>
 9    1  0.2074770E-002  0.2750786E+03  0.7818608E-02  0.1098408E+00
          1   -1    0    0  501    0  0.00000000000E+00  0.00000000000E+00  0.42643783191E+03  0.42643783191E+03  0.00000000000E+00 0. -1.
         -1   -1    0    0    0  501 -0.00000000000E+00 -0.00000000000E+00 -0.44360633327E+02  0.44360633327E+02  0.00000000000E+00 0. -1.
         36    2    1    2    0    0 -0.17763568394E-14 -0.14210854715E-13  0.38207719858E+03  0.47079846523E+03  0.27507855095E+03 0.  0.
         25    2    3    3    0    0 -0.14777589326E+02 -0.55714860146E+02  0.17396263210E+03  0.22185763392E+03  0.12504115153E+03 0.  0.
         25    2    3    3    0    0  0.14777589326E+02  0.55714860146E+02  0.20811456648E+03  0.24894083131E+03  0.12384402256E+03 0.  0.
          5    1    4    4  502    0 -0.68516970811E+02 -0.37651078837E+02  0.12096970413E+03  0.14411085436E+03  0.47000000000E+01 0. -1.
         -5    1    4    4    0  502  0.53739381485E+02 -0.18063781310E+02  0.52992927963E+02  0.77746779559E+02  0.47000000000E+01 0. -1.
          5    1    5    5  503    0  0.12670938697E+02 -0.27798324985E+02  0.13285106649E+03  0.13639939673E+03  0.47000000000E+01 0. -1.
         -5    1    5    5    0  503  0.21066506292E+01  0.83513185131E+02  0.75263499988E+02  0.11254143458E+03  0.47000000000E+01 0. -1.
<mgrwt>
<rscale>  0 0.27507855E+03</rscale>
<asrwt>0</asrwt>
<pdfrwt beam="1">  1        1 0.65605818E-01 0.27507855E+03</pdfrwt>
<pdfrwt beam="2">  1       -1 0.68247131E-02 0.27507855E+03</pdfrwt>
<totfact> 0.60890170E+03</totfact>
</mgrwt>
</event>
<event>
 9    1  0.2074770E-002  0.2754671E+03  0.7818608E-02  0.1098191E+00
         -1   -1    0    0    0  501 -0.00000000000E+00  0.00000000000E+00  0.29238609132E+03  0.29238609132E+03  0.00000000000E+00 0.  1.
          1   -1    0    0  501    0  0.00000000000E+00 -0.00000000000E+00 -0.64881775496E+02  0.64881775496E+02  0.00000000000E+00 0.  1.
         36    2    1    2    0    0  0.71054273576E-14  0.00000000000E+00  0.22750431583E+03  0.35726786682E+03  0.27546708504E+03 0.  0.
         25    2    3    3    0    0 -0.35084223148E+02  0.46080117341E+02  0.12111884709E+03  0.18394502065E+03  0.12574464431E+03 0.  0.
         25    2    3    3    0    0  0.35084223148E+02 -0.46080117341E+02  0.10638546874E+03  0.17332284617E+03  0.12397040421E+03 0.  0.
          5    1    4    4  502    0 -0.98225213817E+01 -0.28909620078E+02 -0.84713262443E+01  0.32032817979E+02  0.47000000000E+01 0. -1.
         -5    1    4    4    0  502 -0.25261701766E+02  0.74989737419E+02  0.12959017334E+03  0.15191220267E+03  0.47000000000E+01 0. -1.
          5    1    5    5  503    0 -0.18332831290E+02 -0.36164464086E+02  0.11132029695E+03  0.11856753215E+03  0.47000000000E+01 0. -1.
         -5    1    5    5    0  503  0.53417054438E+02 -0.99156532554E+01 -0.49348282188E+01  0.54755314024E+02  0.47000000000E+01 0. -1.
<mgrwt>
<rscale>  0 0.27546709E+03</rscale>
<asrwt>0</asrwt>
<pdfrwt beam="1">  1        1 0.99818118E-02 0.27546709E+03</pdfrwt>
<pdfrwt beam="2">  1       -1 0.44982475E-01 0.27546709E+03</pdfrwt>
<totfact> 0.31984620E+03</totfact>
</mgrwt>
</event>
<event>
 9    1  0.2074770E-002  0.2741148E+03  0.7818608E-02  0.1098947E+00
          2   -1    0    0  501    0  0.00000000000E+00  0.00000000000E+00  0.13483556350E+04  0.13483556350E+04  0.00000000000E+00 0.  1.
         -2   -1    0    0    0  501 -0.00000000000E+00 -0.00000000000E+00 -0.13931581798E+02  0.13931581798E+02  0.00000000000E+00 0.  1.
         36    2    1    2    0    0  0.00000000000E+00  0.71054273576E-14  0.13344240532E+04  0.13622872168E+04  0.27411477028E+03 0.  0.
         25    2    3    3    0    0  0.91681889637E+01 -0.30800505028E+02  0.47209364618E+03  0.48942667739E+03  0.12503333547E+03 0.  0.
         25    2    3    3    0    0 -0.91681889637E+01  0.30800505028E+02  0.86233040704E+03  0.87286053942E+03  0.13129761454E+03 0.  0.
          5    1    4    4  502    0 -0.34766651136E+01 -0.68898117128E+02  0.40681643986E+03  0.41265087360E+03  0.47000000000E+01 0.  1.
         -5    1    4    4    0  502  0.12644854077E+02  0.38097612100E+02  0.65277206328E+02  0.76775803795E+02  0.47000000000E+01 0.  1.
          5    1    5    5  503    0 -0.34538177406E+01 -0.39231651271E+02  0.59788145520E+03  0.59919560729E+03  0.47000000000E+01 0.  1.
         -5    1    5    5    0  503 -0.57143712231E+01  0.70032156299E+02  0.26444895183E+03  0.27366493213E+03  0.47000000000E+01 0.  1.
<mgrwt>
<rscale>  0 0.27411477E+03</rscale>
<asrwt>0</asrwt>
<pdfrwt beam="1">  1        2 0.20743922E+00 0.27411477E+03</pdfrwt>
<pdfrwt beam="2">  1       -2 0.21433214E-02 0.27411477E+03</pdfrwt>
<totfact> 0.11506937E+04</totfact>
</mgrwt>
</event>
<event>
 9    1  0.2074770E-002  0.2754453E+03  0.7818608E-02  0.1098203E+00
          2   -1    0    0  501    0  0.00000000000E+00  0.00000000000E+00  0.21372083411E+04  0.21372083411E+04  0.00000000000E+00 0.  1.
         -2   -1    0    0    0  501 -0.00000000000E+00 -0.00000000000E+00 -0.88749055892E+01  0.88749055892E+01  0.00000000000E+00 0.  1.
         36    2    1    2    0    0  0.00000000000E+00  0.00000000000E+00  0.21283334355E+04  0.21460832466E+04  0.27544525591E+03 0.  0.
         25    2    3    3    0    0 -0.32767227124E+02 -0.19636219678E+02  0.14001306396E+04  0.14062430801E+04  0.12527777162E+03 0.  0.
         25    2    3    3    0    0  0.32767227124E+02  0.19636219678E+02  0.72820279590E+03  0.73984016659E+03  0.12499955137E+03 0.  0.
          5    1    4    4  502    0 -0.47164160222E+01  0.52145990364E+02  0.47660900695E+03  0.47949941021E+03  0.47000000000E+01 0.  1.
         -5    1    4    4    0  502 -0.28050811102E+02 -0.71782210042E+02  0.92352163263E+03  0.92674366985E+03  0.47000000000E+01 0.  1.
          5    1    5    5  503    0  0.30292298729E+02  0.56470146110E+02  0.19444015071E+03  0.20478174473E+03  0.47000000000E+01 0.  1.
         -5    1    5    5    0  503  0.24749283951E+01 -0.36833926432E+02  0.53376264519E+03  0.53505842186E+03  0.47000000000E+01 0.  1.
<mgrwt>
<rscale>  0 0.27544526E+03</rscale>
<asrwt>0</asrwt>
<pdfrwt beam="1">  1        2 0.32880087E+00 0.27544526E+03</pdfrwt>
<pdfrwt beam="2">  1       -2 0.13653718E-02 0.27544526E+03</pdfrwt>
<totfact> 0.85128313E+03</totfact>
</mgrwt>
</event>
<event>
 9    1  0.2074770E-002  0.2767883E+03  0.7818608E-02  0.1097456E+00
         -1   -1    0    0    0  501 -0.00000000000E+00  0.00000000000E+00  0.53684941789E+02  0.53684941789E+02  0.00000000000E+00 0.  1.
          1   -1    0    0  501    0  0.00000000000E+00 -0.00000000000E+00 -0.35676556063E+03  0.35676556063E+03  0.00000000000E+00 0.  1.
         36    2    1    2    0    0 -0.10658141036E-13  0.00000000000E+00 -0.30308061885E+03  0.41045050242E+03  0.27678828266E+03 0.  0.
         25    2    3    3    0    0  0.15527122640E+02  0.26596172142E+02 -0.10137517792E+03  0.17181794000E+03  0.13526281786E+03 0.  0.
         25    2    3    3    0    0 -0.15527122640E+02 -0.26596172142E+02 -0.20170544092E+03  0.23863256243E+03  0.12374153321E+03 0.  0.
          5    1    4    4  502    0 -0.51947586664E+02  0.43841198499E+01 -0.58319597528E+01  0.52667580366E+02  0.47000000000E+01 0. -1.
         -5    1    4    4    0  502  0.67474709304E+02  0.22212052292E+02 -0.95543218169E+02  0.11915035963E+03  0.47000000000E+01 0. -1.
          5    1    5    5  503    0  0.20743970036E+02  0.14101139384E+02 -0.17659409141E+03  0.17842846619E+03  0.47000000000E+01 0. -1.
         -5    1    5    5    0  503 -0.36271092677E+02 -0.40697311526E+02 -0.25111349513E+02  0.60204096237E+02  0.47000000000E+01 0. -1.
<mgrwt>
<rscale>  0 0.27678828E+03</rscale>
<asrwt>0</asrwt>
<pdfrwt beam="1">  1        1 0.54887011E-01 0.27678828E+03</pdfrwt>
<pdfrwt beam="2">  1       -1 0.82592216E-02 0.27678828E+03</pdfrwt>
<totfact> 0.57229790E+03</totfact>
</mgrwt>
</event>
<event>
 9    1  0.2074770E-002  0.2763367E+03  0.7818608E-02  0.1097707E+00
         -1   -1    0    0    0  501 -0.00000000000E+00  0.00000000000E+00  0.49559365821E+02  0.49559365821E+02  0.00000000000E+00 0.  1.
          1   -1    0    0  501    0  0.00000000000E+00 -0.00000000000E+00 -0.38520450208E+03  0.38520450208E+03  0.00000000000E+00 0.  1.
         36    2    1    2    0    0  0.00000000000E+00 -0.14210854715E-13 -0.33564513626E+03  0.43476386790E+03  0.27633668475E+03 0.  0.
         25    2    3    3    0    0 -0.23088045494E+02  0.37173819315E+02 -0.20501607944E+03  0.24541451369E+03  0.12759992168E+03 0.  0.
         25    2    3    3    0    0  0.23088045494E+02 -0.37173819315E+02 -0.13062905682E+03  0.18934935422E+03  0.12990102682E+03 0.  0.
          5    1    4    4  502    0 -0.39050112814E+02 -0.29860750892E+02 -0.14745545850E+03  0.15550491309E+03  0.47000000000E+01 0.  1.
         -5    1    4    4    0  502  0.15962067320E+02  0.67034570207E+02 -0.57560620943E+02  0.89909600596E+02  0.47000000000E+01 0.  1.
          5    1    5    5  503    0 -0.26553603216E+02  0.15383797542E+02 -0.10959850822E+03  0.11391083388E+03  0.47000000000E+01 0. -1.
         -5    1    5    5    0  503  0.49641648710E+02 -0.52557616857E+02 -0.21030548598E+02  0.75438520337E+02  0.47000000000E+01 0. -1.
<mgrwt>
<rscale>  0 0.27633668E+03</rscale>
<asrwt>0</asrwt>
<pdfrwt beam="1">  1        1 0.59262234E-01 0.27633668E+03</pdfrwt>
<pdfrwt beam="2">  1       -1 0.76245174E-02 0.27633668E+03</pdfrwt>
<totfact> 0.58640559E+03</totfact>
</mgrwt>
</event>
<event>
 9    1  0.2074770E-002  0.2753797E+03  0.7818608E-02  0.1098240E+00
         -1   -1    0    0    0  501 -0.00000000000E+00  0.00000000000E+00  0.51917856520E+03  0.51917856520E+03  0.00000000000E+00 0. -1.
          1   -1    0    0  501    0  0.00000000000E+00 -0.00000000000E+00 -0.36516316790E+02  0.36516316790E+02  0.00000000000E+00 0. -1.
         36    2    1    2    0    0  0.00000000000E+00  0.00000000000E+00  0.48266224841E+03  0.55569488199E+03  0.27537965762E+03 0.  0.
         25    2    3    3    0    0 -0.18372279693E+02 -0.54106250850E+02  0.24468933866E+03  0.28079077070E+03  0.12532181539E+03 0.  0.
         25    2    3    3    0    0  0.18372279693E+02  0.54106250850E+02  0.23797290975E+03  0.27490411129E+03  0.12520438326E+03 0.  0.
          5    1    4    4  502    0 -0.32227929933E+02 -0.66777587758E+02  0.61126521898E+02  0.96210328832E+02  0.47000000000E+01 0. -1.
         -5    1    4    4    0  502  0.13855650240E+02  0.12671336908E+02  0.18356281676E+03  0.18458044187E+03  0.47000000000E+01 0. -1.
          5    1    5    5  503    0  0.57568443445E+02  0.48217086809E+02  0.21729377575E+03  0.22995149080E+03  0.47000000000E+01 0.  1.
         -5    1    5    5    0  503 -0.39196163752E+02  0.58891640409E+01  0.20679133999E+02  0.44952620490E+02  0.47000000000E+01 0.  1.
<mgrwt>
<rscale>  0 0.27537966E+03</rscale>
<asrwt>0</asrwt>
<pdfrwt beam="1">  1        1 0.56178953E-02 0.27537966E+03</pdfrwt>
<pdfrwt beam="2">  1       -1 0.79873620E-01 0.27537966E+03</pdfrwt>
<totfact> 0.23126002E+03</totfact>
</mgrwt>
</event>
<event>
 9    1  0.2074770E-002  0.2765684E+03  0.7818608E-02  0.1097578E+00
          2   -1    0    0  501    0  0.00000000000E+00  0.00000000000E+00  0.27191928326E+03  0.27191928326E+03  0.00000000000E+00 0. -1.
         -2   -1    0    0    0  501 -0.00000000000E+00 -0.00000000000E+00 -0.70324250909E+02  0.70324250909E+02  0.00000000000E+00 0. -1.
         36    2    1    2    0    0  0.00000000000E+00 -0.35527136788E-14  0.20159503235E+03  0.34224353416E+03  0.27656839952E+03 0.  0.
         25    2    3    3    0    0  0.43058110436E+02 -0.60009256513E+00  0.53978769192E+02  0.14441120646E+03  0.12683267735E+03 0.  0.
         25    2    3    3    0    0 -0.43058110436E+02  0.60009256513E+00  0.14761626315E+03  0.19783232770E+03  0.12446970616E+03 0.  0.
          5    1    4    4  502    0  0.43997955300E+02 -0.31376262190E+02 -0.24840416226E+02  0.59660926726E+02  0.47000000000E+01 0. -1.
         -5    1    4    4    0  502 -0.93984486388E+00  0.30776169625E+02  0.78819185418E+02  0.84750279734E+02  0.47000000000E+01 0. -1.
          5    1    5    5  503    0 -0.73900508186E+02 -0.37010135792E+02  0.89951094751E+02  0.12224698241E+03  0.47000000000E+01 0. -1.
         -5    1    5    5    0  503  0.30842397750E+02  0.37610228358E+02  0.57665168403E+02  0.75585345293E+02  0.47000000000E+01 0. -1.
<mgrwt>
<rscale>  0 0.27656840E+03</rscale>
<asrwt>0</asrwt>
<pdfrwt beam="1">  1        2 0.41833735E-01 0.27656840E+03</pdfrwt>
<pdfrwt beam="2">  1       -2 0.10819116E-01 0.27656840E+03</pdfrwt>
<totfact> 0.70637984E+03</totfact>
</mgrwt>
</event>
<event>
 9    1  0.2074770E-002  0.2753386E+03  0.7818608E-02  0.1098263E+00
          2   -1    0    0  501    0  0.00000000000E+00  0.00000000000E+00  0.75572496997E+03  0.75572496997E+03  0.00000000000E+00 0. -1.
         -2   -1    0    0    0  501 -0.00000000000E+00 -0.00000000000E+00 -0.25079004588E+02  0.25079004588E+02  0.00000000000E+00 0. -1.
         36    2    1    2    0    0  0.71054273576E-14 -0.71054273576E-14  0.73064596538E+03  0.78080397455E+03  0.27533855516E+03 0.  0.
         25    2    3    3    0    0  0.39978839977E+02 -0.40472455712E+02  0.29392478323E+03  0.32378988248E+03  0.12333605508E+03 0.  0.
         25    2    3    3    0    0 -0.39978839977E+02  0.40472455712E+02  0.43672118215E+03  0.45701409208E+03  0.12206622014E+03 0.  0.
          5    1    4    4  502    0 -0.94520255880E+01 -0.17234366039E+02 -0.42204379672E+01  0.20646216532E+02  0.47000000000E+01 0. -1.
         -5    1    4    4    0  502  0.49430865565E+02 -0.23238089673E+02  0.29814522119E+03  0.30314366594E+03  0.47000000000E+01 0. -1.
          5    1    5    5  503    0  0.41731524861E+02  0.30059786099E+02  0.14895761723E+03  0.15765650205E+03  0.47000000000E+01 0.  1.
         -5    1    5    5    0  503 -0.81710364838E+02  0.10412669613E+02  0.28776356492E+03  0.29935759003E+03  0.47000000000E+01 0.  1.
<mgrwt>
<rscale>  0 0.27533856E+03</rscale>
<asrwt>0</asrwt>
<pdfrwt beam="1">  1        2 0.11626536E+00 0.27533856E+03</pdfrwt>
<pdfrwt beam="2">  1       -2 0.38583090E-02 0.27533856E+03</pdfrwt>
<totfact> 0.11028852E+04</totfact>
</mgrwt>
</event>
<event>
 9    1  0.2074770E-002  0.2744111E+03  0.7818608E-02  0.1098781E+00
         -1   -1    0    0    0  501 -0.00000000000E+00  0.00000000000E+00  0.18235826885E+02  0.18235826885E+02  0.00000000000E+00 0. -1.
          1   -1    0    0  501    0  0.00000000000E+00 -0.00000000000E+00 -0.10323287591E+04  0.10323287591E+04  0.00000000000E+00 0. -1.
         36    2    1    2    0    0  0.71054273576E-14 -0.71054273576E-14 -0.10140929322E+04  0.10505645860E+04  0.27441114073E+03 0.  0.
         25    2    3    3    0    0 -0.13367464226E+02  0.43049575793E+02 -0.35232492286E+03  0.37586039917E+03  0.12290741768E+03 0.  0.
         25    2    3    3    0    0  0.13367464226E+02 -0.43049575793E+02 -0.66176800937E+03  0.67470418683E+03  0.12351876951E+03 0.  0.
          5    1    4    4  502    0  0.30248460393E+02 -0.22348654373E+02 -0.20822794313E+03  0.21164923343E+03  0.47000000000E+01 0.  1.
         -5    1    4    4    0  502 -0.43615924620E+02  0.65398230166E+02 -0.14409697972E+03  0.16421116574E+03  0.47000000000E+01 0.  1.
          5    1    5    5  503    0  0.13337441612E+02 -0.65235577254E+02 -0.17331393783E+03  0.18572393204E+03  0.47000000000E+01 0.  1.
         -5    1    5    5    0  503  0.30022614269E-01  0.22186001461E+02 -0.48845407155E+03  0.48898025479E+03  0.47000000000E+01 0.  1.
<mgrwt>
<rscale>  0 0.27441114E+03</rscale>
<asrwt>0</asrwt>
<pdfrwt beam="1">  1        1 0.15881981E+00 0.27441114E+03</pdfrwt>
<pdfrwt beam="2">  1       -1 0.28055118E-02 0.27441114E+03</pdfrwt>
<totfact> 0.62962030E+03</totfact>
</mgrwt>
</event>
<event>
 9    1  0.2074770E-002  0.2750608E+03  0.7818608E-02  0.1098418E+00
          2   -1    0    0  501    0  0.00000000000E+00  0.00000000000E+00  0.20852408355E+04  0.20852408355E+04  0.00000000000E+00 0.  1.
         -2   -1    0    0    0  501 -0.00000000000E+00 -0.00000000000E+00 -0.90707101414E+01  0.90707101414E+01  0.00000000000E+00 0.  1.
         36    2    1    2    0    0  0.00000000000E+00  0.88817841970E-15  0.20761701254E+04  0.20943115457E+04  0.27506083105E+03 0.  0.
         25    2    3    3    0    0  0.33385276688E+02 -0.16005804603E-01  0.13955320721E+04  0.14015379120E+04  0.12523648708E+03 0.  0.
         25    2    3    3    0    0 -0.33385276688E+02  0.16005804603E-01  0.68063805330E+03  0.69277363363E+03  0.12470994708E+03 0.  0.
          5    1    4    4  502    0 -0.25673494659E+02 -0.21038707391E+02  0.10366198128E+04  0.10371617433E+04  0.47000000000E+01 0. -1.
         -5    1    4    4    0  502  0.59058771347E+02  0.21022701586E+02  0.35891225928E+03  0.36437616870E+03  0.47000000000E+01 0. -1.
          5    1    5    5  503    0  0.19366311794E+02  0.69317124218E+01  0.17290014478E+02  0.27278879564E+02  0.47000000000E+01 0.  1.
         -5    1    5    5    0  503 -0.52751588482E+02 -0.69157066172E+01  0.66334803882E+03  0.66549475407E+03  0.47000000000E+01 0.  1.
<mgrwt>
<rscale>  0 0.27506083E+03</rscale>
<asrwt>0</asrwt>
<pdfrwt beam="1">  1        2 0.32080590E+00 0.27506083E+03</pdfrwt>
<pdfrwt beam="2">  1       -2 0.13954955E-02 0.27506083E+03</pdfrwt>
<totfact> 0.87843747E+03</totfact>
</mgrwt>
</event>
<event>
 9    1  0.2074770E-002  0.2751281E+03  0.7818608E-02  0.1098380E+00
         -2   -1    0    0    0  501 -0.00000000000E+00  0.00000000000E+00  0.78200685773E+01  0.78200685773E+01  0.00000000000E+00 0.  1.
          2   -1    0    0  501    0  0.00000000000E+00 -0.00000000000E+00 -0.24199102469E+04  0.24199102469E+04  0.00000000000E+00 0.  1.
         36    2    1    2    0    0  0.00000000000E+00  0.00000000000E+00 -0.24120901783E+04  0.24277303155E+04  0.27512807259E+03 0.  0.
         25    2    3    3    0    0  0.30170886770E+02 -0.45498134948E+02 -0.12024493210E+04  0.12103466150E+04  0.12678405304E+03 0.  0.
         25    2    3    3    0    0 -0.30170886770E+02  0.45498134948E+02 -0.12096408573E+04  0.12173837005E+04  0.12574461366E+03 0.  0.
          5    1    4    4  502    0  0.58161385938E+02  0.20468952013E+02 -0.40818322193E+03  0.41284059572E+03  0.47000000000E+01 0. -1.
         -5    1    4    4    0  502 -0.27990499168E+02 -0.65967086961E+02 -0.79426609905E+03  0.79750601923E+03  0.47000000000E+01 0. -1.
          5    1    5    5  503    0  0.13532076817E+02  0.76327521813E+02 -0.53462045116E+03  0.54023154710E+03  0.47000000000E+01 0.  1.
         -5    1    5    5    0  503 -0.43702963587E+02 -0.30829386865E+02 -0.67502040618E+03  0.67715215342E+03  0.47000000000E+01 0.  1.
<mgrwt>
<rscale>  0 0.27512807E+03</rscale>
<asrwt>0</asrwt>
<pdfrwt beam="1">  1        2 0.37229396E+00 0.27512807E+03</pdfrwt>
<pdfrwt beam="2">  1       -2 0.12030872E-02 0.27512807E+03</pdfrwt>
<totfact> 0.72241483E+03</totfact>
</mgrwt>
</event>
<event>
 9    1  0.2074770E-002  0.2748488E+03  0.7818608E-02  0.1098536E+00
         -1   -1    0    0    0  501 -0.00000000000E+00  0.00000000000E+00  0.10600330319E+03  0.10600330319E+03  0.00000000000E+00 0. -1.
          1   -1    0    0  501    0  0.00000000000E+00 -0.00000000000E+00 -0.17815916782E+03  0.17815916782E+03  0.00000000000E+00 0. -1.
         36    2    1    2    0    0  0.00000000000E+00  0.00000000000E+00 -0.72155864633E+02  0.28416247101E+03  0.27484876047E+03 0.  0.
         25    2    3    3    0    0  0.26752974369E+02  0.13671913380E+02 -0.76319569255E+02  0.15224096189E+03  0.12825751819E+03 0.  0.
         25    2    3    3    0    0 -0.26752974369E+02 -0.13671913380E+02  0.41637046227E+01  0.13192150912E+03  0.12838732523E+03 0.  0.
          5    1    4    4  502    0  0.29062239881E+01  0.41577018397E+02  0.21875237164E+02  0.47304445855E+02  0.47000000000E+01 0. -1.
         -5    1    4    4    0  502  0.23846750381E+02 -0.27905105016E+02 -0.98194806419E+02  0.10493651603E+03  0.47000000000E+01 0. -1.
          5    1    5    5  503    0 -0.16685911342E+02 -0.47611618388E+02 -0.47276827221E+02  0.69299886255E+02  0.47000000000E+01 0. -1.
         -5    1    5    5    0  503 -0.10067063027E+02  0.33939705008E+02  0.51440531844E+02  0.62621622866E+02  0.47000000000E+01 0. -1.
<mgrwt>
<rscale>  0 0.27484876E+03</rscale>
<asrwt>0</asrwt>
<pdfrwt beam="1">  1        1 0.27409102E-01 0.27484876E+03</pdfrwt>
<pdfrwt beam="2">  1       -1 0.16308201E-01 0.27484876E+03</pdfrwt>
<totfact> 0.47448622E+03</totfact>
</mgrwt>
</event>
<event>
 9    1  0.2074770E-002  0.2747767E+03  0.7818608E-02  0.1098576E+00
          1   -1    0    0  501    0  0.00000000000E+00  0.00000000000E+00  0.41291770950E+03  0.41291770950E+03  0.00000000000E+00 0. -1.
         -1   -1    0    0    0  501 -0.00000000000E+00 -0.00000000000E+00 -0.45712645736E+02  0.45712645736E+02  0.00000000000E+00 0. -1.
         36    2    1    2    0    0 -0.35527136788E-14  0.00000000000E+00  0.36720506376E+03  0.45863035523E+03  0.27477671642E+03 0.  0.
         25    2    3    3    0    0 -0.17101431467E+00 -0.54293850478E+02  0.21481459346E+03  0.25484990407E+03  0.12591788038E+03 0.  0.
         25    2    3    3    0    0  0.17101431467E+00  0.54293850478E+02  0.15239047031E+03  0.20378045116E+03  0.12391838197E+03 0.  0.
          5    1    4    4  502    0  0.60838236106E+02 -0.34362227794E+02  0.13709079058E+03  0.15394164002E+03  0.47000000000E+01 0. -1.
         -5    1    4    4    0  502 -0.61009250421E+02 -0.19931622683E+02  0.77723802879E+02  0.10090826405E+03  0.47000000000E+01 0. -1.
          5    1    5    5  503    0  0.26976130328E+02  0.82839091798E+02  0.67958637606E+02  0.11059156009E+03  0.47000000000E+01 0. -1.
         -5    1    5    5    0  503 -0.26805116013E+02 -0.28545241320E+02  0.84431832701E+02  0.93188891075E+02  0.47000000000E+01 0. -1.
<mgrwt>
<rscale>  0 0.27477672E+03</rscale>
<asrwt>0</asrwt>
<pdfrwt beam="1">  1        1 0.63525799E-01 0.27477672E+03</pdfrwt>
<pdfrwt beam="2">  1       -1 0.70327150E-02 0.27477672E+03</pdfrwt>
<totfact> 0.60646097E+03</totfact>
</mgrwt>
</event>
<event>
 9    1  0.2074770E-002  0.2744809E+03  0.7818608E-02  0.1098742E+00
          4   -1    0    0  501    0  0.00000000000E+00  0.00000000000E+00  0.58031657680E+02  0.58031657680E+02  0.00000000000E+00 0. -1.
         -4   -1    0    0    0  501 -0.00000000000E+00 -0.00000000000E+00 -0.32456331536E+03  0.32456331536E+03  0.00000000000E+00 0. -1.
         36    2    1    2    0    0  0.00000000000E+00  0.35527136788E-14 -0.26653165768E+03  0.38259497304E+03  0.27448094442E+03 0.  0.
         25    2    3    3    0    0  0.53277202833E+02 -0.23509904420E+02 -0.10080346208E+03  0.16565626357E+03  0.11785365393E+03 0.  0.
         25    2    3    3    0    0 -0.53277202833E+02  0.23509904420E+02 -0.16572819560E+03  0.21693870947E+03  0.12730040417E+03 0.  0.
          5    1    4    4  502    0 -0.11655001544E+02 -0.15775851358E+02  0.19876917294E+02  0.28317810441E+02  0.47000000000E+01 0. -1.
         -5    1    4    4    0  502  0.64932204377E+02 -0.77340530623E+01 -0.12068037937E+03  0.13733845313E+03  0.47000000000E+01 0. -1.
          5    1    5    5  503    0 -0.87274679493E+02 -0.13916831336E+02 -0.11554962855E+03  0.14554846111E+03  0.47000000000E+01 0. -1.
         -5    1    5    5    0  503  0.33997476660E+02  0.37426735756E+02 -0.50178567048E+02  0.71390248351E+02  0.47000000000E+01 0. -1.
<mgrwt>
<rscale>  0 0.27448094E+03</rscale>
<asrwt>0</asrwt>
<pdfrwt beam="1">  1        4 0.89279473E-02 0.27448094E+03</pdfrwt>
<pdfrwt beam="2">  1       -4 0.49932818E-01 0.27448094E+03</pdfrwt>
<totfact> 0.66978910E+02</totfact>
</mgrwt>
</event>
<event>
 9    1  0.2074770E-002  0.2749232E+03  0.7818608E-02  0.1098495E+00
          2   -1    0    0  501    0  0.00000000000E+00  0.00000000000E+00  0.99103911534E+03  0.99103911534E+03  0.00000000000E+00 0. -1.
         -2   -1    0    0    0  501 -0.00000000000E+00 -0.00000000000E+00 -0.19066550656E+02  0.19066550656E+02  0.00000000000E+00 0. -1.
         36    2    1    2    0    0  0.00000000000E+00 -0.35527136788E-14  0.97197256468E+03  0.10101056660E+04  0.27492324379E+03 0.  0.
         25    2    3    3    0    0 -0.56756767697E+02  0.67483850134E+01  0.49141213321E+03  0.50996764574E+03  0.12375073192E+03 0.  0.
         25    2    3    3    0    0  0.56756767697E+02 -0.67483850134E+01  0.48056043147E+03  0.50013802026E+03  0.12622535257E+03 0.  0.
          5    1    4    4  502    0  0.21223014365E+02 -0.62428786267E+01  0.15279018310E+02  0.27293374155E+02  0.47000000000E+01 0. -1.
         -5    1    4    4    0  502 -0.77979782062E+02  0.12991263640E+02  0.47613311490E+03  0.48267427158E+03  0.47000000000E+01 0. -1.
          5    1    5    5  503    0  0.29431362339E+02 -0.46743333660E+02  0.41393970996E+03  0.41763538860E+03  0.47000000000E+01 0.  1.
         -5    1    5    5    0  503  0.27325405359E+02  0.39994948646E+02  0.66620721507E+02  0.82502631652E+02  0.47000000000E+01 0.  1.
<mgrwt>
<rscale>  0 0.27492324E+03</rscale>
<asrwt>0</asrwt>
<pdfrwt beam="1">  1        2 0.15246752E+00 0.27492324E+03</pdfrwt>
<pdfrwt beam="2">  1       -2 0.29333163E-02 0.27492324E+03</pdfrwt>
<totfact> 0.11619167E+04</totfact>
</mgrwt>
</event>
<event>
 9    1  0.2074770E-002  0.2732010E+03  0.7818608E-02  0.1099461E+00
          1   -1    0    0  501    0  0.00000000000E+00  0.00000000000E+00  0.14158165021E+03  0.14158165021E+03  0.00000000000E+00 0. -1.
         -1   -1    0    0    0  501 -0.00000000000E+00 -0.00000000000E+00 -0.13179457227E+03  0.13179457227E+03  0.00000000000E+00 0. -1.
         36    2    1    2    0    0 -0.35527136788E-14 -0.35527136788E-14  0.97870779378E+01  0.27337622249E+03  0.27320097387E+03 0.  0.
         25    2    3    3    0    0 -0.28817803242E+02 -0.15552963618E+02  0.51984871501E+02  0.13995961224E+03  0.12575335277E+03 0.  0.
         25    2    3    3    0    0  0.28817803242E+02  0.15552963618E+02 -0.42197793563E+02  0.13341661024E+03  0.12225783265E+03 0.  0.
          5    1    4    4  502    0 -0.59153604457E+02  0.33777539023E+02  0.44201863803E+02  0.81338587561E+02  0.47000000000E+01 0. -1.
         -5    1    4    4    0  502  0.30335801216E+02 -0.49330502641E+02  0.77830076980E+01  0.58621024684E+02  0.47000000000E+01 0. -1.
          5    1    5    5  503    0  0.22099322202E+02  0.26884642139E+02 -0.83085731924E+02  0.90202510354E+02  0.47000000000E+01 0.  1.
         -5    1    5    5    0  503  0.67184810399E+01 -0.11331678521E+02  0.40887938361E+02  0.43214099887E+02  0.47000000000E+01 0.  1.
<mgrwt>
<rscale>  0 0.27320097E+03</rscale>
<asrwt>0</asrwt>
<pdfrwt beam="1">  1        1 0.21781793E-01 0.27320097E+03</pdfrwt>
<pdfrwt beam="2">  1       -1 0.20276088E-01 0.27320097E+03</pdfrwt>
<totfact> 0.44759272E+03</totfact>
</mgrwt>
</event>
<event>
 9    1  0.2074770E-002  0.2720225E+03  0.7818608E-02  0.1100128E+00
         -2   -1    0    0    0  501 -0.00000000000E+00  0.00000000000E+00  0.74076817231E+02  0.74076817231E+02  0.00000000000E+00 0. -1.
          2   -1    0    0  501    0  0.00000000000E+00 -0.00000000000E+00 -0.24972806060E+03  0.24972806060E+03  0.00000000000E+00 0. -1.
         36    2    1    2    0    0  0.00000000000E+00  0.17763568394E-14 -0.17565124336E+03  0.32380487783E+03  0.27202249835E+03 0.  0.
         25    2    3    3    0    0  0.47341303760E+02  0.16637860799E+00 -0.15490367787E+03  0.18720937045E+03  0.93866779241E+02 0.  0.
         25    2    3    3    0    0 -0.47341303760E+02 -0.16637860799E+00 -0.20747565497E+02  0.13659550737E+03  0.12643830289E+03 0.  0.
          5    1    4    4  502    0  0.31986250649E+02  0.31679645439E+02 -0.23246757849E+02  0.50884397572E+02  0.47000000000E+01 0.  1.
         -5    1    4    4    0  502  0.15355053111E+02 -0.31513266831E+02 -0.13165692002E+03  0.13632497288E+03  0.47000000000E+01 0.  1.
          5    1    5    5  503    0  0.59522115877E+01  0.12843113004E+02 -0.64541947112E+02  0.66242941597E+02  0.47000000000E+01 0.  1.
         -5    1    5    5    0  503 -0.53293515348E+02 -0.13009491612E+02  0.43794381615E+02  0.70352565775E+02  0.47000000000E+01 0.  1.
<mgrwt>
<rscale>  0 0.27202250E+03</rscale>
<asrwt>0</asrwt>
<pdfrwt beam="1">  1        2 0.38419702E-01 0.27202250E+03</pdfrwt>
<pdfrwt beam="2">  1       -2 0.11396433E-01 0.27202250E+03</pdfrwt>
<totfact> 0.71190649E+03</totfact>
</mgrwt>
</event>
<event>
 9    1  0.2074770E-002  0.2742522E+03  0.7818608E-02  0.1098870E+00
         -2   -1    0    0    0  501 -0.00000000000E+00  0.00000000000E+00  0.13468859608E+02  0.13468859608E+02  0.00000000000E+00 0.  1.
          2   -1    0    0  501    0  0.00000000000E+00 -0.00000000000E+00 -0.13960768475E+04  0.13960768475E+04  0.00000000000E+00 0.  1.
         36    2    1    2    0    0  0.00000000000E+00 -0.14210854715E-13 -0.13826079879E+04  0.14095457071E+04  0.27425216908E+03 0.  0.
         25    2    3    3    0    0  0.19816318801E+02  0.55969607983E+02 -0.78245025078E+03  0.79374111773E+03  0.11946247743E+03 0.  0.
         25    2    3    3    0    0 -0.19816318801E+02 -0.55969607983E+02 -0.60015773711E+03  0.61580458938E+03  0.12450180473E+03 0.  0.
          5    1    4    4  502    0 -0.28433241799E+02 -0.25116883320E+02 -0.19026128863E+03  0.19406379111E+03  0.47000000000E+01 0.  1.
         -5    1    4    4    0  502  0.48249560600E+02  0.81086491303E+02 -0.59218896215E+03  0.59967732662E+03  0.47000000000E+01 0.  1.
          5    1    5    5  503    0 -0.51059404590E+02  0.22546279331E+01 -0.11233542348E+03  0.12350499388E+03  0.47000000000E+01 0.  1.
         -5    1    5    5    0  503  0.31243085789E+02 -0.58224235916E+02 -0.48782231363E+03  0.49229959550E+03  0.47000000000E+01 0.  1.
<mgrwt>
<rscale>  0 0.27425217E+03</rscale>
<asrwt>0</asrwt>
<pdfrwt beam="1">  1        2 0.21478102E+00 0.27425217E+03</pdfrwt>
<pdfrwt beam="2">  1       -2 0.20721326E-02 0.27425217E+03</pdfrwt>
<totfact> 0.11390281E+04</totfact>
</mgrwt>
</event>
<event>
 9    1  0.2074770E-002  0.2746068E+03  0.7818608E-02  0.1098672E+00
         -1   -1    0    0    0  501 -0.00000000000E+00  0.00000000000E+00  0.12854780504E+02  0.12854780504E+02  0.00000000000E+00 0. -1.
          1   -1    0    0  501    0  0.00000000000E+00 -0.00000000000E+00 -0.14665536495E+04  0.14665536495E+04  0.00000000000E+00 0. -1.
         36    2    1    2    0    0  0.00000000000E+00  0.00000000000E+00 -0.14536988690E+04  0.14794084300E+04  0.27460681173E+03 0.  0.
         25    2    3    3    0    0  0.44362770900E+02  0.14410230799E+02 -0.55212045022E+03  0.56820622651E+03  0.12587936328E+03 0.  0.
         25    2    3    3    0    0 -0.44362770900E+02 -0.14410230799E+02 -0.90157841879E+03  0.91120220351E+03  0.12357224711E+03 0.  0.
          5    1    4    4  502    0 -0.31624816051E+02  0.11318626418E+02 -0.50503933626E+02  0.60835660643E+02  0.47000000000E+01 0. -1.
         -5    1    4    4    0  502  0.75987586952E+02  0.30916043813E+01 -0.50161651659E+03  0.50737056587E+03  0.47000000000E+01 0. -1.
          5    1    5    5  503    0 -0.69739883585E+02 -0.45070907295E+02 -0.43314435676E+03  0.44105686917E+03  0.47000000000E+01 0. -1.
         -5    1    5    5    0  503  0.25377112685E+02  0.30660676495E+02 -0.46843406203E+03  0.47014533434E+03  0.47000000000E+01 0. -1.
<mgrwt>
<rscale>  0 0.27460681E+03</rscale>
<asrwt>0</asrwt>
<pdfrwt beam="1">  1        1 0.22562350E+00 0.27460681E+03</pdfrwt>
<pdfrwt beam="2">  1       -1 0.19776597E-02 0.27460681E+03</pdfrwt>
<totfact> 0.52504554E+03</totfact>
</mgrwt>
</event>
<event>
 9    1  0.2074770E-002  0.2753036E+03  0.7818608E-02  0.1098282E+00
         -1   -1    0    0    0  501 -0.00000000000E+00  0.00000000000E+00  0.13547446555E+03  0.13547446555E+03  0.00000000000E+00 0.  1.
          1   -1    0    0  501    0  0.00000000000E+00 -0.00000000000E+00 -0.13986413111E+03  0.13986413111E+03  0.00000000000E+00 0.  1.
         36    2    1    2    0    0  0.53290705182E-14  0.00000000000E+00 -0.43896655595E+01  0.27533859665E+03  0.27530360267E+03 0.  0.
         25    2    3    3    0    0 -0.14820552663E+02 -0.38984543995E+02  0.26666777582E+02  0.14033425239E+03  0.13131314449E+03 0.  0.
         25    2    3    3    0    0  0.14820552663E+02  0.38984543995E+02 -0.31056443141E+02  0.13500434426E+03  0.12458822921E+03 0.  0.
          5    1    4    4  502    0  0.49732956815E+02  0.13620149215E+02 -0.28585473961E+01  0.51856887213E+02  0.47000000000E+01 0.  1.
         -5    1    4    4    0  502 -0.64553509478E+02 -0.52604693210E+02  0.29525324978E+02  0.88477365177E+02  0.47000000000E+01 0.  1.
          5    1    5    5  503    0  0.28900497766E+02  0.75722756133E+02  0.51231489219E+01  0.81348086778E+02  0.47000000000E+01 0. -1.
         -5    1    5    5    0  503 -0.14079945103E+02 -0.36738212138E+02 -0.36179592063E+02  0.53656257483E+02  0.47000000000E+01 0. -1.
<mgrwt>
<rscale>  0 0.27530360E+03</rscale>
<asrwt>0</asrwt>
<pdfrwt beam="1">  1        1 0.21517559E-01 0.27530360E+03</pdfrwt>
<pdfrwt beam="2">  1       -1 0.20842226E-01 0.27530360E+03</pdfrwt>
<totfact> 0.43480126E+03</totfact>
</mgrwt>
</event>
<event>
 8    1  0.2074770E-002  0.3018080E+03  0.7818608E-02  0.1084340E+00
         -2   -1    0    0    0  501 -0.00000000000E+00  0.00000000000E+00  0.20515718498E+02  0.20515718498E+02  0.00000000000E+00 0.  1.
          2   -1    0    0  501    0  0.00000000000E+00 -0.00000000000E+00 -0.11099787754E+04  0.11099787754E+04  0.00000000000E+00 0.  1.
         25    2    1    2    0    0  0.57834269246E+02  0.11889508977E+02 -0.29476240253E+03  0.32465417303E+03  0.12259402512E+03 0.  0.
         25    2    1    2    0    0 -0.57834269246E+02 -0.11889508977E+02 -0.79470065440E+03  0.80584032090E+03  0.11976364040E+03 0.  0.
          5    1    3    3  502    0  0.86401105429E+02  0.35914404540E+02 -0.16718392666E+03  0.19164433413E+03  0.47000000000E+01 0.  1.
         -5    1    3    3    0  502 -0.28566836183E+02 -0.24024895563E+02 -0.12757847588E+03  0.13300983890E+03  0.47000000000E+01 0.  1.
          5    1    4    4  503    0  0.98800987359E+01  0.38101091508E+02 -0.13271393785E+03  0.13850772118E+03  0.47000000000E+01 0.  1.
         -5    1    4    4    0  503 -0.67714367982E+02 -0.49990600486E+02 -0.66198671655E+03  0.66733259973E+03  0.47000000000E+01 0.  1.
<mgrwt>
<rscale>  0 0.30180797E+03</rscale>
<asrwt>0</asrwt>
<pdfrwt beam="1">  1        2 0.17076599E+00 0.30180797E+03</pdfrwt>
<pdfrwt beam="2">  1       -2 0.31562639E-02 0.30180797E+03</pdfrwt>
<totfact> 0.88588850E+03</totfact>
</mgrwt>
</event>
<event>
 9    1  0.2074770E-002  0.2750548E+03  0.7818608E-02  0.1098421E+00
         -2   -1    0    0    0  501 -0.00000000000E+00  0.00000000000E+00  0.11177230755E+02  0.11177230755E+02  0.00000000000E+00 0.  1.
          2   -1    0    0  501    0  0.00000000000E+00 -0.00000000000E+00 -0.16921710818E+04  0.16921710818E+04  0.00000000000E+00 0.  1.
         36    2    1    2    0    0 -0.17763568394E-14 -0.35527136788E-14 -0.16809938511E+04  0.17033483126E+04  0.27505480659E+03 0.  0.
         25    2    3    3    0    0  0.24970424881E+01 -0.23794934139E+02 -0.53185196810E+03  0.54651083645E+03  0.12343072666E+03 0.  0.
         25    2    3    3    0    0 -0.24970424881E+01  0.23794934139E+02 -0.11491418830E+04  0.11568374761E+04  0.13104749081E+03 0.  0.
          5    1    4    4  502    0  0.33695314861E+02  0.23585410759E+02 -0.71238670805E+02  0.82393470993E+02  0.47000000000E+01 0. -1.
         -5    1    4    4    0  502 -0.31198272373E+02 -0.47380344898E+02 -0.46061329729E+03  0.46411736546E+03  0.47000000000E+01 0. -1.
          5    1    5    5  503    0 -0.14875800902E+02 -0.27283392790E+02 -0.73949250120E+02  0.80350821824E+02  0.47000000000E+01 0. -1.
         -5    1    5    5    0  503  0.12378758413E+02  0.51078326929E+02 -0.10751926328E+04  0.10764866543E+04  0.47000000000E+01 0. -1.
<mgrwt>
<rscale>  0 0.27505481E+03</rscale>
<asrwt>0</asrwt>
<pdfrwt beam="1">  1        2 0.26033397E+00 0.27505481E+03</pdfrwt>
<pdfrwt beam="2">  1       -2 0.17195742E-02 0.27505481E+03</pdfrwt>
<totfact> 0.10413990E+04</totfact>
</mgrwt>
</event>
<event>
 9    1  0.2074770E-002  0.2737816E+03  0.7818608E-02  0.1099135E+00
          4   -1    0    0  501    0  0.00000000000E+00  0.00000000000E+00  0.60773339095E+03  0.60773339095E+03  0.00000000000E+00 0.  1.
         -4   -1    0    0    0  501 -0.00000000000E+00 -0.00000000000E+00 -0.30834403474E+02  0.30834403474E+02  0.00000000000E+00 0.  1.
         36    2    1    2    0    0  0.53290705182E-14  0.26645352591E-14  0.57689898748E+03  0.63856779442E+03  0.27378163986E+03 0.  0.
         25    2    3    3    0    0 -0.31274874123E+01  0.66891300477E+01  0.22878197537E+03  0.26854348831E+03  0.14042751590E+03 0.  0.
         25    2    3    3    0    0  0.31274874123E+01 -0.66891300477E+01  0.34811701210E+03  0.37002430611E+03  0.12521184991E+03 0.  0.
          5    1    4    4  502    0 -0.69526814043E+02  0.19015231372E+02  0.10477347808E+03  0.12726008252E+03  0.47000000000E+01 0. -1.
         -5    1    4    4    0  502  0.66399326631E+02 -0.12326101324E+02  0.12400849729E+03  0.14128340579E+03  0.47000000000E+01 0. -1.
          5    1    5    5  503    0  0.12864367946E+02 -0.61312803059E+01  0.35619845356E+03  0.35651439365E+03  0.47000000000E+01 0. -1.
         -5    1    5    5    0  503 -0.97368805339E+01 -0.55784974173E+00 -0.80814414511E+01  0.13509912464E+02  0.47000000000E+01 0. -1.
<mgrwt>
<rscale>  0 0.27378164E+03</rscale>
<asrwt>0</asrwt>
<pdfrwt beam="1">  1        4 0.93497436E-01 0.27378164E+03</pdfrwt>
<pdfrwt beam="2">  1       -4 0.47437548E-02 0.27378164E+03</pdfrwt>
<totfact> 0.48565425E+02</totfact>
</mgrwt>
</event>
<event>
 9    1  0.2074770E-002  0.2747929E+03  0.7818608E-02  0.1098567E+00
          2   -1    0    0  501    0  0.00000000000E+00  0.00000000000E+00  0.43532862104E+03  0.43532862104E+03  0.00000000000E+00 0.  1.
         -2   -1    0    0    0  501 -0.00000000000E+00 -0.00000000000E+00 -0.43364436447E+02  0.43364436447E+02  0.00000000000E+00 0.  1.
         36    2    1    2    0    0  0.71054273576E-14  0.00000000000E+00  0.39196418460E+03  0.47869305749E+03  0.27479286978E+03 0.  0.
         25    2    3    3    0    0  0.26770563314E+02 -0.75370660450E+02  0.17501923302E+03  0.23031550686E+03  0.12655473620E+03 0.  0.
         25    2    3    3    0    0 -0.26770563314E+02  0.75370660450E+02  0.21694495158E+03  0.24837755063E+03  0.90713263239E+02 0.  0.
          5    1    4    4  502    0 -0.24374173561E+02 -0.86072242666E+02  0.14334002558E+03  0.16902953655E+03  0.47000000000E+01 0.  1.
         -5    1    4    4    0  502  0.51144736875E+02  0.10701582216E+02  0.31679207443E+02  0.61285970305E+02  0.47000000000E+01 0.  1.
          5    1    5    5  503    0 -0.48905444875E+02  0.73254194950E+02  0.12075140567E+03  0.14953565323E+03  0.47000000000E+01 0. -1.
         -5    1    5    5    0  503  0.22134881561E+02  0.21164655002E+01  0.96193545909E+02  0.98841897404E+02  0.47000000000E+01 0. -1.
<mgrwt>
<rscale>  0 0.27479287E+03</rscale>
<asrwt>0</asrwt>
<pdfrwt beam="1">  1        2 0.66973631E-01 0.27479287E+03</pdfrwt>
<pdfrwt beam="2">  1       -2 0.66714521E-02 0.27479287E+03</pdfrwt>
<totfact> 0.90721405E+03</totfact>
</mgrwt>
</event>
<event>
 9    1  0.2074770E-002  0.2748447E+03  0.7818608E-02  0.1098538E+00
         -1   -1    0    0    0  501 -0.00000000000E+00  0.00000000000E+00  0.63464315432E+02  0.63464315432E+02  0.00000000000E+00 0. -1.
          1   -1    0    0  501    0  0.00000000000E+00 -0.00000000000E+00 -0.29756716932E+03  0.29756716932E+03  0.00000000000E+00 0. -1.
         36    2    1    2    0    0  0.71054273576E-14  0.00000000000E+00 -0.23410285389E+03  0.36103148475E+03  0.27484465937E+03 0.  0.
         25    2    3    3    0    0 -0.21386877014E+02 -0.52362057101E+02 -0.92139444225E+02  0.16579043229E+03  0.12568853060E+03 0.  0.
         25    2    3    3    0    0  0.21386877014E+02  0.52362057101E+02 -0.14196340966E+03  0.19524105246E+03  0.12151656411E+03 0.  0.
          5    1    4    4  502    0  0.29074169467E+02 -0.33623522359E+02 -0.10154293453E+03  0.11094550977E+03  0.47000000000E+01 0.  1.
         -5    1    4    4    0  502 -0.50461046481E+02 -0.18738534742E+02  0.94034903001E+01  0.54844922518E+02  0.47000000000E+01 0.  1.
          5    1    5    5  503    0  0.43014067347E+02  0.84243107935E+02 -0.10827065339E+03  0.14384622209E+03  0.47000000000E+01 0. -1.
         -5    1    5    5    0  503 -0.21627190333E+02 -0.31881050834E+02 -0.33692756278E+02  0.51394830378E+02  0.47000000000E+01 0. -1.
<mgrwt>
<rscale>  0 0.27484466E+03</rscale>
<asrwt>0</asrwt>
<pdfrwt beam="1">  1        1 0.45779564E-01 0.27484466E+03</pdfrwt>
<pdfrwt beam="2">  1       -1 0.97637409E-02 0.27484466E+03</pdfrwt>
<totfact> 0.55636789E+03</totfact>
</mgrwt>
</event>
<event>
 9    1  0.2074770E-002  0.2761385E+03  0.7818608E-02  0.1097817E+00
          2   -1    0    0  501    0  0.00000000000E+00  0.00000000000E+00  0.90021338895E+03  0.90021338895E+03  0.00000000000E+00 0.  1.
         -2   -1    0    0    0  501 -0.00000000000E+00 -0.00000000000E+00 -0.21176214539E+02  0.21176214539E+02  0.00000000000E+00 0.  1.
         36    2    1    2    0    0  0.00000000000E+00  0.71054273576E-14  0.87903717441E+03  0.92138960349E+03  0.27613845697E+03 0.  0.
         25    2    3    3    0    0 -0.93766778657E-01 -0.17896585038E+02  0.66169208017E+03  0.67230828699E+03  0.11765087019E+03 0.  0.
         25    2    3    3    0    0  0.93766778657E-01  0.17896585038E+02  0.21734509425E+03  0.24908131650E+03  0.12034249327E+03 0.  0.
          5    1    4    4  502    0 -0.29661569423E+02 -0.51215069735E+02  0.20498436045E+03  0.21340916123E+03  0.47000000000E+01 0. -1.
         -5    1    4    4    0  502  0.29567802644E+02  0.33318484697E+02  0.45670771972E+03  0.45889912576E+03  0.47000000000E+01 0. -1.
          5    1    5    5  503    0 -0.26824885268E+02  0.50973319727E+02  0.50305599059E+02  0.76619821785E+02  0.47000000000E+01 0. -1.
         -5    1    5    5    0  503  0.26918652047E+02 -0.33076734690E+02  0.16703949519E+03  0.17246149471E+03  0.47000000000E+01 0. -1.
<mgrwt>
<rscale>  0 0.27613846E+03</rscale>
<asrwt>0</asrwt>
<pdfrwt beam="1">  1        2 0.13849434E+00 0.27613846E+03</pdfrwt>
<pdfrwt beam="2">  1       -2 0.32578799E-02 0.27613846E+03</pdfrwt>
<totfact> 0.11338252E+04</totfact>
</mgrwt>
</event>
<event>
 9    1  0.2074770E-002  0.2745500E+03  0.7818608E-02  0.1098703E+00
          1   -1    0    0  501    0  0.00000000000E+00  0.00000000000E+00  0.10121257287E+04  0.10121257287E+04  0.00000000000E+00 0. -1.
         -1   -1    0    0    0  501 -0.00000000000E+00 -0.00000000000E+00 -0.18618665534E+02  0.18618665534E+02  0.00000000000E+00 0. -1.
         36    2    1    2    0    0  0.00000000000E+00  0.00000000000E+00  0.99350706318E+03  0.10307443943E+04  0.27455003494E+03 0.  0.
         25    2    3    3    0    0 -0.17241039499E+01  0.16546590880E+02  0.29064225121E+03  0.31645628972E+03  0.12407619800E+03 0.  0.
         25    2    3    3    0    0  0.17241039499E+01 -0.16546590880E+02  0.70286481197E+03  0.71428810453E+03  0.12614194451E+03 0.  0.
          5    1    4    4  502    0 -0.59671879226E+02 -0.86858496740E+01  0.11903994503E+03  0.13352443846E+03  0.47000000000E+01 0.  1.
         -5    1    4    4    0  502  0.57947775276E+02  0.25232440554E+02  0.17160230619E+03  0.18293185126E+03  0.47000000000E+01 0.  1.
          5    1    5    5  503    0 -0.31747124779E+02  0.67374766081E+01  0.47964798281E+02  0.58103230520E+02  0.47000000000E+01 0.  1.
         -5    1    5    5    0  503  0.33471228729E+02 -0.23284067488E+02  0.65490001369E+03  0.65618487401E+03  0.47000000000E+01 0.  1.
<mgrwt>
<rscale>  0 0.27455003E+03</rscale>
<asrwt>0</asrwt>
<pdfrwt beam="1">  1        1 0.15571161E+00 0.27455003E+03</pdfrwt>
<pdfrwt beam="2">  1       -1 0.28644109E-02 0.27455003E+03</pdfrwt>
<totfact> 0.63208547E+03</totfact>
</mgrwt>
</event>
<event>
 9    1  0.2074770E-002  0.2769440E+03  0.7818608E-02  0.1097370E+00
          4   -1    0    0  501    0  0.00000000000E+00  0.00000000000E+00  0.41998946300E+02  0.41998946300E+02  0.00000000000E+00 0.  1.
         -4   -1    0    0    0  501 -0.00000000000E+00 -0.00000000000E+00 -0.45654707340E+03  0.45654707340E+03  0.00000000000E+00 0.  1.
         36    2    1    2    0    0  0.00000000000E+00  0.00000000000E+00 -0.41454812710E+03  0.49854601970E+03  0.27694400892E+03 0.  0.
         25    2    3    3    0    0  0.37213510016E+02 -0.19151508610E+02 -0.14132026766E+03  0.19578337768E+03  0.12887236831E+03 0.  0.
         25    2    3    3    0    0 -0.37213510016E+02  0.19151508610E+02 -0.27322785943E+03  0.30276264202E+03  0.12353189314E+03 0.  0.
          5    1    4    4  502    0  0.41618239577E+02  0.45028365986E+02 -0.10520198870E+03  0.12185721167E+03  0.47000000000E+01 0.  1.
         -5    1    4    4    0  502 -0.44047295612E+01 -0.64179874596E+02 -0.36118278961E+02  0.73926166009E+02  0.47000000000E+01 0.  1.
          5    1    5    5  503    0  0.18085062096E+02 -0.42133043904E+02 -0.75673928332E+02  0.88605283639E+02  0.47000000000E+01 0.  1.
         -5    1    5    5    0  503 -0.55298572112E+02  0.61284552514E+02 -0.19755393110E+03  0.21415735838E+03  0.47000000000E+01 0.  1.
<mgrwt>
<rscale>  0 0.27694401E+03</rscale>
<asrwt>0</asrwt>
<pdfrwt beam="1">  1        4 0.64613758E-02 0.27694401E+03</pdfrwt>
<pdfrwt beam="2">  1       -4 0.70238017E-01 0.27694401E+03</pdfrwt>
<totfact> 0.55787407E+02</totfact>
</mgrwt>
</event>
<event>
 9    1  0.2074770E-002  0.2746323E+03  0.7818608E-02  0.1098657E+00
          1   -1    0    0  501    0  0.00000000000E+00  0.00000000000E+00  0.10880790959E+04  0.10880790959E+04  0.00000000000E+00 0. -1.
         -1   -1    0    0    0  501 -0.00000000000E+00 -0.00000000000E+00 -0.17329374196E+02  0.17329374196E+02  0.00000000000E+00 0. -1.
         36    2    1    2    0    0 -0.71054273576E-14  0.00000000000E+00  0.10707497217E+04  0.11054084701E+04  0.27463233465E+03 0.  0.
         25    2    3    3    0    0  0.22935786717E+02  0.30427608953E+02  0.40262502526E+03  0.42329413568E+03  0.12497649633E+03 0.  0.
         25    2    3    3    0    0 -0.22935786717E+02 -0.30427608953E+02  0.66812469649E+03  0.68211433446E+03  0.13205099591E+03 0.  0.
          5    1    4    4  502    0 -0.49286827041E+02  0.17241398841E+01  0.11292592208E+03  0.12331471062E+03  0.47000000000E+01 0. -1.
         -5    1    4    4    0  502  0.72222613758E+02  0.28703469069E+02  0.28969910318E+03  0.29997942505E+03  0.47000000000E+01 0. -1.
          5    1    5    5  503    0 -0.53537708164E+02  0.28085311330E+02  0.45282382530E+03  0.45686603908E+03  0.47000000000E+01 0.  1.
         -5    1    5    5    0  503  0.30601921446E+02 -0.58512920284E+02  0.21530087119E+03  0.22524829538E+03  0.47000000000E+01 0.  1.
<mgrwt>
<rscale>  0 0.27463233E+03</rscale>
<asrwt>0</asrwt>
<pdfrwt beam="1">  1        1 0.16739673E+00 0.27463233E+03</pdfrwt>
<pdfrwt beam="2">  1       -1 0.26660584E-02 0.27463233E+03</pdfrwt>
<totfact> 0.61790976E+03</totfact>
</mgrwt>
</event>
<event>
 9    1  0.2074770E-002  0.2769710E+03  0.7818608E-02  0.1097355E+00
         -2   -1    0    0    0  501 -0.00000000000E+00  0.00000000000E+00  0.65314663342E+02  0.65314663342E+02  0.00000000000E+00 0. -1.
          2   -1    0    0  501    0  0.00000000000E+00 -0.00000000000E+00 -0.29362830645E+03  0.29362830645E+03  0.00000000000E+00 0. -1.
         36    2    1    2    0    0  0.00000000000E+00  0.00000000000E+00 -0.22831364311E+03  0.35894296979E+03  0.27697100197E+03 0.  0.
         25    2    3    3    0    0 -0.36397028934E+02 -0.32269727695E+02 -0.18795801110E+03  0.23296176529E+03  0.12875127616E+03 0.  0.
         25    2    3    3    0    0  0.36397028934E+02  0.32269727695E+02 -0.40355632007E+02  0.12598120450E+03  0.10897985048E+03 0.  0.
          5    1    4    4  502    0 -0.77934914122E+02 -0.63110603281E+01 -0.15520298146E+03  0.17384975057E+03  0.47000000000E+01 0.  1.
         -5    1    4    4    0  502  0.41537885188E+02 -0.25958667367E+02 -0.32755029643E+02  0.59112014720E+02  0.47000000000E+01 0.  1.
          5    1    5    5  503    0 -0.21070752929E+02 -0.14057272784E+02  0.18284513867E+02  0.31591090429E+02  0.47000000000E+01 0.  1.
         -5    1    5    5    0  503  0.57467781863E+02  0.46327000479E+02 -0.58640145874E+02  0.94390114068E+02  0.47000000000E+01 0.  1.
<mgrwt>
<rscale>  0 0.27697100E+03</rscale>
<asrwt>0</asrwt>
<pdfrwt beam="1">  1        2 0.45173586E-01 0.27697100E+03</pdfrwt>
<pdfrwt beam="2">  1       -2 0.10048410E-01 0.27697100E+03</pdfrwt>
<totfact> 0.73175894E+03</totfact>
</mgrwt>
</event>
<event>
 9    1  0.2074770E-002  0.2752433E+03  0.7818608E-02  0.1098316E+00
          2   -1    0    0  501    0  0.00000000000E+00  0.00000000000E+00  0.12957745143E+04  0.12957745143E+04  0.00000000000E+00 0.  1.
         -2   -1    0    0    0  501 -0.00000000000E+00 -0.00000000000E+00 -0.14616527473E+02  0.14616527473E+02  0.00000000000E+00 0.  1.
         36    2    1    2    0    0  0.00000000000E+00  0.00000000000E+00  0.12811579869E+04  0.13103910418E+04  0.27524333807E+03 0.  0.
         25    2    3    3    0    0 -0.84283319164E+01 -0.43699973102E+02  0.80102791212E+03  0.81145614741E+03  0.12179753180E+03 0.  0.
         25    2    3    3    0    0  0.84283319164E+01  0.43699973102E+02  0.48013007475E+03  0.49893489440E+03  0.12818118327E+03 0.  0.
          5    1    4    4  502    0 -0.10470474225E+02  0.40966063866E+02  0.20019002221E+03  0.20466065624E+03  0.47000000000E+01 0. -1.
         -5    1    4    4    0  502  0.20421423087E+01 -0.84666036968E+02  0.60083788991E+03  0.60679549117E+03  0.47000000000E+01 0. -1.
          5    1    5    5  503    0 -0.55677801422E+02  0.38615698687E+02  0.19144309984E+03  0.20313478342E+03  0.47000000000E+01 0.  1.
         -5    1    5    5    0  503  0.64106133339E+02  0.50842744156E+01  0.28868697491E+03  0.29580011099E+03  0.47000000000E+01 0.  1.
<mgrwt>
<rscale>  0 0.27524334E+03</rscale>
<asrwt>0</asrwt>
<pdfrwt beam="1">  1        2 0.19934983E+00 0.27524334E+03</pdfrwt>
<pdfrwt beam="2">  1       -2 0.22486976E-02 0.27524334E+03</pdfrwt>
<totfact> 0.11461654E+04</totfact>
</mgrwt>
</event>
<event>
 9    1  0.2074770E-002  0.2751204E+03  0.7818608E-02  0.1098384E+00
         -2   -1    0    0    0  501 -0.00000000000E+00  0.00000000000E+00  0.11768553072E+03  0.11768553072E+03  0.00000000000E+00 0. -1.
          2   -1    0    0  501    0  0.00000000000E+00 -0.00000000000E+00 -0.16079132978E+03  0.16079132978E+03  0.00000000000E+00 0. -1.
         36    2    1    2    0    0  0.00000000000E+00  0.00000000000E+00 -0.43105799062E+02  0.27847686050E+03  0.27512043167E+03 0.  0.
         25    2    3    3    0    0 -0.41180894345E+02  0.37704324032E+02  0.56888762202E+00  0.13560920262E+03  0.12358013631E+03 0.  0.
         25    2    3    3    0    0  0.41180894345E+02 -0.37704324032E+02 -0.43674686684E+02  0.14286765789E+03  0.12404115165E+03 0.  0.
          5    1    4    4  502    0  0.36691817113E+02  0.11032979947E+02  0.29124602778E+02  0.48356473988E+02  0.47000000000E+01 0.  1.
         -5    1    4    4    0  502 -0.77872711458E+02  0.26671344086E+02 -0.28555715156E+02  0.87252728629E+02  0.47000000000E+01 0.  1.
          5    1    5    5  503    0  0.35938799500E+00 -0.16166362493E+02  0.42103993658E+02  0.45346628518E+02  0.47000000000E+01 0. -1.
         -5    1    5    5    0  503  0.40821506350E+02 -0.21537961540E+02 -0.85778680342E+02  0.97521029369E+02  0.47000000000E+01 0. -1.
<mgrwt>
<rscale>  0 0.27512043E+03</rscale>
<asrwt>0</asrwt>
<pdfrwt beam="1">  1        2 0.24737128E-01 0.27512043E+03</pdfrwt>
<pdfrwt beam="2">  1       -2 0.18105466E-01 0.27512043E+03</pdfrwt>
<totfact> 0.53890750E+03</totfact>
</mgrwt>
</event>
<event>
 9    1  0.2074770E-002  0.2759530E+03  0.7818608E-02  0.1097920E+00
          1   -1    0    0  501    0  0.00000000000E+00  0.00000000000E+00  0.68763576802E+03  0.68763576802E+03  0.00000000000E+00 0.  1.
         -1   -1    0    0    0  501 -0.00000000000E+00 -0.00000000000E+00 -0.27685464897E+02  0.27685464897E+02  0.00000000000E+00 0.  1.
         36    2    1    2    0    0  0.88817841970E-15  0.00000000000E+00  0.65995030312E+03  0.71532123292E+03  0.27595300990E+03 0.  0.
         25    2    3    3    0    0 -0.66323852883E+01  0.54636575451E+02  0.25734964623E+03  0.28991810878E+03  0.12163274836E+03 0.  0.
         25    2    3    3    0    0  0.66323852883E+01 -0.54636575451E+02  0.40260065689E+03  0.42540312414E+03  0.12590228426E+03 0.  0.
          5    1    4    4  502    0 -0.30554128140E+02  0.42009107085E+01  0.22088380681E+03  0.22307610474E+03  0.47000000000E+01 0.  1.
         -5    1    4    4    0  502  0.23921742852E+02  0.50435664743E+02  0.36465839423E+02  0.66842004039E+02  0.47000000000E+01 0.  1.
          5    1    5    5  503    0 -0.77860547623E+01 -0.80912898831E+02  0.37704249353E+03  0.38573391318E+03  0.47000000000E+01 0.  1.
         -5    1    5    5    0  503  0.14418440051E+02  0.26276323379E+02  0.25558163363E+02  0.39669210961E+02  0.47000000000E+01 0.  1.
<mgrwt>
<rscale>  0 0.27595301E+03</rscale>
<asrwt>0</asrwt>
<pdfrwt beam="1">  1        1 0.10579011E+00 0.27595301E+03</pdfrwt>
<pdfrwt beam="2">  1       -1 0.42593028E-02 0.27595301E+03</pdfrwt>
<totfact> 0.64608942E+03</totfact>
</mgrwt>
</event>
<event>
 9    1  0.2074770E-002  0.2746325E+03  0.7818608E-02  0.1098657E+00
          2   -1    0    0  501    0  0.00000000000E+00  0.00000000000E+00  0.26841300626E+03  0.26841300626E+03  0.00000000000E+00 0.  1.
         -2   -1    0    0    0  501 -0.00000000000E+00 -0.00000000000E+00 -0.70249017399E+02  0.70249017399E+02  0.00000000000E+00 0.  1.
         36    2    1    2    0    0  0.71054273576E-14  0.00000000000E+00  0.19816398886E+03  0.33866202366E+03  0.27463248131E+03 0.  0.
         25    2    3    3    0    0 -0.53277465320E+02 -0.38296365145E+02  0.11809562741E+03  0.18412939398E+03  0.12510778001E+03 0.  0.
         25    2    3    3    0    0  0.53277465320E+02  0.38296365145E+02  0.80068361453E+02  0.15453262969E+03  0.11473574525E+03 0.  0.
          5    1    4    4  502    0 -0.17926908965E+02  0.43749017626E+02  0.63563618817E+02  0.79358517157E+02  0.47000000000E+01 0. -1.
         -5    1    4    4    0  502 -0.35350556354E+02 -0.82045382770E+02  0.54532008594E+02  0.10477087682E+03  0.47000000000E+01 0. -1.
          5    1    5    5  503    0  0.20287017672E+02 -0.30302266091E+02 -0.84149165481E+01  0.37718579464E+02  0.47000000000E+01 0.  1.
         -5    1    5    5    0  503  0.32990447648E+02  0.68598631235E+02  0.88483278001E+02  0.11681405022E+03  0.47000000000E+01 0.  1.
<mgrwt>
<rscale>  0 0.27463248E+03</rscale>
<asrwt>0</asrwt>
<pdfrwt beam="1">  1        2 0.41294308E-01 0.27463248E+03</pdfrwt>
<pdfrwt beam="2">  1       -2 0.10807541E-01 0.27463248E+03</pdfrwt>
<totfact> 0.71735574E+03</totfact>
</mgrwt>
</event>
<event>
 9    1  0.2074770E-002  0.2725196E+03  0.7818608E-02  0.1099846E+00
          2   -1    0    0  501    0  0.00000000000E+00  0.00000000000E+00  0.54457252933E+03  0.54457252933E+03  0.00000000000E+00 0. -1.
         -2   -1    0    0    0  501 -0.00000000000E+00 -0.00000000000E+00 -0.34094138234E+02  0.34094138234E+02  0.00000000000E+00 0. -1.
         36    2    1    2    0    0  0.35527136788E-14 -0.14210854715E-13  0.51047839109E+03  0.57866666756E+03  0.27251958530E+03 0.  0.
         25    2    3    3    0    0 -0.26932048303E+02 -0.47265696142E+02  0.28489595941E+03  0.31481898604E+03  0.12241693112E+03 0.  0.
         25    2    3    3    0    0  0.26932048303E+02  0.47265696142E+02  0.22558243168E+03  0.26384768152E+03  0.12557382013E+03 0.  0.
          5    1    4    4  502    0 -0.22651384326E+02 -0.44037440511E+02  0.29680180318E+03  0.30094149224E+03  0.47000000000E+01 0. -1.
         -5    1    4    4    0  502 -0.42806639767E+01 -0.32282556308E+01 -0.11905843768E+02  0.13877493806E+02  0.47000000000E+01 0. -1.
          5    1    5    5  503    0 -0.11943540781E+02  0.81551743593E+02  0.11430923639E+03  0.14100364028E+03  0.47000000000E+01 0. -1.
         -5    1    5    5    0  503  0.38875589084E+02 -0.34286047451E+02  0.11127319529E+03  0.12284404123E+03  0.47000000000E+01 0. -1.
<mgrwt>
<rscale>  0 0.27251959E+03</rscale>
<asrwt>0</asrwt>
<pdfrwt beam="1">  1        2 0.83780383E-01 0.27251959E+03</pdfrwt>
<pdfrwt beam="2">  1       -2 0.52452524E-02 0.27251959E+03</pdfrwt>
<totfact> 0.10216900E+04</totfact>
</mgrwt>
</event>
<event>
 9    1  0.2074770E-002  0.2754424E+03  0.7818608E-02  0.1098205E+00
         -1   -1    0    0    0  501 -0.00000000000E+00  0.00000000000E+00  0.22282437497E+02  0.22282437497E+02  0.00000000000E+00 0.  1.
          1   -1    0    0  501    0  0.00000000000E+00 -0.00000000000E+00 -0.85121404550E+03  0.85121404550E+03  0.00000000000E+00 0.  1.
         36    2    1    2    0    0  0.35527136788E-14  0.00000000000E+00 -0.82893160800E+03  0.87349648300E+03  0.27544236250E+03 0.  0.
         25    2    3    3    0    0  0.13054987329E+02 -0.69563867302E+02 -0.45141213074E+03  0.46978139301E+03  0.10914248078E+03 0.  0.
         25    2    3    3    0    0 -0.13054987329E+02  0.69563867302E+02 -0.37751947727E+03  0.40371508999E+03  0.12431956340E+03 0.  0.
          5    1    4    4  502    0  0.53321577809E+02 -0.34749153391E+02 -0.34332699233E+03  0.34920797239E+03  0.47000000000E+01 0. -1.
         -5    1    4    4    0  502 -0.40266590480E+02 -0.34814713911E+02 -0.10808513841E+03  0.12057342061E+03  0.47000000000E+01 0. -1.
          5    1    5    5  503    0 -0.13102688791E+02 -0.34473978308E+02 -0.12915402692E+03  0.13439861719E+03  0.47000000000E+01 0. -1.
         -5    1    5    5    0  503  0.47701462168E-01  0.10403784561E+03 -0.24836545035E+03  0.26931647280E+03  0.47000000000E+01 0. -1.
<mgrwt>
<rscale>  0 0.27544236E+03</rscale>
<asrwt>0</asrwt>
<pdfrwt beam="1">  1        1 0.13095603E+00 0.27544236E+03</pdfrwt>
<pdfrwt beam="2">  1       -1 0.34280668E-02 0.27544236E+03</pdfrwt>
<totfact> 0.64580951E+03</totfact>
</mgrwt>
</event>
<event>
 9    1  0.2074770E-002  0.2748949E+03  0.7818608E-02  0.1098510E+00
          2   -1    0    0  501    0  0.00000000000E+00  0.00000000000E+00  0.60197719326E+03  0.60197719326E+03  0.00000000000E+00 0.  1.
         -2   -1    0    0    0  501 -0.00000000000E+00 -0.00000000000E+00 -0.31382928523E+02  0.31382928523E+02  0.00000000000E+00 0.  1.
         36    2    1    2    0    0  0.00000000000E+00  0.00000000000E+00  0.57059426474E+03  0.63336012179E+03  0.27489494160E+03 0.  0.
         25    2    3    3    0    0  0.69143340966E+01  0.52410265893E+02  0.24526143247E+03  0.28029424463E+03  0.12496819326E+03 0.  0.
         25    2    3    3    0    0 -0.69143340966E+01 -0.52410265893E+02  0.32533283227E+03  0.35306587716E+03  0.12656783902E+03 0.  0.
          5    1    4    4  502    0  0.60102695036E+02  0.15666861322E+02  0.16953983375E+03  0.18062012546E+03  0.47000000000E+01 0. -1.
         -5    1    4    4    0  502 -0.53188360939E+02  0.36743404571E+02  0.75721598723E+02  0.99674119169E+02  0.47000000000E+01 0. -1.
          5    1    5    5  503    0 -0.43934861700E+02 -0.60111594142E+02  0.29521657513E+03  0.30449727758E+03  0.47000000000E+01 0. -1.
         -5    1    5    5    0  503  0.37020527603E+02  0.77013282488E+01  0.30116257143E+02  0.48568599579E+02  0.47000000000E+01 0. -1.
<mgrwt>
<rscale>  0 0.27489494E+03</rscale>
<asrwt>0</asrwt>
<pdfrwt beam="1">  1        2 0.92611867E-01 0.27489494E+03</pdfrwt>
<pdfrwt beam="2">  1       -2 0.48281433E-02 0.27489494E+03</pdfrwt>
<totfact> 0.10331575E+04</totfact>
</mgrwt>
</event>
<event>
 9    1  0.2074770E-002  0.2748820E+03  0.7818608E-02  0.1098518E+00
          1   -1    0    0  501    0  0.00000000000E+00  0.00000000000E+00  0.26729544373E+02  0.26729544373E+02  0.00000000000E+00 0.  1.
         -1   -1    0    0    0  501 -0.00000000000E+00 -0.00000000000E+00 -0.70670955531E+03  0.70670955531E+03  0.00000000000E+00 0.  1.
         36    2    1    2    0    0  0.71054273576E-14 -0.71054273576E-14 -0.67998001094E+03  0.73343909969E+03  0.27488197044E+03 0.  0.
         25    2    3    3    0    0  0.26175519767E+02  0.39151176187E+02 -0.40604198154E+03  0.42751536407E+03  0.12522509055E+03 0.  0.
         25    2    3    3    0    0 -0.26175519767E+02 -0.39151176187E+02 -0.27393802939E+03  0.30592373562E+03  0.12778621066E+03 0.  0.
          5    1    4    4  502    0 -0.36007793704E+02  0.70975526485E+01 -0.28687231099E+03  0.28924859425E+03  0.47000000000E+01 0.  1.
         -5    1    4    4    0  502  0.62183313471E+02  0.32053623538E+02 -0.11916967055E+03  0.13826676982E+03  0.47000000000E+01 0.  1.
          5    1    5    5  503    0  0.44304494908E+02  0.59501820899E+01 -0.52251355703E+02  0.68924502963E+02  0.47000000000E+01 0.  1.
         -5    1    5    5    0  503 -0.70480014675E+02 -0.45101358277E+02 -0.22168667369E+03  0.23699923266E+03  0.47000000000E+01 0.  1.
<mgrwt>
<rscale>  0 0.27488197E+03</rscale>
<asrwt>0</asrwt>
<pdfrwt beam="1">  1        1 0.41122381E-02 0.27488197E+03</pdfrwt>
<pdfrwt beam="2">  1       -1 0.10872453E+00 0.27488197E+03</pdfrwt>
<totfact> 0.18214889E+03</totfact>
</mgrwt>
</event>
<event>
 9    1  0.2074770E-002  0.2753438E+03  0.7818608E-02  0.1098260E+00
         -1   -1    0    0    0  501 -0.00000000000E+00  0.00000000000E+00  0.12986926355E+02  0.12986926355E+02  0.00000000000E+00 0.  1.
          1   -1    0    0  501    0  0.00000000000E+00 -0.00000000000E+00 -0.14594330733E+04  0.14594330733E+04  0.00000000000E+00 0.  1.
         36    2    1    2    0    0  0.00000000000E+00  0.00000000000E+00 -0.14464461469E+04  0.14724199996E+04  0.27534378397E+03 0.  0.
         25    2    3    3    0    0  0.49548746057E+02  0.11864519972E+02 -0.57235769803E+03  0.58689500009E+03  0.11940084407E+03 0.  0.
         25    2    3    3    0    0 -0.49548746057E+02 -0.11864519972E+02 -0.87408844890E+03  0.88552499956E+03  0.13239359222E+03 0.  0.
          5    1    4    4  502    0  0.47405209489E+02 -0.39134601428E+02 -0.16176511692E+03  0.17311503102E+03  0.47000000000E+01 0.  1.
         -5    1    4    4    0  502  0.21435365678E+01  0.50999121400E+02 -0.41059258111E+03  0.41377996906E+03  0.47000000000E+01 0.  1.
          5    1    5    5  503    0  0.13326371865E+02 -0.39882488188E+02 -0.64213534496E+03  0.64352785200E+03  0.47000000000E+01 0. -1.
         -5    1    5    5    0  503 -0.62875117922E+02  0.28017968217E+02 -0.23195310394E+03  0.24199714756E+03  0.47000000000E+01 0. -1.
<mgrwt>
<rscale>  0 0.27534378E+03</rscale>
<asrwt>0</asrwt>
<pdfrwt beam="1">  1        1 0.22452806E+00 0.27534378E+03</pdfrwt>
<pdfrwt beam="2">  1       -1 0.19979896E-02 0.27534378E+03</pdfrwt>
<totfact> 0.52294421E+03</totfact>
</mgrwt>
</event>
<event>
 9    1  0.2074770E-002  0.2743565E+03  0.7818608E-02  0.1098812E+00
          2   -1    0    0  501    0  0.00000000000E+00  0.00000000000E+00  0.84330339980E+03  0.84330339980E+03  0.00000000000E+00 0. -1.
         -2   -1    0    0    0  501 -0.00000000000E+00 -0.00000000000E+00 -0.22314477541E+02  0.22314477541E+02  0.00000000000E+00 0. -1.
         36    2    1    2    0    0  0.71054273576E-14 -0.71054273576E-14  0.82098892226E+03  0.86561787734E+03  0.27435651824E+03 0.  0.
         25    2    3    3    0    0 -0.30992886286E+02  0.35266391892E+02  0.43714191181E+03  0.46028225534E+03  0.13624399480E+03 0.  0.
         25    2    3    3    0    0  0.30992886286E+02 -0.35266391892E+02  0.38384701045E+03  0.40533562200E+03  0.12146671000E+03 0.  0.
          5    1    4    4  502    0 -0.52283909995E+01  0.22042979084E+02  0.42928730296E+03  0.42991034819E+03  0.47000000000E+01 0.  1.
         -5    1    4    4    0  502 -0.25764495287E+02  0.13223412808E+02  0.78546088554E+01  0.30371907150E+02  0.47000000000E+01 0.  1.
          5    1    5    5  503    0  0.35599740175E+02 -0.77835145891E+02  0.22577033296E+03  0.24149530986E+03  0.47000000000E+01 0.  1.
         -5    1    5    5    0  503 -0.46068538887E+01  0.42568753999E+02  0.15807667748E+03  0.16384031215E+03  0.47000000000E+01 0.  1.
<mgrwt>
<rscale>  0 0.27435652E+03</rscale>
<asrwt>0</asrwt>
<pdfrwt beam="1">  1        2 0.12973896E+00 0.27435652E+03</pdfrwt>
<pdfrwt beam="2">  1       -2 0.34329972E-02 0.27435652E+03</pdfrwt>
<totfact> 0.11426225E+04</totfact>
</mgrwt>
</event>
<event>
 9    1  0.2074770E-002  0.2694557E+03  0.7818608E-02  0.1101592E+00
         -2   -1    0    0    0  501 -0.00000000000E+00  0.00000000000E+00  0.11756724163E+02  0.11756724163E+02  0.00000000000E+00 0.  1.
          2   -1    0    0  501    0  0.00000000000E+00 -0.00000000000E+00 -0.15439323687E+04  0.15439323687E+04  0.00000000000E+00 0.  1.
         36    2    1    2    0    0 -0.35527136788E-14  0.71054273576E-14 -0.15321756445E+04  0.15556890929E+04  0.26945565116E+03 0.  0.
         25    2    3    3    0    0  0.22866479756E+02 -0.23570020321E+02 -0.57461961905E+03  0.58948821186E+03  0.12739789469E+03 0.  0.
         25    2    3    3    0    0 -0.22866479756E+02  0.23570020321E+02 -0.95755602547E+03  0.96620088099E+03  0.12470837481E+03 0.  0.
          5    1    4    4  502    0 -0.56578872462E+01  0.50682603144E+02 -0.19651521738E+03  0.20307894675E+03  0.47000000000E+01 0. -1.
         -5    1    4    4    0  502  0.28524367002E+02 -0.74252623465E+02 -0.37810440167E+03  0.38640926512E+03  0.47000000000E+01 0. -1.
          5    1    5    5  503    0 -0.30162145257E+01  0.70450530796E+02 -0.39039301693E+03  0.39673816618E+03  0.47000000000E+01 0.  1.
         -5    1    5    5    0  503 -0.19850265230E+02 -0.46880510476E+02 -0.56716300855E+03  0.56946271481E+03  0.47000000000E+01 0.  1.
<mgrwt>
<rscale>  0 0.26945565E+03</rscale>
<asrwt>0</asrwt>
<pdfrwt beam="1">  1        2 0.23752789E+00 0.26945565E+03</pdfrwt>
<pdfrwt beam="2">  1       -2 0.18087281E-02 0.26945565E+03</pdfrwt>
<totfact> 0.11579575E+04</totfact>
</mgrwt>
</event>
<event>
 9    1  0.2074770E-002  0.2754178E+03  0.7818608E-02  0.1098218E+00
          2   -1    0    0  501    0  0.00000000000E+00  0.00000000000E+00  0.55923158985E+02  0.55923158985E+02  0.00000000000E+00 0. -1.
         -2   -1    0    0    0  501 -0.00000000000E+00 -0.00000000000E+00 -0.33910363003E+03  0.33910363003E+03  0.00000000000E+00 0. -1.
         36    2    1    2    0    0  0.71054273576E-14  0.00000000000E+00 -0.28318047104E+03  0.39502678901E+03  0.27541783686E+03 0.  0.
         25    2    3    3    0    0  0.50886748507E+02 -0.24742153026E+02 -0.15066432609E+03  0.20307898536E+03  0.12385354184E+03 0.  0.
         25    2    3    3    0    0 -0.50886748507E+02  0.24742153026E+02 -0.13251614495E+03  0.19194780366E+03  0.12681401873E+03 0.  0.
          5    1    4    4  502    0  0.72364909163E+02 -0.52078330874E+02 -0.14065593221E+03  0.16659836101E+03  0.47000000000E+01 0.  1.
         -5    1    4    4    0  502 -0.21478160655E+02  0.27336177849E+02 -0.10008393879E+02  0.36480624344E+02  0.47000000000E+01 0.  1.
          5    1    5    5  503    0 -0.14834279645E+01 -0.13564885622E+00 -0.13622213158E+03  0.13631132782E+03  0.47000000000E+01 0.  1.
         -5    1    5    5    0  503 -0.49403320543E+02  0.24877801882E+02  0.37059866284E+01  0.55636475841E+02  0.47000000000E+01 0.  1.
<mgrwt>
<rscale>  0 0.27541784E+03</rscale>
<asrwt>0</asrwt>
<pdfrwt beam="1">  1        2 0.86035632E-02 0.27541784E+03</pdfrwt>
<pdfrwt beam="2">  1       -2 0.52169788E-01 0.27541784E+03</pdfrwt>
<totfact> 0.27228124E+03</totfact>
</mgrwt>
</event>
<event>
 9    1  0.2074770E-002  0.2766152E+03  0.7818608E-02  0.1097552E+00
          2   -1    0    0  501    0  0.00000000000E+00  0.00000000000E+00  0.82077459152E+03  0.82077459152E+03  0.00000000000E+00 0. -1.
         -2   -1    0    0    0  501 -0.00000000000E+00 -0.00000000000E+00 -0.23306018390E+02  0.23306018390E+02  0.00000000000E+00 0. -1.
         36    2    1    2    0    0  0.00000000000E+00  0.35527136788E-14  0.79746857313E+03  0.84408060991E+03  0.27661516751E+03 0.  0.
         25    2    3    3    0    0  0.73380449041E+02 -0.44744329424E+01  0.43329233542E+03  0.45329489376E+03  0.11103738979E+03 0.  0.
         25    2    3    3    0    0 -0.73380449041E+02  0.44744329424E+01  0.36417623772E+03  0.39078571615E+03  0.12117934220E+03 0.  0.
          5    1    4    4  502    0 -0.10548057294E+02 -0.24333491277E+02  0.27810301854E+02  0.38715412946E+02  0.47000000000E+01 0.  1.
         -5    1    4    4    0  502  0.83928506335E+02  0.19859058335E+02  0.40548203356E+03  0.41457948082E+03  0.47000000000E+01 0.  1.
          5    1    5    5  503    0 -0.85522795964E+02  0.36931425950E+02  0.17402950820E+03  0.19744983813E+03  0.47000000000E+01 0. -1.
         -5    1    5    5    0  503  0.12142346923E+02 -0.32456993008E+02  0.19014672952E+03  0.19333587802E+03  0.47000000000E+01 0. -1.
<mgrwt>
<rscale>  0 0.27661517E+03</rscale>
<asrwt>0</asrwt>
<pdfrwt beam="1">  1        2 0.12627299E+00 0.27661517E+03</pdfrwt>
<pdfrwt beam="2">  1       -2 0.35855419E-02 0.27661517E+03</pdfrwt>
<totfact> 0.11091195E+04</totfact>
</mgrwt>
</event>
<event>
 9    1  0.2074770E-002  0.2782608E+03  0.7818608E-02  0.1096643E+00
         -1   -1    0    0    0  501 -0.00000000000E+00  0.00000000000E+00  0.15194754299E+03  0.15194754299E+03  0.00000000000E+00 0.  1.
          1   -1    0    0  501    0  0.00000000000E+00 -0.00000000000E+00 -0.12739439213E+03  0.12739439213E+03  0.00000000000E+00 0.  1.
         36    2    1    2    0    0 -0.35527136788E-14  0.35527136788E-14  0.24553150860E+02  0.27934193511E+03  0.27826077606E+03 0.  0.
         25    2    3    3    0    0 -0.26092136041E+02 -0.46176968458E+00 -0.41016081592E+02  0.13673060690E+03  0.12779642843E+03 0.  0.
         25    2    3    3    0    0  0.26092136041E+02  0.46176968458E+00  0.65569232452E+02  0.14261132822E+03  0.12392600170E+03 0.  0.
          5    1    4    4  502    0  0.29520761712E+02  0.28364632082E+02  0.22875345504E+02  0.47131721347E+02  0.47000000000E+01 0.  1.
         -5    1    4    4    0  502 -0.55612897754E+02 -0.28826401766E+02 -0.63891427095E+02  0.89598885549E+02  0.47000000000E+01 0.  1.
          5    1    5    5  503    0 -0.56514077542E+01 -0.37183756792E+02 -0.20684361480E+02  0.43179891021E+02  0.47000000000E+01 0.  1.
         -5    1    5    5    0  503  0.31743543796E+02  0.37645526477E+02  0.86253593932E+02  0.99431437194E+02  0.47000000000E+01 0.  1.
<mgrwt>
<rscale>  0 0.27826078E+03</rscale>
<asrwt>0</asrwt>
<pdfrwt beam="1">  1        1 0.19599137E-01 0.27826078E+03</pdfrwt>
<pdfrwt beam="2">  1       -1 0.23376545E-01 0.27826078E+03</pdfrwt>
<totfact> 0.40625403E+03</totfact>
</mgrwt>
</event>
<event>
 9    1  0.2074770E-002  0.2750062E+03  0.7818608E-02  0.1098448E+00
          2   -1    0    0  501    0  0.00000000000E+00  0.00000000000E+00  0.10272708695E+04  0.10272708695E+04  0.00000000000E+00 0. -1.
         -2   -1    0    0    0  501 -0.00000000000E+00 -0.00000000000E+00 -0.18405176757E+02  0.18405176757E+02  0.00000000000E+00 0. -1.
         36    2    1    2    0    0  0.14210854715E-13  0.35527136788E-14  0.10088656928E+04  0.10456760463E+04  0.27500619579E+03 0.  0.
         25    2    3    3    0    0  0.32605347952E+02  0.26662278415E+02  0.37998612741E+03  0.40335554067E+03  0.12857779497E+03 0.  0.
         25    2    3    3    0    0 -0.32605347952E+02 -0.26662278415E+02  0.62887956535E+03  0.64232050560E+03  0.12374222561E+03 0.  0.
          5    1    4    4  502    0  0.60229308867E+02 -0.26214893028E+02  0.27238573858E+03  0.28023360049E+03  0.47000000000E+01 0. -1.
         -5    1    4    4    0  502 -0.27623960916E+02  0.52877171442E+02  0.10760038883E+03  0.12312194017E+03  0.47000000000E+01 0. -1.
          5    1    5    5  503    0  0.29075002550E+02 -0.21904112503E+02  0.47483426692E+03  0.47625079208E+03  0.47000000000E+01 0.  1.
         -5    1    5    5    0  503 -0.61680350502E+02 -0.47581659121E+01  0.15404529843E+03  0.16606971353E+03  0.47000000000E+01 0.  1.
<mgrwt>
<rscale>  0 0.27500620E+03</rscale>
<asrwt>0</asrwt>
<pdfrwt beam="1">  1        2 0.15804163E+00 0.27500620E+03</pdfrwt>
<pdfrwt beam="2">  1       -2 0.28315665E-02 0.27500620E+03</pdfrwt>
<totfact> 0.11637633E+04</totfact>
</mgrwt>
</event>
<event>
 9    1  0.2074770E-002  0.2757124E+03  0.7818608E-02  0.1098054E+00
         -1   -1    0    0    0  501 -0.00000000000E+00  0.00000000000E+00  0.70052478646E+02  0.70052478646E+02  0.00000000000E+00 0.  1.
          1   -1    0    0  501    0  0.00000000000E+00 -0.00000000000E+00 -0.27128704659E+03  0.27128704659E+03  0.00000000000E+00 0.  1.
         36    2    1    2    0    0  0.00000000000E+00  0.71054273576E-14 -0.20123456794E+03  0.34133952524E+03  0.27571238665E+03 0.  0.
         25    2    3    3    0    0  0.37067989116E+02  0.43619017456E+02 -0.12675316808E+03  0.18939449857E+03  0.12855837573E+03 0.  0.
         25    2    3    3    0    0 -0.37067989116E+02 -0.43619017456E+02 -0.74481399863E+02  0.15194502667E+03  0.11942846270E+03 0.  0.
          5    1    4    4  502    0 -0.46589832078E+01  0.82336626026E+02 -0.63646122685E+02  0.10427820982E+03  0.47000000000E+01 0.  1.
         -5    1    4    4    0  502  0.41726972323E+02 -0.38717608570E+02 -0.63107045396E+02  0.85116288754E+02  0.47000000000E+01 0.  1.
          5    1    5    5  503    0  0.34123040700E+01 -0.29032363987E+02  0.27967143211E+02  0.40728037973E+02  0.47000000000E+01 0. -1.
         -5    1    5    5    0  503 -0.40480293186E+02 -0.14586653469E+02 -0.10244854307E+03  0.11121698869E+03  0.47000000000E+01 0. -1.
<mgrwt>
<rscale>  0 0.27571239E+03</rscale>
<asrwt>0</asrwt>
<pdfrwt beam="1">  1        1 0.41736469E-01 0.27571239E+03</pdfrwt>
<pdfrwt beam="2">  1       -1 0.10777304E-01 0.27571239E+03</pdfrwt>
<totfact> 0.53635074E+03</totfact>
</mgrwt>
</event>
<event>
 9    1  0.2074770E-002  0.2769182E+03  0.7818608E-02  0.1097384E+00
         -1   -1    0    0    0  501 -0.00000000000E+00  0.00000000000E+00  0.14368827962E+04  0.14368827962E+04  0.00000000000E+00 0.  1.
          1   -1    0    0  501    0  0.00000000000E+00 -0.00000000000E+00 -0.13342019770E+02  0.13342019770E+02  0.00000000000E+00 0.  1.
         36    2    1    2    0    0  0.00000000000E+00 -0.35527136788E-14  0.14235407765E+04  0.14502248160E+04  0.27691817329E+03 0.  0.
         25    2    3    3    0    0  0.90816233261E+01 -0.67285335857E+01  0.48781739519E+03  0.50547801112E+03  0.13196385730E+03 0.  0.
         25    2    3    3    0    0 -0.90816233261E+01  0.67285335857E+01  0.93572338127E+03  0.94474680488E+03  0.12977106774E+03 0.  0.
          5    1    4    4  502    0  0.23921678383E+02 -0.84395086095E+01  0.10419221813E+02  0.27823051332E+02  0.47000000000E+01 0.  1.
         -5    1    4    4    0  502 -0.14840055057E+02  0.17109750238E+01  0.47739817337E+03  0.47765495979E+03  0.47000000000E+01 0.  1.
          5    1    5    5  503    0 -0.42142430370E+02 -0.38132219440E+02  0.70658028718E+03  0.70887787582E+03  0.47000000000E+01 0.  1.
         -5    1    5    5    0  503  0.33060807044E+02  0.44860753026E+02  0.22914309409E+03  0.23586892906E+03  0.47000000000E+01 0.  1.
<mgrwt>
<rscale>  0 0.27691817E+03</rscale>
<asrwt>0</asrwt>
<pdfrwt beam="1">  1        1 0.20526196E-02 0.27691817E+03</pdfrwt>
<pdfrwt beam="2">  1       -1 0.22105877E+00 0.27691817E+03</pdfrwt>
<totfact> 0.70776229E+02</totfact>
</mgrwt>
</event>
<event>
 9    1  0.2074770E-002  0.2734541E+03  0.7818608E-02  0.1099319E+00
          1   -1    0    0  501    0  0.00000000000E+00  0.00000000000E+00  0.18590053641E+03  0.18590053641E+03  0.00000000000E+00 0.  1.
         -1   -1    0    0    0  501 -0.00000000000E+00 -0.00000000000E+00 -0.10056071376E+03  0.10056071376E+03  0.00000000000E+00 0.  1.
         36    2    1    2    0    0  0.71054273576E-14  0.17763568394E-14  0.85339822652E+02  0.28646125017E+03  0.27345413239E+03 0.  0.
         25    2    3    3    0    0 -0.42342186552E+02 -0.10386394404E+02  0.82515606195E+02  0.15451625779E+03  0.12314914009E+03 0.  0.
         25    2    3    3    0    0  0.42342186552E+02  0.10386394404E+02  0.28242164568E+01  0.13194499238E+03  0.12450207575E+03 0.  0.
          5    1    4    4  502    0  0.15463624908E+01  0.73528100415E+01  0.10252591295E+03  0.10290824981E+03  0.47000000000E+01 0. -1.
         -5    1    4    4    0  502 -0.43888549043E+02 -0.17739204445E+02 -0.20010306756E+02  0.51608007983E+02  0.47000000000E+01 0. -1.
          5    1    5    5  503    0  0.65719252861E+02  0.49470965241E+02 -0.13189262585E+02  0.83441256259E+02  0.47000000000E+01 0. -1.
         -5    1    5    5    0  503 -0.23377066309E+02 -0.39084570838E+02  0.16013479042E+02  0.48503736122E+02  0.47000000000E+01 0. -1.
<mgrwt>
<rscale>  0 0.27345413E+03</rscale>
<asrwt>0</asrwt>
<pdfrwt beam="1">  1        1 0.28600083E-01 0.27345413E+03</pdfrwt>
<pdfrwt beam="2">  1       -1 0.15470879E-01 0.27345413E+03</pdfrwt>
<totfact> 0.48894616E+03</totfact>
</mgrwt>
</event>
<event>
 9    1  0.2074770E-002  0.2753355E+03  0.7818608E-02  0.1098264E+00
          1   -1    0    0  501    0  0.00000000000E+00  0.00000000000E+00  0.17413714125E+03  0.17413714125E+03  0.00000000000E+00 0.  1.
         -1   -1    0    0    0  501 -0.00000000000E+00 -0.00000000000E+00 -0.10883607271E+03  0.10883607271E+03  0.00000000000E+00 0.  1.
         36    2    1    2    0    0 -0.71054273576E-14 -0.71054273576E-14  0.65301068544E+02  0.28297321396E+03  0.27533545043E+03 0.  0.
         25    2    3    3    0    0  0.38021337805E+02  0.50674913653E+02  0.51749665819E+02  0.14806083173E+03  0.12341155933E+03 0.  0.
         25    2    3    3    0    0 -0.38021337805E+02 -0.50674913653E+02  0.13551402726E+02  0.13491238223E+03  0.11833909481E+03 0.  0.
          5    1    4    4  502    0 -0.17841682419E+02  0.13051682482E+02  0.73684133622E+02  0.77072132413E+02  0.47000000000E+01 0. -1.
         -5    1    4    4    0  502  0.55863020224E+02  0.37623231171E+02 -0.21934467803E+02  0.70988699312E+02  0.47000000000E+01 0. -1.
          5    1    5    5  503    0 -0.10258125685E+02 -0.20024323076E+01  0.60551205208E+02  0.61626109157E+02  0.47000000000E+01 0.  1.
         -5    1    5    5    0  503 -0.27763212120E+02 -0.48672481345E+02 -0.46999802482E+02  0.73286273073E+02  0.47000000000E+01 0.  1.
<mgrwt>
<rscale>  0 0.27533545E+03</rscale>
<asrwt>0</asrwt>
<pdfrwt beam="1">  1        1 0.26790329E-01 0.27533545E+03</pdfrwt>
<pdfrwt beam="2">  1       -1 0.16744011E-01 0.27533545E+03</pdfrwt>
<totfact> 0.46828337E+03</totfact>
</mgrwt>
</event>
<event>
 9    1  0.2074770E-002  0.2750707E+03  0.7818608E-02  0.1098412E+00
         -2   -1    0    0    0  501 -0.00000000000E+00  0.00000000000E+00  0.19628438684E+02  0.19628438684E+02  0.00000000000E+00 0.  1.
          2   -1    0    0  501    0  0.00000000000E+00 -0.00000000000E+00 -0.96370210167E+03  0.96370210167E+03  0.00000000000E+00 0.  1.
         36    2    1    2    0    0  0.00000000000E+00 -0.44408920985E-14 -0.94407366299E+03  0.98333054036E+03  0.27507066446E+03 0.  0.
         25    2    3    3    0    0 -0.54424953224E+02 -0.23497565689E+01 -0.32749438251E+03  0.35289405293E+03  0.11964131865E+03 0.  0.
         25    2    3    3    0    0  0.54424953224E+02  0.23497565689E+01 -0.61657928048E+03  0.63043648743E+03  0.11963510637E+03 0.  0.
          5    1    4    4  502    0 -0.58077947412E+02 -0.30879205479E+01 -0.33680310720E+03  0.34182013728E+03  0.47000000000E+01 0. -1.
         -5    1    4    4    0  502  0.36529941874E+01  0.73816397901E+00  0.93087246874E+01  0.11073915653E+02  0.47000000000E+01 0. -1.
          5    1    5    5  503    0 -0.13416473998E+01  0.48449686475E+02 -0.37682374784E+03  0.37995710163E+03  0.47000000000E+01 0.  1.
         -5    1    5    5    0  503  0.55766600624E+02 -0.46099929906E+02 -0.23975553263E+03  0.25047938580E+03  0.47000000000E+01 0.  1.
<mgrwt>
<rscale>  0 0.27507066E+03</rscale>
<asrwt>0</asrwt>
<pdfrwt beam="1">  1        2 0.14826182E+00 0.27507066E+03</pdfrwt>
<pdfrwt beam="2">  1       -2 0.30197607E-02 0.27507066E+03</pdfrwt>
<totfact> 0.11570304E+04</totfact>
</mgrwt>
</event>
<event>
 9    1  0.2074770E-002  0.2745871E+03  0.7818608E-02  0.1098683E+00
          2   -1    0    0  501    0  0.00000000000E+00  0.00000000000E+00  0.10141244347E+04  0.10141244347E+04  0.00000000000E+00 0.  1.
         -2   -1    0    0    0  501 -0.00000000000E+00 -0.00000000000E+00 -0.18586988826E+02  0.18586988826E+02  0.00000000000E+00 0.  1.
         36    2    1    2    0    0  0.00000000000E+00  0.00000000000E+00  0.99553744592E+03  0.10327114236E+04  0.27458710484E+03 0.  0.
         25    2    3    3    0    0 -0.34169609151E+02  0.37500359529E+02  0.44653760511E+03  0.46675320797E+03  0.12605112148E+03 0.  0.
         25    2    3    3    0    0  0.34169609151E+02 -0.37500359529E+02  0.54899984081E+03  0.56595821560E+03  0.12780468471E+03 0.  0.
          5    1    4    4  502    0 -0.47700323019E+02  0.20140631997E+00  0.54068096389E+02  0.72255175785E+02  0.47000000000E+01 0. -1.
         -5    1    4    4    0  502  0.13530713868E+02  0.37298953209E+02  0.39246950872E+03  0.39449803219E+03  0.47000000000E+01 0. -1.
          5    1    5    5  503    0  0.56154705555E+02  0.14788148765E+02  0.43132087696E+03  0.43523766978E+03  0.47000000000E+01 0.  1.
         -5    1    5    5    0  503 -0.21985096404E+02 -0.52288508294E+02  0.11767896386E+03  0.13072054581E+03  0.47000000000E+01 0.  1.
<mgrwt>
<rscale>  0 0.27458710E+03</rscale>
<asrwt>0</asrwt>
<pdfrwt beam="1">  1        2 0.15601910E+00 0.27458710E+03</pdfrwt>
<pdfrwt beam="2">  1       -2 0.28595375E-02 0.27458710E+03</pdfrwt>
<totfact> 0.11680961E+04</totfact>
</mgrwt>
</event>
<event>
 9    1  0.2074770E-002  0.2750057E+03  0.7818608E-02  0.1098448E+00
          1   -1    0    0  501    0  0.00000000000E+00  0.00000000000E+00  0.49152858557E+02  0.49152858557E+02  0.00000000000E+00 0. -1.
         -1   -1    0    0    0  501 -0.00000000000E+00 -0.00000000000E+00 -0.38465793079E+03  0.38465793079E+03  0.00000000000E+00 0. -1.
         36    2    1    2    0    0 -0.71054273576E-14  0.71054273576E-14 -0.33550507223E+03  0.43381078935E+03  0.27500572259E+03 0.  0.
         25    2    3    3    0    0 -0.39512657678E+02  0.39676471232E+02 -0.16029308143E+03  0.21161621341E+03  0.12630153339E+03 0.  0.
         25    2    3    3    0    0  0.39512657678E+02 -0.39676471232E+02 -0.17521199080E+03  0.22219457594E+03  0.12464234982E+03 0.  0.
          5    1    4    4  502    0 -0.39960792334E+02 -0.35569414737E+02 -0.10560650875E+03  0.11847730955E+03  0.47000000000E+01 0. -1.
         -5    1    4    4    0  502  0.44813465531E+00  0.75245885969E+02 -0.54686572687E+02  0.93138903860E+02  0.47000000000E+01 0. -1.
          5    1    5    5  503    0 -0.34251497435E+02 -0.50964402256E+02 -0.71999412300E+02  0.94744608002E+02  0.47000000000E+01 0.  1.
         -5    1    5    5    0  503  0.73764155113E+02  0.11287931024E+02 -0.10321257850E+03  0.12744996794E+03  0.47000000000E+01 0.  1.
<mgrwt>
<rscale>  0 0.27500572E+03</rscale>
<asrwt>0</asrwt>
<pdfrwt beam="1">  1        1 0.75619784E-02 0.27500572E+03</pdfrwt>
<pdfrwt beam="2">  1       -1 0.59178142E-01 0.27500572E+03</pdfrwt>
<totfact> 0.27949002E+03</totfact>
</mgrwt>
</event>
<event>
 9    1  0.2074770E-002  0.2763365E+03  0.7818608E-02  0.1097707E+00
          4   -1    0    0  501    0  0.00000000000E+00  0.00000000000E+00  0.17500939877E+04  0.17500939877E+04  0.00000000000E+00 0.  1.
         -4   -1    0    0    0  501 -0.00000000000E+00 -0.00000000000E+00 -0.10908250223E+02  0.10908250223E+02  0.00000000000E+00 0.  1.
         36    2    1    2    0    0  0.00000000000E+00 -0.71054273576E-14  0.17391857375E+04  0.17610022379E+04  0.27633648425E+03 0.  0.
         25    2    3    3    0    0 -0.93882244146E+01 -0.42194856450E+02  0.10889333256E+04  0.10971248667E+04  0.12664375549E+03 0.  0.
         25    2    3    3    0    0  0.93882244146E+01  0.42194856450E+02  0.65025241192E+03  0.66387737129E+03  0.12663498820E+03 0.  0.
          5    1    4    4  502    0  0.32456780234E+02  0.22354361727E+02  0.15442035352E+03  0.15943931652E+03  0.47000000000E+01 0.  1.
         -5    1    4    4    0  502 -0.41845004649E+02 -0.64549218177E+02  0.93451297207E+03  0.93768555014E+03  0.47000000000E+01 0.  1.
          5    1    5    5  503    0  0.32155606849E+02 -0.38083575018E+02  0.25991986687E+03  0.26469750458E+03  0.47000000000E+01 0. -1.
         -5    1    5    5    0  503 -0.22767382435E+02  0.80278431468E+02  0.39033254505E+03  0.39917986671E+03  0.47000000000E+01 0. -1.
<mgrwt>
<rscale>  0 0.27633648E+03</rscale>
<asrwt>0</asrwt>
<pdfrwt beam="1">  1        4 0.26924501E+00 0.27633648E+03</pdfrwt>
<pdfrwt beam="2">  1       -4 0.16781937E-02 0.27633648E+03</pdfrwt>
<totfact> 0.13722617E+02</totfact>
</mgrwt>
</event>
<event>
 9    1  0.2074770E-002  0.2755929E+03  0.7818608E-02  0.1098121E+00
          2   -1    0    0  501    0  0.00000000000E+00  0.00000000000E+00  0.51220782133E+03  0.51220782133E+03  0.00000000000E+00 0. -1.
         -2   -1    0    0    0  501 -0.00000000000E+00 -0.00000000000E+00 -0.37070618857E+02  0.37070618857E+02  0.00000000000E+00 0. -1.
         36    2    1    2    0    0 -0.14210854715E-13  0.00000000000E+00  0.47513720247E+03  0.54927844018E+03  0.27559289483E+03 0.  0.
         25    2    3    3    0    0  0.78829302717E+02  0.44970327447E+02  0.24067664303E+03  0.27219036395E+03  0.89027851864E+02 0.  0.
         25    2    3    3    0    0 -0.78829302717E+02 -0.44970327447E+02  0.23446055944E+03  0.27708807624E+03  0.11648887819E+03 0.  0.
          5    1    4    4  502    0  0.78100899505E+02  0.16464846171E+02  0.97334696274E+02  0.12596418047E+03  0.47000000000E+01 0. -1.
         -5    1    4    4    0  502  0.72840321237E+00  0.28505481276E+02  0.14334194676E+03  0.14622618348E+03  0.47000000000E+01 0. -1.
          5    1    5    5  503    0 -0.64310481011E+02 -0.37614749211E+02  0.45615519510E+02  0.87484701213E+02  0.47000000000E+01 0.  1.
         -5    1    5    5    0  503 -0.14518821706E+02 -0.73555782359E+01  0.18884503993E+03  0.18960337502E+03  0.47000000000E+01 0.  1.
<mgrwt>
<rscale>  0 0.27559289E+03</rscale>
<asrwt>0</asrwt>
<pdfrwt beam="1">  1        2 0.78801198E-01 0.27559289E+03</pdfrwt>
<pdfrwt beam="2">  1       -2 0.57031725E-02 0.27559289E+03</pdfrwt>
<totfact> 0.96402047E+03</totfact>
</mgrwt>
</event>
<event>
 9    1  0.2074770E-002  0.2759525E+03  0.7818608E-02  0.1097920E+00
          2   -1    0    0  501    0  0.00000000000E+00  0.00000000000E+00  0.32757184520E+04  0.32757184520E+04  0.00000000000E+00 0. -1.
         -2   -1    0    0    0  501 -0.00000000000E+00 -0.00000000000E+00 -0.58116854656E+01  0.58116854656E+01  0.00000000000E+00 0. -1.
         36    2    1    2    0    0  0.00000000000E+00  0.71054273576E-14  0.32699067666E+04  0.32815301375E+04  0.27595249821E+03 0.  0.
         25    2    3    3    0    0  0.22642582934E+02 -0.36475960138E+02  0.22122672167E+04  0.22158123711E+04  0.11770744957E+03 0.  0.
         25    2    3    3    0    0 -0.22642582934E+02  0.36475960138E+02  0.10576395499E+04  0.10657177664E+04  0.12373260648E+03 0.  0.
          5    1    4    4  502    0 -0.94127165049E+01  0.19605924630E+02  0.15952566546E+04  0.15954118201E+04  0.47000000000E+01 0. -1.
         -5    1    4    4    0  502  0.32055299439E+02 -0.56081884768E+02  0.61701056202E+03  0.62040055098E+03  0.47000000000E+01 0. -1.
          5    1    5    5  503    0 -0.44170872619E+02  0.73976384457E+02  0.63242926067E+03  0.63828867388E+03  0.47000000000E+01 0. -1.
         -5    1    5    5    0  503  0.21528289685E+02 -0.37500424320E+02  0.42521028924E+03  0.42742909254E+03  0.47000000000E+01 0. -1.
<mgrwt>
<rscale>  0 0.27595250E+03</rscale>
<asrwt>0</asrwt>
<pdfrwt beam="1">  1        2 0.50395521E+00 0.27595250E+03</pdfrwt>
<pdfrwt beam="2">  1       -2 0.89410807E-03 0.27595250E+03</pdfrwt>
<totfact> 0.35486046E+03</totfact>
</mgrwt>
</event>
<event>
 9    1  0.2074770E-002  0.2750786E+03  0.7818608E-02  0.1098408E+00
         -2   -1    0    0    0  501 -0.00000000000E+00  0.00000000000E+00  0.12724310556E+02  0.12724310556E+02  0.00000000000E+00 0. -1.
          2   -1    0    0  501    0  0.00000000000E+00 -0.00000000000E+00 -0.14866861094E+04  0.14866861094E+04  0.00000000000E+00 0. -1.
         36    2    1    2    0    0 -0.35527136788E-14  0.00000000000E+00 -0.14739617988E+04  0.14994104199E+04  0.27507857608E+03 0.  0.
         25    2    3    3    0    0 -0.11973317038E+02 -0.55601384213E+02 -0.74034961057E+03  0.75302568281E+03  0.12528072020E+03 0.  0.
         25    2    3    3    0    0  0.11973317038E+02  0.55601384213E+02 -0.73361218823E+03  0.74638473710E+03  0.12517371453E+03 0.  0.
          5    1    4    4  502    0 -0.28345744999E+02 -0.69327744169E+02 -0.71742052033E+03  0.72133495019E+03  0.47000000000E+01 0.  1.
         -5    1    4    4    0  502  0.16372427961E+02  0.13726359956E+02 -0.22929090239E+02  0.31690732622E+02  0.47000000000E+01 0.  1.
          5    1    5    5  503    0 -0.41086996695E+02  0.68543647992E+02 -0.50410716921E+03  0.51042384449E+03  0.47000000000E+01 0. -1.
         -5    1    5    5    0  503  0.53060313733E+02 -0.12942263778E+02 -0.22950501902E+03  0.23596089261E+03  0.47000000000E+01 0. -1.
<mgrwt>
<rscale>  0 0.27507858E+03</rscale>
<asrwt>0</asrwt>
<pdfrwt beam="1">  1        2 0.22872093E+00 0.27507858E+03</pdfrwt>
<pdfrwt beam="2">  1       -2 0.19575863E-02 0.27507858E+03</pdfrwt>
<totfact> 0.11066557E+04</totfact>
</mgrwt>
</event>
<event>
 9    1  0.2074770E-002  0.2749398E+03  0.7818608E-02  0.1098485E+00
         -2   -1    0    0    0  501 -0.00000000000E+00  0.00000000000E+00  0.21964405049E+03  0.21964405049E+03  0.00000000000E+00 0. -1.
          2   -1    0    0  501    0  0.00000000000E+00 -0.00000000000E+00 -0.86039108623E+02  0.86039108623E+02  0.00000000000E+00 0. -1.
         36    2    1    2    0    0  0.00000000000E+00 -0.14210854715E-13  0.13360494186E+03  0.30568315911E+03  0.27493983573E+03 0.  0.
         25    2    3    3    0    0  0.21084192332E+02  0.46736695684E+01  0.66291401163E+02  0.15692260345E+03  0.14058366638E+03 0.  0.
         25    2    3    3    0    0 -0.21084192332E+02 -0.46736695684E+01  0.67313540700E+02  0.14876055565E+03  0.13089004471E+03 0.  0.
          5    1    4    4  502    0 -0.42792782820E+02  0.37801124494E+02 -0.23875675619E+01  0.57340541969E+02  0.47000000000E+01 0. -1.
         -5    1    4    4    0  502  0.63876975152E+02 -0.33127454926E+02  0.68678968725E+02  0.99582061485E+02  0.47000000000E+01 0. -1.
          5    1    5    5  503    0 -0.20536895827E+01  0.61505219876E+02  0.19241219339E+02  0.64648466606E+02  0.47000000000E+01 0. -1.
         -5    1    5    5    0  503 -0.19030502749E+02 -0.66178889444E+02  0.48072321361E+02  0.84112089048E+02  0.47000000000E+01 0. -1.
<mgrwt>
<rscale>  0 0.27493984E+03</rscale>
<asrwt>0</asrwt>
<pdfrwt beam="1">  1        2 0.13236786E-01 0.27493984E+03</pdfrwt>
<pdfrwt beam="2">  1       -2 0.33791392E-01 0.27493984E+03</pdfrwt>
<totfact> 0.36993651E+03</totfact>
</mgrwt>
</event>
<event>
 9    1  0.2074770E-002  0.2747561E+03  0.7818608E-02  0.1098588E+00
          2   -1    0    0  501    0  0.00000000000E+00  0.00000000000E+00  0.47918085249E+03  0.47918085249E+03  0.00000000000E+00 0. -1.
         -2   -1    0    0    0  501 -0.00000000000E+00 -0.00000000000E+00 -0.39385396587E+02  0.39385396587E+02  0.00000000000E+00 0. -1.
         36    2    1    2    0    0 -0.71054273576E-14  0.00000000000E+00  0.43979545590E+03  0.51856624908E+03  0.27475609483E+03 0.  0.
         25    2    3    3    0    0 -0.56706290027E+01 -0.50159842685E+02  0.27309067778E+03  0.30265353127E+03  0.12030160367E+03 0.  0.
         25    2    3    3    0    0  0.56706290027E+01  0.50159842685E+02  0.16670477812E+03  0.21591271781E+03  0.12759174273E+03 0.  0.
          5    1    4    4  502    0  0.40926522661E+02  0.15089883631E+02  0.55719899862E+02  0.70918841543E+02  0.47000000000E+01 0. -1.
         -5    1    4    4    0  502 -0.46597151664E+02 -0.65249726316E+02  0.21737077792E+03  0.23173468972E+03  0.47000000000E+01 0. -1.
          5    1    5    5  503    0 -0.50556463746E+02 -0.24259072811E+01  0.30204854862E+02  0.59129217058E+02  0.47000000000E+01 0. -1.
         -5    1    5    5    0  503  0.56227092749E+02  0.52585749966E+02  0.13649992326E+03  0.15678350075E+03  0.47000000000E+01 0. -1.
<mgrwt>
<rscale>  0 0.27475609E+03</rscale>
<asrwt>0</asrwt>
<pdfrwt beam="1">  1        2 0.73720127E-01 0.27475609E+03</pdfrwt>
<pdfrwt beam="2">  1       -2 0.60592921E-02 0.27475609E+03</pdfrwt>
<totfact> 0.94637522E+03</totfact>
</mgrwt>
</event>
<event>
 9    1  0.2074770E-002  0.2753055E+03  0.7818608E-02  0.1098281E+00
         -2   -1    0    0    0  501 -0.00000000000E+00  0.00000000000E+00  0.13209162412E+03  0.13209162412E+03  0.00000000000E+00 0. -1.
          2   -1    0    0  501    0  0.00000000000E+00 -0.00000000000E+00 -0.14344802863E+03  0.14344802863E+03  0.00000000000E+00 0. -1.
         36    2    1    2    0    0  0.17763568394E-14  0.17763568394E-14 -0.11356404519E+02  0.27553965275E+03  0.27530552540E+03 0.  0.
         25    2    3    3    0    0  0.10275443884E+00 -0.12863452711E+02 -0.64235029886E+02  0.14179737236E+03  0.12575721358E+03 0.  0.
         25    2    3    3    0    0 -0.10275443884E+00  0.12863452711E+02  0.52878625367E+02  0.13374228039E+03  0.12216942977E+03 0.  0.
          5    1    4    4  502    0  0.22228289148E+02 -0.65258730521E+02 -0.30788554323E+02  0.75649347816E+02  0.47000000000E+01 0. -1.
         -5    1    4    4    0  502 -0.22125534709E+02  0.52395277810E+02 -0.33446475563E+02  0.66148024540E+02  0.47000000000E+01 0. -1.
          5    1    5    5  503    0 -0.14252343804E+02 -0.11600474262E+02  0.87082942766E+02  0.89124795808E+02  0.47000000000E+01 0.  1.
         -5    1    5    5    0  503  0.14149589365E+02  0.24463926973E+02 -0.34204317399E+02  0.44617484587E+02  0.47000000000E+01 0.  1.
<mgrwt>
<rscale>  0 0.27530553E+03</rscale>
<asrwt>0</asrwt>
<pdfrwt beam="1">  1        2 0.22068928E-01 0.27530553E+03</pdfrwt>
<pdfrwt beam="2">  1       -2 0.20321788E-01 0.27530553E+03</pdfrwt>
<totfact> 0.50348921E+03</totfact>
</mgrwt>
</event>
<event>
 9    1  0.2074770E-002  0.2737950E+03  0.7818608E-02  0.1099127E+00
          1   -1    0    0  501    0  0.00000000000E+00  0.00000000000E+00  0.18162081274E+03  0.18162081274E+03  0.00000000000E+00 0.  1.
         -1   -1    0    0    0  501 -0.00000000000E+00 -0.00000000000E+00 -0.10318711055E+03  0.10318711055E+03  0.00000000000E+00 0.  1.
         36    2    1    2    0    0 -0.35527136788E-14  0.35527136788E-14  0.78433702187E+02  0.28480792329E+03  0.27379501006E+03 0.  0.
         25    2    3    3    0    0 -0.14266806127E+02  0.12612007451E+02  0.91649489593E+02  0.15871865563E+03  0.12817713608E+03 0.  0.
         25    2    3    3    0    0  0.14266806127E+02 -0.12612007451E+02 -0.13215787407E+02  0.12608926766E+03  0.12394047722E+03 0.  0.
          5    1    4    4  502    0  0.13509541282E+02  0.63635882756E+02  0.72144910225E+02  0.97257448821E+02  0.47000000000E+01 0.  1.
         -5    1    4    4    0  502 -0.27776347409E+02 -0.51023875305E+02  0.19504579368E+02  0.61461206813E+02  0.47000000000E+01 0.  1.
          5    1    5    5  503    0 -0.48878898816E+02  0.16105529188E+02  0.10295066153E+02  0.52693578423E+02  0.47000000000E+01 0.  1.
         -5    1    5    5    0  503  0.63145704943E+02 -0.28717536639E+02 -0.23510853559E+02  0.73395689236E+02  0.47000000000E+01 0.  1.
<mgrwt>
<rscale>  0 0.27379501E+03</rscale>
<asrwt>0</asrwt>
<pdfrwt beam="1">  1        1 0.27941663E-01 0.27379501E+03</pdfrwt>
<pdfrwt beam="2">  1       -1 0.15874940E-01 0.27379501E+03</pdfrwt>
<totfact> 0.48333200E+03</totfact>
</mgrwt>
</event>
<event>
 9    1  0.2074770E-002  0.2763252E+03  0.7818608E-02  0.1097713E+00
          1   -1    0    0  501    0  0.00000000000E+00  0.00000000000E+00  0.11155942642E+04  0.11155942642E+04  0.00000000000E+00 0.  1.
         -1   -1    0    0    0  501 -0.00000000000E+00 -0.00000000000E+00 -0.17110978387E+02  0.17110978387E+02  0.00000000000E+00 0.  1.
         36    2    1    2    0    0  0.71054273576E-14  0.71054273576E-14  0.10984832858E+04  0.11327052425E+04  0.27632523839E+03 0.  0.
         25    2    3    3    0    0  0.26137874193E+02  0.29803972987E+02  0.34964693739E+03  0.37352163896E+03  0.12527557093E+03 0.  0.
         25    2    3    3    0    0 -0.26137874193E+02 -0.29803972987E+02  0.74883634838E+03  0.75918360358E+03  0.11845844006E+03 0.  0.
          5    1    4    4  502    0  0.51215959010E+02  0.51215346150E+02  0.11141009006E+03  0.13296760623E+03  0.47000000000E+01 0. -1.
         -5    1    4    4    0  502 -0.25078084817E+02 -0.21411373162E+02  0.23823684733E+03  0.24055403273E+03  0.47000000000E+01 0. -1.
          5    1    5    5  503    0 -0.57524358684E+02 -0.46540377749E+02  0.30432184194E+03  0.31322345392E+03  0.47000000000E+01 0.  1.
         -5    1    5    5    0  503  0.31386484490E+02  0.16736404762E+02  0.44451450644E+03  0.44596014966E+03  0.47000000000E+01 0.  1.
<mgrwt>
<rscale>  0 0.27632524E+03</rscale>
<asrwt>0</asrwt>
<pdfrwt beam="1">  1        1 0.17162983E+00 0.27632524E+03</pdfrwt>
<pdfrwt beam="2">  1       -1 0.26324591E-02 0.27632524E+03</pdfrwt>
<totfact> 0.60152584E+03</totfact>
</mgrwt>
</event>
<event>
 9    1  0.2074770E-002  0.2747411E+03  0.7818608E-02  0.1098596E+00
          1   -1    0    0  501    0  0.00000000000E+00  0.00000000000E+00  0.36993050583E+03  0.36993050583E+03  0.00000000000E+00 0.  1.
         -1   -1    0    0    0  501 -0.00000000000E+00 -0.00000000000E+00 -0.51011377197E+02  0.51011377197E+02  0.00000000000E+00 0.  1.
         36    2    1    2    0    0  0.71054273576E-14  0.00000000000E+00  0.31891912863E+03  0.42094188302E+03  0.27474107497E+03 0.  0.
         25    2    3    3    0    0 -0.34201353841E+02 -0.32907384988E+02  0.16074391852E+03  0.20916703878E+03  0.12513838012E+03 0.  0.
         25    2    3    3    0    0  0.34201353841E+02  0.32907384988E+02  0.15817521011E+03  0.21177484424E+03  0.13257661547E+03 0.  0.
          5    1    4    4  502    0  0.10542028653E+02 -0.13970682914E+02  0.15930595353E+03  0.16033337513E+03  0.47000000000E+01 0.  1.
         -5    1    4    4    0  502 -0.44743382494E+02 -0.18936702074E+02  0.14379649871E+01  0.48833663653E+02  0.47000000000E+01 0.  1.
          5    1    5    5  503    0  0.48380287534E+01 -0.53972558257E+01  0.16283024903E+03  0.16305924350E+03  0.47000000000E+01 0.  1.
         -5    1    5    5    0  503  0.29363325088E+02  0.38304640814E+02 -0.46550389195E+01  0.48715600740E+02  0.47000000000E+01 0.  1.
<mgrwt>
<rscale>  0 0.27474107E+03</rscale>
<asrwt>0</asrwt>
<pdfrwt beam="1">  1        1 0.56912384E-01 0.27474107E+03</pdfrwt>
<pdfrwt beam="2">  1       -1 0.78479044E-02 0.27474107E+03</pdfrwt>
<totfact> 0.59074481E+03</totfact>
</mgrwt>
</event>
<event>
 9    1  0.2074770E-002  0.2748505E+03  0.7818608E-02  0.1098535E+00
          1   -1    0    0  501    0  0.00000000000E+00  0.00000000000E+00  0.18406232390E+04  0.18406232390E+04  0.00000000000E+00 0.  1.
         -1   -1    0    0    0  501 -0.00000000000E+00 -0.00000000000E+00 -0.10260488155E+02  0.10260488155E+02  0.00000000000E+00 0.  1.
         36    2    1    2    0    0  0.00000000000E+00 -0.71054273576E-14  0.18303627508E+04  0.18508837271E+04  0.27485045346E+03 0.  0.
         25    2    3    3    0    0  0.19595527749E+02  0.46268328284E+02  0.89805763505E+03  0.90799127778E+03  0.12416078987E+03 0.  0.
         25    2    3    3    0    0 -0.19595527749E+02 -0.46268328284E+02  0.93230511579E+03  0.94289244937E+03  0.13163813750E+03 0.  0.
          5    1    4    4  502    0  0.61154278540E+02  0.54322776980E+02  0.41178256952E+03  0.41985448008E+03  0.47000000000E+01 0. -1.
         -5    1    4    4    0  502 -0.41558750791E+02 -0.80544486965E+01  0.48627506553E+03  0.48813679770E+03  0.47000000000E+01 0. -1.
          5    1    5    5  503    0 -0.37485423495E+02  0.18946305919E+02  0.68973676221E+03  0.69103039776E+03  0.47000000000E+01 0. -1.
         -5    1    5    5    0  503  0.17889895746E+02 -0.65214634203E+02  0.24256835357E+03  0.25186205161E+03  0.47000000000E+01 0. -1.
<mgrwt>
<rscale>  0 0.27485045E+03</rscale>
<asrwt>0</asrwt>
<pdfrwt beam="1">  1        1 0.28317254E+00 0.27485045E+03</pdfrwt>
<pdfrwt beam="2">  1       -1 0.15785381E-02 0.27485045E+03</pdfrwt>
<totfact> 0.41486792E+03</totfact>
</mgrwt>
</event>
<event>
 9    1  0.2074770E-002  0.2750674E+03  0.7818608E-02  0.1098414E+00
         -2   -1    0    0    0  501 -0.00000000000E+00  0.00000000000E+00  0.32052375729E+02  0.32052375729E+02  0.00000000000E+00 0.  1.
          2   -1    0    0  501    0  0.00000000000E+00 -0.00000000000E+00 -0.59014390937E+03  0.59014390937E+03  0.00000000000E+00 0.  1.
         36    2    1    2    0    0 -0.53290705182E-14 -0.71054273576E-14 -0.55809153364E+03  0.62219628510E+03  0.27506736860E+03 0.  0.
         25    2    3    3    0    0  0.88665559323E+01  0.48454089563E+02 -0.36748348111E+03  0.38636028345E+03  0.10864504190E+03 0.  0.
         25    2    3    3    0    0 -0.88665559323E+01 -0.48454089563E+02 -0.19060805253E+03  0.23583600165E+03  0.12984904841E+03 0.  0.
          5    1    4    4  502    0  0.50087103169E+02  0.21135878411E+01 -0.23022395496E+03  0.23566574760E+03  0.47000000000E+01 0. -1.
         -5    1    4    4    0  502 -0.41220547237E+02  0.46340501722E+02 -0.13725952616E+03  0.15069453585E+03  0.47000000000E+01 0. -1.
          5    1    5    5  503    0  0.14316055685E+02 -0.65940413054E+02 -0.32550956899E+02  0.75064920697E+02  0.47000000000E+01 0.  1.
         -5    1    5    5    0  503 -0.23182611618E+02  0.17486323491E+02 -0.15805709563E+03  0.16077108095E+03  0.47000000000E+01 0.  1.
<mgrwt>
<rscale>  0 0.27506737E+03</rscale>
<asrwt>0</asrwt>
<pdfrwt beam="1">  1        2 0.90791375E-01 0.27506737E+03</pdfrwt>
<pdfrwt beam="2">  1       -2 0.49311345E-02 0.27506737E+03</pdfrwt>
<totfact> 0.10239095E+04</totfact>
</mgrwt>
</event>
<event>
 9    1  0.2074770E-002  0.2784037E+03  0.7818608E-02  0.1096564E+00
         -1   -1    0    0    0  501 -0.00000000000E+00  0.00000000000E+00  0.20656215854E+02  0.20656215854E+02  0.00000000000E+00 0. -1.
          1   -1    0    0  501    0  0.00000000000E+00 -0.00000000000E+00 -0.93807874482E+03  0.93807874482E+03  0.00000000000E+00 0. -1.
         36    2    1    2    0    0  0.00000000000E+00  0.00000000000E+00 -0.91742252896E+03  0.95873496067E+03  0.27840371435E+03 0.  0.
         25    2    3    3    0    0 -0.50112632595E+02 -0.43115141179E+02 -0.44468375398E+03  0.46566175674E+03  0.12135501344E+03 0.  0.
         25    2    3    3    0    0  0.50112632595E+02  0.43115141179E+02 -0.47273877498E+03  0.49307320393E+03  0.12356797207E+03 0.  0.
          5    1    4    4  502    0  0.19582414427E+02 -0.29029505728E+02 -0.34665085911E+02  0.49496882112E+02  0.47000000000E+01 0.  1.
         -5    1    4    4    0  502 -0.69695047022E+02 -0.14085635451E+02 -0.41001866807E+03  0.41616487462E+03  0.47000000000E+01 0.  1.
          5    1    5    5  503    0  0.17243918759E+02  0.48681023588E+01 -0.92337215382E+00  0.18547069064E+02  0.47000000000E+01 0.  1.
         -5    1    5    5    0  503  0.32868713836E+02  0.38247038820E+02 -0.47181540283E+03  0.47452613487E+03  0.47000000000E+01 0.  1.
<mgrwt>
<rscale>  0 0.27840371E+03</rscale>
<asrwt>0</asrwt>
<pdfrwt beam="1">  1        1 0.14431982E+00 0.27840371E+03</pdfrwt>
<pdfrwt beam="2">  1       -1 0.31778790E-02 0.27840371E+03</pdfrwt>
<totfact> 0.61716463E+03</totfact>
</mgrwt>
</event>
<event>
 9    1  0.2074770E-002  0.2756901E+03  0.7818608E-02  0.1098066E+00
         -2   -1    0    0    0  501 -0.00000000000E+00  0.00000000000E+00  0.28330663522E+02  0.28330663522E+02  0.00000000000E+00 0.  1.
          2   -1    0    0  501    0  0.00000000000E+00 -0.00000000000E+00 -0.67069590970E+03  0.67069590970E+03  0.00000000000E+00 0.  1.
         36    2    1    2    0    0  0.00000000000E+00  0.00000000000E+00 -0.64236524618E+03  0.69902657322E+03  0.27569011693E+03 0.  0.
         25    2    3    3    0    0  0.42772739249E+02 -0.37722383171E+02 -0.36477411761E+03  0.38968748790E+03  0.12467435958E+03 0.  0.
         25    2    3    3    0    0 -0.42772739249E+02  0.37722383171E+02 -0.27759112857E+03  0.30933908532E+03  0.12402156921E+03 0.  0.
          5    1    4    4  502    0  0.32402743612E+02 -0.20291263902E+02 -0.18400827306E+02  0.42689034070E+02  0.47000000000E+01 0. -1.
         -5    1    4    4    0  502  0.10369995638E+02 -0.17431119269E+02 -0.34637329030E+03  0.34699845383E+03  0.47000000000E+01 0. -1.
          5    1    5    5  503    0 -0.38916696861E+02 -0.40727236379E+02 -0.13744347750E+03  0.14861364872E+03  0.47000000000E+01 0.  1.
         -5    1    5    5    0  503 -0.38560423883E+01  0.78449619550E+02 -0.14014765107E+03  0.16072543660E+03  0.47000000000E+01 0.  1.
<mgrwt>
<rscale>  0 0.27569012E+03</rscale>
<asrwt>0</asrwt>
<pdfrwt beam="1">  1        2 0.10318398E+00 0.27569012E+03</pdfrwt>
<pdfrwt beam="2">  1       -2 0.43585638E-02 0.27569012E+03</pdfrwt>
<totfact> 0.10619381E+04</totfact>
</mgrwt>
</event>
<event>
 9    1  0.2074770E-002  0.2754014E+03  0.7818608E-02  0.1098227E+00
          2   -1    0    0  501    0  0.00000000000E+00  0.00000000000E+00  0.32198708336E+03  0.32198708336E+03  0.00000000000E+00 0. -1.
         -2   -1    0    0    0  501 -0.00000000000E+00 -0.00000000000E+00 -0.58888947477E+02  0.58888947477E+02  0.00000000000E+00 0. -1.
         36    2    1    2    0    0  0.00000000000E+00  0.00000000000E+00  0.26309813588E+03  0.38087603083E+03  0.27540138300E+03 0.  0.
         25    2    3    3    0    0 -0.10226980569E+02 -0.47630829898E+02  0.82770678685E+02  0.15671008466E+03  0.12382963416E+03 0.  0.
         25    2    3    3    0    0  0.10226980569E+02  0.47630829898E+02  0.18032745720E+03  0.22416594618E+03  0.12393180592E+03 0.  0.
          5    1    4    4  502    0 -0.35716943518E+01 -0.90273987636E+01  0.10887121175E+03  0.10940421234E+03  0.47000000000E+01 0.  1.
         -5    1    4    4    0  502 -0.66552862171E+01 -0.38603431135E+02 -0.26100533064E+02  0.47305872323E+02  0.47000000000E+01 0.  1.
          5    1    5    5  503    0 -0.70049887392E+01  0.41052610829E+02  0.19542664160E+03  0.19987008023E+03  0.47000000000E+01 0.  1.
         -5    1    5    5    0  503  0.17231969308E+02  0.65782190699E+01 -0.15099184406E+02  0.24295865947E+02  0.47000000000E+01 0.  1.
<mgrwt>
<rscale>  0 0.27540138E+03</rscale>
<asrwt>0</asrwt>
<pdfrwt beam="1">  1        2 0.49536474E-01 0.27540138E+03</pdfrwt>
<pdfrwt beam="2">  1       -2 0.90598382E-02 0.27540138E+03</pdfrwt>
<totfact> 0.78059280E+03</totfact>
</mgrwt>
</event>
<event>
 9    1  0.2074770E-002  0.2749083E+03  0.7818608E-02  0.1098503E+00
         -3   -1    0    0    0  501 -0.00000000000E+00  0.00000000000E+00  0.27299728594E+03  0.27299728594E+03  0.00000000000E+00 0. -1.
          3   -1    0    0  501    0  0.00000000000E+00 -0.00000000000E+00 -0.69208186933E+02  0.69208186933E+02  0.00000000000E+00 0. -1.
         36    2    1    2    0    0  0.14210854715E-13  0.35527136788E-14  0.20378909901E+03  0.34220547287E+03  0.27490832797E+03 0.  0.
         25    2    3    3    0    0  0.45985482497E+02  0.30109103222E+01  0.13660276263E+03  0.19320630703E+03  0.12862593882E+03 0.  0.
         25    2    3    3    0    0 -0.45985482497E+02 -0.30109103222E+01  0.67186336380E+02  0.14899916584E+03  0.12475182341E+03 0.  0.
          5    1    4    4  502    0  0.55894956548E+02 -0.26437737371E+02  0.10061351309E+02  0.62821341238E+02  0.47000000000E+01 0. -1.
         -5    1    4    4    0  502 -0.99094740511E+01  0.29448647693E+02  0.12654141132E+03  0.13038496579E+03  0.47000000000E+01 0. -1.
          5    1    5    5  503    0 -0.20671376077E+02  0.52349613103E+02 -0.22678178400E+01  0.56524514847E+02  0.47000000000E+01 0.  1.
         -5    1    5    5    0  503 -0.25314106420E+02 -0.55360523425E+02  0.69454154220E+02  0.92474650993E+02  0.47000000000E+01 0.  1.
<mgrwt>
<rscale>  0 0.27490833E+03</rscale>
<asrwt>0</asrwt>
<pdfrwt beam="1">  1        3 0.10647414E-01 0.27490833E+03</pdfrwt>
<pdfrwt beam="2">  1       -3 0.41999582E-01 0.27490833E+03</pdfrwt>
<totfact> 0.95387447E+02</totfact>
</mgrwt>
</event>
<event>
 9    1  0.2074770E-002  0.2750934E+03  0.7818608E-02  0.1098399E+00
          2   -1    0    0  501    0  0.00000000000E+00  0.00000000000E+00  0.58963420633E+02  0.58963420633E+02  0.00000000000E+00 0.  1.
         -2   -1    0    0    0  501 -0.00000000000E+00 -0.00000000000E+00 -0.32086145634E+03  0.32086145634E+03  0.00000000000E+00 0.  1.
         36    2    1    2    0    0 -0.14210854715E-13  0.35527136788E-14 -0.26189803570E+03  0.37982487697E+03  0.27509335881E+03 0.  0.
         25    2    3    3    0    0  0.43222005803E+02  0.29878798293E+02 -0.16736898800E+03  0.21401324450E+03  0.12259040055E+03 0.  0.
         25    2    3    3    0    0 -0.43222005803E+02 -0.29878798293E+02 -0.94529047707E+02  0.16581163247E+03  0.12568560868E+03 0.  0.
          5    1    4    4  502    0 -0.22666698911E+02  0.54217543044E+02 -0.10271877337E+03  0.11843376890E+03  0.47000000000E+01 0.  1.
         -5    1    4    4    0  502  0.65888704713E+02 -0.24338744751E+02 -0.64650214621E+02  0.95579475597E+02  0.47000000000E+01 0.  1.
          5    1    5    5  503    0  0.44548340749E+01  0.39623248094E+02 -0.14775745642E+01  0.40176119309E+02  0.47000000000E+01 0.  1.
         -5    1    5    5    0  503 -0.47676839878E+02 -0.69502046387E+02 -0.93051473143E+02  0.12563551316E+03  0.47000000000E+01 0.  1.
<mgrwt>
<rscale>  0 0.27509336E+03</rscale>
<asrwt>0</asrwt>
<pdfrwt beam="1">  1        2 0.90712955E-02 0.27509336E+03</pdfrwt>
<pdfrwt beam="2">  1       -2 0.49363301E-01 0.27509336E+03</pdfrwt>
<totfact> 0.28452460E+03</totfact>
</mgrwt>
</event>
<event>
 9    1  0.2074770E-002  0.2873148E+03  0.7818608E-02  0.1091760E+00
          1   -1    0    0  501    0  0.00000000000E+00  0.00000000000E+00  0.10178989341E+03  0.10178989341E+03  0.00000000000E+00 0.  1.
         -1   -1    0    0    0  501 -0.00000000000E+00 -0.00000000000E+00 -0.20274551057E+03  0.20274551057E+03  0.00000000000E+00 0.  1.
         36    2    1    2    0    0  0.35527136788E-14  0.00000000000E+00 -0.10095561716E+03  0.30453540398E+03  0.28731476753E+03 0.  0.
         25    2    3    3    0    0  0.11237482082E+02  0.55267555271E+02 -0.82538096628E+01  0.13905038124E+03  0.12683098786E+03 0.  0.
         25    2    3    3    0    0 -0.11237482082E+02 -0.55267555271E+02 -0.92701807502E+02  0.16548502273E+03  0.12494352310E+03 0.  0.
          5    1    4    4  502    0 -0.48567301010E+02 -0.24802082628E+01 -0.23796947166E+02  0.54344446403E+02  0.47000000000E+01 0. -1.
         -5    1    4    4    0  502  0.59804783092E+02  0.57747763534E+02  0.15543137503E+02  0.84705934841E+02  0.47000000000E+01 0. -1.
          5    1    5    5  503    0  0.82485161292E+01 -0.93410560697E+02 -0.60555840232E+02  0.11172587281E+03  0.47000000000E+01 0. -1.
         -5    1    5    5    0  503 -0.19485998211E+02  0.38143005425E+02 -0.32145967270E+02  0.53759149927E+02  0.47000000000E+01 0. -1.
<mgrwt>
<rscale>  0 0.28731477E+03</rscale>
<asrwt>0</asrwt>
<pdfrwt beam="1">  1        1 0.15659984E-01 0.28731477E+03</pdfrwt>
<pdfrwt beam="2">  1       -1 0.31191617E-01 0.28731477E+03</pdfrwt>
<totfact> 0.33527964E+03</totfact>
</mgrwt>
</event>
<event>
 9    1  0.2074770E-002  0.2723921E+03  0.7818608E-02  0.1099918E+00
         -2   -1    0    0    0  501 -0.00000000000E+00  0.00000000000E+00  0.42805229926E+02  0.42805229926E+02  0.00000000000E+00 0.  1.
          2   -1    0    0  501    0  0.00000000000E+00 -0.00000000000E+00 -0.43334352830E+03  0.43334352830E+03  0.00000000000E+00 0.  1.
         36    2    1    2    0    0  0.00000000000E+00 -0.17763568394E-14 -0.39053829837E+03  0.47614875822E+03  0.27239213914E+03 0.  0.
         25    2    3    3    0    0  0.50842234850E+02 -0.60259810783E+01 -0.19843896685E+03  0.24104737693E+03  0.12690377879E+03 0.  0.
         25    2    3    3    0    0 -0.50842234850E+02  0.60259810783E+01 -0.19209933152E+03  0.23510138129E+03  0.12549605977E+03 0.  0.
          5    1    4    4  502    0 -0.69518342818E+01  0.49140594024E+01 -0.17849575431E+03  0.17876045504E+03  0.47000000000E+01 0.  1.
         -5    1    4    4    0  502  0.57794069132E+02 -0.10940040481E+02 -0.19943212533E+02  0.62286921891E+02  0.47000000000E+01 0.  1.
          5    1    5    5  503    0 -0.71134298711E+02 -0.26813262453E+02 -0.58731453285E+02  0.96179587758E+02  0.47000000000E+01 0.  1.
         -5    1    5    5    0  503  0.20292063861E+02  0.32839243531E+02 -0.13336787824E+03  0.13892179353E+03  0.47000000000E+01 0.  1.
<mgrwt>
<rscale>  0 0.27239214E+03</rscale>
<asrwt>0</asrwt>
<pdfrwt beam="1">  1        2 0.66668228E-01 0.27239214E+03</pdfrwt>
<pdfrwt beam="2">  1       -2 0.65854206E-02 0.27239214E+03</pdfrwt>
<totfact> 0.92989850E+03</totfact>
</mgrwt>
</event>
<event>
 9    1  0.2074770E-002  0.2750883E+03  0.7818608E-02  0.1098402E+00
          1   -1    0    0  501    0  0.00000000000E+00  0.00000000000E+00  0.13595801407E+04  0.13595801407E+04  0.00000000000E+00 0. -1.
         -1   -1    0    0    0  501 -0.00000000000E+00 -0.00000000000E+00 -0.13914881307E+02  0.13914881307E+02  0.00000000000E+00 0. -1.
         36    2    1    2    0    0 -0.71054273576E-14  0.00000000000E+00  0.13456652594E+04  0.13734950220E+04  0.27508832244E+03 0.  0.
         25    2    3    3    0    0  0.13379839344E+01  0.38388642291E+02  0.47266718440E+03  0.49087742540E+03  0.12677105939E+03 0.  0.
         25    2    3    3    0    0 -0.13379839344E+01 -0.38388642291E+02  0.87299807497E+03  0.88261759658E+03  0.12414791518E+03 0.  0.
          5    1    4    4  502    0 -0.35063080132E+02  0.39367435465E+02  0.76569349614E+02  0.93081522676E+02  0.47000000000E+01 0. -1.
         -5    1    4    4    0  502  0.36401064066E+02 -0.97879317337E+00  0.39609783479E+03  0.39779590273E+03  0.47000000000E+01 0. -1.
          5    1    5    5  503    0  0.47258802700E+02 -0.34267466529E+02  0.71008421066E+03  0.71249514379E+03  0.47000000000E+01 0. -1.
         -5    1    5    5    0  503 -0.48596786635E+02 -0.41211757624E+01  0.16291386430E+03  0.17012245279E+03  0.47000000000E+01 0. -1.
<mgrwt>
<rscale>  0 0.27508832E+03</rscale>
<asrwt>0</asrwt>
<pdfrwt beam="1">  1        1 0.20916607E+00 0.27508832E+03</pdfrwt>
<pdfrwt beam="2">  1       -1 0.21407520E-02 0.27508832E+03</pdfrwt>
<totfact> 0.55154871E+03</totfact>
</mgrwt>
</event>
<event>
 9    1  0.2074770E-002  0.2744764E+03  0.7818608E-02  0.1098745E+00
         -2   -1    0    0    0  501 -0.00000000000E+00  0.00000000000E+00  0.50673635639E+03  0.50673635639E+03  0.00000000000E+00 0. -1.
          2   -1    0    0  501    0  0.00000000000E+00 -0.00000000000E+00 -0.37167888733E+02  0.37167888733E+02  0.00000000000E+00 0. -1.
         36    2    1    2    0    0 -0.35527136788E-14 -0.71054273576E-14  0.46956846766E+03  0.54390424512E+03  0.27447637794E+03 0.  0.
         25    2    3    3    0    0 -0.12106050135E+02  0.20217068482E+02  0.13792210407E+03  0.18939358560E+03  0.12764065641E+03 0.  0.
         25    2    3    3    0    0  0.12106050135E+02 -0.20217068482E+02  0.33164636359E+03  0.35451065952E+03  0.12301711639E+03 0.  0.
          5    1    4    4  502    0 -0.96302747880E+01 -0.16654832471E+02  0.14917079988E+03  0.15047971017E+03  0.47000000000E+01 0.  1.
         -5    1    4    4    0  502 -0.24757753466E+01  0.36871900952E+02 -0.11248695811E+02  0.38913875428E+02  0.47000000000E+01 0.  1.
          5    1    5    5  503    0  0.34453836203E+02 -0.64810914181E+02  0.16870604862E+03  0.18404168622E+03  0.47000000000E+01 0. -1.
         -5    1    5    5    0  503 -0.22347786069E+02  0.44593845699E+02  0.16294031497E+03  0.17046897331E+03  0.47000000000E+01 0. -1.
<mgrwt>
<rscale>  0 0.27447638E+03</rscale>
<asrwt>0</asrwt>
<pdfrwt beam="1">  1        2 0.57181371E-02 0.27447638E+03</pdfrwt>
<pdfrwt beam="2">  1       -2 0.77959434E-01 0.27447638E+03</pdfrwt>
<totfact> 0.19810025E+03</totfact>
</mgrwt>
</event>
<event>
 9    1  0.2074770E-002  0.2747730E+03  0.7818608E-02  0.1098579E+00
          1   -1    0    0  501    0  0.00000000000E+00  0.00000000000E+00  0.53804704194E+02  0.53804704194E+02  0.00000000000E+00 0. -1.
         -1   -1    0    0    0  501 -0.00000000000E+00 -0.00000000000E+00 -0.35080674655E+03  0.35080674655E+03  0.00000000000E+00 0. -1.
         36    2    1    2    0    0  0.00000000000E+00  0.00000000000E+00 -0.29700204235E+03  0.40461145074E+03  0.27477302071E+03 0.  0.
         25    2    3    3    0    0  0.52227661347E+02  0.18038660894E+01 -0.10355985038E+03  0.16587487286E+03  0.11857001430E+03 0.  0.
         25    2    3    3    0    0 -0.52227661347E+02 -0.18038660894E+01 -0.19344219198E+03  0.23873657789E+03  0.12978555175E+03 0.  0.
          5    1    4    4  502    0  0.59092836543E+02  0.15761690435E+02 -0.12484284507E+03  0.13909787986E+03  0.47000000000E+01 0.  1.
         -5    1    4    4    0  502 -0.68651751958E+01 -0.13957824345E+02  0.21282994692E+02  0.26776992997E+02  0.47000000000E+01 0.  1.
          5    1    5    5  503    0  0.36538336715E+02 -0.25209270514E+02 -0.40372709575E+02  0.60188064001E+02  0.47000000000E+01 0.  1.
         -5    1    5    5    0  503 -0.88765998062E+02  0.23405404425E+02 -0.15306948240E+03  0.17854851389E+03  0.47000000000E+01 0.  1.
<mgrwt>
<rscale>  0 0.27477302E+03</rscale>
<asrwt>0</asrwt>
<pdfrwt beam="1">  1        1 0.82776468E-02 0.27477302E+03</pdfrwt>
<pdfrwt beam="2">  1       -1 0.53970269E-01 0.27477302E+03</pdfrwt>
<totfact> 0.29434139E+03</totfact>
</mgrwt>
</event>
<event>
 9    1  0.2074770E-002  0.2750436E+03  0.7818608E-02  0.1098427E+00
          1   -1    0    0  501    0  0.00000000000E+00  0.00000000000E+00  0.10724847526E+03  0.10724847526E+03  0.00000000000E+00 0.  1.
         -1   -1    0    0    0  501 -0.00000000000E+00 -0.00000000000E+00 -0.17634051316E+03  0.17634051316E+03  0.00000000000E+00 0.  1.
         36    2    1    2    0    0  0.71054273576E-14  0.00000000000E+00 -0.69092037904E+02  0.28358898842E+03  0.27504364136E+03 0.  0.
         25    2    3    3    0    0  0.32805050928E+02  0.43194545544E+02 -0.54395612555E+02  0.14866257065E+03  0.12727818790E+03 0.  0.
         25    2    3    3    0    0 -0.32805050928E+02 -0.43194545544E+02 -0.14696425350E+02  0.13492641778E+03  0.12266708265E+03 0.  0.
          5    1    4    4  502    0 -0.33608115408E+02  0.10384943979E+02  0.22314610894E+02  0.41921168186E+02  0.47000000000E+01 0. -1.
         -5    1    4    4    0  502  0.66413166336E+02  0.32809601566E+02 -0.76710223448E+02  0.10674140246E+03  0.47000000000E+01 0. -1.
          5    1    5    5  503    0 -0.30477620561E+02 -0.40991637024E+02 -0.65842085391E+02  0.83465381264E+02  0.47000000000E+01 0. -1.
         -5    1    5    5    0  503 -0.23274303671E+01 -0.22029085203E+01  0.51145660041E+02  0.51461036514E+02  0.47000000000E+01 0. -1.
<mgrwt>
<rscale>  0 0.27504364E+03</rscale>
<asrwt>0</asrwt>
<pdfrwt beam="1">  1        1 0.16499766E-01 0.27504364E+03</pdfrwt>
<pdfrwt beam="2">  1       -1 0.27129309E-01 0.27504364E+03</pdfrwt>
<totfact> 0.39626899E+03</totfact>
</mgrwt>
</event>
<event>
 9    1  0.2074770E-002  0.2755517E+03  0.7818608E-02  0.1098144E+00
          2   -1    0    0  501    0  0.00000000000E+00  0.00000000000E+00  0.68133059442E+03  0.68133059442E+03  0.00000000000E+00 0. -1.
         -2   -1    0    0    0  501 -0.00000000000E+00 -0.00000000000E+00 -0.27860470068E+02  0.27860470068E+02  0.00000000000E+00 0. -1.
         36    2    1    2    0    0  0.35527136788E-14  0.00000000000E+00  0.65347012435E+03  0.70919106449E+03  0.27555174202E+03 0.  0.
         25    2    3    3    0    0 -0.27405743740E+02 -0.29363771807E+02  0.41788677739E+03  0.43944544572E+03  0.12988315967E+03 0.  0.
         25    2    3    3    0    0  0.27405743740E+02  0.29363771807E+02  0.23558334696E+03  0.26974561876E+03  0.12509947879E+03 0.  0.
          5    1    4    4  502    0 -0.22980241297E+02 -0.28974952571E+02  0.21557461397E+02  0.43063366199E+02  0.47000000000E+01 0. -1.
         -5    1    4    4    0  502 -0.44255024437E+01 -0.38881923577E+00  0.39632931599E+03  0.39638207952E+03  0.47000000000E+01 0. -1.
          5    1    5    5  503    0 -0.18589154791E+02 -0.36538325389E+02  0.13354301117E+03  0.13977278609E+03  0.47000000000E+01 0.  1.
         -5    1    5    5    0  503  0.45994898531E+02  0.65902097196E+02  0.10204033579E+03  0.12997283268E+03  0.47000000000E+01 0.  1.
<mgrwt>
<rscale>  0 0.27555174E+03</rscale>
<asrwt>0</asrwt>
<pdfrwt beam="1">  1        2 0.10482008E+00 0.27555174E+03</pdfrwt>
<pdfrwt beam="2">  1       -2 0.42862267E-02 0.27555174E+03</pdfrwt>
<totfact> 0.10687121E+04</totfact>
</mgrwt>
</event>
<event>
 9    1  0.2074770E-002  0.2764698E+03  0.7818608E-02  0.1097633E+00
          1   -1    0    0  501    0  0.00000000000E+00  0.00000000000E+00  0.30206000469E+04  0.30206000469E+04  0.00000000000E+00 0. -1.
         -1   -1    0    0    0  501 -0.00000000000E+00 -0.00000000000E+00 -0.63261902171E+01  0.63261902171E+01  0.00000000000E+00 0. -1.
         36    2    1    2    0    0  0.00000000000E+00  0.71054273576E-14  0.30142738567E+04  0.30269262371E+04  0.27646982090E+03 0.  0.
         25    2    3    3    0    0  0.58302126090E+01 -0.34732962459E+01  0.91931754328E+03  0.92816638691E+03  0.12767944723E+03 0.  0.
         25    2    3    3    0    0 -0.58302126090E+01  0.34732962459E+01  0.20949563134E+04  0.20987598502E+04  0.12611462484E+03 0.  0.
          5    1    4    4  502    0 -0.15952110852E+02  0.36325053909E+02  0.79055507094E+03  0.79156388850E+03  0.47000000000E+01 0.  1.
         -5    1    4    4    0  502  0.21782323461E+02 -0.39798350155E+02  0.12876247234E+03  0.13660249841E+03  0.47000000000E+01 0.  1.
          5    1    5    5  503    0 -0.16430450783E+02  0.37800997534E+02  0.19007360605E+04  0.19011887168E+04  0.47000000000E+01 0.  1.
         -5    1    5    5    0  503  0.10600238174E+02 -0.34327701288E+02  0.19422025291E+03  0.19757113343E+03  0.47000000000E+01 0.  1.
<mgrwt>
<rscale>  0 0.27646982E+03</rscale>
<asrwt>0</asrwt>
<pdfrwt beam="1">  1        1 0.46470655E+00 0.27646982E+03</pdfrwt>
<pdfrwt beam="2">  1       -1 0.97326244E-03 0.27646982E+03</pdfrwt>
<totfact> 0.13693722E+03</totfact>
</mgrwt>
</event>
<event>
 9    1  0.2074770E-002  0.2744959E+03  0.7818608E-02  0.1098734E+00
          4   -1    0    0  501    0  0.00000000000E+00  0.00000000000E+00  0.62149876354E+03  0.62149876354E+03  0.00000000000E+00 0.  1.
         -4   -1    0    0    0  501 -0.00000000000E+00 -0.00000000000E+00 -0.30309000431E+02  0.30309000431E+02  0.00000000000E+00 0.  1.
         36    2    1    2    0    0  0.35527136788E-14 -0.35527136788E-14  0.59118976311E+03  0.65180776397E+03  0.27449594745E+03 0.  0.
         25    2    3    3    0    0  0.23859778253E+02  0.27901834869E+02  0.41136384423E+03  0.43032880277E+03  0.12089195485E+03 0.  0.
         25    2    3    3    0    0 -0.23859778253E+02 -0.27901834869E+02  0.17982591888E+03  0.22147896120E+03  0.12396680098E+03 0.  0.
          5    1    4    4  502    0  0.34330235803E+02 -0.42591002099E+02  0.17533938190E+03  0.18373499230E+03  0.47000000000E+01 0. -1.
         -5    1    4    4    0  502 -0.10470457550E+02  0.70492836968E+02  0.23602446233E+03  0.24659381047E+03  0.47000000000E+01 0. -1.
          5    1    5    5  503    0  0.42246722554E+02  0.89726924920E+01  0.11047460315E+03  0.11870982570E+03  0.47000000000E+01 0. -1.
         -5    1    5    5    0  503 -0.66106500808E+02 -0.36874527361E+02  0.69351315727E+02  0.10276913549E+03  0.47000000000E+01 0. -1.
<mgrwt>
<rscale>  0 0.27449595E+03</rscale>
<asrwt>0</asrwt>
<pdfrwt beam="1">  1        4 0.95615185E-01 0.27449595E+03</pdfrwt>
<pdfrwt beam="2">  1       -4 0.46629236E-02 0.27449595E+03</pdfrwt>
<totfact> 0.47431076E+02</totfact>
</mgrwt>
</event>
<event>
 9    1  0.2074770E-002  0.2744837E+03  0.7818608E-02  0.1098741E+00
          2   -1    0    0  501    0  0.00000000000E+00  0.00000000000E+00  0.68097719871E+02  0.68097719871E+02  0.00000000000E+00 0.  1.
         -2   -1    0    0    0  501 -0.00000000000E+00 -0.00000000000E+00 -0.27659252448E+03  0.27659252448E+03  0.00000000000E+00 0.  1.
         36    2    1    2    0    0  0.00000000000E+00 -0.14210854715E-13 -0.20849480461E+03  0.34469024435E+03  0.27448366254E+03 0.  0.
         25    2    3    3    0    0  0.36039435885E+02  0.45115815743E+02 -0.62192078833E+02  0.15046064378E+03  0.12424279814E+03 0.  0.
         25    2    3    3    0    0 -0.36039435885E+02 -0.45115815743E+02 -0.14630272578E+03  0.19422960057E+03  0.11395776585E+03 0.  0.
          5    1    4    4  502    0  0.32115151845E+02 -0.13587008615E+02 -0.81165857871E+02  0.88464548069E+02  0.47000000000E+01 0. -1.
         -5    1    4    4    0  502  0.39242840405E+01  0.58702824359E+02  0.18973779039E+02  0.61996095715E+02  0.47000000000E+01 0. -1.
          5    1    5    5  503    0 -0.13880834907E+01 -0.33817927206E+02  0.84277493290E+01  0.35195112374E+02  0.47000000000E+01 0. -1.
         -5    1    5    5    0  503 -0.34651352394E+02 -0.11297888537E+02 -0.15473047510E+03  0.15903448819E+03  0.47000000000E+01 0. -1.
<mgrwt>
<rscale>  0 0.27448366E+03</rscale>
<asrwt>0</asrwt>
<pdfrwt beam="1">  1        2 0.10476572E-01 0.27448366E+03</pdfrwt>
<pdfrwt beam="2">  1       -2 0.42552697E-01 0.27448366E+03</pdfrwt>
<totfact> 0.31812629E+03</totfact>
</mgrwt>
</event>
<event>
 9    1  0.2074770E-002  0.2745579E+03  0.7818608E-02  0.1098699E+00
          2   -1    0    0  501    0  0.00000000000E+00  0.00000000000E+00  0.26152753092E+04  0.26152753092E+04  0.00000000000E+00 0.  1.
         -2   -1    0    0    0  501 -0.00000000000E+00 -0.00000000000E+00 -0.72059383499E+01  0.72059383499E+01  0.00000000000E+00 0.  1.
         36    2    1    2    0    0  0.00000000000E+00  0.71054273576E-14  0.26080693709E+04  0.26224812476E+04  0.27455791845E+03 0.  0.
         25    2    3    3    0    0  0.40305554243E+02 -0.33014635858E+02  0.13777171152E+04  0.13846423593E+04  0.12812302603E+03 0.  0.
         25    2    3    3    0    0 -0.40305554243E+02  0.33014635858E+02  0.12303522557E+04  0.12378388882E+04  0.12555451553E+03 0.  0.
          5    1    4    4  502    0 -0.10770949550E+02  0.44109376138E+02  0.43924465018E+03  0.44161023893E+03  0.47000000000E+01 0.  1.
         -5    1    4    4    0  502  0.51076503793E+02 -0.77124011996E+02  0.93847246505E+03  0.94303212040E+03  0.47000000000E+01 0.  1.
          5    1    5    5  503    0  0.67485137688E+01  0.30505341716E+01  0.30890097514E+01  0.92994719240E+01  0.47000000000E+01 0. -1.
         -5    1    5    5    0  503 -0.47054068012E+02  0.29964101687E+02  0.12272632459E+04  0.12285394163E+04  0.47000000000E+01 0. -1.
<mgrwt>
<rscale>  0 0.27455792E+03</rscale>
<asrwt>0</asrwt>
<pdfrwt beam="1">  1        2 0.40234929E+00 0.27455792E+03</pdfrwt>
<pdfrwt beam="2">  1       -2 0.11086080E-02 0.27455792E+03</pdfrwt>
<totfact> 0.63559544E+03</totfact>
</mgrwt>
</event>
<event>
 9    1  0.2074770E-002  0.2742667E+03  0.7818608E-02  0.1098862E+00
          2   -1    0    0  501    0  0.00000000000E+00  0.00000000000E+00  0.27701692754E+03  0.27701692754E+03  0.00000000000E+00 0.  1.
         -2   -1    0    0    0  501 -0.00000000000E+00 -0.00000000000E+00 -0.67885959598E+02  0.67885959598E+02  0.00000000000E+00 0.  1.
         36    2    1    2    0    0 -0.35527136788E-14  0.71054273576E-14  0.20913096795E+03  0.34490288714E+03  0.27426673113E+03 0.  0.
         25    2    3    3    0    0 -0.72143959649E+01 -0.44747504920E+02  0.14018949615E+03  0.19387124560E+03  0.12601023107E+03 0.  0.
         25    2    3    3    0    0  0.72143959649E+01  0.44747504920E+02  0.68941471795E+02  0.15103164154E+03  0.12650392685E+03 0.  0.
          5    1    4    4  502    0  0.28469983440E+02  0.33184883698E+02  0.26252386935E+02  0.51215762056E+02  0.47000000000E+01 0. -1.
         -5    1    4    4    0  502 -0.35684379405E+02 -0.77932388619E+02  0.11393710922E+03  0.14265548355E+03  0.47000000000E+01 0. -1.
          5    1    5    5  503    0 -0.47770898507E+02  0.34448977178E+02 -0.37308725582E+01  0.59201352880E+02  0.47000000000E+01 0. -1.
         -5    1    5    5    0  503  0.54985294472E+02  0.10298527743E+02  0.72672344353E+02  0.91830288661E+02  0.47000000000E+01 0. -1.
<mgrwt>
<rscale>  0 0.27426673E+03</rscale>
<asrwt>0</asrwt>
<pdfrwt beam="1">  1        2 0.42617988E-01 0.27426673E+03</pdfrwt>
<pdfrwt beam="2">  1       -2 0.10443994E-01 0.27426673E+03</pdfrwt>
<totfact> 0.73232360E+03</totfact>
</mgrwt>
</event>
<event>
 9    1  0.2074770E-002  0.2751249E+03  0.7818608E-02  0.1098382E+00
         -4   -1    0    0    0  501 -0.00000000000E+00  0.00000000000E+00  0.11547083073E+02  0.11547083073E+02  0.00000000000E+00 0.  1.
          4   -1    0    0  501    0  0.00000000000E+00 -0.00000000000E+00 -0.16388063794E+04  0.16388063794E+04  0.00000000000E+00 0.  1.
         36    2    1    2    0    0  0.71054273576E-14 -0.71054273576E-14 -0.16272592963E+04  0.16503534624E+04  0.27512494182E+03 0.  0.
         25    2    3    3    0    0 -0.34204139983E+02  0.43943813640E+02 -0.73913425292E+03  0.75148028474E+03  0.12370203137E+03 0.  0.
         25    2    3    3    0    0  0.34204139983E+02 -0.43943813640E+02 -0.88812504336E+03  0.89887317769E+03  0.12690908151E+03 0.  0.
          5    1    4    4  502    0 -0.14445792345E+02 -0.15432466257E+02 -0.58022506506E+03  0.58062901931E+03  0.47000000000E+01 0. -1.
         -5    1    4    4    0  502 -0.19758347638E+02  0.59376279897E+02 -0.15890918786E+03  0.17085126544E+03  0.47000000000E+01 0. -1.
          5    1    5    5  503    0  0.71251268371E+01 -0.30013016309E+02 -0.42695758830E+02  0.52882571822E+02  0.47000000000E+01 0. -1.
         -5    1    5    5    0  503  0.27079013146E+02 -0.13930797331E+02 -0.84542928453E+03  0.84599060586E+03  0.47000000000E+01 0. -1.
<mgrwt>
<rscale>  0 0.27512494E+03</rscale>
<asrwt>0</asrwt>
<pdfrwt beam="1">  1        4 0.25212388E+00 0.27512494E+03</pdfrwt>
<pdfrwt beam="2">  1       -4 0.17764756E-02 0.27512494E+03</pdfrwt>
<totfact> 0.15852128E+02</totfact>
</mgrwt>
</event>
<event>
 9    1  0.2074770E-002  0.2755132E+03  0.7818608E-02  0.1098165E+00
          1   -1    0    0  501    0  0.00000000000E+00  0.00000000000E+00  0.25533859612E+03  0.25533859612E+03  0.00000000000E+00 0.  1.
         -1   -1    0    0    0  501 -0.00000000000E+00 -0.00000000000E+00 -0.74320436377E+02  0.74320436377E+02  0.00000000000E+00 0.  1.
         36    2    1    2    0    0  0.00000000000E+00  0.71054273576E-14  0.18101815975E+03  0.32965903250E+03  0.27551316403E+03 0.  0.
         25    2    3    3    0    0 -0.37761451809E+02  0.53863099188E+01  0.14476105512E+03  0.19428000250E+03  0.12383059685E+03 0.  0.
         25    2    3    3    0    0  0.37761451809E+02 -0.53863099188E+01  0.36257104625E+02  0.13537903000E+03  0.12473156998E+03 0.  0.
          5    1    4    4  502    0  0.55698877887E+01  0.32953149459E+02 -0.65874438770E+01  0.34386307247E+02  0.47000000000E+01 0. -1.
         -5    1    4    4    0  502 -0.43331339598E+02 -0.27566839540E+02  0.15134849900E+03  0.15989369526E+03  0.47000000000E+01 0. -1.
          5    1    5    5  503    0  0.45730791265E+02  0.50406216141E+02  0.39467053062E-01  0.68221576154E+02  0.47000000000E+01 0. -1.
         -5    1    5    5    0  503 -0.79693394558E+01 -0.55792526059E+02  0.36217637572E+02  0.67157453844E+02  0.47000000000E+01 0. -1.
<mgrwt>
<rscale>  0 0.27551316E+03</rscale>
<asrwt>0</asrwt>
<pdfrwt beam="1">  1        1 0.39282860E-01 0.27551316E+03</pdfrwt>
<pdfrwt beam="2">  1       -1 0.11433913E-01 0.27551316E+03</pdfrwt>
<totfact> 0.52785381E+03</totfact>
</mgrwt>
</event>
<event>
 9    1  0.2074770E-002  0.2750800E+03  0.7818608E-02  0.1098407E+00
         -1   -1    0    0    0  501 -0.00000000000E+00  0.00000000000E+00  0.19470468085E+02  0.19470468085E+02  0.00000000000E+00 0. -1.
          1   -1    0    0  501    0  0.00000000000E+00 -0.00000000000E+00 -0.97158711552E+03  0.97158711552E+03  0.00000000000E+00 0. -1.
         36    2    1    2    0    0 -0.71054273576E-14 -0.14210854715E-13 -0.95211664744E+03  0.99105758361E+03  0.27508003144E+03 0.  0.
         25    2    3    3    0    0 -0.16543385371E+02 -0.60876119981E+02 -0.41480980258E+03  0.43700863055E+03  0.12218750050E+03 0.  0.
         25    2    3    3    0    0  0.16543385371E+02  0.60876119981E+02 -0.53730684486E+03  0.55404895305E+03  0.11954920018E+03 0.  0.
          5    1    4    4  502    0  0.28684420549E+02 -0.46824147840E+02 -0.36095261265E+03  0.36513583141E+03  0.47000000000E+01 0. -1.
         -5    1    4    4    0  502 -0.45227805919E+02 -0.14051972140E+02 -0.53857189931E+02  0.71872799143E+02  0.47000000000E+01 0. -1.
          5    1    5    5  503    0 -0.75742269742E+01 -0.24433668095E+02 -0.29228007578E+03  0.29343501112E+03  0.47000000000E+01 0. -1.
         -5    1    5    5    0  503  0.24117612345E+02  0.85309788076E+02 -0.24502676908E+03  0.26061394194E+03  0.47000000000E+01 0. -1.
<mgrwt>
<rscale>  0 0.27508003E+03</rscale>
<asrwt>0</asrwt>
<pdfrwt beam="1">  1        1 0.14947488E+00 0.27508003E+03</pdfrwt>
<pdfrwt beam="2">  1       -1 0.29954579E-02 0.27508003E+03</pdfrwt>
<totfact> 0.63474485E+03</totfact>
</mgrwt>
</event>
<event>
 9    1  0.2074770E-002  0.2728462E+03  0.7818608E-02  0.1099662E+00
         -1   -1    0    0    0  501 -0.00000000000E+00  0.00000000000E+00  0.17638566039E+03  0.17638566039E+03  0.00000000000E+00 0.  1.
          1   -1    0    0  501    0  0.00000000000E+00 -0.00000000000E+00 -0.10551461590E+03  0.10551461590E+03  0.00000000000E+00 0.  1.
         36    2    1    2    0    0  0.71054273576E-14  0.71054273576E-14  0.70871044491E+02  0.28190027630E+03  0.27284622194E+03 0.  0.
         25    2    3    3    0    0  0.39880091240E+02  0.34541856142E+02  0.55108508502E+02  0.14452770457E+03  0.12275075631E+03 0.  0.
         25    2    3    3    0    0 -0.39880091240E+02 -0.34541856142E+02  0.15762535989E+02  0.13737257173E+03  0.12585390109E+03 0.  0.
          5    1    4    4  502    0  0.49863053623E+02  0.62401785398E+02 -0.19945572458E+01  0.80039835057E+02  0.47000000000E+01 0.  1.
         -5    1    4    4    0  502 -0.99829623825E+01 -0.27859929255E+02  0.57103065748E+02  0.64487869509E+02  0.47000000000E+01 0.  1.
          5    1    5    5  503    0 -0.18279974380E+02  0.46313604191E+02  0.18968915448E+02  0.53488476794E+02  0.47000000000E+01 0. -1.
         -5    1    5    5    0  503 -0.21600116860E+02 -0.80855460333E+02 -0.32063794586E+01  0.83884094936E+02  0.47000000000E+01 0. -1.
<mgrwt>
<rscale>  0 0.27284622E+03</rscale>
<asrwt>0</asrwt>
<pdfrwt beam="1">  1        1 0.16233018E-01 0.27284622E+03</pdfrwt>
<pdfrwt beam="2">  1       -1 0.27136255E-01 0.27284622E+03</pdfrwt>
<totfact> 0.40451621E+03</totfact>
</mgrwt>
</event>
<event>
 9    1  0.2074770E-002  0.2786750E+03  0.7818608E-02  0.1096415E+00
          2   -1    0    0  501    0  0.00000000000E+00  0.00000000000E+00  0.94975666285E+03  0.94975666285E+03  0.00000000000E+00 0.  1.
         -2   -1    0    0    0  501 -0.00000000000E+00 -0.00000000000E+00 -0.20442018623E+02  0.20442018623E+02  0.00000000000E+00 0.  1.
         36    2    1    2    0    0 -0.71054273576E-14  0.35527136788E-14  0.92931464423E+03  0.97019868147E+03  0.27867503217E+03 0.  0.
         25    2    3    3    0    0  0.22257349858E+02 -0.26397366763E+01  0.63839839838E+03  0.65111077385E+03  0.12605699875E+03 0.  0.
         25    2    3    3    0    0 -0.22257349858E+02  0.26397366763E+01  0.29091624585E+03  0.31908790763E+03  0.12916064750E+03 0.  0.
          5    1    4    4  502    0  0.60114713543E+02  0.31285933600E+02  0.47749101689E+03  0.48229902513E+03  0.47000000000E+01 0. -1.
         -5    1    4    4    0  502 -0.37857363686E+02 -0.33925670276E+02  0.16090738149E+03  0.16881174872E+03  0.47000000000E+01 0. -1.
          5    1    5    5  503    0  0.26745260715E+02 -0.49747096413E+02  0.15987628000E+03  0.16962487282E+03  0.47000000000E+01 0.  1.
         -5    1    5    5    0  503 -0.49002610573E+02  0.52386833090E+02  0.13103996585E+03  0.14946303481E+03  0.47000000000E+01 0.  1.
<mgrwt>
<rscale>  0 0.27867503E+03</rscale>
<asrwt>0</asrwt>
<pdfrwt beam="1">  1        2 0.14611638E+00 0.27867503E+03</pdfrwt>
<pdfrwt beam="2">  1       -2 0.31449267E-02 0.27867503E+03</pdfrwt>
<totfact> 0.11116691E+04</totfact>
</mgrwt>
</event>
<event>
 9    1  0.2074770E-002  0.2750885E+03  0.7818608E-02  0.1098402E+00
         -2   -1    0    0    0  501 -0.00000000000E+00  0.00000000000E+00  0.22010877447E+03  0.22010877447E+03  0.00000000000E+00 0.  1.
          2   -1    0    0  501    0  0.00000000000E+00 -0.00000000000E+00 -0.85950301128E+02  0.85950301128E+02  0.00000000000E+00 0.  1.
         36    2    1    2    0    0  0.00000000000E+00  0.71054273576E-14  0.13415847335E+03  0.30605907560E+03  0.27508846175E+03 0.  0.
         25    2    3    3    0    0  0.45779233373E+02  0.41157066641E+02  0.70621921353E+02  0.15518846776E+03  0.12371888460E+03 0.  0.
         25    2    3    3    0    0 -0.45779233373E+02 -0.41157066641E+02  0.63536551993E+02  0.15087060784E+03  0.12221049271E+03 0.  0.
          5    1    4    4  502    0 -0.29231282277E+02  0.51288043235E+00 -0.15881486398E+02  0.33601227956E+02  0.47000000000E+01 0.  1.
         -5    1    4    4    0  502  0.75010515650E+02  0.40644186209E+02  0.86503407751E+02  0.12158723980E+03  0.47000000000E+01 0.  1.
          5    1    5    5  503    0  0.39588094048E+02  0.17930416228E+01  0.96326960832E+01  0.41052539781E+02  0.47000000000E+01 0.  1.
         -5    1    5    5    0  503 -0.85367327421E+02 -0.42950108264E+02  0.53903855910E+02  0.10981806806E+03  0.47000000000E+01 0.  1.
<mgrwt>
<rscale>  0 0.27508846E+03</rscale>
<asrwt>0</asrwt>
<pdfrwt beam="1">  1        2 0.13223123E-01 0.27508846E+03</pdfrwt>
<pdfrwt beam="2">  1       -2 0.33862888E-01 0.27508846E+03</pdfrwt>
<totfact> 0.36895483E+03</totfact>
</mgrwt>
</event>
<event>
 9    1  0.2074770E-002  0.2756269E+03  0.7818608E-02  0.1098102E+00
         -1   -1    0    0    0  501 -0.00000000000E+00  0.00000000000E+00  0.99141555554E+02  0.99141555554E+02  0.00000000000E+00 0.  1.
          1   -1    0    0  501    0  0.00000000000E+00 -0.00000000000E+00 -0.19156999857E+03  0.19156999857E+03  0.00000000000E+00 0.  1.
         36    2    1    2    0    0  0.71054273576E-14 -0.71054273576E-14 -0.92428443018E+02  0.29071155413E+03  0.27562690475E+03 0.  0.
         25    2    3    3    0    0 -0.39763118113E+02  0.32797427587E+02 -0.11298870791E+02  0.13457904477E+03  0.12380257667E+03 0.  0.
         25    2    3    3    0    0  0.39763118113E+02 -0.32797427587E+02 -0.81129572227E+02  0.15613250936E+03  0.12303892137E+03 0.  0.
          5    1    4    4  502    0  0.65289863953E+01  0.46473549785E+02  0.41545350250E+02  0.62853198966E+02  0.47000000000E+01 0.  1.
         -5    1    4    4    0  502 -0.46292104509E+02 -0.13676122198E+02 -0.52844221041E+02  0.71725845799E+02  0.47000000000E+01 0.  1.
          5    1    5    5  503    0  0.62743677139E+02 -0.64249646519E+02 -0.37436130071E+02  0.97408110203E+02  0.47000000000E+01 0. -1.
         -5    1    5    5    0  503 -0.22980559025E+02  0.31452218932E+02 -0.43693442155E+02  0.58724399156E+02  0.47000000000E+01 0. -1.
<mgrwt>
<rscale>  0 0.27562690E+03</rscale>
<asrwt>0</asrwt>
<pdfrwt beam="1">  1        1 0.29472307E-01 0.27562690E+03</pdfrwt>
<pdfrwt beam="2">  1       -1 0.15252547E-01 0.27562690E+03</pdfrwt>
<totfact> 0.48161595E+03</totfact>
</mgrwt>
</event>
<event>
 9    1  0.2074770E-002  0.2740289E+03  0.7818608E-02  0.1098996E+00
          1   -1    0    0  501    0  0.00000000000E+00  0.00000000000E+00  0.29162609679E+03  0.29162609679E+03  0.00000000000E+00 0. -1.
         -1   -1    0    0    0  501 -0.00000000000E+00 -0.00000000000E+00 -0.64373409474E+02  0.64373409474E+02  0.00000000000E+00 0. -1.
         36    2    1    2    0    0 -0.71054273576E-14  0.00000000000E+00  0.22725268731E+03  0.35599950626E+03  0.27402894841E+03 0.  0.
         25    2    3    3    0    0  0.43229433251E+02  0.35724972481E+01  0.14033277192E+03  0.19561720124E+03  0.12919464350E+03 0.  0.
         25    2    3    3    0    0 -0.43229433251E+02 -0.35724972481E+01  0.86919915390E+02  0.16038230502E+03  0.12761608612E+03 0.  0.
          5    1    4    4  502    0 -0.20808149227E+02 -0.65131177415E+01 -0.15239173375E+02  0.27013370433E+02  0.47000000000E+01 0. -1.
         -5    1    4    4    0  502  0.64037582479E+02  0.10085614990E+02  0.15557194530E+03  0.16860383081E+03  0.47000000000E+01 0. -1.
          5    1    5    5  503    0 -0.35639603216E+02 -0.46802283519E+02 -0.41685538596E+01  0.59161659048E+02  0.47000000000E+01 0. -1.
         -5    1    5    5    0  503 -0.75898300352E+01  0.43229786271E+02  0.91088469249E+02  0.10122064597E+03  0.47000000000E+01 0. -1.
<mgrwt>
<rscale>  0 0.27402895E+03</rscale>
<asrwt>0</asrwt>
<pdfrwt beam="1">  1        1 0.44865552E-01 0.27402895E+03</pdfrwt>
<pdfrwt beam="2">  1       -1 0.99036017E-02 0.27402895E+03</pdfrwt>
<totfact> 0.55820163E+03</totfact>
</mgrwt>
</event>
<event>
 9    1  0.2074770E-002  0.2751664E+03  0.7818608E-02  0.1098359E+00
          1   -1    0    0  501    0  0.00000000000E+00  0.00000000000E+00  0.96216275176E+03  0.96216275176E+03  0.00000000000E+00 0.  1.
         -1   -1    0    0    0  501 -0.00000000000E+00 -0.00000000000E+00 -0.19673527270E+02  0.19673527270E+02  0.00000000000E+00 0.  1.
         36    2    1    2    0    0  0.71054273576E-14  0.71054273576E-14  0.94248922449E+03  0.98183627903E+03  0.27516638701E+03 0.  0.
         25    2    3    3    0    0  0.53409910512E+02  0.24196917767E+02  0.48301176678E+03  0.50269954379E+03  0.12636595706E+03 0.  0.
         25    2    3    3    0    0 -0.53409910512E+02 -0.24196917767E+02  0.45947745771E+03  0.47913673525E+03  0.12253312837E+03 0.  0.
          5    1    4    4  502    0  0.18266005541E+02  0.27903711097E+02  0.45779559836E+03  0.45903285713E+03  0.47000000000E+01 0.  1.
         -5    1    4    4    0  502  0.35143904970E+02 -0.37067933299E+01  0.25216168425E+02  0.43666686655E+02  0.47000000000E+01 0.  1.
          5    1    5    5  503    0 -0.83482088510E+02 -0.48540606611E+02  0.31597245379E+03  0.33043324764E+03  0.47000000000E+01 0. -1.
         -5    1    5    5    0  503  0.30072177999E+02  0.24343688844E+02  0.14350500392E+03  0.14870348760E+03  0.47000000000E+01 0. -1.
<mgrwt>
<rscale>  0 0.27516639E+03</rscale>
<asrwt>0</asrwt>
<pdfrwt beam="1">  1        1 0.14802500E+00 0.27516639E+03</pdfrwt>
<pdfrwt beam="2">  1       -1 0.30266972E-02 0.27516639E+03</pdfrwt>
<totfact> 0.63549516E+03</totfact>
</mgrwt>
</event>
<event>
 9    1  0.2074770E-002  0.2753845E+03  0.7818608E-02  0.1098237E+00
         -1   -1    0    0    0  501 -0.00000000000E+00  0.00000000000E+00  0.78472240118E+02  0.78472240118E+02  0.00000000000E+00 0. -1.
          1   -1    0    0  501    0  0.00000000000E+00 -0.00000000000E+00 -0.24160330069E+03  0.24160330069E+03  0.00000000000E+00 0. -1.
         36    2    1    2    0    0  0.00000000000E+00 -0.35527136788E-14 -0.16313106057E+03  0.32007554081E+03  0.27538447469E+03 0.  0.
         25    2    3    3    0    0 -0.22412352329E+02  0.28971902770E+02 -0.52535549426E+02  0.14776463559E+03  0.13316425531E+03 0.  0.
         25    2    3    3    0    0  0.22412352329E+02 -0.28971902770E+02 -0.11059551114E+03  0.17231090521E+03  0.12695667089E+03 0.  0.
          5    1    4    4  502    0 -0.30373964648E+02  0.66039786324E+02 -0.74089906332E+02  0.10390012188E+03  0.47000000000E+01 0.  1.
         -5    1    4    4    0  502  0.79616123182E+01 -0.37067883554E+02  0.21554356906E+02  0.43864513716E+02  0.47000000000E+01 0.  1.
          5    1    5    5  503    0 -0.40278746247E+02  0.21993982991E+02 -0.64100309794E+02  0.78975011255E+02  0.47000000000E+01 0.  1.
         -5    1    5    5    0  503  0.62691098576E+02 -0.50965885761E+02 -0.46495201349E+02  0.93335893956E+02  0.47000000000E+01 0.  1.
<mgrwt>
<rscale>  0 0.27538447E+03</rscale>
<asrwt>0</asrwt>
<pdfrwt beam="1">  1        1 0.37169739E-01 0.27538447E+03</pdfrwt>
<pdfrwt beam="2">  1       -1 0.12072652E-01 0.27538447E+03</pdfrwt>
<totfact> 0.51979150E+03</totfact>
</mgrwt>
</event>
<event>
 9    1  0.2074770E-002  0.2756538E+03  0.7818608E-02  0.1098087E+00
         -1   -1    0    0    0  501 -0.00000000000E+00  0.00000000000E+00  0.26921675116E+03  0.26921675116E+03  0.00000000000E+00 0. -1.
          1   -1    0    0  501    0  0.00000000000E+00 -0.00000000000E+00 -0.70561212152E+02  0.70561212152E+02  0.00000000000E+00 0. -1.
         36    2    1    2    0    0  0.71054273576E-14 -0.35527136788E-14  0.19865553901E+03  0.33977796331E+03  0.27565384302E+03 0.  0.
         25    2    3    3    0    0 -0.48350713070E+02  0.10936015491E+02  0.13674519260E+03  0.19179543513E+03  0.12501541245E+03 0.  0.
         25    2    3    3    0    0  0.48350713070E+02 -0.10936015491E+02  0.61910346409E+02  0.14798252818E+03  0.12493418173E+03 0.  0.
          5    1    4    4  502    0  0.26477985321E+02 -0.26823876040E+02  0.91637211976E+01  0.39072596774E+02  0.47000000000E+01 0.  1.
         -5    1    4    4    0  502 -0.74828698391E+02  0.37759891530E+02  0.12758147140E+03  0.15272283836E+03  0.47000000000E+01 0.  1.
          5    1    5    5  503    0  0.37904625188E+02  0.91002688493E+00 -0.33710794971E+02  0.50951903371E+02  0.47000000000E+01 0.  1.
         -5    1    5    5    0  503  0.10446087881E+02 -0.11846042376E+02  0.95621141380E+02  0.97030624808E+02  0.47000000000E+01 0.  1.
<mgrwt>
<rscale>  0 0.27565384E+03</rscale>
<asrwt>0</asrwt>
<pdfrwt beam="1">  1        1 0.10855571E-01 0.27565384E+03</pdfrwt>
<pdfrwt beam="2">  1       -1 0.41417961E-01 0.27565384E+03</pdfrwt>
<totfact> 0.33157234E+03</totfact>
</mgrwt>
</event>
<event>
 9    1  0.2074770E-002  0.2757079E+03  0.7818608E-02  0.1098057E+00
         -1   -1    0    0    0  501 -0.00000000000E+00  0.00000000000E+00  0.11326326825E+02  0.11326326825E+02  0.00000000000E+00 0. -1.
          1   -1    0    0  501    0  0.00000000000E+00 -0.00000000000E+00 -0.16778349458E+04  0.16778349458E+04  0.00000000000E+00 0. -1.
         36    2    1    2    0    0  0.00000000000E+00  0.00000000000E+00 -0.16665086190E+04  0.16891612727E+04  0.27570786681E+03 0.  0.
         25    2    3    3    0    0 -0.88275265450E+01  0.56193874302E+02 -0.80567435601E+03  0.81708080275E+03  0.12358880834E+03 0.  0.
         25    2    3    3    0    0  0.88275265450E+01 -0.56193874302E+02 -0.86083426301E+03  0.87208046992E+03  0.12748741476E+03 0.  0.
          5    1    4    4  502    0  0.49806193176E+02  0.49985753871E+02 -0.31422820578E+03  0.32208801247E+03  0.47000000000E+01 0.  1.
         -5    1    4    4    0  502 -0.58633719721E+02  0.62081204316E+01 -0.49144615024E+03  0.49499279028E+03  0.47000000000E+01 0.  1.
          5    1    5    5  503    0 -0.41628224960E+02 -0.59638892605E+02 -0.29103452603E+03  0.30002148584E+03  0.47000000000E+01 0. -1.
         -5    1    5    5    0  503  0.50455751505E+02  0.34450183024E+01 -0.56979973698E+03  0.57205898408E+03  0.47000000000E+01 0. -1.
<mgrwt>
<rscale>  0 0.27570787E+03</rscale>
<asrwt>0</asrwt>
<pdfrwt beam="1">  1        1 0.25812853E+00 0.27570787E+03</pdfrwt>
<pdfrwt beam="2">  1       -1 0.17425113E-02 0.27570787E+03</pdfrwt>
<totfact> 0.45849386E+03</totfact>
</mgrwt>
</event>
<event>
 9    1  0.2074770E-002  0.2776975E+03  0.7818608E-02  0.1096953E+00
          1   -1    0    0  501    0  0.00000000000E+00  0.00000000000E+00  0.28359326620E+03  0.28359326620E+03  0.00000000000E+00 0. -1.
         -1   -1    0    0    0  501 -0.00000000000E+00 -0.00000000000E+00 -0.67981076472E+02  0.67981076472E+02  0.00000000000E+00 0. -1.
         36    2    1    2    0    0 -0.14210854715E-13  0.00000000000E+00  0.21561218973E+03  0.35157434267E+03  0.27769750101E+03 0.  0.
         25    2    3    3    0    0  0.47691353842E+02  0.41786708330E+01  0.71169898752E+02  0.15325771688E+03  0.12700727056E+03 0.  0.
         25    2    3    3    0    0 -0.47691353842E+02 -0.41786708330E+01  0.14444229097E+03  0.19831662579E+03  0.12717697166E+03 0.  0.
          5    1    4    4  502    0  0.56184056408E+02  0.53927856500E+02  0.18546127420E+02  0.80192959438E+02  0.47000000000E+01 0.  1.
         -5    1    4    4    0  502 -0.84927025664E+01 -0.49749185667E+02  0.52623771332E+02  0.73064757446E+02  0.47000000000E+01 0.  1.
          5    1    5    5  503    0  0.26867785746E+02 -0.43179486736E+02  0.63223526962E+02  0.81275152090E+02  0.47000000000E+01 0. -1.
         -5    1    5    5    0  503 -0.74559139588E+02  0.39000815903E+02  0.81218764011E+02  0.11704147370E+03  0.47000000000E+01 0. -1.
<mgrwt>
<rscale>  0 0.27769750E+03</rscale>
<asrwt>0</asrwt>
<pdfrwt beam="1">  1        1 0.43629733E-01 0.27769750E+03</pdfrwt>
<pdfrwt beam="2">  1       -1 0.10458627E-01 0.27769750E+03</pdfrwt>
<totfact> 0.53159349E+03</totfact>
</mgrwt>
</event>
<event>
 9    1  0.2074770E-002  0.2757780E+03  0.7818608E-02  0.1098017E+00
          2   -1    0    0  501    0  0.00000000000E+00  0.00000000000E+00  0.13132723075E+03  0.13132723075E+03  0.00000000000E+00 0. -1.
         -2   -1    0    0    0  501 -0.00000000000E+00 -0.00000000000E+00 -0.14477866132E+03  0.14477866132E+03  0.00000000000E+00 0. -1.
         36    2    1    2    0    0  0.00000000000E+00  0.00000000000E+00 -0.13451430569E+02  0.27610589206E+03  0.27577803148E+03 0.  0.
         25    2    3    3    0    0 -0.20401116409E+02  0.40199177246E+02  0.17792925205E+02  0.13621001464E+03  0.12729650624E+03 0.  0.
         25    2    3    3    0    0  0.20401116409E+02 -0.40199177246E+02 -0.31244355775E+02  0.13989587742E+03  0.12869524991E+03 0.  0.
          5    1    4    4  502    0  0.81582338754E+01  0.28228027470E+02 -0.51887020806E+02  0.59814139156E+02  0.47000000000E+01 0. -1.
         -5    1    4    4    0  502 -0.28559350284E+02  0.11971149776E+02  0.69679946011E+02  0.76395875489E+02  0.47000000000E+01 0. -1.
          5    1    5    5  503    0  0.23713317434E+02 -0.84935821446E+02 -0.34186432860E+02  0.94695392603E+02  0.47000000000E+01 0. -1.
         -5    1    5    5    0  503 -0.33122010251E+01  0.44736644200E+02  0.29420770859E+01  0.45200484815E+02  0.47000000000E+01 0. -1.
<mgrwt>
<rscale>  0 0.27577803E+03</rscale>
<asrwt>0</asrwt>
<pdfrwt beam="1">  1        2 0.20204189E-01 0.27577803E+03</pdfrwt>
<pdfrwt beam="2">  1       -2 0.22273640E-01 0.27577803E+03</pdfrwt>
<totfact> 0.47528034E+03</totfact>
</mgrwt>
</event>
<event>
 9    1  0.2074770E-002  0.2772779E+03  0.7818608E-02  0.1097185E+00
         -2   -1    0    0    0  501 -0.00000000000E+00  0.00000000000E+00  0.21800733352E+02  0.21800733352E+02  0.00000000000E+00 0.  1.
          2   -1    0    0  501    0  0.00000000000E+00 -0.00000000000E+00 -0.88165639452E+03  0.88165639452E+03  0.00000000000E+00 0.  1.
         36    2    1    2    0    0  0.00000000000E+00  0.00000000000E+00 -0.85985566116E+03  0.90345712787E+03  0.27727788203E+03 0.  0.
         25    2    3    3    0    0 -0.64818492382E+01  0.43880051003E+02 -0.58051072522E+03  0.59497155250E+03  0.12260086843E+03 0.  0.
         25    2    3    3    0    0  0.64818492382E+01 -0.43880051003E+02 -0.27934493594E+03  0.30848557537E+03  0.12313522538E+03 0.  0.
          5    1    4    4  502    0 -0.63746013991E+02  0.30000870320E+02 -0.28596428270E+03  0.29455265659E+03  0.47000000000E+01 0. -1.
         -5    1    4    4    0  502  0.57264164753E+02  0.13879180683E+02 -0.29454644252E+03  0.30041889591E+03  0.47000000000E+01 0. -1.
          5    1    5    5  503    0  0.84338977443E+01  0.32101870263E+02 -0.21968305760E+02  0.40079385768E+02  0.47000000000E+01 0.  1.
         -5    1    5    5    0  503 -0.19520485062E+01 -0.75981921266E+02 -0.25737663018E+03  0.26840618960E+03  0.47000000000E+01 0.  1.
<mgrwt>
<rscale>  0 0.27727788E+03</rscale>
<asrwt>0</asrwt>
<pdfrwt beam="1">  1        2 0.13563944E+00 0.27727788E+03</pdfrwt>
<pdfrwt beam="2">  1       -2 0.33539591E-02 0.27727788E+03</pdfrwt>
<totfact> 0.11163745E+04</totfact>
</mgrwt>
</event>
<event>
 9    1  0.2074770E-002  0.2753058E+03  0.7818608E-02  0.1098281E+00
         -3   -1    0    0    0  501 -0.00000000000E+00  0.00000000000E+00  0.11744998044E+04  0.11744998044E+04  0.00000000000E+00 0.  1.
          3   -1    0    0  501    0  0.00000000000E+00 -0.00000000000E+00 -0.16133100016E+02  0.16133100016E+02  0.00000000000E+00 0.  1.
         36    2    1    2    0    0 -0.71054273576E-14  0.00000000000E+00  0.11583667044E+04  0.11906329045E+04  0.27530581406E+03 0.  0.
         25    2    3    3    0    0  0.55114597254E+02 -0.21853573658E+02  0.64094726770E+03  0.65698165921E+03  0.13151540997E+03 0.  0.
         25    2    3    3    0    0 -0.55114597254E+02  0.21853573658E+02  0.51741943672E+03  0.53365124524E+03  0.11638548249E+03 0.  0.
          5    1    4    4  502    0  0.89060817144E+02 -0.21510282673E+02  0.28531742062E+03  0.29970425743E+03  0.47000000000E+01 0. -1.
         -5    1    4    4    0  502 -0.33946219891E+02 -0.34329098564E+00  0.35562984708E+03  0.35727740178E+03  0.47000000000E+01 0. -1.
          5    1    5    5  503    0 -0.89830438869E+02  0.42880024954E+01  0.32287537773E+03  0.33519918594E+03  0.47000000000E+01 0.  1.
         -5    1    5    5    0  503  0.34715841615E+02  0.17565571163E+02  0.19454405900E+03  0.19845205930E+03  0.47000000000E+01 0.  1.
<mgrwt>
<rscale>  0 0.27530581E+03</rscale>
<asrwt>0</asrwt>
<pdfrwt beam="1">  1        3 0.24820163E-02 0.27530581E+03</pdfrwt>
<pdfrwt beam="2">  1       -3 0.18069221E+00 0.27530581E+03</pdfrwt>
<totfact> 0.36481455E+02</totfact>
</mgrwt>
</event>
<event>
 9    1  0.2074770E-002  0.2753960E+03  0.7818608E-02  0.1098230E+00
          3   -1    0    0  501    0  0.00000000000E+00  0.00000000000E+00  0.41055420522E+03  0.41055420522E+03  0.00000000000E+00 0. -1.
         -3   -1    0    0    0  501 -0.00000000000E+00 -0.00000000000E+00 -0.46183284217E+02  0.46183284217E+02  0.00000000000E+00 0. -1.
         36    2    1    2    0    0  0.71054273576E-14  0.35527136788E-14  0.36437092100E+03  0.45673748944E+03  0.27539601701E+03 0.  0.
         25    2    3    3    0    0  0.44766873836E+02 -0.12575019713E+02  0.12157168787E+03  0.17901548567E+03  0.12290103622E+03 0.  0.
         25    2    3    3    0    0 -0.44766873836E+02  0.12575019713E+02  0.24279923313E+03  0.27772200377E+03  0.12655370265E+03 0.  0.
          5    1    4    4  502    0  0.43234175314E+02  0.27910861997E+02  0.12771105656E+03  0.13776942367E+03  0.47000000000E+01 0.  1.
         -5    1    4    4    0  502  0.15326985224E+01 -0.40485881710E+02 -0.61393686834E+01  0.41246061999E+02  0.47000000000E+01 0.  1.
          5    1    5    5  503    0 -0.75341884587E+02 -0.25291575714E+02  0.18866532955E+03  0.20477490068E+03  0.47000000000E+01 0. -1.
         -5    1    5    5    0  503  0.30575010751E+02  0.37866595426E+02  0.54133903583E+02  0.72947103087E+02  0.47000000000E+01 0. -1.
<mgrwt>
<rscale>  0 0.27539602E+03</rscale>
<asrwt>0</asrwt>
<pdfrwt beam="1">  1        3 0.63162183E-01 0.27539602E+03</pdfrwt>
<pdfrwt beam="2">  1       -3 0.71051209E-02 0.27539602E+03</pdfrwt>
<totfact> 0.81449554E+02</totfact>
</mgrwt>
</event>
<event>
 9    1  0.2074770E-002  0.2748434E+03  0.7818608E-02  0.1098539E+00
          2   -1    0    0  501    0  0.00000000000E+00  0.00000000000E+00  0.13239733882E+04  0.13239733882E+04  0.00000000000E+00 0.  1.
         -2   -1    0    0    0  501 -0.00000000000E+00 -0.00000000000E+00 -0.14263673110E+02  0.14263673110E+02  0.00000000000E+00 0.  1.
         36    2    1    2    0    0 -0.35527136788E-14  0.00000000000E+00  0.13097097151E+04  0.13382370614E+04  0.27484339989E+03 0.  0.
         25    2    3    3    0    0  0.24822517887E+01  0.57332428676E+02  0.70710393981E+03  0.71996497785E+03  0.12272089752E+03 0.  0.
         25    2    3    3    0    0 -0.24822517887E+01 -0.57332428676E+02  0.60260577532E+03  0.61827208350E+03  0.12583115604E+03 0.  0.
          5    1    4    4  502    0  0.33559403073E+02  0.52766841741E+02  0.66107005196E+03  0.66403785789E+03  0.47000000000E+01 0.  1.
         -5    1    4    4    0  502 -0.31077151284E+02  0.45655869353E+01  0.46033887854E+02  0.55927119959E+02  0.47000000000E+01 0.  1.
          5    1    5    5  503    0  0.40184661040E+02  0.82506686007E+01  0.38064815587E+03  0.38288116835E+03  0.47000000000E+01 0.  1.
         -5    1    5    5    0  503 -0.42666912829E+02 -0.65583097277E+02  0.22195761945E+03  0.23539091514E+03  0.47000000000E+01 0.  1.
<mgrwt>
<rscale>  0 0.27484340E+03</rscale>
<asrwt>0</asrwt>
<pdfrwt beam="1">  1        2 0.20368812E+00 0.27484340E+03</pdfrwt>
<pdfrwt beam="2">  1       -2 0.21944123E-02 0.27484340E+03</pdfrwt>
<totfact> 0.11463156E+04</totfact>
</mgrwt>
</event>
<event>
 9    1  0.2074770E-002  0.2753747E+03  0.7818608E-02  0.1098242E+00
          1   -1    0    0  501    0  0.00000000000E+00  0.00000000000E+00  0.11824630369E+04  0.11824630369E+04  0.00000000000E+00 0. -1.
         -1   -1    0    0    0  501 -0.00000000000E+00 -0.00000000000E+00 -0.16032468665E+02  0.16032468665E+02  0.00000000000E+00 0. -1.
         36    2    1    2    0    0  0.00000000000E+00  0.44408920985E-15  0.11664305683E+04  0.11984955056E+04  0.27537466541E+03 0.  0.
         25    2    3    3    0    0 -0.37737751491E+02 -0.33262253564E+01  0.75821340721E+03  0.76860588857E+03  0.12013425577E+03 0.  0.
         25    2    3    3    0    0  0.37737751491E+02  0.33262253564E+01  0.40821716106E+03  0.42988961703E+03  0.12933920745E+03 0.  0.
          5    1    4    4  502    0 -0.90683790290E+01  0.27575848922E+01  0.79869466083E+00  0.10609791978E+02  0.47000000000E+01 0.  1.
         -5    1    4    4    0  502 -0.28669372462E+02 -0.60838102486E+01  0.75741471255E+03  0.75799609659E+03  0.47000000000E+01 0.  1.
          5    1    5    5  503    0  0.38291687695E+02  0.18514509704E+02  0.41143886818E+03  0.41365815919E+03  0.47000000000E+01 0.  1.
         -5    1    5    5    0  503 -0.55393620376E+00 -0.15188284348E+02 -0.32217071214E+01  0.16231457837E+02  0.47000000000E+01 0.  1.
<mgrwt>
<rscale>  0 0.27537467E+03</rscale>
<asrwt>0</asrwt>
<pdfrwt beam="1">  1        1 0.18191732E+00 0.27537467E+03</pdfrwt>
<pdfrwt beam="2">  1       -1 0.24665346E-02 0.27537467E+03</pdfrwt>
<totfact> 0.59335612E+03</totfact>
</mgrwt>
</event>
<event>
 9    1  0.2074770E-002  0.2748533E+03  0.7818608E-02  0.1098534E+00
         -2   -1    0    0    0  501 -0.00000000000E+00  0.00000000000E+00  0.15633175119E+03  0.15633175119E+03  0.00000000000E+00 0. -1.
          2   -1    0    0  501    0  0.00000000000E+00 -0.00000000000E+00 -0.12080776301E+03  0.12080776301E+03  0.00000000000E+00 0. -1.
         36    2    1    2    0    0 -0.14210854715E-13 -0.71054273576E-14  0.35523988179E+02  0.27713951421E+03  0.27485333652E+03 0.  0.
         25    2    3    3    0    0 -0.49238828467E+02  0.44849081537E+02  0.27297138784E+02  0.14384482047E+03  0.12454033983E+03 0.  0.
         25    2    3    3    0    0  0.49238828467E+02 -0.44849081537E+02  0.82268493949E+01  0.13329469374E+03  0.11516897145E+03 0.  0.
          5    1    4    4  502    0  0.20901361466E+01  0.78260832671E+02  0.53342363919E+01  0.78610881418E+02  0.47000000000E+01 0.  1.
         -5    1    4    4    0  502 -0.51328964614E+02 -0.33411751134E+02  0.21962902392E+02  0.65233939048E+02  0.47000000000E+01 0.  1.
          5    1    5    5  503    0  0.44664641104E+02 -0.14764563442E+01 -0.45490683626E+02  0.63942180015E+02  0.47000000000E+01 0.  1.
         -5    1    5    5    0  503  0.45741873629E+01 -0.43372625193E+02  0.53717533021E+02  0.69352513725E+02  0.47000000000E+01 0.  1.
<mgrwt>
<rscale>  0 0.27485334E+03</rscale>
<asrwt>0</asrwt>
<pdfrwt beam="1">  1        2 0.18585810E-01 0.27485334E+03</pdfrwt>
<pdfrwt beam="2">  1       -2 0.24051039E-01 0.27485334E+03</pdfrwt>
<totfact> 0.45750364E+03</totfact>
</mgrwt>
</event>
<event>
 9    1  0.2074770E-002  0.2744614E+03  0.7818608E-02  0.1098753E+00
         -2   -1    0    0    0  501 -0.00000000000E+00  0.00000000000E+00  0.13658920891E+02  0.13658920891E+02  0.00000000000E+00 0.  1.
          2   -1    0    0  501    0  0.00000000000E+00 -0.00000000000E+00 -0.13787516296E+04  0.13787516296E+04  0.00000000000E+00 0.  1.
         36    2    1    2    0    0  0.00000000000E+00  0.00000000000E+00 -0.13650927087E+04  0.13924105505E+04  0.27446135930E+03 0.  0.
         25    2    3    3    0    0  0.98755691656E+01  0.59959052480E+02 -0.78518121157E+03  0.79686356405E+03  0.12161163541E+03 0.  0.
         25    2    3    3    0    0 -0.98755691656E+01 -0.59959052480E+02 -0.57991149716E+03  0.59554698646E+03  0.12118685450E+03 0.  0.
          5    1    4    4  502    0 -0.17325406716E+02 -0.29900935127E+02 -0.11653845065E+03  0.12164512370E+03  0.47000000000E+01 0.  1.
         -5    1    4    4    0  502  0.27200975882E+02  0.89859987607E+02 -0.66864276092E+03  0.67521844035E+03  0.47000000000E+01 0.  1.
          5    1    5    5  503    0 -0.23121047051E+02  0.27326375995E+02 -0.78541240630E+02  0.86441483799E+02  0.47000000000E+01 0. -1.
         -5    1    5    5    0  503  0.13245477885E+02 -0.87285428474E+02 -0.50137025653E+03  0.50910550266E+03  0.47000000000E+01 0. -1.
<mgrwt>
<rscale>  0 0.27446136E+03</rscale>
<asrwt>0</asrwt>
<pdfrwt beam="1">  1        2 0.21211560E+00 0.27446136E+03</pdfrwt>
<pdfrwt beam="2">  1       -2 0.21013728E-02 0.27446136E+03</pdfrwt>
<totfact> 0.11402691E+04</totfact>
</mgrwt>
</event>
<event>
 9    1  0.2074770E-002  0.2734293E+03  0.7818608E-02  0.1099333E+00
         -1   -1    0    0    0  501 -0.00000000000E+00  0.00000000000E+00  0.49480266782E+02  0.49480266782E+02  0.00000000000E+00 0.  1.
          1   -1    0    0  501    0  0.00000000000E+00 -0.00000000000E+00 -0.37774436491E+03  0.37774436491E+03  0.00000000000E+00 0.  1.
         36    2    1    2    0    0  0.00000000000E+00  0.35527136788E-14 -0.32826409812E+03  0.42722463169E+03  0.27342927386E+03 0.  0.
         25    2    3    3    0    0  0.34407796303E+02  0.18065407843E+02 -0.13653665675E+03  0.19124789938E+03  0.12815320898E+03 0.  0.
         25    2    3    3    0    0 -0.34407796303E+02 -0.18065407843E+02 -0.19172744138E+03  0.23597673231E+03  0.13196723461E+03 0.  0.
          5    1    4    4  502    0  0.77296588222E+02 -0.15782248646E+02 -0.78109856835E+02  0.11111742284E+03  0.47000000000E+01 0. -1.
         -5    1    4    4    0  502 -0.42888791920E+02  0.33847656490E+02 -0.58426799914E+02  0.80130476539E+02  0.47000000000E+01 0. -1.
          5    1    5    5  503    0 -0.74990083696E+02 -0.45255467890E+02 -0.11057633872E+03  0.14114101711E+03  0.47000000000E+01 0. -1.
         -5    1    5    5    0  503  0.40582287394E+02  0.27190060046E+02 -0.81151102659E+02  0.94835715203E+02  0.47000000000E+01 0. -1.
<mgrwt>
<rscale>  0 0.27342927E+03</rscale>
<asrwt>0</asrwt>
<pdfrwt beam="1">  1        1 0.58114518E-01 0.27342927E+03</pdfrwt>
<pdfrwt beam="2">  1       -1 0.76123487E-02 0.27342927E+03</pdfrwt>
<totfact> 0.60248756E+03</totfact>
</mgrwt>
</event>
<event>
 9    1  0.2074770E-002  0.2751905E+03  0.7818608E-02  0.1098345E+00
          1   -1    0    0  501    0  0.00000000000E+00  0.00000000000E+00  0.81875085666E+03  0.81875085666E+03  0.00000000000E+00 0.  1.
         -1   -1    0    0    0  501 -0.00000000000E+00 -0.00000000000E+00 -0.23123576984E+02  0.23123576984E+02  0.00000000000E+00 0.  1.
         36    2    1    2    0    0  0.00000000000E+00 -0.53290705182E-14  0.79562727967E+03  0.84187443364E+03  0.27519046833E+03 0.  0.
         25    2    3    3    0    0  0.32321595467E+02  0.13198109016E+02  0.52175251948E+03  0.53746392851E+03  0.12418899811E+03 0.  0.
         25    2    3    3    0    0 -0.32321595467E+02 -0.13198109016E+02  0.27387476019E+03  0.30441050513E+03  0.12821659700E+03 0.  0.
          5    1    4    4  502    0  0.73507527382E+02  0.33465076979E+02  0.28519588584E+03  0.29644907026E+03  0.47000000000E+01 0.  1.
         -5    1    4    4    0  502 -0.41185931916E+02 -0.20266967963E+02  0.23655663364E+03  0.24101485825E+03  0.47000000000E+01 0.  1.
          5    1    5    5  503    0  0.49442128607E+02  0.63768870789E-01  0.93576517821E+02  0.10593952442E+03  0.47000000000E+01 0.  1.
         -5    1    5    5    0  503 -0.81763724074E+02 -0.13261877887E+02  0.18029824237E+03  0.19847098070E+03  0.47000000000E+01 0.  1.
<mgrwt>
<rscale>  0 0.27519047E+03</rscale>
<asrwt>0</asrwt>
<pdfrwt beam="1">  1        1 0.12596165E+00 0.27519047E+03</pdfrwt>
<pdfrwt beam="2">  1       -1 0.35574740E-02 0.27519047E+03</pdfrwt>
<totfact> 0.64977721E+03</totfact>
</mgrwt>
</event>
<event>
 9    1  0.2074770E-002  0.2742775E+03  0.7818608E-02  0.1098856E+00
         -2   -1    0    0    0  501 -0.00000000000E+00  0.00000000000E+00  0.60658141497E+02  0.60658141497E+02  0.00000000000E+00 0.  1.
          2   -1    0    0  501    0  0.00000000000E+00 -0.00000000000E+00 -0.31004959663E+03  0.31004959663E+03  0.00000000000E+00 0.  1.
         36    2    1    2    0    0  0.00000000000E+00 -0.71054273576E-14 -0.24939145514E+03  0.37070773813E+03  0.27427746757E+03 0.  0.
         25    2    3    3    0    0  0.21117234063E+02 -0.41615626513E+02 -0.80188809162E+02  0.15361553263E+03  0.12243238463E+03 0.  0.
         25    2    3    3    0    0 -0.21117234063E+02  0.41615626513E+02 -0.16920264597E+03  0.21709220550E+03  0.12775637886E+03 0.  0.
          5    1    4    4  502    0  0.25360448843E+02 -0.83854836807E+02 -0.47020337414E+02  0.99537872953E+02  0.47000000000E+01 0.  1.
         -5    1    4    4    0  502 -0.42432147798E+01  0.42239210294E+02 -0.33168471748E+02  0.54077659676E+02  0.47000000000E+01 0.  1.
          5    1    5    5  503    0  0.19406047058E+02  0.77050440158E+02 -0.80357893937E+02  0.11310546454E+03  0.47000000000E+01 0. -1.
         -5    1    5    5    0  503 -0.40523281121E+02 -0.35434813645E+02 -0.88844752038E+02  0.10398674096E+03  0.47000000000E+01 0. -1.
<mgrwt>
<rscale>  0 0.27427747E+03</rscale>
<asrwt>0</asrwt>
<pdfrwt beam="1">  1        2 0.47699937E-01 0.27427747E+03</pdfrwt>
<pdfrwt beam="2">  1       -2 0.93320219E-02 0.27427747E+03</pdfrwt>
<totfact> 0.77573516E+03</totfact>
</mgrwt>
</event>
<event>
 9    1  0.2074770E-002  0.2746508E+03  0.7818608E-02  0.1098647E+00
          2   -1    0    0  501    0  0.00000000000E+00  0.00000000000E+00  0.45239820643E+03  0.45239820643E+03  0.00000000000E+00 0.  1.
         -2   -1    0    0    0  501 -0.00000000000E+00 -0.00000000000E+00 -0.41685099813E+02  0.41685099813E+02  0.00000000000E+00 0.  1.
         36    2    1    2    0    0  0.14210854715E-13  0.00000000000E+00  0.41071310662E+03  0.49408330625E+03  0.27465079203E+03 0.  0.
         25    2    3    3    0    0 -0.55490707200E+02  0.63388869142E+01  0.23413010157E+03  0.27068698311E+03  0.12383512545E+03 0.  0.
         25    2    3    3    0    0  0.55490707200E+02 -0.63388869142E+01  0.17658300505E+03  0.22339632313E+03  0.12491981205E+03 0.  0.
          5    1    4    4  502    0 -0.48877843257E+02  0.37698450344E+02  0.39621031169E+02  0.73499202926E+02  0.47000000000E+01 0. -1.
         -5    1    4    4    0  502 -0.66128639434E+01 -0.31359563430E+02  0.19450907040E+03  0.19718778019E+03  0.47000000000E+01 0. -1.
          5    1    5    5  503    0  0.30747579553E+02 -0.65503804879E+02  0.95531318462E+02  0.11993533637E+03  0.47000000000E+01 0. -1.
         -5    1    5    5    0  503  0.24743127648E+02  0.59164917965E+02  0.81051686588E+02  0.10346098677E+03  0.47000000000E+01 0. -1.
<mgrwt>
<rscale>  0 0.27465079E+03</rscale>
<asrwt>0</asrwt>
<pdfrwt beam="1">  1        2 0.69599721E-01 0.27465079E+03</pdfrwt>
<pdfrwt beam="2">  1       -2 0.64130926E-02 0.27465079E+03</pdfrwt>
<totfact> 0.92425881E+03</totfact>
</mgrwt>
</event>
<event>
 9    1  0.2074770E-002  0.2738417E+03  0.7818608E-02  0.1099101E+00
          4   -1    0    0  501    0  0.00000000000E+00  0.00000000000E+00  0.11694382203E+04  0.11694382203E+04  0.00000000000E+00 0. -1.
         -4   -1    0    0    0  501 -0.00000000000E+00 -0.00000000000E+00 -0.16031045108E+02  0.16031045108E+02  0.00000000000E+00 0. -1.
         36    2    1    2    0    0  0.00000000000E+00  0.00000000000E+00  0.11534071752E+04  0.11854692654E+04  0.27384168317E+03 0.  0.
         25    2    3    3    0    0  0.16555984454E+02 -0.49924588815E+02  0.65494635086E+03  0.66914183419E+03  0.12660768763E+03 0.  0.
         25    2    3    3    0    0 -0.16555984454E+02  0.49924588815E+02  0.49846082437E+03  0.51632743125E+03  0.12395264276E+03 0.  0.
          5    1    4    4  502    0  0.54285369956E+02 -0.97181510666E+01  0.52492222603E+03  0.52783214873E+03  0.47000000000E+01 0.  1.
         -5    1    4    4    0  502 -0.37729385503E+02 -0.40206437748E+02  0.13002412483E+03  0.14130968546E+03  0.47000000000E+01 0.  1.
          5    1    5    5  503    0  0.69303822676E+01  0.85961587891E+02  0.25992703277E+03  0.27390067024E+03  0.47000000000E+01 0.  1.
         -5    1    5    5    0  503 -0.23486366721E+02 -0.36036999077E+02  0.23853379159E+03  0.24242676101E+03  0.47000000000E+01 0.  1.
<mgrwt>
<rscale>  0 0.27384168E+03</rscale>
<asrwt>0</asrwt>
<pdfrwt beam="1">  1        4 0.17991351E+00 0.27384168E+03</pdfrwt>
<pdfrwt beam="2">  1       -4 0.24663155E-02 0.27384168E+03</pdfrwt>
<totfact> 0.26674397E+02</totfact>
</mgrwt>
</event>
<event>
 9    1  0.2074770E-002  0.2747718E+03  0.7818608E-02  0.1098579E+00
          2   -1    0    0  501    0  0.00000000000E+00  0.00000000000E+00  0.96948427876E+03  0.96948427876E+03  0.00000000000E+00 0. -1.
         -2   -1    0    0    0  501 -0.00000000000E+00 -0.00000000000E+00 -0.19468992576E+02  0.19468992576E+02  0.00000000000E+00 0. -1.
         36    2    1    2    0    0  0.00000000000E+00  0.00000000000E+00  0.95001528618E+03  0.98895327133E+03  0.27477177603E+03 0.  0.
         25    2    3    3    0    0  0.20208021764E+02  0.26823908312E+02  0.29937612580E+03  0.32689490879E+03  0.12691071860E+03 0.  0.
         25    2    3    3    0    0 -0.20208021764E+02 -0.26823908312E+02  0.65063916038E+03  0.66205836254E+03  0.11773730160E+03 0.  0.
          5    1    4    4  502    0  0.63500624302E+02  0.34638404413E+02  0.25136304464E+03  0.26160584580E+03  0.47000000000E+01 0. -1.
         -5    1    4    4    0  502 -0.43292602537E+02 -0.78144961014E+01  0.48013081161E+02  0.65289062991E+02  0.47000000000E+01 0. -1.
          5    1    5    5  503    0 -0.38495971941E+02  0.37610319006E+02  0.33802217927E+03  0.34231207929E+03  0.47000000000E+01 0. -1.
         -5    1    5    5    0  503  0.18287950177E+02 -0.64434227318E+02  0.31261698112E+03  0.31974628325E+03  0.47000000000E+01 0. -1.
<mgrwt>
<rscale>  0 0.27477178E+03</rscale>
<asrwt>0</asrwt>
<pdfrwt beam="1">  1        2 0.14915139E+00 0.27477178E+03</pdfrwt>
<pdfrwt beam="2">  1       -2 0.29952304E-02 0.27477178E+03</pdfrwt>
<totfact> 0.11614531E+04</totfact>
</mgrwt>
</event>
<event>
 9    1  0.2074770E-002  0.2698557E+03  0.7818608E-02  0.1101362E+00
          2   -1    0    0  501    0  0.00000000000E+00  0.00000000000E+00  0.50265492922E+03  0.50265492922E+03  0.00000000000E+00 0. -1.
         -2   -1    0    0    0  501 -0.00000000000E+00 -0.00000000000E+00 -0.36218741199E+02  0.36218741199E+02  0.00000000000E+00 0. -1.
         36    2    1    2    0    0 -0.71054273576E-14  0.17763568394E-14  0.46643618803E+03  0.53887367042E+03  0.26985573030E+03 0.  0.
         25    2    3    3    0    0  0.19853564054E+02 -0.68015824628E+01  0.20287964616E+03  0.24681255238E+03  0.13898150833E+03 0.  0.
         25    2    3    3    0    0 -0.19853564054E+02  0.68015824628E+01  0.26355654186E+03  0.29206111804E+03  0.12408553656E+03 0.  0.
          5    1    4    4  502    0  0.60303731282E+02 -0.32494359415E+02  0.18164302138E+03  0.19418728233E+03  0.47000000000E+01 0.  1.
         -5    1    4    4    0  502 -0.40450167228E+02  0.25692776952E+02  0.21236624781E+02  0.52625270055E+02  0.47000000000E+01 0.  1.
          5    1    5    5  503    0  0.51293979317E+02 -0.10272933121E+02  0.11140190177E+03  0.12316281576E+03  0.47000000000E+01 0. -1.
         -5    1    5    5    0  503 -0.71147543371E+02  0.17074515583E+02  0.15215464009E+03  0.16889830228E+03  0.47000000000E+01 0. -1.
<mgrwt>
<rscale>  0 0.26985573E+03</rscale>
<asrwt>0</asrwt>
<pdfrwt beam="1">  1        2 0.77331523E-01 0.26985573E+03</pdfrwt>
<pdfrwt beam="2">  1       -2 0.55721144E-02 0.26985573E+03</pdfrwt>
<totfact> 0.10193679E+04</totfact>
</mgrwt>
</event>
<event>
 9    1  0.2074770E-002  0.2751033E+03  0.7818608E-02  0.1098394E+00
         -2   -1    0    0    0  501 -0.00000000000E+00  0.00000000000E+00  0.59207267475E+02  0.59207267475E+02  0.00000000000E+00 0.  1.
          2   -1    0    0  501    0  0.00000000000E+00 -0.00000000000E+00 -0.31956311310E+03  0.31956311310E+03  0.00000000000E+00 0.  1.
         36    2    1    2    0    0  0.00000000000E+00  0.71054273576E-14 -0.26035584563E+03  0.37877038058E+03  0.27510331668E+03 0.  0.
         25    2    3    3    0    0 -0.23809717235E+02 -0.52867196100E+02 -0.14287326169E+03  0.19976700001E+03  0.12701276443E+03 0.  0.
         25    2    3    3    0    0  0.23809717235E+02  0.52867196100E+02 -0.11748258394E+03  0.17900338057E+03  0.12197626682E+03 0.  0.
          5    1    4    4  502    0  0.11375655667E+02 -0.42893762231E+01 -0.13885703711E+03  0.13946745515E+03  0.47000000000E+01 0.  1.
         -5    1    4    4    0  502 -0.35185372902E+02 -0.48577819877E+02 -0.40162245747E+01  0.60299544858E+02  0.47000000000E+01 0.  1.
          5    1    5    5  503    0  0.53696559414E+02  0.32325705805E+01 -0.73830383232E+01  0.54501094121E+02  0.47000000000E+01 0. -1.
         -5    1    5    5    0  503 -0.29886842180E+02  0.49634625519E+02 -0.11009954562E+03  0.12450228645E+03  0.47000000000E+01 0. -1.
<mgrwt>
<rscale>  0 0.27510332E+03</rscale>
<asrwt>0</asrwt>
<pdfrwt beam="1">  1        2 0.49163557E-01 0.27510332E+03</pdfrwt>
<pdfrwt beam="2">  1       -2 0.91088102E-02 0.27510332E+03</pdfrwt>
<totfact> 0.78027137E+03</totfact>
</mgrwt>
</event>
<event>
 9    1  0.2074770E-002  0.2753556E+03  0.7818608E-02  0.1098253E+00
         -2   -1    0    0    0  501 -0.00000000000E+00  0.00000000000E+00  0.11498717591E+03  0.11498717591E+03  0.00000000000E+00 0.  1.
          2   -1    0    0  501    0  0.00000000000E+00 -0.00000000000E+00 -0.16484603795E+03  0.16484603795E+03  0.00000000000E+00 0.  1.
         36    2    1    2    0    0  0.14210854715E-13  0.00000000000E+00 -0.49858862045E+02  0.27983321386E+03  0.27535562725E+03 0.  0.
         25    2    3    3    0    0 -0.31990921905E+02 -0.51556777899E+02 -0.24649485515E+02  0.13884473543E+03  0.12242852196E+03 0.  0.
         25    2    3    3    0    0  0.31990921905E+02  0.51556777899E+02 -0.25209376530E+02  0.14098847843E+03  0.12474260681E+03 0.  0.
          5    1    4    4  502    0  0.40083505987E+02 -0.30530564280E+02  0.16338179972E+02  0.53177334761E+02  0.47000000000E+01 0. -1.
         -5    1    4    4    0  502 -0.72074427891E+02 -0.21026213619E+02 -0.40987665487E+02  0.85667400667E+02  0.47000000000E+01 0. -1.
          5    1    5    5  503    0 -0.35951884138E+02  0.38670389000E+02  0.21715036373E+02  0.57284987241E+02  0.47000000000E+01 0.  1.
         -5    1    5    5    0  503  0.67942806043E+02  0.12886388899E+02 -0.46924412903E+02  0.83703491194E+02  0.47000000000E+01 0.  1.
<mgrwt>
<rscale>  0 0.27535563E+03</rscale>
<asrwt>0</asrwt>
<pdfrwt beam="1">  1        2 0.25360929E-01 0.27535563E+03</pdfrwt>
<pdfrwt beam="2">  1       -2 0.17690335E-01 0.27535563E+03</pdfrwt>
<totfact> 0.54503697E+03</totfact>
</mgrwt>
</event>
<event>
 9    1  0.2074770E-002  0.2743496E+03  0.7818608E-02  0.1098816E+00
         -1   -1    0    0    0  501 -0.00000000000E+00  0.00000000000E+00  0.40325512615E+02  0.40325512615E+02  0.00000000000E+00 0. -1.
          1   -1    0    0  501    0  0.00000000000E+00 -0.00000000000E+00 -0.46662591291E+03  0.46662591291E+03  0.00000000000E+00 0. -1.
         36    2    1    2    0    0  0.35527136788E-14 -0.71054273576E-14 -0.42630040030E+03  0.50695142553E+03  0.27434962466E+03 0.  0.
         25    2    3    3    0    0  0.48733044398E+01  0.42486571879E+02 -0.25314293652E+03  0.28895631999E+03  0.13261052245E+03 0.  0.
         25    2    3    3    0    0 -0.48733044398E+01 -0.42486571879E+02 -0.17315746377E+03  0.21799510553E+03  0.12533754781E+03 0.  0.
          5    1    4    4  502    0  0.10524034172E+02  0.74736588058E+01 -0.25280575595E+03  0.25317869403E+03  0.47000000000E+01 0.  1.
         -5    1    4    4    0  502 -0.56507297324E+01  0.35012913073E+02 -0.33718057365E+00  0.35777625957E+02  0.47000000000E+01 0.  1.
          5    1    5    5  503    0 -0.20560561124E+02 -0.77180929697E+02 -0.15730492208E+03  0.17648388338E+03  0.47000000000E+01 0.  1.
         -5    1    5    5    0  503  0.15687256684E+02  0.34694357818E+02 -0.15852541693E+02  0.41511222155E+02  0.47000000000E+01 0.  1.
<mgrwt>
<rscale>  0 0.27434962E+03</rscale>
<asrwt>0</asrwt>
<pdfrwt beam="1">  1        1 0.71788608E-01 0.27434962E+03</pdfrwt>
<pdfrwt beam="2">  1       -1 0.62039245E-02 0.27434962E+03</pdfrwt>
<totfact> 0.62556009E+03</totfact>
</mgrwt>
</event>
<event>
 9    1  0.2074770E-002  0.2735174E+03  0.7818608E-02  0.1099283E+00
         -2   -1    0    0    0  501 -0.00000000000E+00  0.00000000000E+00  0.25202481154E+02  0.25202481154E+02  0.00000000000E+00 0.  1.
          2   -1    0    0  501    0  0.00000000000E+00 -0.00000000000E+00 -0.74210738897E+03  0.74210738897E+03  0.00000000000E+00 0.  1.
         36    2    1    2    0    0  0.71054273576E-14  0.00000000000E+00 -0.71690490781E+03  0.76730987012E+03  0.27351743992E+03 0.  0.
         25    2    3    3    0    0 -0.44528736278E+02 -0.23321973005E+01 -0.48667781839E+03  0.50380306799E+03  0.12236823485E+03 0.  0.
         25    2    3    3    0    0  0.44528736278E+02  0.23321973005E+01 -0.23022708942E+03  0.26350680214E+03  0.12017934335E+03 0.  0.
          5    1    4    4  502    0 -0.59428685580E+02 -0.14799519764E+02 -0.10532810681E+03  0.12192987550E+03  0.47000000000E+01 0.  1.
         -5    1    4    4    0  502  0.14899949301E+02  0.12467322464E+02 -0.38134971158E+03  0.38187319249E+03  0.47000000000E+01 0.  1.
          5    1    5    5  503    0 -0.34075056045E+02  0.42018272620E+01 -0.13770170959E+03  0.14199512534E+03  0.47000000000E+01 0.  1.
         -5    1    5    5    0  503  0.78603792323E+02 -0.18696299615E+01 -0.92525379830E+02  0.12151167679E+03  0.47000000000E+01 0.  1.
<mgrwt>
<rscale>  0 0.27351744E+03</rscale>
<asrwt>0</asrwt>
<pdfrwt beam="1">  1        2 0.11417039E+00 0.27351744E+03</pdfrwt>
<pdfrwt beam="2">  1       -2 0.38773041E-02 0.27351744E+03</pdfrwt>
<totfact> 0.11195058E+04</totfact>
</mgrwt>
</event>
<event>
 9    1  0.2074770E-002  0.2737647E+03  0.7818608E-02  0.1099144E+00
          2   -1    0    0  501    0  0.00000000000E+00  0.00000000000E+00  0.11723699958E+03  0.11723699958E+03  0.00000000000E+00 0.  1.
         -2   -1    0    0    0  501 -0.00000000000E+00 -0.00000000000E+00 -0.15981962465E+03  0.15981962465E+03  0.00000000000E+00 0.  1.
         36    2    1    2    0    0  0.71054273576E-14  0.00000000000E+00 -0.42582625069E+02  0.27705662423E+03  0.27376466732E+03 0.  0.
         25    2    3    3    0    0  0.32942285243E+02 -0.27587767542E+02  0.70721834467E+00  0.13742232583E+03  0.13053013600E+03 0.  0.
         25    2    3    3    0    0 -0.32942285243E+02  0.27587767542E+02 -0.43289843414E+02  0.13963429840E+03  0.12560831052E+03 0.  0.
          5    1    4    4  502    0  0.78198174213E+02 -0.35381132529E+00 -0.19407667377E+02  0.80708284493E+02  0.47000000000E+01 0.  1.
         -5    1    4    4    0  502 -0.45255888970E+02 -0.27233956216E+02  0.20114885722E+02  0.56714041341E+02  0.47000000000E+01 0.  1.
          5    1    5    5  503    0 -0.30598096354E+02 -0.47806006661E+02 -0.14599884457E+02  0.58795445397E+02  0.47000000000E+01 0. -1.
         -5    1    5    5    0  503 -0.23441888898E+01  0.75393774202E+02 -0.28689958957E+02  0.80838853004E+02  0.47000000000E+01 0. -1.
<mgrwt>
<rscale>  0 0.27376467E+03</rscale>
<asrwt>0</asrwt>
<pdfrwt beam="1">  1        2 0.18036462E-01 0.27376467E+03</pdfrwt>
<pdfrwt beam="2">  1       -2 0.24587634E-01 0.27376467E+03</pdfrwt>
<totfact> 0.45559704E+03</totfact>
</mgrwt>
</event>
<event>
 9    1  0.2074770E-002  0.2750163E+03  0.7818608E-02  0.1098442E+00
          2   -1    0    0  501    0  0.00000000000E+00  0.00000000000E+00  0.79923522719E+03  0.79923522719E+03  0.00000000000E+00 0. -1.
         -2   -1    0    0    0  501 -0.00000000000E+00 -0.00000000000E+00 -0.23658234119E+02  0.23658234119E+02  0.00000000000E+00 0. -1.
         36    2    1    2    0    0  0.00000000000E+00  0.71054273576E-14  0.77557699307E+03  0.82289346131E+03  0.27501632040E+03 0.  0.
         25    2    3    3    0    0  0.24884328349E+02 -0.16970278151E+02  0.23154340697E+03  0.26363509323E+03  0.12240871266E+03 0.  0.
         25    2    3    3    0    0 -0.24884328349E+02  0.16970278151E+02  0.54403358610E+03  0.55925836808E+03  0.12605617526E+03 0.  0.
          5    1    4    4  502    0  0.34080709077E+02 -0.44579709368E+02  0.22691305420E+03  0.23379578564E+03  0.47000000000E+01 0. -1.
         -5    1    4    4    0  502 -0.91963807284E+01  0.27609431217E+02  0.46303527713E+01  0.29839307589E+02  0.47000000000E+01 0. -1.
          5    1    5    5  503    0  0.31974628281E+02  0.52552526606E+02  0.28882462825E+03  0.29534031352E+03  0.47000000000E+01 0. -1.
         -5    1    5    5    0  503 -0.56858956630E+02 -0.35582248454E+02  0.25520895785E+03  0.26391805455E+03  0.47000000000E+01 0. -1.
<mgrwt>
<rscale>  0 0.27501632E+03</rscale>
<asrwt>0</asrwt>
<pdfrwt beam="1">  1        2 0.12295924E+00 0.27501632E+03</pdfrwt>
<pdfrwt beam="2">  1       -2 0.36397289E-02 0.27501632E+03</pdfrwt>
<totfact> 0.11217782E+04</totfact>
</mgrwt>
</event>
<event>
 9    1  0.2074770E-002  0.2730340E+03  0.7818608E-02  0.1099556E+00
         -2   -1    0    0    0  501 -0.00000000000E+00  0.00000000000E+00  0.56271939803E+02  0.56271939803E+02  0.00000000000E+00 0.  1.
          2   -1    0    0  501    0  0.00000000000E+00 -0.00000000000E+00 -0.33119330748E+03  0.33119330748E+03  0.00000000000E+00 0.  1.
         36    2    1    2    0    0  0.00000000000E+00 -0.71054273576E-14 -0.27492136768E+03  0.38746524728E+03  0.27303398954E+03 0.  0.
         25    2    3    3    0    0  0.22980640978E+02 -0.17915957727E+02 -0.19574416082E+03  0.23345299142E+03  0.12383630853E+03 0.  0.
         25    2    3    3    0    0 -0.22980640978E+02  0.17915957727E+02 -0.79177206858E+02  0.15401225586E+03  0.12884740381E+03 0.  0.
          5    1    4    4  502    0 -0.19489132272E+02  0.44909425055E+02 -0.57145708237E+02  0.75394991249E+02  0.47000000000E+01 0.  1.
         -5    1    4    4    0  502  0.42469773250E+02 -0.62825382782E+02 -0.13859845258E+03  0.15805800018E+03  0.47000000000E+01 0.  1.
          5    1    5    5  503    0 -0.14885010011E+02 -0.32413656559E+02 -0.94055527902E+02  0.10070124619E+03  0.47000000000E+01 0.  1.
         -5    1    5    5    0  503 -0.80956309678E+01  0.50329614287E+02  0.14878321044E+02  0.53311009671E+02  0.47000000000E+01 0.  1.
<mgrwt>
<rscale>  0 0.27303399E+03</rscale>
<asrwt>0</asrwt>
<pdfrwt beam="1">  1        2 0.50952817E-01 0.27303399E+03</pdfrwt>
<pdfrwt beam="2">  1       -2 0.86572215E-02 0.27303399E+03</pdfrwt>
<totfact> 0.81314831E+03</totfact>
</mgrwt>
</event>
<event>
 9    1  0.2074770E-002  0.2771098E+03  0.7818608E-02  0.1097278E+00
         -1   -1    0    0    0  501 -0.00000000000E+00  0.00000000000E+00  0.20559231933E+02  0.20559231933E+02  0.00000000000E+00 0.  1.
          1   -1    0    0  501    0  0.00000000000E+00 -0.00000000000E+00 -0.93376356968E+03  0.93376356968E+03  0.00000000000E+00 0.  1.
         36    2    1    2    0    0 -0.71054273576E-14  0.00000000000E+00 -0.91320433774E+03  0.95432280161E+03  0.27710981072E+03 0.  0.
         25    2    3    3    0    0  0.59682027272E+02  0.41615904151E+02 -0.59197643581E+03  0.60970841910E+03  0.12654812488E+03 0.  0.
         25    2    3    3    0    0 -0.59682027272E+02 -0.41615904151E+02 -0.32122790194E+03  0.34461438251E+03  0.10137987864E+03 0.  0.
          5    1    4    4  502    0  0.45857026849E+02 -0.41226641735E+02 -0.24719522512E+03  0.25481379912E+03  0.47000000000E+01 0. -1.
         -5    1    4    4    0  502  0.13825000423E+02  0.82842545886E+02 -0.34478121069E+03  0.35489461998E+03  0.47000000000E+01 0. -1.
          5    1    5    5  503    0 -0.51374104336E+02  0.56640104799E+01 -0.26717849116E+03  0.27217240079E+03  0.47000000000E+01 0. -1.
         -5    1    5    5    0  503 -0.83079229359E+01 -0.47279914631E+02 -0.54049410775E+02  0.72441981725E+02  0.47000000000E+01 0. -1.
<mgrwt>
<rscale>  0 0.27710981E+03</rscale>
<asrwt>0</asrwt>
<pdfrwt beam="1">  1        1 0.14365593E+00 0.27710981E+03</pdfrwt>
<pdfrwt beam="2">  1       -1 0.31629589E-02 0.27710981E+03</pdfrwt>
<totfact> 0.62619143E+03</totfact>
</mgrwt>
</event>
<event>
 9    1  0.2074770E-002  0.2751482E+03  0.7818608E-02  0.1098369E+00
         -1   -1    0    0    0  501 -0.00000000000E+00  0.00000000000E+00  0.41935933742E+02  0.41935933742E+02  0.00000000000E+00 0. -1.
          1   -1    0    0  501    0  0.00000000000E+00 -0.00000000000E+00 -0.45132249799E+03  0.45132249799E+03  0.00000000000E+00 0. -1.
         36    2    1    2    0    0  0.00000000000E+00  0.14210854715E-13 -0.40938656425E+03  0.49325843173E+03  0.27514818096E+03 0.  0.
         25    2    3    3    0    0  0.17729868253E+02  0.73032410119E+02 -0.18425233792E+03  0.22627681915E+03  0.10772276315E+03 0.  0.
         25    2    3    3    0    0 -0.17729868253E+02 -0.73032410119E+02 -0.22513422633E+03  0.26698161258E+03  0.12225252731E+03 0.  0.
          5    1    4    4  502    0  0.44247366637E+02  0.89235563742E+02 -0.14533497873E+03  0.17625311723E+03  0.47000000000E+01 0.  1.
         -5    1    4    4    0  502 -0.26517498384E+02 -0.16203153623E+02 -0.38917359190E+02  0.50023701924E+02  0.47000000000E+01 0.  1.
          5    1    5    5  503    0 -0.48599640638E+02 -0.13528262598E+02 -0.26272196566E+02  0.57072386243E+02  0.47000000000E+01 0.  1.
         -5    1    5    5    0  503  0.30869772385E+02 -0.59504147521E+02 -0.19886202977E+03  0.20990922634E+03  0.47000000000E+01 0.  1.
<mgrwt>
<rscale>  0 0.27514818E+03</rscale>
<asrwt>0</asrwt>
<pdfrwt beam="1">  1        1 0.69434233E-01 0.27514818E+03</pdfrwt>
<pdfrwt beam="2">  1       -1 0.64516818E-02 0.27514818E+03</pdfrwt>
<totfact> 0.61594182E+03</totfact>
</mgrwt>
</event>
<event>
 9    1  0.2074770E-002  0.2755929E+03  0.7818608E-02  0.1098121E+00
         -2   -1    0    0    0  501 -0.00000000000E+00  0.00000000000E+00  0.31963006851E+02  0.31963006851E+02  0.00000000000E+00 0. -1.
          2   -1    0    0  501    0  0.00000000000E+00 -0.00000000000E+00 -0.59405732054E+03  0.59405732054E+03  0.00000000000E+00 0. -1.
         36    2    1    2    0    0  0.35527136788E-14  0.00000000000E+00 -0.56209431369E+03  0.62602032739E+03  0.27559287514E+03 0.  0.
         25    2    3    3    0    0  0.19773622668E+02  0.31609843352E+02 -0.21041060980E+03  0.24786584786E+03  0.12559727494E+03 0.  0.
         25    2    3    3    0    0 -0.19773622668E+02 -0.31609843352E+02 -0.35168370389E+03  0.37815447953E+03  0.13389997929E+03 0.  0.
          5    1    4    4  502    0  0.41480611172E+02  0.72924648830E+02 -0.13915603954E+03  0.16255810915E+03  0.47000000000E+01 0. -1.
         -5    1    4    4    0  502 -0.21706988504E+02 -0.41314805478E+02 -0.71254570255E+02  0.85307738710E+02  0.47000000000E+01 0. -1.
          5    1    5    5  503    0 -0.44638210056E+02  0.41089093843E+02 -0.17987741125E+03  0.18989169678E+03  0.47000000000E+01 0.  1.
         -5    1    5    5    0  503  0.24864587387E+02 -0.72698937195E+02 -0.17180629264E+03  0.18826278274E+03  0.47000000000E+01 0.  1.
<mgrwt>
<rscale>  0 0.27559288E+03</rscale>
<asrwt>0</asrwt>
<pdfrwt beam="1">  1        2 0.91393434E-01 0.27559288E+03</pdfrwt>
<pdfrwt beam="2">  1       -2 0.49173857E-02 0.27559288E+03</pdfrwt>
<totfact> 0.10204950E+04</totfact>
</mgrwt>
</event>
<event>
 9    1  0.2074770E-002  0.2757590E+03  0.7818608E-02  0.1098028E+00
         -1   -1    0    0    0  501 -0.00000000000E+00  0.00000000000E+00  0.74924170007E+02  0.74924170007E+02  0.00000000000E+00 0.  1.
          1   -1    0    0  501    0  0.00000000000E+00 -0.00000000000E+00 -0.25373338521E+03  0.25373338521E+03  0.00000000000E+00 0.  1.
         36    2    1    2    0    0  0.00000000000E+00 -0.17763568394E-14 -0.17880921520E+03  0.32865755522E+03  0.27575904910E+03 0.  0.
         25    2    3    3    0    0 -0.22794461943E+02  0.66184113743E+01 -0.15653420931E+02  0.12234305212E+03  0.11899328532E+03 0.  0.
         25    2    3    3    0    0  0.22794461943E+02 -0.66184113743E+01 -0.16315579427E+03  0.20631450309E+03  0.12402608644E+03 0.  0.
          5    1    4    4  502    0  0.61981974413E+01  0.43947251176E+02  0.32111047689E+02  0.54981705332E+02  0.47000000000E+01 0. -1.
         -5    1    4    4    0  502 -0.28992659384E+02 -0.37328839802E+02 -0.47764468621E+02  0.67361346793E+02  0.47000000000E+01 0. -1.
          5    1    5    5  503    0 -0.39468733289E+02 -0.19831424911E+01 -0.12898473834E+03  0.13498468982E+03  0.47000000000E+01 0.  1.
         -5    1    5    5    0  503  0.62263195231E+02 -0.46352688832E+01 -0.34171055933E+02  0.71329813273E+02  0.47000000000E+01 0.  1.
<mgrwt>
<rscale>  0 0.27575905E+03</rscale>
<asrwt>0</asrwt>
<pdfrwt beam="1">  1        1 0.39035906E-01 0.27575905E+03</pdfrwt>
<pdfrwt beam="2">  1       -1 0.11526795E-01 0.27575905E+03</pdfrwt>
<totfact> 0.52540125E+03</totfact>
</mgrwt>
</event>
<event>
 9    1  0.2074770E-002  0.2748806E+03  0.7818608E-02  0.1098518E+00
          2   -1    0    0  501    0  0.00000000000E+00  0.00000000000E+00  0.85652973613E+03  0.85652973613E+03  0.00000000000E+00 0.  1.
         -2   -1    0    0    0  501 -0.00000000000E+00 -0.00000000000E+00 -0.22053924854E+02  0.22053924854E+02  0.00000000000E+00 0.  1.
         36    2    1    2    0    0  0.00000000000E+00  0.35527136788E-14  0.83447581128E+03  0.87858366098E+03  0.27488064636E+03 0.  0.
         25    2    3    3    0    0  0.45754984340E+02 -0.25715550736E+02  0.34589567099E+03  0.37118974983E+03  0.12402905719E+03 0.  0.
         25    2    3    3    0    0 -0.45754984340E+02  0.25715550736E+02  0.48858014029E+03  0.50739391116E+03  0.12642475807E+03 0.  0.
          5    1    4    4  502    0  0.50952338392E+02  0.28625622677E+02  0.27713267149E+03  0.28326696713E+03  0.47000000000E+01 0. -1.
         -5    1    4    4    0  502 -0.51973540517E+01 -0.54341173413E+02  0.68762999499E+02  0.87922782696E+02  0.47000000000E+01 0. -1.
          5    1    5    5  503    0  0.30888134304E+02  0.42115617556E+01  0.31265284296E+03  0.31423829223E+03  0.47000000000E+01 0.  1.
         -5    1    5    5    0  503 -0.76643118644E+02  0.21503988980E+02  0.17592729733E+03  0.19315561893E+03  0.47000000000E+01 0.  1.
<mgrwt>
<rscale>  0 0.27488065E+03</rscale>
<asrwt>0</asrwt>
<pdfrwt beam="1">  1        2 0.13177378E+00 0.27488065E+03</pdfrwt>
<pdfrwt beam="2">  1       -2 0.33929122E-02 0.27488065E+03</pdfrwt>
<totfact> 0.11395602E+04</totfact>
</mgrwt>
</event>
<event>
 9    1  0.2074770E-002  0.2748341E+03  0.7818608E-02  0.1098544E+00
          2   -1    0    0  501    0  0.00000000000E+00  0.00000000000E+00  0.12556347899E+04  0.12556347899E+04  0.00000000000E+00 0.  1.
         -2   -1    0    0    0  501 -0.00000000000E+00 -0.00000000000E+00 -0.15038962347E+02  0.15038962347E+02  0.00000000000E+00 0.  1.
         36    2    1    2    0    0 -0.35527136788E-14  0.00000000000E+00  0.12405958275E+04  0.12706737522E+04  0.27483409052E+03 0.  0.
         25    2    3    3    0    0  0.29455471228E+01  0.21036986775E+02  0.87541811870E+03  0.88470024817E+03  0.12604132459E+03 0.  0.
         25    2    3    3    0    0 -0.29455471228E+01 -0.21036986775E+02  0.36517770884E+03  0.38597350407E+03  0.12316475042E+03 0.  0.
          5    1    4    4  502    0 -0.24854141460E+02  0.47175172083E+02  0.16984459799E+03  0.17808004569E+03  0.47000000000E+01 0. -1.
         -5    1    4    4    0  502  0.27799688583E+02 -0.26138185308E+02  0.70557352072E+03  0.70662020248E+03  0.47000000000E+01 0. -1.
          5    1    5    5  503    0  0.26867923052E+02  0.23301969441E+01  0.10613619601E+02  0.29360756597E+02  0.47000000000E+01 0. -1.
         -5    1    5    5    0  503 -0.29813470175E+02 -0.23367183720E+02  0.35456408924E+03  0.35661274747E+03  0.47000000000E+01 0. -1.
<mgrwt>
<rscale>  0 0.27483409E+03</rscale>
<asrwt>0</asrwt>
<pdfrwt beam="1">  1        2 0.19317450E+00 0.27483409E+03</pdfrwt>
<pdfrwt beam="2">  1       -2 0.23136875E-02 0.27483409E+03</pdfrwt>
<totfact> 0.11569668E+04</totfact>
</mgrwt>
</event>
<event>
 9    1  0.2074770E-002  0.2755423E+03  0.7818608E-02  0.1098149E+00
          2   -1    0    0  501    0  0.00000000000E+00  0.00000000000E+00  0.16237275640E+04  0.16237275640E+04  0.00000000000E+00 0.  1.
         -2   -1    0    0    0  501 -0.00000000000E+00 -0.00000000000E+00 -0.11689701770E+02  0.11689701770E+02  0.00000000000E+00 0.  1.
         36    2    1    2    0    0  0.00000000000E+00  0.00000000000E+00  0.16120378623E+04  0.16354172658E+04  0.27554230877E+03 0.  0.
         25    2    3    3    0    0  0.48862576542E+02  0.30590336740E+02  0.89769231407E+03  0.90782378544E+03  0.12234874161E+03 0.  0.
         25    2    3    3    0    0 -0.48862576542E+02 -0.30590336740E+02  0.71434554819E+03  0.72759348037E+03  0.12561604342E+03 0.  0.
          5    1    4    4  502    0  0.49232770039E+02  0.67333498657E+02  0.77944607267E+03  0.78391066831E+03  0.47000000000E+01 0. -1.
         -5    1    4    4    0  502 -0.37019349674E+00 -0.36743161917E+02  0.11824624140E+03  0.12391311713E+03  0.47000000000E+01 0. -1.
          5    1    5    5  503    0 -0.21471079001E+02 -0.50244356445E+02  0.11631924323E+03  0.12859921825E+03  0.47000000000E+01 0. -1.
         -5    1    5    5    0  503 -0.27391497540E+02  0.19654019705E+02  0.59802630496E+03  0.59899426212E+03  0.47000000000E+01 0. -1.
<mgrwt>
<rscale>  0 0.27554231E+03</rscale>
<asrwt>0</asrwt>
<pdfrwt beam="1">  1        2 0.24980406E+00 0.27554231E+03</pdfrwt>
<pdfrwt beam="2">  1       -2 0.17984169E-02 0.27554231E+03</pdfrwt>
<totfact> 0.10597284E+04</totfact>
</mgrwt>
</event>
<event>
 9    1  0.2074770E-002  0.2747673E+03  0.7818608E-02  0.1098582E+00
          2   -1    0    0  501    0  0.00000000000E+00  0.00000000000E+00  0.15534447727E+03  0.15534447727E+03  0.00000000000E+00 0. -1.
         -2   -1    0    0    0  501 -0.00000000000E+00 -0.00000000000E+00 -0.12149944135E+03  0.12149944135E+03  0.00000000000E+00 0. -1.
         36    2    1    2    0    0 -0.71054273576E-14  0.14210854715E-13  0.33845035923E+02  0.27684391863E+03  0.27476729941E+03 0.  0.
         25    2    3    3    0    0  0.43547487828E+02 -0.51984193226E+02  0.24134284183E+02  0.14090577954E+03  0.12113312922E+03 0.  0.
         25    2    3    3    0    0 -0.43547487828E+02  0.51984193226E+02  0.97107517401E+01  0.13593813908E+03  0.11741438973E+03 0.  0.
          5    1    4    4  502    0  0.51359025205E+02  0.24980960535E+02 -0.62804374493E+01  0.57648345629E+02  0.47000000000E+01 0.  1.
         -5    1    4    4    0  502 -0.78115373763E+01 -0.76965153761E+02  0.30414721633E+02  0.83257433912E+02  0.47000000000E+01 0.  1.
          5    1    5    5  503    0  0.35340868072E+02  0.16014265596E+02 -0.20335437788E+02  0.44057390852E+02  0.47000000000E+01 0.  1.
         -5    1    5    5    0  503 -0.78888355901E+02  0.35969927630E+02  0.30046189528E+02  0.91880748232E+02  0.47000000000E+01 0.  1.
<mgrwt>
<rscale>  0 0.27476730E+03</rscale>
<asrwt>0</asrwt>
<pdfrwt beam="1">  1        2 0.23899150E-01 0.27476730E+03</pdfrwt>
<pdfrwt beam="2">  1       -2 0.18692222E-01 0.27476730E+03</pdfrwt>
<totfact> 0.53068544E+03</totfact>
</mgrwt>
</event>
<event>
 9    1  0.2074770E-002  0.2741490E+03  0.7818608E-02  0.1098928E+00
         -2   -1    0    0    0  501 -0.00000000000E+00  0.00000000000E+00  0.57404965766E+02  0.57404965766E+02  0.00000000000E+00 0.  1.
          2   -1    0    0  501    0  0.00000000000E+00 -0.00000000000E+00 -0.32731347915E+03  0.32731347915E+03  0.00000000000E+00 0.  1.
         36    2    1    2    0    0  0.00000000000E+00  0.35527136788E-14 -0.26990851339E+03  0.38471844492E+03  0.27414900376E+03 0.  0.
         25    2    3    3    0    0 -0.30415462136E+02  0.47030757818E+01 -0.20958805736E+03  0.24682651207E+03  0.12668446635E+03 0.  0.
         25    2    3    3    0    0  0.30415462136E+02 -0.47030757818E+01 -0.60320456028E+02  0.13789193285E+03  0.12011831031E+03 0.  0.
          5    1    4    4  502    0 -0.41792041242E+02  0.48226420935E+02 -0.50738488709E+02  0.81663006458E+02  0.47000000000E+01 0. -1.
         -5    1    4    4    0  502  0.11376579106E+02 -0.43523345153E+02 -0.15884956865E+03  0.16516350561E+03  0.47000000000E+01 0. -1.
          5    1    5    5  503    0  0.65964383745E+02  0.28201825384E+02 -0.51487702192E+02  0.88429160094E+02  0.47000000000E+01 0. -1.
         -5    1    5    5    0  503 -0.35548921609E+02 -0.32904901166E+02 -0.88327538360E+01  0.49462772755E+02  0.47000000000E+01 0. -1.
<mgrwt>
<rscale>  0 0.27414900E+03</rscale>
<asrwt>0</asrwt>
<pdfrwt beam="1">  1        2 0.50355919E-01 0.27414900E+03</pdfrwt>
<pdfrwt beam="2">  1       -2 0.88315333E-02 0.27414900E+03</pdfrwt>
<totfact> 0.79824949E+03</totfact>
</mgrwt>
</event>
<event>
 9    1  0.2074770E-002  0.2717313E+03  0.7818608E-02  0.1100293E+00
          2   -1    0    0  501    0  0.00000000000E+00  0.00000000000E+00  0.51573463858E+03  0.51573463858E+03  0.00000000000E+00 0.  1.
         -2   -1    0    0    0  501 -0.00000000000E+00 -0.00000000000E+00 -0.35792592048E+02  0.35792592048E+02  0.00000000000E+00 0.  1.
         36    2    1    2    0    0  0.00000000000E+00 -0.71054273576E-14  0.47994204653E+03  0.55152723062E+03  0.27173133440E+03 0.  0.
         25    2    3    3    0    0  0.36687276070E+02 -0.38211285409E+02  0.23107803413E+03  0.26698348199E+03  0.12278869345E+03 0.  0.
         25    2    3    3    0    0 -0.36687276070E+02  0.38211285409E+02  0.24886401239E+03  0.28454374863E+03  0.12738049169E+03 0.  0.
          5    1    4    4  502    0  0.28958410706E+02 -0.69268728046E+02  0.70223483117E+02  0.10290857018E+03  0.47000000000E+01 0.  1.
         -5    1    4    4    0  502  0.77288653645E+01  0.31057442637E+02  0.16085455102E+03  0.16407491181E+03  0.47000000000E+01 0.  1.
          5    1    5    5  503    0 -0.14971829172E+02 -0.65202621479E+01 -0.10790373594E+02  0.20129372806E+02  0.47000000000E+01 0. -1.
         -5    1    5    5    0  503 -0.21715446898E+02  0.44731547557E+02  0.25965438599E+03  0.26441437583E+03  0.47000000000E+01 0. -1.
<mgrwt>
<rscale>  0 0.27173133E+03</rscale>
<asrwt>0</asrwt>
<pdfrwt beam="1">  1        2 0.79343785E-01 0.27173133E+03</pdfrwt>
<pdfrwt beam="2">  1       -2 0.55065530E-02 0.27173133E+03</pdfrwt>
<totfact> 0.10087514E+04</totfact>
</mgrwt>
</event>
<event>
 9    1  0.2074770E-002  0.2749919E+03  0.7818608E-02  0.1098456E+00
         -2   -1    0    0    0  501 -0.00000000000E+00  0.00000000000E+00  0.12111830740E+02  0.12111830740E+02  0.00000000000E+00 0. -1.
          2   -1    0    0  501    0  0.00000000000E+00 -0.00000000000E+00 -0.15608813751E+04  0.15608813751E+04  0.00000000000E+00 0. -1.
         36    2    1    2    0    0  0.71054273576E-14 -0.71054273576E-14 -0.15487695444E+04  0.15729932058E+04  0.27499186185E+03 0.  0.
         25    2    3    3    0    0 -0.51853008226E+02  0.17857895486E+02 -0.79841380729E+03  0.81026915386E+03  0.12674326461E+03 0.  0.
         25    2    3    3    0    0  0.51853008226E+02 -0.17857895486E+02 -0.75035573708E+03  0.76272405199E+03  0.12532600859E+03 0.  0.
          5    1    4    4  502    0  0.39884805114E+02  0.22535385191E+02 -0.27877012231E+03  0.28254824784E+03  0.47000000000E+01 0. -1.
         -5    1    4    4    0  502 -0.91737813340E+02 -0.46774897049E+01 -0.51964368498E+03  0.52772090602E+03  0.47000000000E+01 0. -1.
          5    1    5    5  503    0  0.96943031788E+01  0.12496425308E+02 -0.64453194870E+03  0.64474309849E+03  0.47000000000E+01 0. -1.
         -5    1    5    5    0  503  0.42158705047E+02 -0.30354320794E+02 -0.10582378838E+03  0.11798095350E+03  0.47000000000E+01 0. -1.
<mgrwt>
<rscale>  0 0.27499186E+03</rscale>
<asrwt>0</asrwt>
<pdfrwt beam="1">  1        2 0.24013543E+00 0.27499186E+03</pdfrwt>
<pdfrwt beam="2">  1       -2 0.18633598E-02 0.27499186E+03</pdfrwt>
<totfact> 0.10861413E+04</totfact>
</mgrwt>
</event>
<event>
 9    1  0.2074770E-002  0.2751275E+03  0.7818608E-02  0.1098380E+00
          2   -1    0    0  501    0  0.00000000000E+00  0.00000000000E+00  0.12895711779E+03  0.12895711779E+03  0.00000000000E+00 0. -1.
         -2   -1    0    0    0  501 -0.00000000000E+00 -0.00000000000E+00 -0.14674474052E+03  0.14674474052E+03  0.00000000000E+00 0. -1.
         36    2    1    2    0    0  0.00000000000E+00  0.71054273576E-14 -0.17787622726E+02  0.27570185831E+03  0.27512745256E+03 0.  0.
         25    2    3    3    0    0 -0.55369908188E+02  0.44622436705E+00 -0.32656825070E+02  0.13376566677E+03  0.11730626383E+03 0.  0.
         25    2    3    3    0    0  0.55369908188E+02 -0.44622436705E+00  0.14869202344E+02  0.14193619154E+03  0.12984130098E+03 0.  0.
          5    1    4    4  502    0 -0.78604700762E+02 -0.33714459957E+02 -0.34010024067E+02  0.92163634527E+02  0.47000000000E+01 0. -1.
         -5    1    4    4    0  502  0.23234792575E+02  0.34160684324E+02  0.13531989972E+01  0.41602032246E+02  0.47000000000E+01 0. -1.
          5    1    5    5  503    0  0.13068597460E+02 -0.34896733140E+02 -0.46444702796E+02  0.59730818186E+02  0.47000000000E+01 0. -1.
         -5    1    5    5    0  503  0.42301310728E+02  0.34450508773E+02  0.61313905140E+02  0.82205373349E+02  0.47000000000E+01 0. -1.
<mgrwt>
<rscale>  0 0.27512745E+03</rscale>
<asrwt>0</asrwt>
<pdfrwt beam="1">  1        2 0.19839557E-01 0.27512745E+03</pdfrwt>
<pdfrwt beam="2">  1       -2 0.22576114E-01 0.27512745E+03</pdfrwt>
<totfact> 0.47401713E+03</totfact>
</mgrwt>
</event>
<event>
 9    1  0.2074770E-002  0.2749120E+03  0.7818608E-02  0.1098501E+00
          1   -1    0    0  501    0  0.00000000000E+00  0.00000000000E+00  0.10781809996E+04  0.10781809996E+04  0.00000000000E+00 0. -1.
         -1   -1    0    0    0  501 -0.00000000000E+00 -0.00000000000E+00 -0.17524095382E+02  0.17524095382E+02  0.00000000000E+00 0. -1.
         36    2    1    2    0    0  0.00000000000E+00  0.00000000000E+00  0.10606569042E+04  0.10957050950E+04  0.27491196173E+03 0.  0.
         25    2    3    3    0    0  0.63207622943E+02 -0.13277050311E+01  0.49933154698E+03  0.51808695624E+03  0.12282155353E+03 0.  0.
         25    2    3    3    0    0 -0.63207622943E+02  0.13277050311E+01  0.56132535721E+03  0.57761813872E+03  0.12066313079E+03 0.  0.
          5    1    4    4  502    0 -0.96664849429E+01 -0.28876944879E+02  0.33223738456E+03  0.33366313638E+03  0.47000000000E+01 0. -1.
         -5    1    4    4    0  502  0.72874107886E+02  0.27549239847E+02  0.16709416242E+03  0.18442381986E+03  0.47000000000E+01 0. -1.
          5    1    5    5  503    0 -0.58853996970E+02 -0.39584991605E+02  0.17218831127E+03  0.18628384003E+03  0.47000000000E+01 0. -1.
         -5    1    5    5    0  503 -0.43536259732E+01  0.40912696636E+02  0.38913704594E+03  0.39133429869E+03  0.47000000000E+01 0. -1.
<mgrwt>
<rscale>  0 0.27491196E+03</rscale>
<asrwt>0</asrwt>
<pdfrwt beam="1">  1        1 0.16587395E+00 0.27491196E+03</pdfrwt>
<pdfrwt beam="2">  1       -1 0.26960155E-02 0.27491196E+03</pdfrwt>
<totfact> 0.61797221E+03</totfact>
</mgrwt>
</event>
<event>
 9    1  0.2074770E-002  0.2755044E+03  0.7818608E-02  0.1098170E+00
         -1   -1    0    0    0  501 -0.00000000000E+00  0.00000000000E+00  0.86196219504E+02  0.86196219504E+02  0.00000000000E+00 0.  1.
          1   -1    0    0  501    0  0.00000000000E+00 -0.00000000000E+00 -0.22014509671E+03  0.22014509671E+03  0.00000000000E+00 0.  1.
         36    2    1    2    0    0  0.35527136788E-14 -0.14210854715E-13 -0.13394887721E+03  0.30634131622E+03  0.27550444700E+03 0.  0.
         25    2    3    3    0    0  0.16307239784E+02 -0.72570604718E+02 -0.62015617703E+02  0.14804614881E+03  0.11197904536E+03 0.  0.
         25    2    3    3    0    0 -0.16307239784E+02  0.72570604718E+02 -0.71933259505E+02  0.15829516741E+03  0.11979377055E+03 0.  0.
          5    1    4    4  502    0  0.39637879534E+02 -0.93759493842E+02 -0.53353768653E+02  0.11502486170E+03  0.47000000000E+01 0.  1.
         -5    1    4    4    0  502 -0.23330639750E+02  0.21188889123E+02 -0.86618490494E+01  0.33021287110E+02  0.47000000000E+01 0.  1.
          5    1    5    5  503    0  0.29102463507E+02  0.16883103375E+02  0.21597644301E+02  0.40255941190E+02  0.47000000000E+01 0. -1.
         -5    1    5    5    0  503 -0.45409703291E+02  0.55687501343E+02 -0.93530903807E+02  0.11803922622E+03  0.47000000000E+01 0. -1.
<mgrwt>
<rscale>  0 0.27550445E+03</rscale>
<asrwt>0</asrwt>
<pdfrwt beam="1">  1        1 0.33868476E-01 0.27550445E+03</pdfrwt>
<pdfrwt beam="2">  1       -1 0.13260957E-01 0.27550445E+03</pdfrwt>
<totfact> 0.50428432E+03</totfact>
</mgrwt>
</event>
<event>
 9    1  0.2074770E-002  0.2751632E+03  0.7818608E-02  0.1098360E+00
          2   -1    0    0  501    0  0.00000000000E+00  0.00000000000E+00  0.12345476192E+04  0.12345476192E+04  0.00000000000E+00 0. -1.
         -2   -1    0    0    0  501 -0.00000000000E+00 -0.00000000000E+00 -0.15332495398E+02  0.15332495398E+02  0.00000000000E+00 0. -1.
         36    2    1    2    0    0  0.00000000000E+00  0.00000000000E+00  0.12192151238E+04  0.12498801146E+04  0.27516319296E+03 0.  0.
         25    2    3    3    0    0 -0.24159598395E+02  0.47301026661E+02  0.54414569353E+03  0.56129797471E+03  0.12704254132E+03 0.  0.
         25    2    3    3    0    0  0.24159598395E+02 -0.47301026661E+02  0.67506943028E+03  0.68858213990E+03  0.12492219327E+03 0.  0.
          5    1    4    4  502    0 -0.75193784767E+02  0.39387240670E+02  0.30740434093E+03  0.31894353547E+03  0.47000000000E+01 0.  1.
         -5    1    4    4    0  502  0.51034186373E+02  0.79137859908E+01  0.23674135260E+03  0.24235443923E+03  0.47000000000E+01 0.  1.
          5    1    5    5  503    0 -0.27840612209E+02 -0.47195978125E+01  0.50268212199E+03  0.50349655417E+03  0.47000000000E+01 0. -1.
         -5    1    5    5    0  503  0.52000210604E+02 -0.42581428848E+02  0.17238730830E+03  0.18508558573E+03  0.47000000000E+01 0. -1.
<mgrwt>
<rscale>  0 0.27516319E+03</rscale>
<asrwt>0</asrwt>
<pdfrwt beam="1">  1        2 0.18993032E+00 0.27516319E+03</pdfrwt>
<pdfrwt beam="2">  1       -2 0.23588464E-02 0.27516319E+03</pdfrwt>
<totfact> 0.11554982E+04</totfact>
</mgrwt>
</event>
<event>
 9    1  0.2074770E-002  0.2789385E+03  0.7818608E-02  0.1096270E+00
         -2   -1    0    0    0  501 -0.00000000000E+00  0.00000000000E+00  0.34892298929E+03  0.34892298929E+03  0.00000000000E+00 0. -1.
          2   -1    0    0  501    0  0.00000000000E+00 -0.00000000000E+00 -0.55747757428E+02  0.55747757428E+02  0.00000000000E+00 0. -1.
         36    2    1    2    0    0  0.35527136788E-14  0.00000000000E+00  0.29317523186E+03  0.40467074672E+03  0.27893851773E+03 0.  0.
         25    2    3    3    0    0 -0.22830579227E+02 -0.38932503644E+02  0.20374599066E+03  0.24155580725E+03  0.12165444553E+03 0.  0.
         25    2    3    3    0    0  0.22830579227E+02  0.38932503644E+02  0.89429241199E+02  0.16311493947E+03  0.12873196615E+03 0.  0.
          5    1    4    4  502    0 -0.58091810925E+02 -0.30687070218E+02  0.19233109930E+03  0.20329706474E+03  0.47000000000E+01 0.  1.
         -5    1    4    4    0  502  0.35261231699E+02 -0.82454334255E+01  0.11414891361E+02  0.38258742505E+02  0.47000000000E+01 0.  1.
          5    1    5    5  503    0  0.34669612154E+02  0.69627854038E+02  0.11983509482E+02  0.78839803173E+02  0.47000000000E+01 0.  1.
         -5    1    5    5    0  503 -0.11839032928E+02 -0.30695350394E+02  0.77445731717E+02  0.84275136296E+02  0.47000000000E+01 0.  1.
<mgrwt>
<rscale>  0 0.27893852E+03</rscale>
<asrwt>0</asrwt>
<pdfrwt beam="1">  1        2 0.85765783E-02 0.27893852E+03</pdfrwt>
<pdfrwt beam="2">  1       -2 0.53680458E-01 0.27893852E+03</pdfrwt>
<totfact> 0.25815179E+03</totfact>
</mgrwt>
</event>
<event>
 9    1  0.2074770E-002  0.2776744E+03  0.7818608E-02  0.1096966E+00
         -2   -1    0    0    0  501 -0.00000000000E+00  0.00000000000E+00  0.16112611852E+03  0.16112611852E+03  0.00000000000E+00 0.  1.
          2   -1    0    0  501    0  0.00000000000E+00 -0.00000000000E+00 -0.11963154174E+03  0.11963154174E+03  0.00000000000E+00 0.  1.
         36    2    1    2    0    0  0.00000000000E+00  0.00000000000E+00  0.41494576781E+02  0.28075766026E+03  0.27767438465E+03 0.  0.
         25    2    3    3    0    0 -0.17551825068E+02  0.53080031362E+02 -0.37762666385E+01  0.13785679007E+03  0.12595506376E+03 0.  0.
         25    2    3    3    0    0  0.17551825068E+02 -0.53080031362E+02  0.45270843419E+02  0.14290087019E+03  0.12347328919E+03 0.  0.
          5    1    4    4  502    0 -0.55748832698E+02  0.39729343261E+01 -0.36979505858E+02  0.67181027142E+02  0.47000000000E+01 0.  1.
         -5    1    4    4    0  502  0.38197007630E+02  0.49107097035E+02  0.33203239219E+02  0.70675762930E+02  0.47000000000E+01 0.  1.
          5    1    5    5  503    0  0.17604426155E+02 -0.44626137465E+02  0.87326738803E+02  0.99746966246E+02  0.47000000000E+01 0. -1.
         -5    1    5    5    0  503 -0.52601086834E-01 -0.84538938963E+01 -0.42055895384E+02  0.43153903942E+02  0.47000000000E+01 0. -1.
<mgrwt>
<rscale>  0 0.27767438E+03</rscale>
<asrwt>0</asrwt>
<pdfrwt beam="1">  1        2 0.18404853E-01 0.27767438E+03</pdfrwt>
<pdfrwt beam="2">  1       -2 0.24788634E-01 0.27767438E+03</pdfrwt>
<totfact> 0.43892247E+03</totfact>
</mgrwt>
</event>
<event>
 9    1  0.2074770E-002  0.2749603E+03  0.7818608E-02  0.1098474E+00
         -1   -1    0    0    0  501 -0.00000000000E+00  0.00000000000E+00  0.88126304091E+03  0.88126304091E+03  0.00000000000E+00 0. -1.
          1   -1    0    0  501    0  0.00000000000E+00 -0.00000000000E+00 -0.21447384629E+02  0.21447384629E+02  0.00000000000E+00 0. -1.
         36    2    1    2    0    0  0.00000000000E+00  0.00000000000E+00  0.85981565628E+03  0.90271042554E+03  0.27496026911E+03 0.  0.
         25    2    3    3    0    0  0.38470768633E+02  0.26515799356E+02  0.48506274738E+03  0.50492785105E+03  0.13222396989E+03 0.  0.
         25    2    3    3    0    0 -0.38470768633E+02 -0.26515799356E+02  0.37475290890E+03  0.39778257449E+03  0.12493256655E+03 0.  0.
          5    1    4    4  502    0  0.23827264050E+02  0.34735675375E+02  0.48563432347E+03  0.48748035016E+03  0.47000000000E+01 0.  1.
         -5    1    4    4    0  502  0.14643504583E+02 -0.82198760193E+01 -0.57157608672E+00  0.17447500894E+02  0.47000000000E+01 0.  1.
          5    1    5    5  503    0 -0.36193679257E+02  0.41482211738E+02  0.95585817181E+02  0.11040604492E+03  0.47000000000E+01 0.  1.
         -5    1    5    5    0  503 -0.22770893759E+01 -0.67998011093E+02  0.27916709172E+03  0.28737652957E+03  0.47000000000E+01 0.  1.
<mgrwt>
<rscale>  0 0.27496027E+03</rscale>
<asrwt>0</asrwt>
<pdfrwt beam="1">  1        1 0.32995983E-02 0.27496027E+03</pdfrwt>
<pdfrwt beam="2">  1       -1 0.13557890E+00 0.27496027E+03</pdfrwt>
<totfact> 0.14607934E+03</totfact>
</mgrwt>
</event>
<event>
 9    1  0.2074770E-002  0.2848371E+03  0.7818608E-02  0.1093076E+00
         -2   -1    0    0    0  501 -0.00000000000E+00  0.00000000000E+00  0.54501322708E+02  0.54501322708E+02  0.00000000000E+00 0. -1.
          2   -1    0    0  501    0  0.00000000000E+00 -0.00000000000E+00 -0.37215688631E+03  0.37215688631E+03  0.00000000000E+00 0. -1.
         36    2    1    2    0    0 -0.14210854715E-13  0.71054273576E-14 -0.31765556360E+03  0.42665820901E+03  0.28483709420E+03 0.  0.
         25    2    3    3    0    0 -0.59603068561E+02 -0.22699785043E+01 -0.21029616084E+03  0.25151420477E+03  0.12440756149E+03 0.  0.
         25    2    3    3    0    0  0.59603068561E+02  0.22699785043E+01 -0.10735940276E+03  0.17514400424E+03  0.12486673807E+03 0.  0.
          5    1    4    4  502    0 -0.72606430651E+02  0.45934777238E+02 -0.11274852703E+03  0.14183094824E+03  0.47000000000E+01 0.  1.
         -5    1    4    4    0  502  0.13003362090E+02 -0.48204755743E+02 -0.97547633806E+02  0.10968325653E+03  0.47000000000E+01 0.  1.
          5    1    5    5  503    0  0.12650203148E+02  0.51554010025E+02 -0.69456006021E+01  0.53741743152E+02  0.47000000000E+01 0. -1.
         -5    1    5    5    0  503  0.46952865413E+02 -0.49284031521E+02 -0.10041380216E+03  0.12140226109E+03  0.47000000000E+01 0. -1.
<mgrwt>
<rscale>  0 0.28483709E+03</rscale>
<asrwt>0</asrwt>
<pdfrwt beam="1">  1        2 0.57254907E-01 0.28483709E+03</pdfrwt>
<pdfrwt beam="2">  1       -2 0.83848186E-02 0.28483709E+03</pdfrwt>
<totfact> 0.75497982E+03</totfact>
</mgrwt>
</event>
<event>
 9    1  0.2074770E-002  0.2745335E+03  0.7818608E-02  0.1098713E+00
          1   -1    0    0  501    0  0.00000000000E+00  0.00000000000E+00  0.56635578030E+03  0.56635578030E+03  0.00000000000E+00 0. -1.
         -1   -1    0    0    0  501 -0.00000000000E+00 -0.00000000000E+00 -0.33269134032E+02  0.33269134032E+02  0.00000000000E+00 0. -1.
         36    2    1    2    0    0 -0.17763568394E-14  0.35527136788E-14  0.53308664627E+03  0.59962491434E+03  0.27453354159E+03 0.  0.
         25    2    3    3    0    0 -0.31658983006E+01  0.24853358311E+02  0.38727287157E+03  0.40565975973E+03  0.11811795493E+03 0.  0.
         25    2    3    3    0    0  0.31658983006E+01 -0.24853358311E+02  0.14581377470E+03  0.19396515461E+03  0.12543170245E+03 0.  0.
          5    1    4    4  502    0  0.21480149610E+02 -0.18250048703E+02  0.19674494027E+02  0.34693469416E+02  0.47000000000E+01 0. -1.
         -5    1    4    4    0  502 -0.24646047911E+02  0.43103407014E+02  0.36759837755E+03  0.37096629031E+03  0.47000000000E+01 0. -1.
          5    1    5    5  503    0 -0.14645453407E+02 -0.32853001393E+02  0.16333411435E+03  0.16731387245E+03  0.47000000000E+01 0.  1.
         -5    1    5    5    0  503  0.17811351708E+02  0.79996430822E+01 -0.17520339647E+02  0.26651282154E+02  0.47000000000E+01 0.  1.
<mgrwt>
<rscale>  0 0.27453354E+03</rscale>
<asrwt>0</asrwt>
<pdfrwt beam="1">  1        1 0.87131651E-01 0.27453354E+03</pdfrwt>
<pdfrwt beam="2">  1       -1 0.51183287E-02 0.27453354E+03</pdfrwt>
<totfact> 0.64487326E+03</totfact>
</mgrwt>
</event>
<event>
 9    1  0.2074770E-002  0.2748149E+03  0.7818608E-02  0.1098555E+00
         -1   -1    0    0    0  501 -0.00000000000E+00  0.00000000000E+00  0.95397389912E+02  0.95397389912E+02  0.00000000000E+00 0.  1.
          1   -1    0    0  501    0  0.00000000000E+00 -0.00000000000E+00 -0.19791739366E+03  0.19791739366E+03  0.00000000000E+00 0.  1.
         36    2    1    2    0    0  0.00000000000E+00  0.00000000000E+00 -0.10252000374E+03  0.29331478357E+03  0.27481486694E+03 0.  0.
         25    2    3    3    0    0  0.28695866344E+02  0.44008718993E+02 -0.80999091354E+02  0.15427655935E+03  0.12033363567E+03 0.  0.
         25    2    3    3    0    0 -0.28695866344E+02 -0.44008718993E+02 -0.21520912390E+02  0.13903822422E+03  0.12691831243E+03 0.  0.
          5    1    4    4  502    0  0.17806162905E+02  0.78169232946E+02 -0.19037337230E+02  0.82534832801E+02  0.47000000000E+01 0.  1.
         -5    1    4    4    0  502  0.10889703439E+02 -0.34160513952E+02 -0.61961754125E+02  0.71741726552E+02  0.47000000000E+01 0.  1.
          5    1    5    5  503    0  0.35271056057E+02 -0.58451677034E+02  0.39186779476E+01  0.68542628927E+02  0.47000000000E+01 0.  1.
         -5    1    5    5    0  503 -0.63966922401E+02  0.14442958040E+02 -0.25439590338E+02  0.70495595288E+02  0.47000000000E+01 0.  1.
<mgrwt>
<rscale>  0 0.27481487E+03</rscale>
<asrwt>0</asrwt>
<pdfrwt beam="1">  1        1 0.30448829E-01 0.27481487E+03</pdfrwt>
<pdfrwt beam="2">  1       -1 0.14676522E-01 0.27481487E+03</pdfrwt>
<totfact> 0.49126968E+03</totfact>
</mgrwt>
</event>
<event>
 9    1  0.2074770E-002  0.2746249E+03  0.7818608E-02  0.1098661E+00
         -2   -1    0    0    0  501 -0.00000000000E+00  0.00000000000E+00  0.75967706504E+01  0.75967706504E+01  0.00000000000E+00 0. -1.
          2   -1    0    0  501    0  0.00000000000E+00 -0.00000000000E+00 -0.24819380529E+04  0.24819380529E+04  0.00000000000E+00 0. -1.
         36    2    1    2    0    0  0.00000000000E+00 -0.35527136788E-14 -0.24743412823E+04  0.24895348236E+04  0.27462493810E+03 0.  0.
         25    2    3    3    0    0 -0.78976229692E+02  0.31704146287E+02 -0.12399361799E+04  0.12463146874E+04  0.92823337486E+02 0.  0.
         25    2    3    3    0    0  0.78976229692E+02 -0.31704146287E+02 -0.12344051024E+04  0.12432201362E+04  0.12082198703E+03 0.  0.
          5    1    4    4  502    0 -0.86698183859E+02 -0.61198416631E+01 -0.85512662603E+03  0.85954503319E+03  0.47000000000E+01 0.  1.
         -5    1    4    4    0  502  0.77219541663E+01  0.37823987950E+02 -0.38480955386E+03  0.38676965416E+03  0.47000000000E+01 0.  1.
          5    1    5    5  503    0 -0.26227157141E+02 -0.83020807790E+01 -0.10401034075E+03  0.10768950413E+03  0.47000000000E+01 0. -1.
         -5    1    5    5    0  503  0.10520338683E+03 -0.23402065508E+02 -0.11303947616E+04  0.11355306321E+04  0.47000000000E+01 0. -1.
<mgrwt>
<rscale>  0 0.27462494E+03</rscale>
<asrwt>0</asrwt>
<pdfrwt beam="1">  1        2 0.38183744E+00 0.27462494E+03</pdfrwt>
<pdfrwt beam="2">  1       -2 0.11687315E-02 0.27462494E+03</pdfrwt>
<totfact> 0.69713752E+03</totfact>
</mgrwt>
</event>
<event>
 9    1  0.2074770E-002  0.2740744E+03  0.7818608E-02  0.1098970E+00
         -1   -1    0    0    0  501 -0.00000000000E+00  0.00000000000E+00  0.18051345261E+02  0.18051345261E+02  0.00000000000E+00 0. -1.
          1   -1    0    0  501    0  0.00000000000E+00 -0.00000000000E+00 -0.10403213555E+04  0.10403213555E+04  0.00000000000E+00 0. -1.
         36    2    1    2    0    0  0.35527136788E-14  0.71054273576E-14 -0.10222700102E+04  0.10583727008E+04  0.27407444223E+03 0.  0.
         25    2    3    3    0    0  0.14442293679E+01 -0.53068931291E+02 -0.29851811538E+03  0.32195768507E+03  0.10828337128E+03 0.  0.
         25    2    3    3    0    0 -0.14442293679E+01  0.53068931291E+02 -0.72375189486E+03  0.73641501570E+03  0.12518735066E+03 0.  0.
          5    1    4    4  502    0  0.27972529873E+02  0.17608353205E+02 -0.16643422268E+03  0.16974968927E+03  0.47000000000E+01 0. -1.
         -5    1    4    4    0  502 -0.26528300505E+02 -0.70677284496E+02 -0.13208389270E+03  0.15220799579E+03  0.47000000000E+01 0. -1.
          5    1    5    5  503    0 -0.61880990786E+02  0.13319251756E+02 -0.34368985162E+03  0.34950173618E+03  0.47000000000E+01 0. -1.
         -5    1    5    5    0  503  0.60436761418E+02  0.39749679535E+02 -0.38006204324E+03  0.38691327952E+03  0.47000000000E+01 0. -1.
<mgrwt>
<rscale>  0 0.27407444E+03</rscale>
<asrwt>0</asrwt>
<pdfrwt beam="1">  1        1 0.16004942E+00 0.27407444E+03</pdfrwt>
<pdfrwt beam="2">  1       -1 0.27771304E-02 0.27407444E+03</pdfrwt>
<totfact> 0.63048677E+03</totfact>
</mgrwt>
</event>
<event>
 9    1  0.2074770E-002  0.2755479E+03  0.7818608E-02  0.1098146E+00
         -2   -1    0    0    0  501 -0.00000000000E+00  0.00000000000E+00  0.13160106237E+02  0.13160106237E+02  0.00000000000E+00 0. -1.
          2   -1    0    0  501    0  0.00000000000E+00 -0.00000000000E+00 -0.14423634395E+04  0.14423634395E+04  0.00000000000E+00 0. -1.
         36    2    1    2    0    0  0.00000000000E+00  0.00000000000E+00 -0.14292033333E+04  0.14555235457E+04  0.27554786224E+03 0.  0.
         25    2    3    3    0    0  0.12281863132E+01 -0.43856757315E+02 -0.79781444428E+03  0.80893532424E+03  0.12626776189E+03 0.  0.
         25    2    3    3    0    0 -0.12281863132E+01  0.43856757315E+02 -0.63138888898E+03  0.64658822150E+03  0.13228558292E+03 0.  0.
          5    1    4    4  502    0  0.55767226569E+02  0.81902186770E+01 -0.28163067605E+03  0.28725422701E+03  0.47000000000E+01 0.  1.
         -5    1    4    4    0  502 -0.54539040256E+02 -0.52046975992E+02 -0.51618376823E+03  0.52168109723E+03  0.47000000000E+01 0.  1.
          5    1    5    5  503    0 -0.55716931111E+02  0.97636905837E+01 -0.45989472222E+03  0.46338423753E+03  0.47000000000E+01 0. -1.
         -5    1    5    5    0  503  0.54488744797E+02  0.34093066731E+02 -0.17149416676E+03  0.18320398396E+03  0.47000000000E+01 0. -1.
<mgrwt>
<rscale>  0 0.27554786E+03</rscale>
<asrwt>0</asrwt>
<pdfrwt beam="1">  1        2 0.22190205E+00 0.27554786E+03</pdfrwt>
<pdfrwt beam="2">  1       -2 0.20246319E-02 0.27554786E+03</pdfrwt>
<totfact> 0.11126286E+04</totfact>
</mgrwt>
</event>
<event>
 9    1  0.2074770E-002  0.2744505E+03  0.7818608E-02  0.1098759E+00
         -2   -1    0    0    0  501 -0.00000000000E+00  0.00000000000E+00  0.15235508270E+02  0.15235508270E+02  0.00000000000E+00 0.  1.
          2   -1    0    0  501    0  0.00000000000E+00 -0.00000000000E+00 -0.12359789305E+04  0.12359789305E+04  0.00000000000E+00 0.  1.
         36    2    1    2    0    0  0.00000000000E+00 -0.71054273576E-14 -0.12207434222E+04  0.12512144387E+04  0.27445048528E+03 0.  0.
         25    2    3    3    0    0 -0.29386736599E+02 -0.13181646046E+02 -0.41204406942E+03  0.43185540158E+03  0.12522554313E+03 0.  0.
         25    2    3    3    0    0  0.29386736599E+02  0.13181646046E+02 -0.80869935278E+03  0.81935903715E+03  0.12773900149E+03 0.  0.
          5    1    4    4  502    0 -0.21263375121E+02 -0.69086667971E+02 -0.21989511617E+03  0.23151900771E+03  0.47000000000E+01 0. -1.
         -5    1    4    4    0  502 -0.81233614783E+01  0.55905021925E+02 -0.19214895324E+03  0.20033639387E+03  0.47000000000E+01 0. -1.
          5    1    5    5  503    0  0.15557671419E+02 -0.13038564578E+02 -0.16464595652E+02  0.26555945026E+02  0.47000000000E+01 0.  1.
         -5    1    5    5    0  503  0.13829065180E+02  0.26220210625E+02 -0.79223475712E+03  0.79280309213E+03  0.47000000000E+01 0.  1.
<mgrwt>
<rscale>  0 0.27445049E+03</rscale>
<asrwt>0</asrwt>
<pdfrwt beam="1">  1        2 0.19015047E+00 0.27445049E+03</pdfrwt>
<pdfrwt beam="2">  1       -2 0.23439260E-02 0.27445049E+03</pdfrwt>
<totfact> 0.11641398E+04</totfact>
</mgrwt>
</event>
<event>
 9    1  0.2074770E-002  0.2749489E+03  0.7818608E-02  0.1098480E+00
          3   -1    0    0  501    0  0.00000000000E+00  0.00000000000E+00  0.21649741782E+03  0.21649741782E+03  0.00000000000E+00 0.  1.
         -3   -1    0    0    0  501 -0.00000000000E+00 -0.00000000000E+00 -0.87295373321E+02  0.87295373321E+02  0.00000000000E+00 0.  1.
         36    2    1    2    0    0  0.00000000000E+00  0.71054273576E-14  0.12920204450E+03  0.30379279114E+03  0.27494888916E+03 0.  0.
         25    2    3    3    0    0 -0.56615068219E+02  0.13652343911E+01  0.68309098254E+02  0.15170386284E+03  0.12304795522E+03 0.  0.
         25    2    3    3    0    0  0.56615068219E+02 -0.13652343911E+01  0.60892946247E+02  0.15208892830E+03  0.12734190746E+03 0.  0.
          5    1    4    4  502    0  0.18099701980E+02 -0.33077126568E+02 -0.86289634372E+01  0.38964657368E+02  0.47000000000E+01 0.  1.
         -5    1    4    4    0  502 -0.74714770199E+02  0.34442360959E+02  0.76938061691E+02  0.11273920548E+03  0.47000000000E+01 0.  1.
          5    1    5    5  503    0  0.95734920108E+01 -0.61741292469E+02  0.25860573812E+02  0.67782728057E+02  0.47000000000E+01 0.  1.
         -5    1    5    5    0  503  0.47041576208E+02  0.60376058077E+02  0.35032372435E+02  0.84306200244E+02  0.47000000000E+01 0.  1.
<mgrwt>
<rscale>  0 0.27494889E+03</rscale>
<asrwt>0</asrwt>
<pdfrwt beam="1">  1        3 0.33307295E-01 0.27494889E+03</pdfrwt>
<pdfrwt beam="2">  1       -3 0.13430057E-01 0.27494889E+03</pdfrwt>
<totfact> 0.10068074E+03</totfact>
</mgrwt>
</event>
<event>
 9    1  0.2074770E-002  0.2755794E+03  0.7818608E-02  0.1098128E+00
         -1   -1    0    0    0  501 -0.00000000000E+00  0.00000000000E+00  0.14857480295E+02  0.14857480295E+02  0.00000000000E+00 0. -1.
          1   -1    0    0  501    0  0.00000000000E+00 -0.00000000000E+00 -0.12778748285E+04  0.12778748285E+04  0.00000000000E+00 0. -1.
         36    2    1    2    0    0  0.14210854715E-13  0.00000000000E+00 -0.12630173482E+04  0.12927323088E+04  0.27557939026E+03 0.  0.
         25    2    3    3    0    0 -0.35368438007E+02 -0.18478161176E+02 -0.74110979490E+03  0.75340391221E+03  0.12954288089E+03 0.  0.
         25    2    3    3    0    0  0.35368438007E+02  0.18478161176E+02 -0.52190755328E+03  0.53932839656E+03  0.12998175379E+03 0.  0.
          5    1    4    4  502    0  0.37058253843E+02  0.25941131164E+02 -0.36297143536E+03  0.36580952605E+03  0.47000000000E+01 0. -1.
         -5    1    4    4    0  502 -0.72426691850E+02 -0.44419292340E+02 -0.37813835954E+03  0.38759438616E+03  0.47000000000E+01 0. -1.
          5    1    5    5  503    0 -0.49050982507E+02  0.97300683746E+01 -0.22174980541E+03  0.22736697059E+03  0.47000000000E+01 0. -1.
         -5    1    5    5    0  503  0.84419420514E+02  0.87480928013E+01 -0.30015774786E+03  0.31196142596E+03  0.47000000000E+01 0. -1.
<mgrwt>
<rscale>  0 0.27557939E+03</rscale>
<asrwt>0</asrwt>
<pdfrwt beam="1">  1        1 0.19659618E+00 0.27557939E+03</pdfrwt>
<pdfrwt beam="2">  1       -1 0.22857656E-02 0.27557939E+03</pdfrwt>
<totfact> 0.56957692E+03</totfact>
</mgrwt>
</event>
<event>
 9    1  0.2074770E-002  0.2739783E+03  0.7818608E-02  0.1099024E+00
         -1   -1    0    0    0  501 -0.00000000000E+00  0.00000000000E+00  0.50893377153E+02  0.50893377153E+02  0.00000000000E+00 0.  1.
          1   -1    0    0  501    0  0.00000000000E+00 -0.00000000000E+00 -0.36873210243E+03  0.36873210243E+03  0.00000000000E+00 0.  1.
         36    2    1    2    0    0  0.28421709430E-13  0.17763568394E-14 -0.31783872528E+03  0.41962547959E+03  0.27397826160E+03 0.  0.
         25    2    3    3    0    0 -0.66669012800E+02 -0.15081902939E+02 -0.57807658326E+02  0.12361132270E+03  0.85239736472E+02 0.  0.
         25    2    3    3    0    0  0.66669012800E+02  0.15081902939E+02 -0.26003106696E+03  0.29601415689E+03  0.12383862173E+03 0.  0.
          5    1    4    4  502    0 -0.82748242636E+02  0.50266390699E+01 -0.42261114080E+02  0.93169901379E+02  0.47000000000E+01 0.  1.
         -5    1    4    4    0  502  0.16079229836E+02 -0.20108542009E+02 -0.15546544245E+02  0.30441421317E+02  0.47000000000E+01 0.  1.
          5    1    5    5  503    0  0.29861389656E+02 -0.44180273171E+02 -0.18863062186E+03  0.19607957729E+03  0.47000000000E+01 0. -1.
         -5    1    5    5    0  503  0.36807623144E+02  0.59262176110E+02 -0.71400445099E+02  0.99934579596E+02  0.47000000000E+01 0. -1.
<mgrwt>
<rscale>  0 0.27397826E+03</rscale>
<asrwt>0</asrwt>
<pdfrwt beam="1">  1        1 0.56728015E-01 0.27397826E+03</pdfrwt>
<pdfrwt beam="2">  1       -1 0.78297504E-02 0.27397826E+03</pdfrwt>
<totfact> 0.59523757E+03</totfact>
</mgrwt>
</event>
<event>
 9    1  0.2074770E-002  0.2747678E+03  0.7818608E-02  0.1098581E+00
          2   -1    0    0  501    0  0.00000000000E+00  0.00000000000E+00  0.53728776590E+03  0.53728776590E+03  0.00000000000E+00 0. -1.
         -2   -1    0    0    0  501 -0.00000000000E+00 -0.00000000000E+00 -0.35128916151E+02  0.35128916151E+02  0.00000000000E+00 0. -1.
         36    2    1    2    0    0  0.00000000000E+00  0.00000000000E+00  0.50215884975E+03  0.57241668206E+03  0.27476780654E+03 0.  0.
         25    2    3    3    0    0  0.14335466510E+02  0.13290858185E+02  0.10710971684E+03  0.17090630036E+03  0.13173579449E+03 0.  0.
         25    2    3    3    0    0 -0.14335466510E+02 -0.13290858185E+02  0.39504913292E+03  0.40151038170E+03  0.69026202864E+02 0.  0.
          5    1    4    4  502    0  0.16398417948E+02  0.70384706009E+02  0.78619674143E+02  0.10689274116E+03  0.47000000000E+01 0. -1.
         -5    1    4    4    0  502 -0.20629514378E+01 -0.57093847824E+02  0.28490042695E+02  0.64013559195E+02  0.47000000000E+01 0. -1.
          5    1    5    5  503    0 -0.62823727303E+01  0.17927857049E+02  0.35908080268E+02  0.40894455542E+02  0.47000000000E+01 0. -1.
         -5    1    5    5    0  503 -0.80530937799E+01 -0.31218715234E+02  0.35914105265E+03  0.36061592616E+03  0.47000000000E+01 0. -1.
<mgrwt>
<rscale>  0 0.27476781E+03</rscale>
<asrwt>0</asrwt>
<pdfrwt beam="1">  1        2 0.82659650E-01 0.27476781E+03</pdfrwt>
<pdfrwt beam="2">  1       -2 0.54044491E-02 0.27476781E+03</pdfrwt>
<totfact> 0.99151984E+03</totfact>
</mgrwt>
</event>
<event>
 9    1  0.2074770E-002  0.2752121E+03  0.7818608E-02  0.1098333E+00
         -2   -1    0    0    0  501 -0.00000000000E+00  0.00000000000E+00  0.18141880450E+03  0.18141880450E+03  0.00000000000E+00 0.  1.
          2   -1    0    0  501    0  0.00000000000E+00 -0.00000000000E+00 -0.10437413851E+03  0.10437413851E+03  0.00000000000E+00 0.  1.
         36    2    1    2    0    0 -0.53290705182E-14  0.14210854715E-13  0.77044665994E+02  0.28579294301E+03  0.27521214674E+03 0.  0.
         25    2    3    3    0    0  0.62973643163E+01  0.50449091944E+02 -0.18581383928E+01  0.13208680178E+03  0.12189627907E+03 0.  0.
         25    2    3    3    0    0 -0.62973643163E+01 -0.50449091944E+02  0.78902804387E+02  0.15370614123E+03  0.12171753216E+03 0.  0.
          5    1    4    4  502    0  0.42131970791E+02  0.72726001031E+02  0.16585331169E+02  0.85798236570E+02  0.47000000000E+01 0. -1.
         -5    1    4    4    0  502 -0.35834606474E+02 -0.22276909087E+02 -0.18443469562E+02  0.46288565209E+02  0.47000000000E+01 0. -1.
          5    1    5    5  503    0  0.95995977561E+01 -0.12085259775E+02 -0.31646054964E+02  0.35521381951E+02  0.47000000000E+01 0. -1.
         -5    1    5    5    0  503 -0.15896962072E+02 -0.38363832169E+02  0.11054885935E+03  0.11818475928E+03  0.47000000000E+01 0. -1.
<mgrwt>
<rscale>  0 0.27521215E+03</rscale>
<asrwt>0</asrwt>
<pdfrwt beam="1">  1        2 0.16057560E-01 0.27521215E+03</pdfrwt>
<pdfrwt beam="2">  1       -2 0.27910585E-01 0.27521215E+03</pdfrwt>
<totfact> 0.41664224E+03</totfact>
</mgrwt>
</event>
<event>
 9    1  0.2074770E-002  0.2751138E+03  0.7818608E-02  0.1098388E+00
          1   -1    0    0  501    0  0.00000000000E+00  0.00000000000E+00  0.16548272222E+04  0.16548272222E+04  0.00000000000E+00 0.  1.
         -1   -1    0    0    0  501 -0.00000000000E+00 -0.00000000000E+00 -0.11434367445E+02  0.11434367445E+02  0.00000000000E+00 0.  1.
         36    2    1    2    0    0  0.71054273576E-14  0.14210854715E-13  0.16433928548E+04  0.16662615897E+04  0.27511381293E+03 0.  0.
         25    2    3    3    0    0  0.53002569227E+02  0.27034495822E+02  0.77844142520E+03  0.79045529507E+03  0.12372705737E+03 0.  0.
         25    2    3    3    0    0 -0.53002569227E+02 -0.27034495822E+02  0.86495142960E+03  0.87580629463E+03  0.12391752831E+03 0.  0.
          5    1    4    4  502    0  0.11199207663E+02  0.73474283338E+02  0.40374343668E+03  0.41055419280E+03  0.47000000000E+01 0. -1.
         -5    1    4    4    0  502  0.41803361564E+02 -0.46439787516E+02  0.37469798852E+03  0.37990110227E+03  0.47000000000E+01 0. -1.
          5    1    5    5  503    0 -0.52176343450E+02  0.41305777279E+02  0.50568251364E+03  0.51006414563E+03  0.47000000000E+01 0. -1.
         -5    1    5    5    0  503 -0.82622577718E+00 -0.68340273102E+02  0.35926891596E+03  0.36574214900E+03  0.47000000000E+01 0. -1.
<mgrwt>
<rscale>  0 0.27511381E+03</rscale>
<asrwt>0</asrwt>
<pdfrwt beam="1">  1        1 0.25458861E+00 0.27511381E+03</pdfrwt>
<pdfrwt beam="2">  1       -1 0.17591348E-02 0.27511381E+03</pdfrwt>
<totfact> 0.46811912E+03</totfact>
</mgrwt>
</event>
<event>
 9    1  0.2074770E-002  0.2714568E+03  0.7818608E-02  0.1100449E+00
          1   -1    0    0  501    0  0.00000000000E+00  0.00000000000E+00  0.50547804501E+03  0.50547804501E+03  0.00000000000E+00 0. -1.
         -1   -1    0    0    0  501 -0.00000000000E+00 -0.00000000000E+00 -0.36445088206E+02  0.36445088206E+02  0.00000000000E+00 0. -1.
         36    2    1    2    0    0  0.71054273576E-14 -0.17763568394E-14  0.46903295680E+03  0.54192313321E+03  0.27145675115E+03 0.  0.
         25    2    3    3    0    0 -0.26910210542E+02 -0.93542957018E+01  0.23651984116E+03  0.27193680610E+03  0.13113477406E+03 0.  0.
         25    2    3    3    0    0  0.26910210542E+02  0.93542957018E+01  0.23251311564E+03  0.26998632711E+03  0.13423339973E+03 0.  0.
          5    1    4    4  502    0 -0.40596723607E+02  0.76560498600E+01  0.80163608493E+01  0.42344552286E+02  0.47000000000E+01 0. -1.
         -5    1    4    4    0  502  0.13686513065E+02 -0.17010345562E+02  0.22850348032E+03  0.22959225382E+03  0.47000000000E+01 0. -1.
          5    1    5    5  503    0  0.23278582569E+02  0.31631866016E+02  0.24188558695E+03  0.24509833644E+03  0.47000000000E+01 0.  1.
         -5    1    5    5    0  503  0.36316279733E+01 -0.22277570314E+02 -0.93724713130E+01  0.24887990665E+02  0.47000000000E+01 0.  1.
<mgrwt>
<rscale>  0 0.27145675E+03</rscale>
<asrwt>0</asrwt>
<pdfrwt beam="1">  1        1 0.77765848E-01 0.27145675E+03</pdfrwt>
<pdfrwt beam="2">  1       -1 0.56069370E-02 0.27145675E+03</pdfrwt>
<totfact> 0.65533511E+03</totfact>
</mgrwt>
</event>
<event>
 9    1  0.2074770E-002  0.2736148E+03  0.7818608E-02  0.1099228E+00
         -2   -1    0    0    0  501 -0.00000000000E+00  0.00000000000E+00  0.12242933252E+04  0.12242933252E+04  0.00000000000E+00 0.  1.
          2   -1    0    0  501    0  0.00000000000E+00 -0.00000000000E+00 -0.15287404499E+02  0.15287404499E+02  0.00000000000E+00 0.  1.
         36    2    1    2    0    0  0.00000000000E+00  0.71054273576E-14  0.12090059207E+04  0.12395807297E+04  0.27361481896E+03 0.  0.
         25    2    3    3    0    0  0.72475414286E+00  0.36874293830E+02  0.43871767252E+03  0.45817793726E+03  0.12686050293E+03 0.  0.
         25    2    3    3    0    0 -0.72475414286E+00 -0.36874293830E+02  0.77028824819E+03  0.78140279244E+03  0.12604007268E+03 0.  0.
          5    1    4    4  502    0  0.30135212522E+02  0.16727422230E+02  0.24846871000E+02  0.42748037226E+02  0.47000000000E+01 0.  1.
         -5    1    4    4    0  502 -0.29410458379E+02  0.20146871601E+02  0.41387080152E+03  0.41542990004E+03  0.47000000000E+01 0.  1.
          5    1    5    5  503    0  0.18354044307E+02  0.16805004000E+02  0.31553542393E+02  0.40459796581E+02  0.47000000000E+01 0. -1.
         -5    1    5    5    0  503 -0.19078798449E+02 -0.53679297830E+02  0.73873470579E+03  0.74094299586E+03  0.47000000000E+01 0. -1.
<mgrwt>
<rscale>  0 0.27361482E+03</rscale>
<asrwt>0</asrwt>
<pdfrwt beam="1">  1        2 0.23519093E-02 0.27361482E+03</pdfrwt>
<pdfrwt beam="2">  1       -2 0.18835274E+00 0.27361482E+03</pdfrwt>
<totfact> 0.74999462E+02</totfact>
</mgrwt>
</event>
<event>
 9    1  0.2074770E-002  0.2745603E+03  0.7818608E-02  0.1098698E+00
          2   -1    0    0  501    0  0.00000000000E+00  0.00000000000E+00  0.15511985864E+04  0.15511985864E+04  0.00000000000E+00 0. -1.
         -2   -1    0    0    0  501 -0.00000000000E+00 -0.00000000000E+00 -0.12149211065E+02  0.12149211065E+02  0.00000000000E+00 0. -1.
         36    2    1    2    0    0 -0.71054273576E-14  0.88817841970E-15  0.15390493753E+04  0.15633477975E+04  0.27456029597E+03 0.  0.
         25    2    3    3    0    0 -0.37826079672E+02 -0.76066454072E+01  0.10267522570E+04  0.10344846547E+04  0.12020661453E+03 0.  0.
         25    2    3    3    0    0  0.37826079672E+02  0.76066454072E+01  0.51229711833E+03  0.52886314277E+03  0.12553570398E+03 0.  0.
          5    1    4    4  502    0  0.40944069779E+02  0.14037560101E+02  0.30054472368E+03  0.30368189092E+03  0.47000000000E+01 0.  1.
         -5    1    4    4    0  502 -0.78770149451E+02 -0.21644205509E+02  0.72620753332E+03  0.73080276377E+03  0.47000000000E+01 0.  1.
          5    1    5    5  503    0  0.44439108880E+02  0.14381000551E+02  0.58790495985E+02  0.75233370209E+02  0.47000000000E+01 0. -1.
         -5    1    5    5    0  503 -0.66130292079E+01 -0.67743551438E+01  0.45350662234E+03  0.45362977256E+03  0.47000000000E+01 0. -1.
<mgrwt>
<rscale>  0 0.27456030E+03</rscale>
<asrwt>0</asrwt>
<pdfrwt beam="1">  1        2 0.23864578E+00 0.27456030E+03</pdfrwt>
<pdfrwt beam="2">  1       -2 0.18691106E-02 0.27456030E+03</pdfrwt>
<totfact> 0.10941037E+04</totfact>
</mgrwt>
</event>
<event>
 9    1  0.2074770E-002  0.2752645E+03  0.7818608E-02  0.1098304E+00
         -1   -1    0    0    0  501 -0.00000000000E+00  0.00000000000E+00  0.13657005815E+03  0.13657005815E+03  0.00000000000E+00 0. -1.
          1   -1    0    0  501    0  0.00000000000E+00 -0.00000000000E+00 -0.13870274144E+03  0.13870274144E+03  0.00000000000E+00 0. -1.
         36    2    1    2    0    0  0.00000000000E+00  0.00000000000E+00 -0.21326832956E+01  0.27527279959E+03  0.27526453795E+03 0.  0.
         25    2    3    3    0    0 -0.56391101509E+02  0.24327898679E+00 -0.33906846085E+02  0.13515987693E+03  0.11806143573E+03 0.  0.
         25    2    3    3    0    0  0.56391101509E+02 -0.24327898679E+00  0.31774162789E+02  0.14011292265E+03  0.12426591713E+03 0.  0.
          5    1    4    4  502    0 -0.44944039590E+02 -0.29788689434E+01  0.39837289588E+02  0.60315337988E+02  0.47000000000E+01 0. -1.
         -5    1    4    4    0  502 -0.11447061919E+02  0.32221479302E+01 -0.73744135673E+02  0.74844538945E+02  0.47000000000E+01 0. -1.
          5    1    5    5  503    0  0.60995861217E+02  0.45188136411E+02 -0.11625766478E+02  0.76939659501E+02  0.47000000000E+01 0. -1.
         -5    1    5    5    0  503 -0.46047597077E+01 -0.45431415398E+02  0.43399929267E+02  0.63173263153E+02  0.47000000000E+01 0. -1.
<mgrwt>
<rscale>  0 0.27526454E+03</rscale>
<asrwt>0</asrwt>
<pdfrwt beam="1">  1        1 0.21338883E-01 0.27526454E+03</pdfrwt>
<pdfrwt beam="2">  1       -1 0.21010778E-01 0.27526454E+03</pdfrwt>
<totfact> 0.43373529E+03</totfact>
</mgrwt>
</event>
<event>
 9    1  0.2074770E-002  0.2748443E+03  0.7818608E-02  0.1098539E+00
         -1   -1    0    0    0  501 -0.00000000000E+00  0.00000000000E+00  0.52100356089E+02  0.52100356089E+02  0.00000000000E+00 0. -1.
          1   -1    0    0  501    0  0.00000000000E+00 -0.00000000000E+00 -0.36247067799E+03  0.36247067799E+03  0.00000000000E+00 0. -1.
         36    2    1    2    0    0 -0.71054273576E-14  0.35527136788E-14 -0.31037032190E+03  0.41457103408E+03  0.27484432972E+03 0.  0.
         25    2    3    3    0    0 -0.39861685854E+02 -0.75253336428E+01 -0.17848858493E+03  0.22551209431E+03  0.13172678195E+03 0.  0.
         25    2    3    3    0    0  0.39861685854E+02  0.75253336428E+01 -0.13188173697E+03  0.18905893977E+03  0.12924745845E+03 0.  0.
          5    1    4    4  502    0 -0.98221171722E+01 -0.35323907192E+02  0.51392450922E+01  0.37319622790E+02  0.47000000000E+01 0.  1.
         -5    1    4    4    0  502 -0.30039568682E+02  0.27798573549E+02 -0.18362783002E+03  0.18819247152E+03  0.47000000000E+01 0.  1.
          5    1    5    5  503    0 -0.44283526990E+02  0.10045896567E+02 -0.73434827670E+02  0.86467998216E+02  0.47000000000E+01 0.  1.
         -5    1    5    5    0  503  0.84145212845E+02 -0.25205629242E+01 -0.58446909301E+02  0.10259094155E+03  0.47000000000E+01 0.  1.
<mgrwt>
<rscale>  0 0.27484433E+03</rscale>
<asrwt>0</asrwt>
<pdfrwt beam="1">  1        1 0.55764720E-01 0.27484433E+03</pdfrwt>
<pdfrwt beam="2">  1       -1 0.80154393E-02 0.27484433E+03</pdfrwt>
<totfact> 0.58702872E+03</totfact>
</mgrwt>
</event>
<event>
 9    1  0.2074770E-002  0.2746516E+03  0.7818608E-02  0.1098646E+00
          2   -1    0    0  501    0  0.00000000000E+00  0.00000000000E+00  0.35631574150E+02  0.35631574150E+02  0.00000000000E+00 0.  1.
         -2   -1    0    0    0  501 -0.00000000000E+00 -0.00000000000E+00 -0.52926027976E+03  0.52926027976E+03  0.00000000000E+00 0.  1.
         36    2    1    2    0    0  0.44408920985E-14  0.14210854715E-13 -0.49362870561E+03  0.56489185391E+03  0.27465161134E+03 0.  0.
         25    2    3    3    0    0  0.16360400281E+01  0.39832707277E+02 -0.16537672727E+03  0.21208791968E+03  0.12665900109E+03 0.  0.
         25    2    3    3    0    0 -0.16360400281E+01 -0.39832707277E+02 -0.32825197834E+03  0.35280393423E+03  0.12301192433E+03 0.  0.
          5    1    4    4  502    0  0.17954082051E+01  0.60582617715E+02 -0.18308020398E+02  0.63488193160E+02  0.47000000000E+01 0. -1.
         -5    1    4    4    0  502 -0.15936817703E+00 -0.20749910438E+02 -0.14706870687E+03  0.14859972652E+03  0.47000000000E+01 0. -1.
          5    1    5    5  503    0  0.32376956540E+02 -0.73449676513E+02 -0.22448577839E+03  0.23845141432E+03  0.47000000000E+01 0.  1.
         -5    1    5    5    0  503 -0.34012996568E+02  0.33616969236E+02 -0.10376619996E+03  0.11435251991E+03  0.47000000000E+01 0.  1.
<mgrwt>
<rscale>  0 0.27465161E+03</rscale>
<asrwt>0</asrwt>
<pdfrwt beam="1">  1        2 0.54817808E-02 0.27465161E+03</pdfrwt>
<pdfrwt beam="2">  1       -2 0.81424656E-01 0.27465161E+03</pdfrwt>
<totfact> 0.19023904E+03</totfact>
</mgrwt>
</event>
<event>
 9    1  0.2074770E-002  0.2748208E+03  0.7818608E-02  0.1098552E+00
         -1   -1    0    0    0  501 -0.00000000000E+00  0.00000000000E+00  0.73783464549E+02  0.73783464549E+02  0.00000000000E+00 0.  1.
          1   -1    0    0  501    0  0.00000000000E+00 -0.00000000000E+00 -0.25590590587E+03  0.25590590587E+03  0.00000000000E+00 0.  1.
         36    2    1    2    0    0  0.00000000000E+00  0.26645352591E-14 -0.18212244132E+03  0.32968937042E+03  0.27482084589E+03 0.  0.
         25    2    3    3    0    0  0.49947926523E+02  0.28856997128E+01 -0.92161430289E+02  0.16342107504E+03  0.12533792686E+03 0.  0.
         25    2    3    3    0    0 -0.49947926523E+02 -0.28856997128E+01 -0.89961011031E+02  0.16626829537E+03  0.13057197216E+03 0.  0.
          5    1    4    4  502    0 -0.87914193461E+01  0.48189908549E+01  0.27706955686E+02  0.29837511967E+02  0.47000000000E+01 0.  1.
         -5    1    4    4    0  502  0.58739345869E+02 -0.19332911421E+01 -0.11986838598E+03  0.13358356308E+03  0.47000000000E+01 0.  1.
          5    1    5    5  503    0 -0.84083157735E+02  0.31726816845E+02 -0.48654888573E+02  0.10230325754E+03  0.47000000000E+01 0.  1.
         -5    1    5    5    0  503  0.34135231211E+02 -0.34612516557E+02 -0.41306122458E+02  0.63965037832E+02  0.47000000000E+01 0.  1.
<mgrwt>
<rscale>  0 0.27482085E+03</rscale>
<asrwt>0</asrwt>
<pdfrwt beam="1">  1        1 0.39370139E-01 0.27482085E+03</pdfrwt>
<pdfrwt beam="2">  1       -1 0.11351302E-01 0.27482085E+03</pdfrwt>
<totfact> 0.53231870E+03</totfact>
</mgrwt>
</event>
<event>
 9    1  0.2074770E-002  0.2754251E+03  0.7818608E-02  0.1098214E+00
         -1   -1    0    0    0  501 -0.00000000000E+00  0.00000000000E+00  0.76568999822E+02  0.76568999822E+02  0.00000000000E+00 0.  1.
          1   -1    0    0  501    0  0.00000000000E+00 -0.00000000000E+00 -0.24768170353E+03  0.24768170353E+03  0.00000000000E+00 0.  1.
         36    2    1    2    0    0 -0.71054273576E-14  0.17763568394E-14 -0.17111270371E+03  0.32425070335E+03  0.27542505560E+03 0.  0.
         25    2    3    3    0    0  0.53236573900E+02  0.11341054357E+01 -0.89985894704E+02  0.16315505842E+03  0.12524652828E+03 0.  0.
         25    2    3    3    0    0 -0.53236573900E+02 -0.11341054357E+01 -0.81126809006E+02  0.16109564493E+03  0.12858782478E+03 0.  0.
          5    1    4    4  502    0  0.55064804293E+02  0.99099048764E+01  0.14653577055E+02  0.58027202302E+02  0.47000000000E+01 0. -1.
         -5    1    4    4    0  502 -0.18282303930E+01 -0.87757994407E+01 -0.10463947176E+03  0.10512785612E+03  0.47000000000E+01 0. -1.
          5    1    5    5  503    0 -0.72398022455E+02  0.43725490818E+02 -0.72157204069E+02  0.11127508392E+03  0.47000000000E+01 0. -1.
         -5    1    5    5    0  503  0.19161448555E+02 -0.44859596253E+02 -0.89696049368E+01  0.49820561011E+02  0.47000000000E+01 0. -1.
<mgrwt>
<rscale>  0 0.27542506E+03</rscale>
<asrwt>0</asrwt>
<pdfrwt beam="1">  1        1 0.38104877E-01 0.27542506E+03</pdfrwt>
<pdfrwt beam="2">  1       -1 0.11779846E-01 0.27542506E+03</pdfrwt>
<totfact> 0.52351795E+03</totfact>
</mgrwt>
</event>
<event>
 9    1  0.2074770E-002  0.2712251E+03  0.7818608E-02  0.1100581E+00
          2   -1    0    0  501    0  0.00000000000E+00  0.00000000000E+00  0.11503221441E+04  0.11503221441E+04  0.00000000000E+00 0.  1.
         -2   -1    0    0    0  501 -0.00000000000E+00 -0.00000000000E+00 -0.15987485408E+02  0.15987485408E+02  0.00000000000E+00 0.  1.
         36    2    1    2    0    0  0.00000000000E+00  0.35527136788E-14  0.11343346587E+04  0.11663096295E+04  0.27122506148E+03 0.  0.
         25    2    3    3    0    0  0.17080777528E+00  0.11836932193E+02  0.78424444338E+03  0.79405563577E+03  0.12387438632E+03 0.  0.
         25    2    3    3    0    0 -0.17080777528E+00 -0.11836932193E+02  0.35009021532E+03  0.37225399375E+03  0.12597513588E+03 0.  0.
          5    1    4    4  502    0  0.32207840544E+02 -0.46342090873E+02  0.30566700587E+03  0.31086869070E+03  0.47000000000E+01 0. -1.
         -5    1    4    4    0  502 -0.32037032769E+02  0.58179023066E+02  0.47857743751E+03  0.48318694507E+03  0.47000000000E+01 0. -1.
          5    1    5    5  503    0 -0.47223509457E+02  0.24990880357E+01  0.29265672704E+03  0.29649005913E+03  0.47000000000E+01 0. -1.
         -5    1    5    5    0  503  0.47052701682E+02 -0.14336020229E+02  0.57433488287E+02  0.75763934615E+02  0.47000000000E+01 0. -1.
<mgrwt>
<rscale>  0 0.27122506E+03</rscale>
<asrwt>0</asrwt>
<pdfrwt beam="1">  1        2 0.17697257E+00 0.27122506E+03</pdfrwt>
<pdfrwt beam="2">  1       -2 0.24596140E-02 0.27122506E+03</pdfrwt>
<totfact> 0.12125703E+04</totfact>
</mgrwt>
</event>
<event>
 9    1  0.2074770E-002  0.2744721E+03  0.7818608E-02  0.1098747E+00
          2   -1    0    0  501    0  0.00000000000E+00  0.00000000000E+00  0.19368734998E+03  0.19368734998E+03  0.00000000000E+00 0.  1.
         -2   -1    0    0    0  501 -0.00000000000E+00 -0.00000000000E+00 -0.97237814748E+02  0.97237814748E+02  0.00000000000E+00 0.  1.
         36    2    1    2    0    0  0.00000000000E+00  0.00000000000E+00  0.96449535230E+02  0.29092516473E+03  0.27447210901E+03 0.  0.
         25    2    3    3    0    0 -0.53123008412E+02 -0.12940665259E+01  0.32315462400E+02  0.14044286629E+03  0.12592132842E+03 0.  0.
         25    2    3    3    0    0  0.53123008412E+02  0.12940665259E+01  0.64134072829E+02  0.15048229843E+03  0.12533161697E+03 0.  0.
          5    1    4    4  502    0 -0.69199711183E+02  0.34597383544E+02  0.54775359258E+02  0.94910531332E+02  0.47000000000E+01 0.  1.
         -5    1    4    4    0  502  0.16076702771E+02 -0.35891450070E+02 -0.22459896857E+02  0.45532334961E+02  0.47000000000E+01 0.  1.
          5    1    5    5  503    0  0.43627807956E+02  0.42649878688E+02  0.83567311932E+02  0.10357597889E+03  0.47000000000E+01 0.  1.
         -5    1    5    5    0  503  0.94952004558E+01 -0.41355812162E+02 -0.19433239103E+02  0.46906319545E+02  0.47000000000E+01 0.  1.
<mgrwt>
<rscale>  0 0.27447211E+03</rscale>
<asrwt>0</asrwt>
<pdfrwt beam="1">  1        2 0.29798054E-01 0.27447211E+03</pdfrwt>
<pdfrwt beam="2">  1       -2 0.14959664E-01 0.27447211E+03</pdfrwt>
<totfact> 0.60295489E+03</totfact>
</mgrwt>
</event>
<event>
 9    1  0.2074770E-002  0.2753587E+03  0.7818608E-02  0.1098251E+00
          2   -1    0    0  501    0  0.00000000000E+00  0.00000000000E+00  0.15931748985E+03  0.15931748985E+03  0.00000000000E+00 0. -1.
         -2   -1    0    0    0  501 -0.00000000000E+00 -0.00000000000E+00 -0.11898001427E+03  0.11898001427E+03  0.00000000000E+00 0. -1.
         36    2    1    2    0    0  0.00000000000E+00  0.14210854715E-13  0.40337475584E+02  0.27829750411E+03  0.27535865496E+03 0.  0.
         25    2    3    3    0    0 -0.32666929658E+02  0.35785692391E+02  0.55081818012E+02  0.14534943152E+03  0.12547791237E+03 0.  0.
         25    2    3    3    0    0  0.32666929658E+02 -0.35785692391E+02 -0.14744342428E+02  0.13294807260E+03  0.12292294456E+03 0.  0.
          5    1    4    4  502    0  0.57617648827E+01 -0.38053561976E+02  0.47959857149E+02  0.61672598546E+02  0.47000000000E+01 0.  1.
         -5    1    4    4    0  502 -0.38428694541E+02  0.73839254367E+02  0.71219608634E+01  0.83676832972E+02  0.47000000000E+01 0.  1.
          5    1    5    5  503    0  0.27222876210E+02  0.10044805776E+02  0.47171357171E+02  0.55580662551E+02  0.47000000000E+01 0.  1.
         -5    1    5    5    0  503  0.54440534481E+01 -0.45830498167E+02 -0.61915699600E+02  0.77367410045E+02  0.47000000000E+01 0.  1.
<mgrwt>
<rscale>  0 0.27535865E+03</rscale>
<asrwt>0</asrwt>
<pdfrwt beam="1">  1        2 0.24510383E-01 0.27535865E+03</pdfrwt>
<pdfrwt beam="2">  1       -2 0.18304618E-01 0.27535865E+03</pdfrwt>
<totfact> 0.53453636E+03</totfact>
</mgrwt>
</event>
<event>
 9    1  0.2074770E-002  0.2746303E+03  0.7818608E-02  0.1098658E+00
         -1   -1    0    0    0  501 -0.00000000000E+00  0.00000000000E+00  0.30582920615E+02  0.30582920615E+02  0.00000000000E+00 0.  1.
          1   -1    0    0  501    0  0.00000000000E+00 -0.00000000000E+00 -0.61653549834E+03  0.61653549834E+03  0.00000000000E+00 0.  1.
         36    2    1    2    0    0  0.00000000000E+00 -0.35527136788E-14 -0.58595257773E+03  0.64711841896E+03  0.27463034211E+03 0.  0.
         25    2    3    3    0    0  0.36687381359E+02  0.81254389710E+01 -0.19093586975E+03  0.23124636295E+03  0.12492552706E+03 0.  0.
         25    2    3    3    0    0 -0.36687381359E+02 -0.81254389710E+01 -0.39501670797E+03  0.41587205600E+03  0.12449650870E+03 0.  0.
          5    1    4    4  502    0  0.54309972210E+02 -0.27786732995E+02 -0.35634145901E+02  0.70806482515E+02  0.47000000000E+01 0. -1.
         -5    1    4    4    0  502 -0.17622590852E+02  0.35912171966E+02 -0.15530172385E+03  0.16043988044E+03  0.47000000000E+01 0. -1.
          5    1    5    5  503    0 -0.69922285365E+02 -0.42477268381E+02 -0.25545485658E+03  0.26827731561E+03  0.47000000000E+01 0.  1.
         -5    1    5    5    0  503  0.33234904006E+02  0.34351829410E+02 -0.13956185139E+03  0.14759474040E+03  0.47000000000E+01 0.  1.
<mgrwt>
<rscale>  0 0.27463034E+03</rscale>
<asrwt>0</asrwt>
<pdfrwt beam="1">  1        1 0.94851607E-01 0.27463034E+03</pdfrwt>
<pdfrwt beam="2">  1       -1 0.47050651E-02 0.27463034E+03</pdfrwt>
<totfact> 0.65046833E+03</totfact>
</mgrwt>
</event>
<event>
 9    1  0.2074770E-002  0.2762962E+03  0.7818608E-02  0.1097729E+00
          1   -1    0    0  501    0  0.00000000000E+00  0.00000000000E+00  0.16146484273E+04  0.16146484273E+04  0.00000000000E+00 0.  1.
         -1   -1    0    0    0  501 -0.00000000000E+00 -0.00000000000E+00 -0.11819846708E+02  0.11819846708E+02  0.00000000000E+00 0.  1.
         36    2    1    2    0    0 -0.14210854715E-13 -0.71054273576E-14  0.16028285806E+04  0.16264682740E+04  0.27629619540E+03 0.  0.
         25    2    3    3    0    0 -0.48613610805E+02 -0.24108225660E+02  0.70213439487E+03  0.71526855022E+03  0.12518746253E+03 0.  0.
         25    2    3    3    0    0  0.48613610805E+02  0.24108225660E+02  0.90069418569E+03  0.91119972376E+03  0.12684806162E+03 0.  0.
          5    1    4    4  502    0 -0.11215952155E+02  0.64320725075E+01  0.61797796334E+03  0.61813107212E+03  0.47000000000E+01 0.  1.
         -5    1    4    4    0  502 -0.37397658651E+02 -0.30540298167E+02  0.84156431524E+02  0.97137478100E+02  0.47000000000E+01 0.  1.
          5    1    5    5  503    0 -0.12498462096E+02 -0.43978563136E+02  0.33427551993E+03  0.33742041846E+03  0.47000000000E+01 0. -1.
         -5    1    5    5    0  503  0.61112072901E+02  0.68086788796E+02  0.56641866576E+03  0.57377930530E+03  0.47000000000E+01 0. -1.
<mgrwt>
<rscale>  0 0.27629620E+03</rscale>
<asrwt>0</asrwt>
<pdfrwt beam="1">  1        1 0.24840728E+00 0.27629620E+03</pdfrwt>
<pdfrwt beam="2">  1       -1 0.18184392E-02 0.27629620E+03</pdfrwt>
<totfact> 0.47388140E+03</totfact>
</mgrwt>
</event>
<event>
 9    1  0.2074770E-002  0.2753354E+03  0.7818608E-02  0.1098264E+00
          2   -1    0    0  501    0  0.00000000000E+00  0.00000000000E+00  0.98612572660E+03  0.98612572660E+03  0.00000000000E+00 0.  1.
         -2   -1    0    0    0  501 -0.00000000000E+00 -0.00000000000E+00 -0.19219043039E+02  0.19219043039E+02  0.00000000000E+00 0.  1.
         36    2    1    2    0    0  0.00000000000E+00 -0.71054273576E-14  0.96690668356E+03  0.10053447696E+04  0.27533537936E+03 0.  0.
         25    2    3    3    0    0  0.74300297344E+01  0.59128828409E+02  0.44041454348E+03  0.46092899649E+03  0.12222579924E+03 0.  0.
         25    2    3    3    0    0 -0.74300297344E+01 -0.59128828409E+02  0.52649214008E+03  0.54441577315E+03  0.12507252617E+03 0.  0.
          5    1    4    4  502    0  0.62814321124E+02  0.38769790594E+02  0.29004959776E+03  0.29933191404E+03  0.47000000000E+01 0.  1.
         -5    1    4    4    0  502 -0.55384291389E+02  0.20359037815E+02  0.15036494572E+03  0.16159708245E+03  0.47000000000E+01 0.  1.
          5    1    5    5  503    0  0.48037963681E+02  0.68951295004E+01  0.25148299899E+03  0.25616591800E+03  0.47000000000E+01 0.  1.
         -5    1    5    5    0  503 -0.55467993415E+02 -0.66023957910E+02  0.27500914109E+03  0.28824985515E+03  0.47000000000E+01 0.  1.
<mgrwt>
<rscale>  0 0.27533538E+03</rscale>
<asrwt>0</asrwt>
<pdfrwt beam="1">  1        2 0.15171161E+00 0.27533538E+03</pdfrwt>
<pdfrwt beam="2">  1       -2 0.29567766E-02 0.27533538E+03</pdfrwt>
<totfact> 0.11563141E+04</totfact>
</mgrwt>
</event>
<event>
 9    1  0.2074770E-002  0.2747307E+03  0.7818608E-02  0.1098602E+00
          2   -1    0    0  501    0  0.00000000000E+00  0.00000000000E+00  0.15653570900E+04  0.15653570900E+04  0.00000000000E+00 0.  1.
         -2   -1    0    0    0  501 -0.00000000000E+00 -0.00000000000E+00 -0.12054275711E+02  0.12054275711E+02  0.00000000000E+00 0.  1.
         36    2    1    2    0    0 -0.71054273576E-14 -0.71054273576E-14  0.15533028142E+04  0.15774113657E+04  0.27473074781E+03 0.  0.
         25    2    3    3    0    0 -0.11406953705E+02  0.36494918754E+02  0.10366093138E+04  0.10454998373E+04  0.13057198270E+03 0.  0.
         25    2    3    3    0    0  0.11406953705E+02 -0.36494918754E+02  0.51669350048E+03  0.53191152839E+03  0.12039810178E+03 0.  0.
          5    1    4    4  502    0 -0.29413455717E+02  0.38597425389E+02  0.13231426556E+03  0.14101087722E+03  0.47000000000E+01 0.  1.
         -5    1    4    4    0  502  0.18006502012E+02 -0.21025066347E+01  0.90429504821E+03  0.90448896005E+03  0.47000000000E+01 0.  1.
          5    1    5    5  503    0 -0.52855408621E+02 -0.54759631563E+01  0.18164113872E+03  0.18931263473E+03  0.47000000000E+01 0. -1.
         -5    1    5    5    0  503  0.64262362326E+02 -0.31018955598E+02  0.33505236176E+03  0.34259889367E+03  0.47000000000E+01 0. -1.
<mgrwt>
<rscale>  0 0.27473075E+03</rscale>
<asrwt>0</asrwt>
<pdfrwt beam="1">  1        2 0.24082401E+00 0.27473075E+03</pdfrwt>
<pdfrwt beam="2">  1       -2 0.18545052E-02 0.27473075E+03</pdfrwt>
<totfact> 0.10877700E+04</totfact>
</mgrwt>
</event>
<event>
 9    1  0.2074770E-002  0.2752673E+03  0.7818608E-02  0.1098302E+00
         -3   -1    0    0    0  501 -0.00000000000E+00  0.00000000000E+00  0.38022832603E+02  0.38022832603E+02  0.00000000000E+00 0.  1.
          3   -1    0    0  501    0  0.00000000000E+00 -0.00000000000E+00 -0.49820118270E+03  0.49820118270E+03  0.00000000000E+00 0.  1.
         36    2    1    2    0    0 -0.71054273576E-14 -0.35527136788E-14 -0.46017835009E+03  0.53622401530E+03  0.27526728954E+03 0.  0.
         25    2    3    3    0    0 -0.42854751096E+02 -0.18188070725E+02 -0.31178593892E+03  0.33647379768E+03  0.11762996731E+03 0.  0.
         25    2    3    3    0    0  0.42854751096E+02  0.18188070725E+02 -0.14839241118E+03  0.19975021762E+03  0.12534953584E+03 0.  0.
          5    1    4    4  502    0 -0.50117626234E+02 -0.50151835003E+02 -0.28545875613E+03  0.29416963553E+03  0.47000000000E+01 0. -1.
         -5    1    4    4    0  502  0.72628751373E+01  0.31963764279E+02 -0.26327182789E+02  0.42304162156E+02  0.47000000000E+01 0. -1.
          5    1    5    5  503    0  0.17010958891E+02 -0.50607028722E+02 -0.93981212364E+02  0.10818965919E+03  0.47000000000E+01 0. -1.
         -5    1    5    5    0  503  0.25843792205E+02  0.68795099447E+02 -0.54411198811E+02  0.91560558427E+02  0.47000000000E+01 0. -1.
<mgrwt>
<rscale>  0 0.27526729E+03</rscale>
<asrwt>0</asrwt>
<pdfrwt beam="1">  1        3 0.76646332E-01 0.27526729E+03</pdfrwt>
<pdfrwt beam="2">  1       -3 0.58496668E-02 0.27526729E+03</pdfrwt>
<totfact> 0.73822384E+02</totfact>
</mgrwt>
</event>
<event>
 9    1  0.2074770E-002  0.2742997E+03  0.7818608E-02  0.1098844E+00
         -1   -1    0    0    0  501 -0.00000000000E+00  0.00000000000E+00  0.31177109355E+02  0.31177109355E+02  0.00000000000E+00 0. -1.
          1   -1    0    0  501    0  0.00000000000E+00 -0.00000000000E+00 -0.60332966186E+03  0.60332966186E+03  0.00000000000E+00 0. -1.
         36    2    1    2    0    0 -0.71054273576E-14  0.00000000000E+00 -0.57215255250E+03  0.63450677121E+03  0.27429965253E+03 0.  0.
         25    2    3    3    0    0  0.27680257690E+02  0.37778806408E+02 -0.31861967745E+03  0.34808978027E+03  0.13211571212E+03 0.  0.
         25    2    3    3    0    0 -0.27680257690E+02 -0.37778806408E+02 -0.25353287505E+03  0.28641699095E+03  0.12474910457E+03 0.  0.
          5    1    4    4  502    0  0.42488550784E+02  0.22489880617E+02 -0.26377350395E+02  0.55035681987E+02  0.47000000000E+01 0.  1.
         -5    1    4    4    0  502 -0.14808293095E+02  0.15288925791E+02 -0.29224232706E+03  0.29305409828E+03  0.47000000000E+01 0.  1.
          5    1    5    5  503    0 -0.61073818639E+01 -0.64227846148E+02 -0.24135682200E+03  0.24987541268E+03  0.47000000000E+01 0.  1.
         -5    1    5    5    0  503 -0.21572875826E+02  0.26449039740E+02 -0.12176053053E+02  0.36541578271E+02  0.47000000000E+01 0.  1.
<mgrwt>
<rscale>  0 0.27429965E+03</rscale>
<asrwt>0</asrwt>
<pdfrwt beam="1">  1        1 0.92819951E-01 0.27429965E+03</pdfrwt>
<pdfrwt beam="2">  1       -1 0.47964782E-02 0.27429965E+03</pdfrwt>
<totfact> 0.65137855E+03</totfact>
</mgrwt>
</event>
<event>
 9    1  0.2074770E-002  0.2755042E+03  0.7818608E-02  0.1098170E+00
          2   -1    0    0  501    0  0.00000000000E+00  0.00000000000E+00  0.56461154105E+03  0.56461154105E+03  0.00000000000E+00 0. -1.
         -2   -1    0    0    0  501 -0.00000000000E+00 -0.00000000000E+00 -0.33608318832E+02  0.33608318832E+02  0.00000000000E+00 0. -1.
         36    2    1    2    0    0  0.00000000000E+00  0.00000000000E+00  0.53100322222E+03  0.59821985988E+03  0.27550422638E+03 0.  0.
         25    2    3    3    0    0  0.24979426241E+02  0.43601635664E+02  0.27383323775E+03  0.30628394869E+03  0.12767200461E+03 0.  0.
         25    2    3    3    0    0 -0.24979426241E+02 -0.43601635664E+02  0.25716998446E+03  0.29193591119E+03  0.12870548148E+03 0.  0.
          5    1    4    4  502    0 -0.49425363090E+02  0.31594032095E+01  0.73690640050E+02  0.88911465943E+02  0.47000000000E+01 0. -1.
         -5    1    4    4    0  502  0.74404789330E+02  0.40442232455E+02  0.20014259770E+03  0.21737248275E+03  0.47000000000E+01 0. -1.
          5    1    5    5  503    0  0.21069832146E+02 -0.73151582177E+02  0.19271244722E+03  0.20725652973E+03  0.47000000000E+01 0.  1.
         -5    1    5    5    0  503 -0.46049258387E+02  0.29549946513E+02  0.64457537243E+02  0.84679381459E+02  0.47000000000E+01 0.  1.
<mgrwt>
<rscale>  0 0.27550423E+03</rscale>
<asrwt>0</asrwt>
<pdfrwt beam="1">  1        2 0.86863307E-01 0.27550423E+03</pdfrwt>
<pdfrwt beam="2">  1       -2 0.51705110E-02 0.27550423E+03</pdfrwt>
<totfact> 0.10025217E+04</totfact>
</mgrwt>
</event>
<event>
 9    1  0.2074770E-002  0.2742926E+03  0.7818608E-02  0.1098848E+00
          2   -1    0    0  501    0  0.00000000000E+00  0.00000000000E+00  0.25596120794E+03  0.25596120794E+03  0.00000000000E+00 0. -1.
         -2   -1    0    0    0  501 -0.00000000000E+00 -0.00000000000E+00 -0.73484191439E+02  0.73484191439E+02  0.00000000000E+00 0. -1.
         36    2    1    2    0    0 -0.35527136788E-14  0.00000000000E+00  0.18247701650E+03  0.32944539938E+03  0.27429256209E+03 0.  0.
         25    2    3    3    0    0 -0.28764952782E+02 -0.22269368456E+02  0.14260522503E+03  0.19221703637E+03  0.12364380933E+03 0.  0.
         25    2    3    3    0    0  0.28764952782E+02  0.22269368456E+02  0.39871791474E+02  0.13722836301E+03  0.12616860377E+03 0.  0.
          5    1    4    4  502    0  0.12210911903E+02  0.41656723143E+02  0.20229900849E+02  0.48122009942E+02  0.47000000000E+01 0.  1.
         -5    1    4    4    0  502 -0.40975864685E+02 -0.63926091599E+02  0.12237532418E+03  0.14409502643E+03  0.47000000000E+01 0.  1.
          5    1    5    5  503    0  0.58701920679E+02  0.58389012921E+02  0.34335392507E+02  0.89756345179E+02  0.47000000000E+01 0.  1.
         -5    1    5    5    0  503 -0.29936967897E+02 -0.36119644465E+02  0.55363989668E+01  0.47472017828E+02  0.47000000000E+01 0.  1.
<mgrwt>
<rscale>  0 0.27429256E+03</rscale>
<asrwt>0</asrwt>
<pdfrwt beam="1">  1        2 0.39378647E-01 0.27429256E+03</pdfrwt>
<pdfrwt beam="2">  1       -2 0.11305260E-01 0.27429256E+03</pdfrwt>
<totfact> 0.70242247E+03</totfact>
</mgrwt>
</event>
<event>
 9    1  0.2074770E-002  0.2745133E+03  0.7818608E-02  0.1098724E+00
          1   -1    0    0  501    0  0.00000000000E+00  0.00000000000E+00  0.11745467103E+03  0.11745467103E+03  0.00000000000E+00 0.  1.
         -1   -1    0    0    0  501 -0.00000000000E+00 -0.00000000000E+00 -0.16039704365E+03  0.16039704365E+03  0.00000000000E+00 0.  1.
         36    2    1    2    0    0  0.00000000000E+00 -0.35527136788E-14 -0.42942372626E+02  0.27785171468E+03  0.27451325648E+03 0.  0.
         25    2    3    3    0    0  0.42315033927E+02  0.18659970950E+02 -0.57885022229E+02  0.14623390877E+03  0.12607507154E+03 0.  0.
         25    2    3    3    0    0 -0.42315033927E+02 -0.18659970950E+02  0.14942649603E+02  0.13161780591E+03  0.12231601467E+03 0.  0.
          5    1    4    4  502    0  0.62203629865E+02  0.12555421378E+02  0.19029873652E+02  0.66416536085E+02  0.47000000000E+01 0.  1.
         -5    1    4    4    0  502 -0.19888595938E+02  0.61045495719E+01 -0.76914895881E+02  0.79817372684E+02  0.47000000000E+01 0.  1.
          5    1    5    5  503    0  0.38468857564E+02  0.12024769750E+02  0.19365819487E+02  0.44961906701E+02  0.47000000000E+01 0.  1.
         -5    1    5    5    0  503 -0.80783891491E+02 -0.30684740700E+02 -0.44231698848E+01  0.86655899211E+02  0.47000000000E+01 0.  1.
<mgrwt>
<rscale>  0 0.27451326E+03</rscale>
<asrwt>0</asrwt>
<pdfrwt beam="1">  1        1 0.18069949E-01 0.27451326E+03</pdfrwt>
<pdfrwt beam="2">  1       -1 0.24676468E-01 0.27451326E+03</pdfrwt>
<totfact> 0.41241952E+03</totfact>
</mgrwt>
</event>
<event>
 8    1  0.2074770E-002  0.3081955E+03  0.7818608E-02  0.1081214E+00
         -3   -1    0    0    0  501 -0.00000000000E+00  0.00000000000E+00  0.12832557997E+03  0.12832557997E+03  0.00000000000E+00 0.  1.
          3   -1    0    0  501    0  0.00000000000E+00 -0.00000000000E+00 -0.18504587943E+03  0.18504587943E+03  0.00000000000E+00 0.  1.
         25    2    1    2    0    0  0.57099758628E+02 -0.15032387775E+02 -0.94617287116E+01  0.13866364701E+03  0.12510686462E+03 0.  0.
         25    2    1    2    0    0 -0.57099758628E+02  0.15032387775E+02 -0.47258570745E+02  0.17470781239E+03  0.15748997455E+03 0.  0.
          5    1    3    3  502    0  0.44667937978E+02 -0.52560904276E+02 -0.47275679916E+02  0.83755317760E+02  0.47000000000E+01 0. -1.
         -5    1    3    3    0  502  0.12431820650E+02  0.37528516501E+02  0.37813951205E+02  0.54908329251E+02  0.47000000000E+01 0. -1.
          5    1    4    4  503    0  0.38826970541E+01 -0.14100332517E+02  0.52174537495E+02  0.54389034523E+02  0.47000000000E+01 0. -1.
         -5    1    4    4    0  503 -0.60982455682E+02  0.29132720292E+02 -0.99433108240E+02  0.12031877786E+03  0.47000000000E+01 0. -1.
<mgrwt>
<rscale>  0 0.30819552E+03</rscale>
<asrwt>0</asrwt>
<pdfrwt beam="1">  1        3 0.28468597E-01 0.30819552E+03</pdfrwt>
<pdfrwt beam="2">  1       -3 0.19742397E-01 0.30819552E+03</pdfrwt>
<totfact> 0.69818195E+02</totfact>
</mgrwt>
</event>
<event>
 9    1  0.2074770E-002  0.2757765E+03  0.7818608E-02  0.1098018E+00
          2   -1    0    0  501    0  0.00000000000E+00  0.00000000000E+00  0.17916569337E+03  0.17916569337E+03  0.00000000000E+00 0.  1.
         -2   -1    0    0    0  501 -0.00000000000E+00 -0.00000000000E+00 -0.10612056827E+03  0.10612056827E+03  0.00000000000E+00 0.  1.
         36    2    1    2    0    0 -0.71054273576E-14  0.00000000000E+00  0.73045125099E+02  0.28528626164E+03  0.27577646887E+03 0.  0.
         25    2    3    3    0    0 -0.45638353147E+02 -0.32016616772E+02  0.34219310197E+02  0.14237318169E+03  0.12645646937E+03 0.  0.
         25    2    3    3    0    0  0.45638353147E+02  0.32016616772E+02  0.38825814903E+02  0.14291307995E+03  0.12573297694E+03 0.  0.
          5    1    4    4  502    0  0.16788949141E+02 -0.57426104855E+02 -0.11080191629E+02  0.61028575099E+02  0.47000000000E+01 0.  1.
         -5    1    4    4    0  502 -0.62427302288E+02  0.25409488083E+02  0.45299501826E+02  0.81344606589E+02  0.47000000000E+01 0.  1.
          5    1    5    5  503    0  0.23430524886E+01 -0.45362863624E+02  0.27739741357E+02  0.53430913727E+02  0.47000000000E+01 0.  1.
         -5    1    5    5    0  503  0.43295300658E+02  0.77379480397E+02  0.11086073546E+02  0.89482166224E+02  0.47000000000E+01 0.  1.
<mgrwt>
<rscale>  0 0.27577647E+03</rscale>
<asrwt>0</asrwt>
<pdfrwt beam="1">  1        2 0.27563953E-01 0.27577647E+03</pdfrwt>
<pdfrwt beam="2">  1       -2 0.16326241E-01 0.27577647E+03</pdfrwt>
<totfact> 0.56838935E+03</totfact>
</mgrwt>
</event>
<event>
 9    1  0.2074770E-002  0.2769682E+03  0.7818608E-02  0.1097356E+00
          1   -1    0    0  501    0  0.00000000000E+00  0.00000000000E+00  0.34735482736E+03  0.34735482736E+03  0.00000000000E+00 0. -1.
         -1   -1    0    0    0  501 -0.00000000000E+00 -0.00000000000E+00 -0.55211105849E+02  0.55211105849E+02  0.00000000000E+00 0. -1.
         36    2    1    2    0    0  0.00000000000E+00  0.71054273576E-14  0.29214372151E+03  0.40256593321E+03  0.27696818691E+03 0.  0.
         25    2    3    3    0    0  0.47499986255E+02 -0.36314319810E+02  0.21165769920E+03  0.24172204878E+03  0.10027755841E+03 0.  0.
         25    2    3    3    0    0 -0.47499986255E+02  0.36314319810E+02  0.80486022311E+02  0.16084388442E+03  0.12576874354E+03 0.  0.
          5    1    4    4  502    0  0.48437263344E+02 -0.57693753441E+02  0.87103983272E+02  0.11525593941E+03  0.47000000000E+01 0.  1.
         -5    1    4    4    0  502 -0.93727708883E+00  0.21379433630E+02  0.12455371592E+03  0.12646610938E+03  0.47000000000E+01 0.  1.
          5    1    5    5  503    0  0.27801941508E+02 -0.25984480714E+02  0.38609285342E+02  0.54414227038E+02  0.47000000000E+01 0. -1.
         -5    1    5    5    0  503 -0.75301927764E+02  0.62298800524E+02  0.41876736969E+02  0.10642965738E+03  0.47000000000E+01 0. -1.
<mgrwt>
<rscale>  0 0.27696819E+03</rscale>
<asrwt>0</asrwt>
<pdfrwt beam="1">  1        1 0.53439203E-01 0.27696819E+03</pdfrwt>
<pdfrwt beam="2">  1       -1 0.84940165E-02 0.27696819E+03</pdfrwt>
<totfact> 0.56718430E+03</totfact>
</mgrwt>
</event>
<event>
 9    1  0.2074770E-002  0.2752182E+03  0.7818608E-02  0.1098330E+00
          1   -1    0    0  501    0  0.00000000000E+00  0.00000000000E+00  0.63238668500E+03  0.63238668500E+03  0.00000000000E+00 0.  1.
         -1   -1    0    0    0  501 -0.00000000000E+00 -0.00000000000E+00 -0.29944121206E+02  0.29944121206E+02  0.00000000000E+00 0.  1.
         36    2    1    2    0    0 -0.71054273576E-14  0.00000000000E+00  0.60244256379E+03  0.66233080621E+03  0.27521819376E+03 0.  0.
         25    2    3    3    0    0  0.47594295248E+02  0.29726848180E+02  0.31615122582E+03  0.34401876737E+03  0.12348446167E+03 0.  0.
         25    2    3    3    0    0 -0.47594295248E+02 -0.29726848180E+02  0.28629133797E+03  0.31831203883E+03  0.12732211679E+03 0.  0.
          5    1    4    4  502    0  0.88278528743E+02  0.18473629521E+02  0.17983223865E+03  0.20123642235E+03  0.47000000000E+01 0.  1.
         -5    1    4    4    0  502 -0.40684233494E+02  0.11253218659E+02  0.13631898717E+03  0.14278234502E+03  0.47000000000E+01 0.  1.
          5    1    5    5  503    0 -0.40953317801E+01  0.23754998066E+01 -0.12748395208E+02  0.14388409297E+02  0.47000000000E+01 0. -1.
         -5    1    5    5    0  503 -0.43498963468E+02 -0.32102347986E+02  0.29903973318E+03  0.30392362954E+03  0.47000000000E+01 0. -1.
<mgrwt>
<rscale>  0 0.27521819E+03</rscale>
<asrwt>0</asrwt>
<pdfrwt beam="1">  1        1 0.97290249E-01 0.27521819E+03</pdfrwt>
<pdfrwt beam="2">  1       -1 0.46067884E-02 0.27521819E+03</pdfrwt>
<totfact> 0.64783350E+03</totfact>
</mgrwt>
</event>
<event>
 9    1  0.2074770E-002  0.2747990E+03  0.7818608E-02  0.1098564E+00
         -2   -1    0    0    0  501 -0.00000000000E+00  0.00000000000E+00  0.68125546722E+01  0.68125546722E+01  0.00000000000E+00 0.  1.
          2   -1    0    0  501    0  0.00000000000E+00 -0.00000000000E+00 -0.27711525452E+04  0.27711525452E+04  0.00000000000E+00 0.  1.
         36    2    1    2    0    0  0.00000000000E+00  0.35527136788E-14 -0.27643399905E+04  0.27779650999E+04  0.27479904089E+03 0.  0.
         25    2    3    3    0    0 -0.40387075092E+02 -0.23446400701E+02 -0.11539853888E+04  0.11610385454E+04  0.11894274522E+03 0.  0.
         25    2    3    3    0    0  0.40387075092E+02  0.23446400701E+02 -0.16103546017E+04  0.16169265545E+04  0.13794451759E+03 0.  0.
          5    1    4    4  502    0  0.13670325866E+02 -0.37361513842E+01 -0.91704656005E+03  0.91716809798E+03  0.47000000000E+01 0. -1.
         -5    1    4    4    0  502 -0.54057400958E+02 -0.19710249317E+02 -0.23693882877E+03  0.24387044738E+03  0.47000000000E+01 0. -1.
          5    1    5    5  503    0 -0.34455542990E+02 -0.79768445940E+01 -0.10598085633E+04  0.10604089283E+04  0.47000000000E+01 0.  1.
         -5    1    5    5    0  503  0.74842618081E+02  0.31423245295E+02 -0.55054603841E+03  0.55651762617E+03  0.47000000000E+01 0.  1.
<mgrwt>
<rscale>  0 0.27479904E+03</rscale>
<asrwt>0</asrwt>
<pdfrwt beam="1">  1        2 0.42633019E+00 0.27479904E+03</pdfrwt>
<pdfrwt beam="2">  1       -2 0.10480877E-02 0.27479904E+03</pdfrwt>
<totfact> 0.56352238E+03</totfact>
</mgrwt>
</event>
<event>
 9    1  0.2074770E-002  0.2746728E+03  0.7818608E-02  0.1098635E+00
          1   -1    0    0  501    0  0.00000000000E+00  0.00000000000E+00  0.11027576914E+04  0.11027576914E+04  0.00000000000E+00 0. -1.
         -1   -1    0    0    0  501 -0.00000000000E+00 -0.00000000000E+00 -0.17103744361E+02  0.17103744361E+02  0.00000000000E+00 0. -1.
         36    2    1    2    0    0  0.00000000000E+00  0.71054273576E-14  0.10856539470E+04  0.11198614357E+04  0.27467279184E+03 0.  0.
         25    2    3    3    0    0  0.42967402575E+02  0.33531917747E+02  0.63026019437E+03  0.64408858828E+03  0.12104383403E+03 0.  0.
         25    2    3    3    0    0 -0.42967402575E+02 -0.33531917747E+02  0.45539375263E+03  0.47577284744E+03  0.12651381440E+03 0.  0.
          5    1    4    4  502    0 -0.41949040292E+02  0.14346432344E+02  0.17771457004E+03  0.18322145209E+03  0.47000000000E+01 0. -1.
         -5    1    4    4    0  502  0.84916442867E+02  0.19185485403E+02  0.45254562432E+03  0.46086713618E+03  0.47000000000E+01 0. -1.
          5    1    5    5  503    0 -0.82179026319E+02 -0.18514372407E+02  0.38089156738E+03  0.39012389116E+03  0.47000000000E+01 0. -1.
         -5    1    5    5    0  503  0.39211623744E+02 -0.15017545340E+02  0.74502185248E+02  0.85648956278E+02  0.47000000000E+01 0. -1.
<mgrwt>
<rscale>  0 0.27467279E+03</rscale>
<asrwt>0</asrwt>
<pdfrwt beam="1">  1        1 0.16965497E+00 0.27467279E+03</pdfrwt>
<pdfrwt beam="2">  1       -1 0.26313462E-02 0.27467279E+03</pdfrwt>
<totfact> 0.61475516E+03</totfact>
</mgrwt>
</event>
<event>
 9    1  0.2074770E-002  0.2746604E+03  0.7818608E-02  0.1098642E+00
         -2   -1    0    0    0  501 -0.00000000000E+00  0.00000000000E+00  0.11611692382E+04  0.11611692382E+04  0.00000000000E+00 0.  1.
          2   -1    0    0  501    0  0.00000000000E+00 -0.00000000000E+00 -0.16241886192E+02  0.16241886192E+02  0.00000000000E+00 0.  1.
         36    2    1    2    0    0  0.00000000000E+00 -0.71054273576E-14  0.11449273520E+04  0.11774111243E+04  0.27466036202E+03 0.  0.
         25    2    3    3    0    0  0.49402998626E+02 -0.44967171560E+02  0.44123716613E+03  0.46175841043E+03  0.11860813648E+03 0.  0.
         25    2    3    3    0    0 -0.49402998626E+02  0.44967171560E+02  0.70369018583E+03  0.71565271392E+03  0.11187594248E+03 0.  0.
          5    1    4    4  502    0  0.28751889063E+02 -0.67092734702E+02  0.13119946221E+03  0.15021150108E+03  0.47000000000E+01 0. -1.
         -5    1    4    4    0  502  0.20651109563E+02  0.22125563142E+02  0.31003770392E+03  0.31154690935E+03  0.47000000000E+01 0. -1.
          5    1    5    5  503    0 -0.62814781027E+02  0.20636611691E+02  0.66214016475E+03  0.66544966319E+03  0.47000000000E+01 0. -1.
         -5    1    5    5    0  503  0.13411782401E+02  0.24330559868E+02  0.41550021081E+02  0.50203050729E+02  0.47000000000E+01 0. -1.
<mgrwt>
<rscale>  0 0.27466036E+03</rscale>
<asrwt>0</asrwt>
<pdfrwt beam="1">  1        2 0.24987526E-02 0.27466036E+03</pdfrwt>
<pdfrwt beam="2">  1       -2 0.17864136E+00 0.27466036E+03</pdfrwt>
<totfact> 0.80020781E+02</totfact>
</mgrwt>
</event>
<event>
 9    1  0.2074770E-002  0.2764425E+03  0.7818608E-02  0.1097648E+00
          1   -1    0    0  501    0  0.00000000000E+00  0.00000000000E+00  0.68335063369E+03  0.68335063369E+03  0.00000000000E+00 0.  1.
         -1   -1    0    0    0  501 -0.00000000000E+00 -0.00000000000E+00 -0.27957998647E+02  0.27957998647E+02  0.00000000000E+00 0.  1.
         36    2    1    2    0    0  0.00000000000E+00  0.00000000000E+00  0.65539263504E+03  0.71130863234E+03  0.27644251549E+03 0.  0.
         25    2    3    3    0    0  0.26174465188E+02 -0.44497713036E+02  0.22097299336E+03  0.25617438603E+03  0.11887431670E+03 0.  0.
         25    2    3    3    0    0 -0.26174465188E+02  0.44497713036E+02  0.43441964168E+03  0.45513424630E+03  0.12554524279E+03 0.  0.
          5    1    4    4  502    0  0.28597133009E+02 -0.60864449643E+02  0.48988802590E+02  0.83332286815E+02  0.47000000000E+01 0. -1.
         -5    1    4    4    0  502 -0.24226678209E+01  0.16366736606E+02  0.17198419077E+03  0.17284209922E+03  0.47000000000E+01 0. -1.
          5    1    5    5  503    0 -0.43959533307E+02 -0.14319648851E+02  0.33468356156E+03  0.33789446472E+03  0.47000000000E+01 0.  1.
         -5    1    5    5    0  503  0.17785068119E+02  0.58817361887E+02  0.99736080121E+02  0.11723978158E+03  0.47000000000E+01 0.  1.
<mgrwt>
<rscale>  0 0.27644252E+03</rscale>
<asrwt>0</asrwt>
<pdfrwt beam="1">  1        1 0.10513085E+00 0.27644252E+03</pdfrwt>
<pdfrwt beam="2">  1       -1 0.43012311E-02 0.27644252E+03</pdfrwt>
<totfact> 0.64254870E+03</totfact>
</mgrwt>
</event>
<event>
 9    1  0.2074770E-002  0.2739723E+03  0.7818608E-02  0.1099027E+00
         -2   -1    0    0    0  501 -0.00000000000E+00  0.00000000000E+00  0.29535702572E+02  0.29535702572E+02  0.00000000000E+00 0.  1.
          2   -1    0    0  501    0  0.00000000000E+00 -0.00000000000E+00 -0.63533995312E+03  0.63533995312E+03  0.00000000000E+00 0.  1.
         36    2    1    2    0    0  0.71054273576E-14  0.14210854715E-13 -0.60580425055E+03  0.66487565569E+03  0.27397234815E+03 0.  0.
         25    2    3    3    0    0  0.31408509125E+01  0.59710644932E+02 -0.27871442095E+03  0.30986955043E+03  0.12149972748E+03 0.  0.
         25    2    3    3    0    0 -0.31408509125E+01 -0.59710644932E+02 -0.32708982960E+03  0.35500610526E+03  0.12436378927E+03 0.  0.
          5    1    4    4  502    0  0.60313999714E+02  0.38440569870E+02 -0.17982772847E+03  0.19358604779E+03  0.47000000000E+01 0. -1.
         -5    1    4    4    0  502 -0.57173148801E+02  0.21270075062E+02 -0.98886692481E+02  0.11628350264E+03  0.47000000000E+01 0. -1.
          5    1    5    5  503    0 -0.58189143459E+02 -0.56840642916E+02 -0.17145255062E+03  0.18982861274E+03  0.47000000000E+01 0.  1.
         -5    1    5    5    0  503  0.55048292547E+02 -0.28700020166E+01 -0.15563727898E+03  0.16517749251E+03  0.47000000000E+01 0.  1.
<mgrwt>
<rscale>  0 0.27397235E+03</rscale>
<asrwt>0</asrwt>
<pdfrwt beam="1">  1        2 0.97744601E-01 0.27397235E+03</pdfrwt>
<pdfrwt beam="2">  1       -2 0.45439546E-02 0.27397235E+03</pdfrwt>
<totfact> 0.10631662E+04</totfact>
</mgrwt>
</event>
<event>
 9    1  0.2074770E-002  0.2745345E+03  0.7818608E-02  0.1098712E+00
         -2   -1    0    0    0  501 -0.00000000000E+00  0.00000000000E+00  0.87509722236E+01  0.87509722236E+01  0.00000000000E+00 0. -1.
          2   -1    0    0  501    0  0.00000000000E+00 -0.00000000000E+00 -0.21531654944E+04  0.21531654944E+04  0.00000000000E+00 0. -1.
         36    2    1    2    0    0 -0.71054273576E-14  0.00000000000E+00 -0.21444145221E+04  0.21619164666E+04  0.27453445273E+03 0.  0.
         25    2    3    3    0    0  0.31706707248E+02  0.41479884882E+02 -0.11500165293E+04  0.11582155302E+04  0.12727647283E+03 0.  0.
         25    2    3    3    0    0 -0.31706707248E+02 -0.41479884882E+02 -0.99439799282E+03  0.10037009364E+04  0.12594564486E+03 0.  0.
          5    1    4    4  502    0  0.55270578264E+02  0.76838145818E+02 -0.80690925530E+03  0.81245527493E+03  0.47000000000E+01 0. -1.
         -5    1    4    4    0  502 -0.23563871016E+02 -0.35358260936E+02 -0.34310727401E+03  0.34576025526E+03  0.47000000000E+01 0. -1.
          5    1    5    5  503    0 -0.53044083769E+02  0.25019881030E+02 -0.62239418333E+03  0.62516900012E+03  0.47000000000E+01 0.  1.
         -5    1    5    5    0  503  0.21337376521E+02 -0.66499765912E+02 -0.37200380949E+03  0.37853193628E+03  0.47000000000E+01 0.  1.
<mgrwt>
<rscale>  0 0.27453445E+03</rscale>
<asrwt>0</asrwt>
<pdfrwt beam="1">  1        2 0.33125586E+00 0.27453445E+03</pdfrwt>
<pdfrwt beam="2">  1       -2 0.13463049E-02 0.27453445E+03</pdfrwt>
<totfact> 0.85217139E+03</totfact>
</mgrwt>
</event>
<event>
 9    1  0.2074770E-002  0.2738430E+03  0.7818608E-02  0.1099100E+00
          1   -1    0    0  501    0  0.00000000000E+00  0.00000000000E+00  0.59854074189E+03  0.59854074189E+03  0.00000000000E+00 0.  1.
         -1   -1    0    0    0  501 -0.00000000000E+00 -0.00000000000E+00 -0.31322003465E+02  0.31322003465E+02  0.00000000000E+00 0.  1.
         36    2    1    2    0    0  0.71054273576E-14  0.00000000000E+00  0.56721873843E+03  0.62986274536E+03  0.27384298561E+03 0.  0.
         25    2    3    3    0    0  0.53268232799E+02  0.46628415933E+01  0.34401315576E+03  0.37053155301E+03  0.12684373744E+03 0.  0.
         25    2    3    3    0    0 -0.53268232799E+02 -0.46628415933E+01  0.22320558267E+03  0.25933119235E+03  0.12071739092E+03 0.  0.
          5    1    4    4  502    0  0.20889398485E+01  0.67582899334E+01  0.30710565783E+03  0.30722306753E+03  0.47000000000E+01 0.  1.
         -5    1    4    4    0  502  0.51179292951E+02 -0.20954483401E+01  0.36907497927E+02  0.63308485481E+02  0.47000000000E+01 0.  1.
          5    1    5    5  503    0 -0.78552061173E+02  0.75796228608E+01  0.76933890151E+02  0.11031224071E+03  0.47000000000E+01 0. -1.
         -5    1    5    5    0  503  0.25283828374E+02 -0.12242464454E+02  0.14627169252E+03  0.14901895163E+03  0.47000000000E+01 0. -1.
<mgrwt>
<rscale>  0 0.27384299E+03</rscale>
<asrwt>0</asrwt>
<pdfrwt beam="1">  1        1 0.92083183E-01 0.27384299E+03</pdfrwt>
<pdfrwt beam="2">  1       -1 0.48187702E-02 0.27384299E+03</pdfrwt>
<totfact> 0.65404541E+03</totfact>
</mgrwt>
</event>
<event>
 9    1  0.2074770E-002  0.2852157E+03  0.7818608E-02  0.1092874E+00
          2   -1    0    0  501    0  0.00000000000E+00  0.00000000000E+00  0.96670161525E+03  0.96670161525E+03  0.00000000000E+00 0.  1.
         -2   -1    0    0    0  501 -0.00000000000E+00 -0.00000000000E+00 -0.21037517381E+02  0.21037517381E+02  0.00000000000E+00 0.  1.
         36    2    1    2    0    0  0.71054273576E-14  0.00000000000E+00  0.94566409787E+03  0.98773913263E+03  0.28521572210E+03 0.  0.
         25    2    3    3    0    0  0.25608112592E+02 -0.12879765159E+02  0.68010944770E+03  0.69236234518E+03  0.12647170592E+03 0.  0.
         25    2    3    3    0    0 -0.25608112592E+02  0.12879765159E+02  0.26555465017E+03  0.29537678745E+03  0.12612101552E+03 0.  0.
          5    1    4    4  502    0 -0.40079312368E+02 -0.33804951673E+02  0.18125161067E+03  0.18874152274E+03  0.47000000000E+01 0.  1.
         -5    1    4    4    0  502  0.65687424960E+02  0.20925186514E+02  0.49885783703E+03  0.50362082244E+03  0.47000000000E+01 0.  1.
          5    1    5    5  503    0 -0.33577665874E+02 -0.48090973106E+02  0.18368614539E+03  0.19288051054E+03  0.47000000000E+01 0.  1.
         -5    1    5    5    0  503  0.79695532819E+01  0.60970738265E+02  0.81868504783E+02  0.10249627691E+03  0.47000000000E+01 0.  1.
<mgrwt>
<rscale>  0 0.28521572E+03</rscale>
<asrwt>0</asrwt>
<pdfrwt beam="1">  1        2 0.14872329E+00 0.28521572E+03</pdfrwt>
<pdfrwt beam="2">  1       -2 0.32365419E-02 0.28521572E+03</pdfrwt>
<totfact> 0.10400491E+04</totfact>
</mgrwt>
</event>
<event>
 9    1  0.2074770E-002  0.2753430E+03  0.7818608E-02  0.1098260E+00
         -1   -1    0    0    0  501 -0.00000000000E+00  0.00000000000E+00  0.21410488186E+02  0.21410488186E+02  0.00000000000E+00 0.  1.
          1   -1    0    0  501    0  0.00000000000E+00 -0.00000000000E+00 -0.88524069888E+03  0.88524069888E+03  0.00000000000E+00 0.  1.
         36    2    1    2    0    0  0.53290705182E-14  0.10658141036E-13 -0.86383021069E+03  0.90665118707E+03  0.27534295361E+03 0.  0.
         25    2    3    3    0    0 -0.15390269227E+02 -0.14021880316E+02 -0.27043064100E+03  0.29951115142E+03  0.12704615193E+03 0.  0.
         25    2    3    3    0    0  0.15390269227E+02  0.14021880316E+02 -0.59339956969E+03  0.60714003564E+03  0.12673791878E+03 0.  0.
          5    1    4    4  502    0 -0.60340679556E+01  0.52980114102E+02 -0.71353482146E+02  0.89200402918E+02  0.47000000000E+01 0.  1.
         -5    1    4    4    0  502 -0.93562012710E+01 -0.67001994418E+02 -0.19907715886E+03  0.21031074851E+03  0.47000000000E+01 0.  1.
          5    1    5    5  503    0 -0.51233780624E+02 -0.11540976221E+02 -0.17859544970E+03  0.18621632330E+03  0.47000000000E+01 0.  1.
         -5    1    5    5    0  503  0.66624049850E+02  0.25562856537E+02 -0.41480411998E+03  0.42092371234E+03  0.47000000000E+01 0.  1.
<mgrwt>
<rscale>  0 0.27534295E+03</rscale>
<asrwt>0</asrwt>
<pdfrwt beam="1">  1        1 0.13619086E+00 0.27534295E+03</pdfrwt>
<pdfrwt beam="2">  1       -1 0.32939215E-02 0.27534295E+03</pdfrwt>
<totfact> 0.64348406E+03</totfact>
</mgrwt>
</event>
<event>
 9    1  0.2074770E-002  0.2749613E+03  0.7818608E-02  0.1098473E+00
         -2   -1    0    0    0  501 -0.00000000000E+00  0.00000000000E+00  0.90227794177E+01  0.90227794177E+01  0.00000000000E+00 0.  1.
          2   -1    0    0  501    0  0.00000000000E+00 -0.00000000000E+00 -0.20948007198E+04  0.20948007198E+04  0.00000000000E+00 0.  1.
         36    2    1    2    0    0  0.00000000000E+00  0.00000000000E+00 -0.20857779404E+04  0.21038234992E+04  0.27496126868E+03 0.  0.
         25    2    3    3    0    0  0.11227691266E+02 -0.44498128270E+02 -0.73101222331E+03  0.74236612138E+03  0.12092329414E+03 0.  0.
         25    2    3    3    0    0 -0.11227691266E+02  0.44498128270E+02 -0.13547657171E+04  0.13614573778E+04  0.12676710558E+03 0.  0.
          5    1    4    4  502    0 -0.44344063324E+02  0.57332235944E+01 -0.42115576591E+03  0.42354873977E+03  0.47000000000E+01 0.  1.
         -5    1    4    4    0  502  0.55571754591E+02 -0.50231351864E+02 -0.30985645740E+03  0.31881738160E+03  0.47000000000E+01 0.  1.
          5    1    5    5  503    0 -0.41026187931E+02  0.71536864625E+02 -0.11340891933E+04  0.11370932501E+04  0.47000000000E+01 0. -1.
         -5    1    5    5    0  503  0.29798496664E+02 -0.27038736355E+02 -0.22067652380E+03  0.22436412776E+03  0.47000000000E+01 0. -1.
<mgrwt>
<rscale>  0 0.27496127E+03</rscale>
<asrwt>0</asrwt>
<pdfrwt beam="1">  1        2 0.32227694E+00 0.27496127E+03</pdfrwt>
<pdfrwt beam="2">  1       -2 0.13881203E-02 0.27496127E+03</pdfrwt>
<totfact> 0.87502667E+03</totfact>
</mgrwt>
</event>
<event>
 9    1  0.2074770E-002  0.2756766E+03  0.7818608E-02  0.1098074E+00
         -1   -1    0    0    0  501 -0.00000000000E+00  0.00000000000E+00  0.11980055522E+02  0.11980055522E+02  0.00000000000E+00 0. -1.
          1   -1    0    0  501    0  0.00000000000E+00 -0.00000000000E+00 -0.15859192615E+04  0.15859192615E+04  0.00000000000E+00 0. -1.
         36    2    1    2    0    0  0.00000000000E+00  0.35527136788E-14 -0.15739392059E+04  0.15978993170E+04  0.27567662800E+03 0.  0.
         25    2    3    3    0    0 -0.37101785070E+02  0.28138346943E+02 -0.58070505695E+03  0.59566206153E+03  0.12420394258E+03 0.  0.
         25    2    3    3    0    0  0.37101785070E+02 -0.28138346943E+02 -0.99323414900E+03  0.10022372555E+04  0.12568664400E+03 0.  0.
          5    1    4    4  502    0 -0.51767070460E+02 -0.26118018717E+01 -0.91629701716E+02  0.10537904597E+03  0.47000000000E+01 0. -1.
         -5    1    4    4    0  502  0.14665285389E+02  0.30750148815E+02 -0.48907535523E+03  0.49028301556E+03  0.47000000000E+01 0. -1.
          5    1    5    5  503    0  0.48186263865E+02 -0.71653280468E+02 -0.55701590100E+03  0.56368866637E+03  0.47000000000E+01 0. -1.
         -5    1    5    5    0  503 -0.11084478795E+02  0.43514933525E+02 -0.43621824800E+03  0.43854858910E+03  0.47000000000E+01 0. -1.
<mgrwt>
<rscale>  0 0.27567663E+03</rscale>
<asrwt>0</asrwt>
<pdfrwt beam="1">  1        1 0.24398759E+00 0.27567663E+03</pdfrwt>
<pdfrwt beam="2">  1       -1 0.18430854E-02 0.27567663E+03</pdfrwt>
<totfact> 0.48528354E+03</totfact>
</mgrwt>
</event>
<event>
 9    1  0.2074770E-002  0.2762661E+03  0.7818608E-02  0.1097746E+00
         -1   -1    0    0    0  501 -0.00000000000E+00  0.00000000000E+00  0.11136859193E+02  0.11136859193E+02  0.00000000000E+00 0. -1.
          1   -1    0    0  501    0  0.00000000000E+00 -0.00000000000E+00 -0.17132957769E+04  0.17132957769E+04  0.00000000000E+00 0. -1.
         36    2    1    2    0    0  0.00000000000E+00 -0.71054273576E-14 -0.17021589177E+04  0.17244326361E+04  0.27626605888E+03 0.  0.
         25    2    3    3    0    0 -0.38062925986E+02  0.28595469289E+02 -0.10700693204E+04  0.10782564127E+04  0.12378228421E+03 0.  0.
         25    2    3    3    0    0  0.38062925986E+02 -0.28595469289E+02 -0.63208959731E+03  0.64617622339E+03  0.12545901899E+03 0.  0.
          5    1    4    4  502    0 -0.56661006215E+02 -0.65104232135E+01 -0.94951000254E+03  0.95123298416E+03  0.47000000000E+01 0.  1.
         -5    1    4    4    0  502  0.18598080229E+02  0.35105892503E+02 -0.12055931788E+03  0.12702342856E+03  0.47000000000E+01 0.  1.
          5    1    5    5  503    0 -0.33914306822E+02  0.26521324550E+02 -0.19259401959E+03  0.19740341245E+03  0.47000000000E+01 0. -1.
         -5    1    5    5    0  503  0.71977232808E+02 -0.55116793840E+02 -0.43949557772E+03  0.44877281094E+03  0.47000000000E+01 0. -1.
<mgrwt>
<rscale>  0 0.27626606E+03</rscale>
<asrwt>0</asrwt>
<pdfrwt beam="1">  1        1 0.26358396E+00 0.27626606E+03</pdfrwt>
<pdfrwt beam="2">  1       -1 0.17133630E-02 0.27626606E+03</pdfrwt>
<totfact> 0.44552875E+03</totfact>
</mgrwt>
</event>
<event>
 9    1  0.2074770E-002  0.2748657E+03  0.7818608E-02  0.1098527E+00
          1   -1    0    0  501    0  0.00000000000E+00  0.00000000000E+00  0.65824889236E+03  0.65824889236E+03  0.00000000000E+00 0.  1.
         -1   -1    0    0    0  501 -0.00000000000E+00 -0.00000000000E+00 -0.28694000326E+02  0.28694000326E+02  0.00000000000E+00 0.  1.
         36    2    1    2    0    0  0.71054273576E-14  0.00000000000E+00  0.62955489203E+03  0.68694289269E+03  0.27486574128E+03 0.  0.
         25    2    3    3    0    0 -0.24161252389E+02 -0.44948573642E+02  0.29387001003E+03  0.32420495123E+03  0.12706347713E+03 0.  0.
         25    2    3    3    0    0  0.24161252389E+02  0.44948573642E+02  0.33568488201E+03  0.36273794146E+03  0.12763359187E+03 0.  0.
          5    1    4    4  502    0 -0.50817704925E+02  0.15464558494E+02  0.56140075708E+02  0.77429902517E+02  0.47000000000E+01 0. -1.
         -5    1    4    4    0  502  0.26656452536E+02 -0.60413132136E+02  0.23772993432E+03  0.24677504871E+03  0.47000000000E+01 0. -1.
          5    1    5    5  503    0  0.19459022236E+02 -0.32981046076E+02  0.21830092966E+03  0.22168398416E+03  0.47000000000E+01 0.  1.
         -5    1    5    5    0  503  0.47022301531E+01  0.77929619719E+02  0.11738395235E+03  0.14105395729E+03  0.47000000000E+01 0.  1.
<mgrwt>
<rscale>  0 0.27486574E+03</rscale>
<asrwt>0</asrwt>
<pdfrwt beam="1">  1        1 0.10126905E+00 0.27486574E+03</pdfrwt>
<pdfrwt beam="2">  1       -1 0.44144621E-02 0.27486574E+03</pdfrwt>
<totfact> 0.65220697E+03</totfact>
</mgrwt>
</event>
<event>
 9    1  0.2074770E-002  0.2760914E+03  0.7818608E-02  0.1097843E+00
          2   -1    0    0  501    0  0.00000000000E+00  0.00000000000E+00  0.79468263670E+03  0.79468263670E+03  0.00000000000E+00 0.  1.
         -2   -1    0    0    0  501 -0.00000000000E+00 -0.00000000000E+00 -0.23980161470E+02  0.23980161470E+02  0.00000000000E+00 0.  1.
         36    2    1    2    0    0  0.35527136788E-14 -0.71054273576E-14  0.77070247523E+03  0.81866279817E+03  0.27609141925E+03 0.  0.
         25    2    3    3    0    0  0.20440520121E+02 -0.34333532955E+02  0.47258077069E+03  0.49276410207E+03  0.13374329559E+03 0.  0.
         25    2    3    3    0    0 -0.20440520121E+02  0.34333532955E+02  0.29812170454E+03  0.32589869610E+03  0.12544641507E+03 0.  0.
          5    1    4    4  502    0 -0.96621284583E+01 -0.10200565456E+02 -0.33987509808E+01  0.15200321385E+02  0.47000000000E+01 0. -1.
         -5    1    4    4    0  502  0.30102648579E+02 -0.24132967499E+02  0.47597952167E+03  0.47756378068E+03  0.47000000000E+01 0. -1.
          5    1    5    5  503    0 -0.39842537823E+02 -0.13367362445E+01  0.27698906556E+03  0.27988255952E+03  0.47000000000E+01 0. -1.
         -5    1    5    5    0  503  0.19402017702E+02  0.35670269199E+02  0.21132638984E+02  0.46016136583E+02  0.47000000000E+01 0. -1.
<mgrwt>
<rscale>  0 0.27609142E+03</rscale>
<asrwt>0</asrwt>
<pdfrwt beam="1">  1        2 0.12225885E+00 0.27609142E+03</pdfrwt>
<pdfrwt beam="2">  1       -2 0.36892562E-02 0.27609142E+03</pdfrwt>
<totfact> 0.11074417E+04</totfact>
</mgrwt>
</event>
<event>
 9    1  0.2074770E-002  0.2720158E+03  0.7818608E-02  0.1100131E+00
          1   -1    0    0  501    0  0.00000000000E+00  0.00000000000E+00  0.56503451148E+03  0.56503451148E+03  0.00000000000E+00 0.  1.
         -1   -1    0    0    0  501 -0.00000000000E+00 -0.00000000000E+00 -0.32738084848E+02  0.32738084848E+02  0.00000000000E+00 0.  1.
         36    2    1    2    0    0  0.71054273576E-14 -0.71054273576E-14  0.53229642663E+03  0.59777259633E+03  0.27201579203E+03 0.  0.
         25    2    3    3    0    0 -0.33174509896E+02  0.49519396427E+02  0.22172563704E+03  0.26000464176E+03  0.12201408478E+03 0.  0.
         25    2    3    3    0    0  0.33174509896E+02 -0.49519396427E+02  0.31057078959E+03  0.33776795457E+03  0.11866025897E+03 0.  0.
          5    1    4    4  502    0 -0.41259442776E+02 -0.32813596062E+02  0.85220869014E+02  0.10031829454E+03  0.47000000000E+01 0. -1.
         -5    1    4    4    0  502  0.80849328795E+01  0.82332992489E+02  0.13650476803E+03  0.15968634721E+03  0.47000000000E+01 0. -1.
          5    1    5    5  503    0  0.77323744262E+02 -0.30320799230E+02  0.21774151302E+03  0.23309176044E+03  0.47000000000E+01 0. -1.
         -5    1    5    5    0  503 -0.44149234366E+02 -0.19198597196E+02  0.92829276573E+02  0.10467619413E+03  0.47000000000E+01 0. -1.
<mgrwt>
<rscale>  0 0.27201579E+03</rscale>
<asrwt>0</asrwt>
<pdfrwt beam="1">  1        1 0.86928379E-01 0.27201579E+03</pdfrwt>
<pdfrwt beam="2">  1       -1 0.50366288E-02 0.27201579E+03</pdfrwt>
<totfact> 0.66254270E+03</totfact>
</mgrwt>
</event>
<event>
 9    1  0.2074770E-002  0.2737553E+03  0.7818608E-02  0.1099149E+00
         -1   -1    0    0    0  501 -0.00000000000E+00  0.00000000000E+00  0.11043998073E+02  0.11043998073E+02  0.00000000000E+00 0. -1.
          1   -1    0    0  501    0  0.00000000000E+00 -0.00000000000E+00 -0.16964413917E+04  0.16964413917E+04  0.00000000000E+00 0. -1.
         36    2    1    2    0    0  0.00000000000E+00  0.71054273576E-14 -0.16853973936E+04  0.17074853897E+04  0.27375533208E+03 0.  0.
         25    2    3    3    0    0 -0.69845804422E+01  0.11095848864E+02 -0.10388834982E+04  0.10491886720E+04  0.14610285536E+03 0.  0.
         25    2    3    3    0    0  0.69845804422E+01 -0.11095848864E+02 -0.64651389538E+03  0.65829671775E+03  0.12329821351E+03 0.  0.
          5    1    4    4  502    0 -0.87187077051E+01 -0.53701658242E+02 -0.79245228152E+03  0.79433153812E+03  0.47000000000E+01 0.  1.
         -5    1    4    4    0  502  0.17341272629E+01  0.64797507105E+02 -0.24643121670E+03  0.25485713387E+03  0.47000000000E+01 0.  1.
          5    1    5    5  503    0  0.48678116463E+01 -0.66394185116E+02 -0.29768539810E+03  0.30507469520E+03  0.47000000000E+01 0. -1.
         -5    1    5    5    0  503  0.21167687959E+01  0.55298336252E+02 -0.34882849727E+03  0.35322202255E+03  0.47000000000E+01 0. -1.
<mgrwt>
<rscale>  0 0.27375533E+03</rscale>
<asrwt>0</asrwt>
<pdfrwt beam="1">  1        1 0.26099083E+00 0.27375533E+03</pdfrwt>
<pdfrwt beam="2">  1       -1 0.16990776E-02 0.27375533E+03</pdfrwt>
<totfact> 0.46255318E+03</totfact>
</mgrwt>
</event>
<event>
 9    1  0.2074770E-002  0.2740319E+03  0.7818608E-02  0.1098994E+00
          2   -1    0    0  501    0  0.00000000000E+00  0.00000000000E+00  0.66636757792E+03  0.66636757792E+03  0.00000000000E+00 0.  1.
         -2   -1    0    0    0  501 -0.00000000000E+00 -0.00000000000E+00 -0.28172697045E+02  0.28172697045E+02  0.00000000000E+00 0.  1.
         36    2    1    2    0    0  0.00000000000E+00  0.35527136788E-14  0.63819488088E+03  0.69454027497E+03  0.27403190977E+03 0.  0.
         25    2    3    3    0    0  0.54317969105E+01  0.15077576314E+02  0.46392381722E+03  0.48030387206E+03  0.12332746493E+03 0.  0.
         25    2    3    3    0    0 -0.54317969105E+01 -0.15077576314E+02  0.17427106365E+03  0.21423640290E+03  0.12357182113E+03 0.  0.
          5    1    4    4  502    0  0.46561390262E+02  0.44703695159E+02  0.34380400771E+03  0.34984234898E+03  0.47000000000E+01 0.  1.
         -5    1    4    4    0  502 -0.41129593351E+02 -0.29626118844E+02  0.12011980952E+03  0.13046152308E+03  0.47000000000E+01 0.  1.
          5    1    5    5  503    0  0.39722104100E+02 -0.26922579375E+02  0.15700640964E+03  0.16424303182E+03  0.47000000000E+01 0. -1.
         -5    1    5    5    0  503 -0.45153901010E+02  0.11845003061E+02  0.17264654016E+02  0.49993371083E+02  0.47000000000E+01 0. -1.
<mgrwt>
<rscale>  0 0.27403191E+03</rscale>
<asrwt>0</asrwt>
<pdfrwt beam="1">  1        2 0.10251808E+00 0.27403191E+03</pdfrwt>
<pdfrwt beam="2">  1       -2 0.43342616E-02 0.27403191E+03</pdfrwt>
<totfact> 0.10790277E+04</totfact>
</mgrwt>
</event>
<event>
 9    1  0.2074770E-002  0.2729760E+03  0.7818608E-02  0.1099588E+00
         -2   -1    0    0    0  501 -0.00000000000E+00  0.00000000000E+00  0.81636990463E+01  0.81636990463E+01  0.00000000000E+00 0. -1.
          2   -1    0    0  501    0  0.00000000000E+00 -0.00000000000E+00 -0.22819288884E+04  0.22819288884E+04  0.00000000000E+00 0. -1.
         36    2    1    2    0    0 -0.71054273576E-14  0.00000000000E+00 -0.22737651894E+04  0.22900925875E+04  0.27297604796E+03 0.  0.
         25    2    3    3    0    0  0.18634403290E+02  0.10216619177E+02 -0.61577565981E+03  0.62669414469E+03  0.11451754226E+03 0.  0.
         25    2    3    3    0    0 -0.18634403290E+02 -0.10216619177E+02 -0.16579895296E+04  0.16633984428E+04  0.13233850151E+03 0.  0.
          5    1    4    4  502    0 -0.42037146083E+02  0.12010499575E+02 -0.40264861797E+03  0.40504243395E+03  0.47000000000E+01 0.  1.
         -5    1    4    4    0  502  0.60671549373E+02 -0.17938803980E+01 -0.21312704184E+03  0.22165171074E+03  0.47000000000E+01 0.  1.
          5    1    5    5  503    0  0.45894211707E+02 -0.10487614227E+02 -0.28621184755E+03  0.29009581244E+03  0.47000000000E+01 0. -1.
         -5    1    5    5    0  503 -0.64528614997E+02  0.27099505026E+00 -0.13717776820E+04  0.13733026303E+04  0.47000000000E+01 0. -1.
<mgrwt>
<rscale>  0 0.27297605E+03</rscale>
<asrwt>0</asrwt>
<pdfrwt beam="1">  1        2 0.35106630E+00 0.27297605E+03</pdfrwt>
<pdfrwt beam="2">  1       -2 0.12559526E-02 0.27297605E+03</pdfrwt>
<totfact> 0.80527280E+03</totfact>
</mgrwt>
</event>
<event>
 9    1  0.2074770E-002  0.2749520E+03  0.7818608E-02  0.1098478E+00
          2   -1    0    0  501    0  0.00000000000E+00  0.00000000000E+00  0.27055573327E+03  0.27055573327E+03  0.00000000000E+00 0. -1.
         -2   -1    0    0    0  501 -0.00000000000E+00 -0.00000000000E+00 -0.69854936028E+02  0.69854936028E+02  0.00000000000E+00 0. -1.
         36    2    1    2    0    0  0.35527136788E-14  0.00000000000E+00  0.20070079724E+03  0.34041066930E+03  0.27495202083E+03 0.  0.
         25    2    3    3    0    0 -0.98866906379E+01  0.51706458563E+02  0.78462265216E+02  0.15759282026E+03  0.12612638671E+03 0.  0.
         25    2    3    3    0    0  0.98866906379E+01 -0.51706458563E+02  0.12223853203E+03  0.18281784904E+03  0.12533476257E+03 0.  0.
          5    1    4    4  502    0  0.23422996031E+02 -0.35005550092E+02  0.34838404892E+02  0.54861915167E+02  0.47000000000E+01 0.  1.
         -5    1    4    4    0  502 -0.33309686669E+02  0.86712008655E+02  0.43623860325E+02  0.10273090509E+03  0.47000000000E+01 0.  1.
          5    1    5    5  503    0  0.33200249188E+02  0.30012473201E+02  0.69166012765E+02  0.82516861401E+02  0.47000000000E+01 0.  1.
         -5    1    5    5    0  503 -0.23313558550E+02 -0.81718931764E+02  0.53072519261E+02  0.10030098764E+03  0.47000000000E+01 0.  1.
<mgrwt>
<rscale>  0 0.27495202E+03</rscale>
<asrwt>0</asrwt>
<pdfrwt beam="1">  1        2 0.41623958E-01 0.27495202E+03</pdfrwt>
<pdfrwt beam="2">  1       -2 0.10746913E-01 0.27495202E+03</pdfrwt>
<totfact> 0.71770151E+03</totfact>
</mgrwt>
</event>
<event>
 9    1  0.2074770E-002  0.2746610E+03  0.7818608E-02  0.1098641E+00
          3   -1    0    0  501    0  0.00000000000E+00  0.00000000000E+00  0.32577595725E+02  0.32577595725E+02  0.00000000000E+00 0. -1.
         -3   -1    0    0    0  501 -0.00000000000E+00 -0.00000000000E+00 -0.57891535150E+03  0.57891535150E+03  0.00000000000E+00 0. -1.
         36    2    1    2    0    0  0.00000000000E+00  0.00000000000E+00 -0.54633775577E+03  0.61149294722E+03  0.27466102949E+03 0.  0.
         25    2    3    3    0    0 -0.83293434864E+00 -0.49475259106E+02 -0.22896962414E+03  0.26732753124E+03  0.12879606025E+03 0.  0.
         25    2    3    3    0    0  0.83293434864E+00  0.49475259106E+02 -0.31736813163E+03  0.34416541598E+03  0.12360747364E+03 0.  0.
          5    1    4    4  502    0 -0.37570006436E+02  0.15623596059E+02 -0.16119595674E+03  0.16631845540E+03  0.47000000000E+01 0.  1.
         -5    1    4    4    0  502  0.36737072087E+02 -0.65098855165E+02 -0.67773667401E+02  0.10100907584E+03  0.47000000000E+01 0.  1.
          5    1    5    5  503    0  0.56404166053E+02 -0.27766887545E+01 -0.13035063701E+03  0.14213556387E+03  0.47000000000E+01 0.  1.
         -5    1    5    5    0  503 -0.55571231704E+02  0.52251947860E+02 -0.18701749463E+03  0.20202985211E+03  0.47000000000E+01 0.  1.
<mgrwt>
<rscale>  0 0.27466103E+03</rscale>
<asrwt>0</asrwt>
<pdfrwt beam="1">  1        3 0.50119376E-02 0.27466103E+03</pdfrwt>
<pdfrwt beam="2">  1       -3 0.89063903E-01 0.27466103E+03</pdfrwt>
<totfact> 0.67792537E+02</totfact>
</mgrwt>
</event>
<event>
 9    1  0.2074770E-002  0.2752192E+03  0.7818608E-02  0.1098329E+00
          1   -1    0    0  501    0  0.00000000000E+00  0.00000000000E+00  0.13352606076E+03  0.13352606076E+03  0.00000000000E+00 0. -1.
         -1   -1    0    0    0  501 -0.00000000000E+00 -0.00000000000E+00 -0.14181799087E+03  0.14181799087E+03  0.00000000000E+00 0. -1.
         36    2    1    2    0    0 -0.71054273576E-14  0.00000000000E+00 -0.82919301146E+01  0.27534405163E+03  0.27521916842E+03 0.  0.
         25    2    3    3    0    0 -0.11004583057E+02 -0.36387334961E+02 -0.53433809530E+02  0.13814438908E+03  0.12158766895E+03 0.  0.
         25    2    3    3    0    0  0.11004583057E+02  0.36387334961E+02  0.45141879415E+02  0.13719966255E+03  0.12385806043E+03 0.  0.
          5    1    4    4  502    0  0.19641299354E+02 -0.79660266561E+01 -0.83607791538E+02  0.86380501428E+02  0.47000000000E+01 0. -1.
         -5    1    4    4    0  502 -0.30645882412E+02 -0.28421308305E+02  0.30173982009E+02  0.51763887652E+02  0.47000000000E+01 0. -1.
          5    1    5    5  503    0 -0.18718128826E+02 -0.27474856863E+02 -0.21701525560E+02  0.39978523209E+02  0.47000000000E+01 0. -1.
         -5    1    5    5    0  503  0.29722711883E+02  0.63862191824E+02  0.66843404975E+02  0.97221139342E+02  0.47000000000E+01 0. -1.
<mgrwt>
<rscale>  0 0.27521917E+03</rscale>
<asrwt>0</asrwt>
<pdfrwt beam="1">  1        1 0.20542471E-01 0.27521917E+03</pdfrwt>
<pdfrwt beam="2">  1       -1 0.21818152E-01 0.27521917E+03</pdfrwt>
<totfact> 0.42820576E+03</totfact>
</mgrwt>
</event>
<event>
 9    1  0.2074770E-002  0.2746396E+03  0.7818608E-02  0.1098653E+00
         -1   -1    0    0    0  501 -0.00000000000E+00  0.00000000000E+00  0.43542795593E+02  0.43542795593E+02  0.00000000000E+00 0. -1.
          1   -1    0    0  501    0  0.00000000000E+00 -0.00000000000E+00 -0.43306208217E+03  0.43306208217E+03  0.00000000000E+00 0. -1.
         36    2    1    2    0    0 -0.71054273576E-14  0.00000000000E+00 -0.38951928658E+03  0.47660487777E+03  0.27463964552E+03 0.  0.
         25    2    3    3    0    0  0.53484477832E+02 -0.19727133051E+02 -0.18760025479E+03  0.23207002234E+03  0.12414866300E+03 0.  0.
         25    2    3    3    0    0 -0.53484477832E+02  0.19727133051E+02 -0.20191903179E+03  0.24453485543E+03  0.12560354681E+03 0.  0.
          5    1    4    4  502    0  0.27921900992E+02  0.52449680814E+02 -0.74543375277E+02  0.95443210183E+02  0.47000000000E+01 0. -1.
         -5    1    4    4    0  502  0.25562576840E+02 -0.72176813865E+02 -0.11305687952E+03  0.13662681216E+03  0.47000000000E+01 0. -1.
          5    1    5    5  503    0  0.19227693211E+02  0.10226789560E+02 -0.15665562850E+03  0.15823200483E+03  0.47000000000E+01 0.  1.
         -5    1    5    5    0  503 -0.72712171043E+02  0.95003434919E+01 -0.45263403290E+02  0.86302850600E+02  0.47000000000E+01 0.  1.
<mgrwt>
<rscale>  0 0.27463965E+03</rscale>
<asrwt>0</asrwt>
<pdfrwt beam="1">  1        1 0.66624939E-01 0.27463965E+03</pdfrwt>
<pdfrwt beam="2">  1       -1 0.66988913E-02 0.27463965E+03</pdfrwt>
<totfact> 0.61391584E+03</totfact>
</mgrwt>
</event>
<event>
 9    1  0.2074770E-002  0.2753201E+03  0.7818608E-02  0.1098273E+00
          2   -1    0    0  501    0  0.00000000000E+00  0.00000000000E+00  0.84051948934E+03  0.84051948934E+03  0.00000000000E+00 0. -1.
         -2   -1    0    0    0  501 -0.00000000000E+00 -0.00000000000E+00 -0.22545926282E+02  0.22545926282E+02  0.00000000000E+00 0. -1.
         36    2    1    2    0    0 -0.71054273576E-14  0.00000000000E+00  0.81797356306E+03  0.86306541562E+03  0.27532010784E+03 0.  0.
         25    2    3    3    0    0 -0.18829567552E+02 -0.30003630744E+02  0.52086692194E+03  0.53688386172E+03  0.12524839376E+03 0.  0.
         25    2    3    3    0    0  0.18829567552E+02  0.30003630744E+02  0.29710664112E+03  0.32618155390E+03  0.12987409070E+03 0.  0.
          5    1    4    4  502    0  0.51827805897E+02 -0.28463565047E+02  0.24144670232E+03  0.24862601646E+03  0.47000000000E+01 0.  1.
         -5    1    4    4    0  502 -0.70657373449E+02 -0.15400656966E+01  0.27942021962E+03  0.28825784527E+03  0.47000000000E+01 0.  1.
          5    1    5    5  503    0  0.25236241225E+02 -0.45541391109E+02  0.17248986036E+03  0.18023797630E+03  0.47000000000E+01 0. -1.
         -5    1    5    5    0  503 -0.64066736728E+01  0.75545021852E+02  0.12461678076E+03  0.14594357760E+03  0.47000000000E+01 0. -1.
<mgrwt>
<rscale>  0 0.27532011E+03</rscale>
<asrwt>0</asrwt>
<pdfrwt beam="1">  1        2 0.12931067E+00 0.27532011E+03</pdfrwt>
<pdfrwt beam="2">  1       -2 0.34686047E-02 0.27532011E+03</pdfrwt>
<totfact> 0.11301067E+04</totfact>
</mgrwt>
</event>
<event>
 9    1  0.2074770E-002  0.2748386E+03  0.7818608E-02  0.1098542E+00
         -2   -1    0    0    0  501 -0.00000000000E+00  0.00000000000E+00  0.63049163444E+01  0.63049163444E+01  0.00000000000E+00 0.  1.
          2   -1    0    0  501    0  0.00000000000E+00 -0.00000000000E+00 -0.29951333148E+04  0.29951333148E+04  0.00000000000E+00 0.  1.
         36    2    1    2    0    0  0.00000000000E+00  0.00000000000E+00 -0.29888283985E+04  0.30014382312E+04  0.27483860712E+03 0.  0.
         25    2    3    3    0    0  0.20771624534E+02  0.43376827662E+02 -0.10819023995E+04  0.10898680549E+04  0.12241962912E+03 0.  0.
         25    2    3    3    0    0 -0.20771624534E+02 -0.43376827662E+02 -0.19069259990E+04  0.19115701763E+04  0.12418036663E+03 0.  0.
          5    1    4    4  502    0  0.68437133725E+02  0.13955099768E+02 -0.74785489532E+03  0.75112410461E+03  0.47000000000E+01 0.  1.
         -5    1    4    4    0  502 -0.47665509191E+02  0.29421727894E+02 -0.33404750414E+03  0.33874395030E+03  0.47000000000E+01 0.  1.
          5    1    5    5  503    0 -0.45110775009E+02 -0.28164970635E+02 -0.32340732023E+03  0.32778442972E+03  0.47000000000E+01 0.  1.
         -5    1    5    5    0  503  0.24339150474E+02 -0.15211857027E+02 -0.15835186788E+04  0.15837857465E+04  0.47000000000E+01 0.  1.
<mgrwt>
<rscale>  0 0.27483861E+03</rscale>
<asrwt>0</asrwt>
<pdfrwt beam="1">  1        2 0.46078790E+00 0.27483861E+03</pdfrwt>
<pdfrwt beam="2">  1       -2 0.96999101E-03 0.27483861E+03</pdfrwt>
<totfact> 0.46746346E+03</totfact>
</mgrwt>
</event>
<event>
 9    1  0.2074770E-002  0.2712281E+03  0.7818608E-02  0.1100579E+00
         -2   -1    0    0    0  501 -0.00000000000E+00  0.00000000000E+00  0.23680097514E+03  0.23680097514E+03  0.00000000000E+00 0.  1.
          2   -1    0    0  501    0  0.00000000000E+00 -0.00000000000E+00 -0.77665120979E+02  0.77665120979E+02  0.00000000000E+00 0.  1.
         36    2    1    2    0    0  0.35527136788E-14  0.00000000000E+00  0.15913585416E+03  0.31446609612E+03  0.27122814295E+03 0.  0.
         25    2    3    3    0    0  0.53307428215E+01 -0.52701768386E+02  0.87139339580E+02  0.16063866032E+03  0.12411938397E+03 0.  0.
         25    2    3    3    0    0 -0.53307428215E+01  0.52701768386E+02  0.71996514581E+02  0.15382743579E+03  0.12519380448E+03 0.  0.
          5    1    4    4  502    0 -0.23633812963E+02  0.24732508068E+02  0.67065109858E+02  0.75432572744E+02  0.47000000000E+01 0.  1.
         -5    1    4    4    0  502  0.28964555785E+02 -0.77434276454E+02  0.20074229723E+02  0.85206087580E+02  0.47000000000E+01 0.  1.
          5    1    5    5  503    0 -0.63358514943E+02  0.17436421976E+02  0.48542888034E+02  0.81834175048E+02  0.47000000000E+01 0. -1.
         -5    1    5    5    0  503  0.58027772121E+02  0.35265346410E+02  0.23453626547E+02  0.71993260747E+02  0.47000000000E+01 0. -1.
<mgrwt>
<rscale>  0 0.27122814E+03</rscale>
<asrwt>0</asrwt>
<pdfrwt beam="1">  1        2 0.11948480E-01 0.27122814E+03</pdfrwt>
<pdfrwt beam="2">  1       -2 0.36430919E-01 0.27122814E+03</pdfrwt>
<totfact> 0.36379252E+03</totfact>
</mgrwt>
</event>
<event>
 9    1  0.2074770E-002  0.2715796E+03  0.7818608E-02  0.1100379E+00
         -1   -1    0    0    0  501 -0.00000000000E+00  0.00000000000E+00  0.32881504590E+03  0.32881504590E+03  0.00000000000E+00 0.  1.
          1   -1    0    0  501    0  0.00000000000E+00 -0.00000000000E+00 -0.56076730744E+02  0.56076730744E+02  0.00000000000E+00 0.  1.
         36    2    1    2    0    0 -0.71054273576E-14 -0.35527136788E-14  0.27273831516E+03  0.38489177665E+03  0.27157962216E+03 0.  0.
         25    2    3    3    0    0 -0.47002752521E+02 -0.16453014723E+02  0.10958331294E+03  0.17427677797E+03  0.12603147395E+03 0.  0.
         25    2    3    3    0    0  0.47002752521E+02  0.16453014723E+02  0.16315500222E+03  0.21061499868E+03  0.12352798258E+03 0.  0.
          5    1    4    4  502    0 -0.14902761816E+02  0.52261289554E+01 -0.27329568121E+02  0.31912380471E+02  0.47000000000E+01 0. -1.
         -5    1    4    4    0  502 -0.32099990705E+02 -0.21679143678E+02  0.13691288107E+03  0.14236439750E+03  0.47000000000E+01 0. -1.
          5    1    5    5  503    0  0.23638383922E+02  0.39149890681E+02  0.18755923284E+01  0.46011900432E+02  0.47000000000E+01 0. -1.
         -5    1    5    5    0  503  0.23364368599E+02 -0.22696875958E+02  0.16127940989E+03  0.16460309824E+03  0.47000000000E+01 0. -1.
<mgrwt>
<rscale>  0 0.27157962E+03</rscale>
<asrwt>0</asrwt>
<pdfrwt beam="1">  1        1 0.86271896E-02 0.27157962E+03</pdfrwt>
<pdfrwt beam="2">  1       -1 0.50586929E-01 0.27157962E+03</pdfrwt>
<totfact> 0.31391157E+03</totfact>
</mgrwt>
</event>
<event>
 9    1  0.2074770E-002  0.2744228E+03  0.7818608E-02  0.1098775E+00
         -4   -1    0    0    0  501 -0.00000000000E+00  0.00000000000E+00  0.89732846606E+02  0.89732846606E+02  0.00000000000E+00 0. -1.
          4   -1    0    0  501    0  0.00000000000E+00 -0.00000000000E+00 -0.20981133180E+03  0.20981133180E+03  0.00000000000E+00 0. -1.
         36    2    1    2    0    0 -0.17763568394E-14 -0.17763568394E-14 -0.12007848520E+03  0.29954417841E+03  0.27442279827E+03 0.  0.
         25    2    3    3    0    0 -0.59013500412E+01  0.35148458932E+01 -0.11454638115E+03  0.17006517880E+03  0.12551538365E+03 0.  0.
         25    2    3    3    0    0  0.59013500412E+01 -0.35148458932E+01 -0.55321040490E+01  0.12947899961E+03  0.12917827639E+03 0.  0.
          5    1    4    4  502    0  0.22517141862E+02  0.17101293217E+02  0.17933548559E+02  0.33810916451E+02  0.47000000000E+01 0. -1.
         -5    1    4    4    0  502 -0.28418491903E+02 -0.13586447323E+02 -0.13247992971E+03  0.13625426235E+03  0.47000000000E+01 0. -1.
          5    1    5    5  503    0 -0.55084344277E+01  0.62012947497E+02 -0.66714097989E+01  0.62789698325E+02  0.47000000000E+01 0. -1.
         -5    1    5    5    0  503  0.11409784469E+02 -0.65527793390E+02  0.11393057498E+01  0.66689301284E+02  0.47000000000E+01 0. -1.
<mgrwt>
<rscale>  0 0.27442280E+03</rscale>
<asrwt>0</asrwt>
<pdfrwt beam="1">  1        4 0.32278666E-01 0.27442280E+03</pdfrwt>
<pdfrwt beam="2">  1       -4 0.13805054E-01 0.27442280E+03</pdfrwt>
<totfact> 0.75534020E+02</totfact>
</mgrwt>
</event>
<event>
 9    1  0.2074770E-002  0.2744019E+03  0.7818608E-02  0.1098786E+00
          3   -1    0    0  501    0  0.00000000000E+00  0.00000000000E+00  0.26299733456E+03  0.26299733456E+03  0.00000000000E+00 0. -1.
         -3   -1    0    0    0  501 -0.00000000000E+00 -0.00000000000E+00 -0.71575276385E+02  0.71575276385E+02  0.00000000000E+00 0. -1.
         36    2    1    2    0    0 -0.71054273576E-14  0.17763568394E-14  0.19142205818E+03  0.33457261094E+03  0.27440194540E+03 0.  0.
         25    2    3    3    0    0 -0.36284189081E+02 -0.15717804092E+02  0.14142549454E+03  0.19380795416E+03  0.12647830189E+03 0.  0.
         25    2    3    3    0    0  0.36284189081E+02  0.15717804092E+02  0.49996563638E+02  0.14076465678E+03  0.12550474286E+03 0.  0.
          5    1    4    4  502    0  0.32208433851E+02 -0.17907453065E+02  0.11390682961E+03  0.11981200239E+03  0.47000000000E+01 0.  1.
         -5    1    4    4    0  502 -0.68492622933E+02  0.21896489726E+01  0.27518664932E+02  0.73995951771E+02  0.47000000000E+01 0.  1.
          5    1    5    5  503    0  0.60546976801E+02  0.20357587299E+02  0.79439995527E+02  0.10204494426E+03  0.47000000000E+01 0.  1.
         -5    1    5    5    0  503 -0.24262787720E+02 -0.46397832073E+01 -0.29443431888E+02  0.38719712519E+02  0.47000000000E+01 0.  1.
<mgrwt>
<rscale>  0 0.27440195E+03</rscale>
<asrwt>0</asrwt>
<pdfrwt beam="1">  1        3 0.40461128E-01 0.27440195E+03</pdfrwt>
<pdfrwt beam="2">  1       -3 0.11011581E-01 0.27440195E+03</pdfrwt>
<totfact> 0.96987991E+02</totfact>
</mgrwt>
</event>
<event>
 9    1  0.2074770E-002  0.2736240E+03  0.7818608E-02  0.1099223E+00
         -1   -1    0    0    0  501 -0.00000000000E+00  0.00000000000E+00  0.19807072295E+02  0.19807072295E+02  0.00000000000E+00 0. -1.
          1   -1    0    0  501    0  0.00000000000E+00 -0.00000000000E+00 -0.94499217865E+03  0.94499217865E+03  0.00000000000E+00 0. -1.
         36    2    1    2    0    0 -0.71054273576E-14  0.71054273576E-14 -0.92518510635E+03  0.96479925094E+03  0.27362403696E+03 0.  0.
         25    2    3    3    0    0 -0.76837968554E+01 -0.45930729524E+02 -0.35719249632E+03  0.38145863090E+03  0.12552105405E+03 0.  0.
         25    2    3    3    0    0  0.76837968554E+01  0.45930729524E+02 -0.56799261003E+03  0.58334062004E+03  0.12450703312E+03 0.  0.
          5    1    4    4  502    0 -0.38473494389E+02 -0.53859547303E+02 -0.33706970160E+03  0.34353913073E+03  0.47000000000E+01 0. -1.
         -5    1    4    4    0  502  0.30789697534E+02  0.79288177785E+01 -0.20122794725E+02  0.37919500170E+02  0.47000000000E+01 0. -1.
          5    1    5    5  503    0  0.64495941503E+02  0.19210551533E+02 -0.34984919516E+03  0.35629386904E+03  0.47000000000E+01 0. -1.
         -5    1    5    5    0  503 -0.56812144647E+02  0.26720177992E+02 -0.21814341486E+03  0.22704675100E+03  0.47000000000E+01 0. -1.
<mgrwt>
<rscale>  0 0.27362404E+03</rscale>
<asrwt>0</asrwt>
<pdfrwt beam="1">  1        1 0.14538340E+00 0.27362404E+03</pdfrwt>
<pdfrwt beam="2">  1       -1 0.30472421E-02 0.27362404E+03</pdfrwt>
<totfact> 0.64840666E+03</totfact>
</mgrwt>
</event>
<event>
 9    1  0.2074770E-002  0.2755431E+03  0.7818608E-02  0.1098148E+00
          2   -1    0    0  501    0  0.00000000000E+00  0.00000000000E+00  0.29858372151E+03  0.29858372151E+03  0.00000000000E+00 0.  1.
         -2   -1    0    0    0  501 -0.00000000000E+00 -0.00000000000E+00 -0.63570097450E+02  0.63570097450E+02  0.00000000000E+00 0.  1.
         36    2    1    2    0    0  0.71054273576E-14 -0.35527136788E-14  0.23501362406E+03  0.36215381896E+03  0.27554307303E+03 0.  0.
         25    2    3    3    0    0 -0.50416005482E+02 -0.23099485296E+02  0.10473943896E+03  0.17271786372E+03  0.12564135683E+03 0.  0.
         25    2    3    3    0    0  0.50416005482E+02  0.23099485296E+02  0.13027418509E+03  0.18943595523E+03  0.12585411397E+03 0.  0.
          5    1    4    4  502    0  0.23114424171E+02 -0.34102975060E+02 -0.31747648066E+01  0.41586760445E+02  0.47000000000E+01 0. -1.
         -5    1    4    4    0  502 -0.73530429653E+02  0.11003489764E+02  0.10791420377E+03  0.13113110328E+03  0.47000000000E+01 0. -1.
          5    1    5    5  503    0 -0.25719500970E+02  0.20612579641E+02  0.10322840102E+03  0.10846457462E+03  0.47000000000E+01 0. -1.
         -5    1    5    5    0  503  0.76135506452E+02  0.24869056554E+01  0.27045784072E+02  0.80971380614E+02  0.47000000000E+01 0. -1.
<mgrwt>
<rscale>  0 0.27554307E+03</rscale>
<asrwt>0</asrwt>
<pdfrwt beam="1">  1        2 0.45935956E-01 0.27554307E+03</pdfrwt>
<pdfrwt beam="2">  1       -2 0.97800152E-02 0.27554307E+03</pdfrwt>
<totfact> 0.75014045E+03</totfact>
</mgrwt>
</event>
<event>
 9    1  0.2074770E-002  0.2753092E+03  0.7818608E-02  0.1098279E+00
         -2   -1    0    0    0  501 -0.00000000000E+00  0.00000000000E+00  0.23683065587E+02  0.23683065587E+02  0.00000000000E+00 0.  1.
          2   -1    0    0  501    0  0.00000000000E+00 -0.00000000000E+00 -0.80009860239E+03  0.80009860239E+03  0.00000000000E+00 0.  1.
         36    2    1    2    0    0 -0.35527136788E-14  0.00000000000E+00 -0.77641553680E+03  0.82378166798E+03  0.27530919110E+03 0.  0.
         25    2    3    3    0    0  0.12638563656E+02 -0.17129862744E+02 -0.54386777048E+03  0.55852138726E+03  0.12530292402E+03 0.  0.
         25    2    3    3    0    0 -0.12638563656E+02  0.17129862744E+02 -0.23254776632E+03  0.26526028072E+03  0.12582284140E+03 0.  0.
          5    1    4    4  502    0  0.18785812330E+02 -0.58332823945E+02 -0.46644284783E+03  0.47047491472E+03  0.47000000000E+01 0. -1.
         -5    1    4    4    0  502 -0.61472486737E+01  0.41202961201E+02 -0.77424922656E+02  0.88046472538E+02  0.47000000000E+01 0. -1.
          5    1    5    5  503    0  0.29705536649E+02  0.52319037671E+02 -0.64356497379E+02  0.88224426127E+02  0.47000000000E+01 0. -1.
         -5    1    5    5    0  503 -0.42344100306E+02 -0.35189174927E+02 -0.16819126894E+03  0.17703585459E+03  0.47000000000E+01 0. -1.
<mgrwt>
<rscale>  0 0.27530919E+03</rscale>
<asrwt>0</asrwt>
<pdfrwt beam="1">  1        2 0.12309209E+00 0.27530919E+03</pdfrwt>
<pdfrwt beam="2">  1       -2 0.36435487E-02 0.27530919E+03</pdfrwt>
<totfact> 0.11185197E+04</totfact>
</mgrwt>
</event>
<event>
 9    1  0.2074770E-002  0.2750524E+03  0.7818608E-02  0.1098422E+00
          2   -1    0    0  501    0  0.00000000000E+00  0.00000000000E+00  0.24881249450E+03  0.24881249450E+03  0.00000000000E+00 0.  1.
         -2   -1    0    0    0  501 -0.00000000000E+00 -0.00000000000E+00 -0.76014872056E+02  0.76014872056E+02  0.00000000000E+00 0.  1.
         36    2    1    2    0    0 -0.14210854715E-13 -0.17763568394E-14  0.17279762245E+03  0.32482736656E+03  0.27505235818E+03 0.  0.
         25    2    3    3    0    0  0.60962695288E+02 -0.23379595543E+01  0.12132772586E+03  0.18469706086E+03  0.12518255053E+03 0.  0.
         25    2    3    3    0    0 -0.60962695288E+02  0.23379595543E+01  0.51469896586E+02  0.14013030570E+03  0.11517567472E+03 0.  0.
          5    1    4    4  502    0  0.97689202024E+02  0.10383711830E+02  0.99356408120E+02  0.13980267343E+03  0.47000000000E+01 0. -1.
         -5    1    4    4    0  502 -0.36726506737E+02 -0.12721671384E+02  0.21971317740E+02  0.44894387435E+02  0.47000000000E+01 0. -1.
          5    1    5    5  503    0 -0.41030416086E+02 -0.21113823476E+02  0.83464704096E+02  0.95486833730E+02  0.47000000000E+01 0. -1.
         -5    1    5    5    0  503 -0.19932279201E+02  0.23451783030E+02 -0.31994807510E+02  0.44643471965E+02  0.47000000000E+01 0. -1.
<mgrwt>
<rscale>  0 0.27505236E+03</rscale>
<asrwt>0</asrwt>
<pdfrwt beam="1">  1        2 0.38278845E-01 0.27505236E+03</pdfrwt>
<pdfrwt beam="2">  1       -2 0.11694596E-01 0.27505236E+03</pdfrwt>
<totfact> 0.68593686E+03</totfact>
</mgrwt>
</event>
<event>
 9    1  0.2074770E-002  0.2747206E+03  0.7818608E-02  0.1098608E+00
         -2   -1    0    0    0  501 -0.00000000000E+00  0.00000000000E+00  0.16859554490E+02  0.16859554490E+02  0.00000000000E+00 0. -1.
          2   -1    0    0  501    0  0.00000000000E+00 -0.00000000000E+00 -0.11191193850E+04  0.11191193850E+04  0.00000000000E+00 0. -1.
         36    2    1    2    0    0 -0.71054273576E-14  0.00000000000E+00 -0.11022598305E+04  0.11359789395E+04  0.27472061628E+03 0.  0.
         25    2    3    3    0    0 -0.29812121848E+02 -0.33248202941E+02 -0.40197873367E+03  0.42338190274E+03  0.12518437457E+03 0.  0.
         25    2    3    3    0    0  0.29812121848E+02  0.33248202941E+02 -0.70028109688E+03  0.71259703679E+03  0.12412379541E+03 0.  0.
          5    1    4    4  502    0  0.18118302405E+02  0.39139689046E+02 -0.17561845410E+03  0.18089809164E+03  0.47000000000E+01 0. -1.
         -5    1    4    4    0  502 -0.47930424253E+02 -0.72387891987E+02 -0.22636027957E+03  0.24248381109E+03  0.47000000000E+01 0. -1.
          5    1    5    5  503    0 -0.36285075035E+02  0.35183432248E+02 -0.47670359976E+03  0.47939846954E+03  0.47000000000E+01 0. -1.
         -5    1    5    5    0  503  0.66097196883E+02 -0.19352293072E+01 -0.22357749711E+03  0.23319856724E+03  0.47000000000E+01 0. -1.
<mgrwt>
<rscale>  0 0.27472062E+03</rscale>
<asrwt>0</asrwt>
<pdfrwt beam="1">  1        2 0.17217224E+00 0.27472062E+03</pdfrwt>
<pdfrwt beam="2">  1       -2 0.25937771E-02 0.27472062E+03</pdfrwt>
<totfact> 0.11690397E+04</totfact>
</mgrwt>
</event>
<event>
 9    1  0.2074770E-002  0.2751865E+03  0.7818608E-02  0.1098347E+00
          2   -1    0    0  501    0  0.00000000000E+00  0.00000000000E+00  0.98350625653E+02  0.98350625653E+02  0.00000000000E+00 0. -1.
         -2   -1    0    0    0  501 -0.00000000000E+00 -0.00000000000E+00 -0.19249395218E+03  0.19249395218E+03  0.00000000000E+00 0. -1.
         36    2    1    2    0    0  0.00000000000E+00  0.26645352591E-14 -0.94143326525E+02  0.29084457783E+03  0.27518648681E+03 0.  0.
         25    2    3    3    0    0 -0.11987418801E+02  0.69143524810E-01 -0.10398077773E+03  0.16459293020E+03  0.12702412190E+03 0.  0.
         25    2    3    3    0    0  0.11987418801E+02 -0.69143524810E-01  0.98374512064E+01  0.12625164763E+03  0.12529565074E+03 0.  0.
          5    1    4    4  502    0 -0.11770120508E+02  0.17705681049E+02  0.25671416967E+02  0.33662123036E+02  0.47000000000E+01 0. -1.
         -5    1    4    4    0  502 -0.21729829294E+00 -0.17636537524E+02 -0.12965219470E+03  0.13093080716E+03  0.47000000000E+01 0. -1.
          5    1    5    5  503    0 -0.34933888225E+02 -0.65501769667E+01  0.51664808608E+02  0.62885799775E+02  0.47000000000E+01 0.  1.
         -5    1    5    5    0  503  0.46921307026E+02  0.64810334419E+01 -0.41827357401E+02  0.63365847857E+02  0.47000000000E+01 0.  1.
<mgrwt>
<rscale>  0 0.27518649E+03</rscale>
<asrwt>0</asrwt>
<pdfrwt beam="1">  1        2 0.15130866E-01 0.27518649E+03</pdfrwt>
<pdfrwt beam="2">  1       -2 0.29614454E-01 0.27518649E+03</pdfrwt>
<totfact> 0.40161167E+03</totfact>
</mgrwt>
</event>
<event>
 9    1  0.2074770E-002  0.2756029E+03  0.7818608E-02  0.1098115E+00
         -1   -1    0    0    0  501 -0.00000000000E+00  0.00000000000E+00  0.31012586042E+02  0.31012586042E+02  0.00000000000E+00 0. -1.
          1   -1    0    0  501    0  0.00000000000E+00 -0.00000000000E+00 -0.61230735477E+03  0.61230735477E+03  0.00000000000E+00 0. -1.
         36    2    1    2    0    0  0.35527136788E-14 -0.14210854715E-13 -0.58129476873E+03  0.64331994081E+03  0.27560286300E+03 0.  0.
         25    2    3    3    0    0  0.83702313846E+01 -0.55254486440E+02 -0.21833264704E+03  0.25651656149E+03  0.12250911194E+03 0.  0.
         25    2    3    3    0    0 -0.83702313846E+01  0.55254486440E+02 -0.36296212168E+03  0.38680337932E+03  0.12145877257E+03 0.  0.
          5    1    4    4  502    0 -0.29489989986E+01 -0.85271915855E+02 -0.89810894338E+02  0.12396807238E+03  0.47000000000E+01 0.  1.
         -5    1    4    4    0  502  0.11319230383E+02  0.30017429415E+02 -0.12852175271E+03  0.13254848910E+03  0.47000000000E+01 0.  1.
          5    1    5    5  503    0  0.55607289792E+02  0.25734536697E+02 -0.13916629553E+03  0.15213081498E+03  0.47000000000E+01 0. -1.
         -5    1    5    5    0  503 -0.63977521177E+02  0.29519949743E+02 -0.22379582616E+03  0.23467256434E+03  0.47000000000E+01 0. -1.
<mgrwt>
<rscale>  0 0.27560286E+03</rscale>
<asrwt>0</asrwt>
<pdfrwt beam="1">  1        1 0.94201130E-01 0.27560286E+03</pdfrwt>
<pdfrwt beam="2">  1       -1 0.47711672E-02 0.27560286E+03</pdfrwt>
<totfact> 0.64326294E+03</totfact>
</mgrwt>
</event>
<event>
 9    1  0.2074770E-002  0.2754191E+03  0.7818608E-02  0.1098218E+00
          1   -1    0    0  501    0  0.00000000000E+00  0.00000000000E+00  0.21908980173E+03  0.21908980173E+03  0.00000000000E+00 0. -1.
         -1   -1    0    0    0  501 -0.00000000000E+00 -0.00000000000E+00 -0.86557776138E+02  0.86557776138E+02  0.00000000000E+00 0. -1.
         36    2    1    2    0    0  0.00000000000E+00  0.00000000000E+00  0.13253202560E+03  0.30564757787E+03  0.27541914249E+03 0.  0.
         25    2    3    3    0    0  0.86368520867E+01  0.43048539231E+02  0.99454423956E+02  0.16719800855E+03  0.12702842073E+03 0.  0.
         25    2    3    3    0    0 -0.86368520867E+01 -0.43048539231E+02  0.33077601640E+02  0.13844956933E+03  0.12706842083E+03 0.  0.
          5    1    4    4  502    0 -0.91431318181E+01  0.86521095291E+02  0.61914524373E+02  0.10688776880E+03  0.47000000000E+01 0.  1.
         -5    1    4    4    0  502  0.17779983905E+02 -0.43472556060E+02  0.37539899584E+02  0.60310239750E+02  0.47000000000E+01 0.  1.
          5    1    5    5  503    0 -0.59769665799E+02 -0.53804198193E+02  0.10143007550E+02  0.81192827855E+02  0.47000000000E+01 0.  1.
         -5    1    5    5    0  503  0.51132813713E+02  0.10755658962E+02  0.22934594090E+02  0.57256741472E+02  0.47000000000E+01 0.  1.
<mgrwt>
<rscale>  0 0.27541914E+03</rscale>
<asrwt>0</asrwt>
<pdfrwt beam="1">  1        1 0.33706123E-01 0.27541914E+03</pdfrwt>
<pdfrwt beam="2">  1       -1 0.13316581E-01 0.27541914E+03</pdfrwt>
<totfact> 0.50400623E+03</totfact>
</mgrwt>
</event>
<event>
 9    1  0.2074770E-002  0.2745358E+03  0.7818608E-02  0.1098711E+00
          1   -1    0    0  501    0  0.00000000000E+00  0.00000000000E+00  0.15519751366E+04  0.15519751366E+04  0.00000000000E+00 0. -1.
         -1   -1    0    0    0  501 -0.00000000000E+00 -0.00000000000E+00 -0.12140963483E+02  0.12140963483E+02  0.00000000000E+00 0. -1.
         36    2    1    2    0    0  0.00000000000E+00  0.17763568394E-14  0.15398341731E+04  0.15641161001E+04  0.27453577880E+03 0.  0.
         25    2    3    3    0    0 -0.46892113615E+02 -0.47526887352E+00  0.71055232349E+03  0.72301220500E+03  0.12515169983E+03 0.  0.
         25    2    3    3    0    0  0.46892113615E+02  0.47526887352E+00  0.82928184965E+03  0.84110389510E+03  0.13246992109E+03 0.  0.
          5    1    4    4  502    0 -0.89402154328E+02  0.44824571143E+01  0.51866909944E+03  0.52635782728E+03  0.47000000000E+01 0. -1.
         -5    1    4    4    0  502  0.42510040713E+02 -0.49577259878E+01  0.19188322405E+03  0.19665437773E+03  0.47000000000E+01 0. -1.
          5    1    5    5  503    0  0.49296294293E+02 -0.40158074547E+02  0.18804680552E+03  0.19856104011E+03  0.47000000000E+01 0.  1.
         -5    1    5    5    0  503 -0.24041806774E+01  0.40633343420E+02  0.64123504414E+03  0.64254285500E+03  0.47000000000E+01 0.  1.
<mgrwt>
<rscale>  0 0.27453578E+03</rscale>
<asrwt>0</asrwt>
<pdfrwt beam="1">  1        1 0.23876525E+00 0.27453578E+03</pdfrwt>
<pdfrwt beam="2">  1       -1 0.18678418E-02 0.27453578E+03</pdfrwt>
<totfact> 0.50104013E+03</totfact>
</mgrwt>
</event>
<event>
 9    1  0.2074770E-002  0.2743143E+03  0.7818608E-02  0.1098835E+00
         -1   -1    0    0    0  501 -0.00000000000E+00  0.00000000000E+00  0.21909439575E+02  0.21909439575E+02  0.00000000000E+00 0. -1.
          1   -1    0    0  501    0  0.00000000000E+00 -0.00000000000E+00 -0.85862926166E+03  0.85862926166E+03  0.00000000000E+00 0. -1.
         36    2    1    2    0    0  0.00000000000E+00  0.71054273576E-14 -0.83671982209E+03  0.88053870124E+03  0.27431431553E+03 0.  0.
         25    2    3    3    0    0  0.42919896066E+02 -0.87368979701E+01 -0.35388592826E+03  0.37768077175E+03  0.12445506927E+03 0.  0.
         25    2    3    3    0    0 -0.42919896066E+02  0.87368979701E+01 -0.48283389383E+03  0.50285792949E+03  0.13348811690E+03 0.  0.
          5    1    4    4  502    0  0.57827248420E+02  0.34496259941E+02 -0.10670949732E+03  0.12626555123E+03  0.47000000000E+01 0. -1.
         -5    1    4    4    0  502 -0.14907352353E+02 -0.43233157911E+02 -0.24717643094E+03  0.25141522052E+03  0.47000000000E+01 0. -1.
          5    1    5    5  503    0 -0.62644038907E+02  0.50407114067E+02 -0.39919048361E+03  0.40723492601E+03  0.47000000000E+01 0.  1.
         -5    1    5    5    0  503  0.19724142840E+02 -0.41670216097E+02 -0.83643410217E+02  0.95623003473E+02  0.47000000000E+01 0.  1.
<mgrwt>
<rscale>  0 0.27431432E+03</rscale>
<asrwt>0</asrwt>
<pdfrwt beam="1">  1        1 0.13209678E+00 0.27431432E+03</pdfrwt>
<pdfrwt beam="2">  1       -1 0.33706837E-02 0.27431432E+03</pdfrwt>
<totfact> 0.65303367E+03</totfact>
</mgrwt>
</event>
<event>
 9    1  0.2074770E-002  0.2753897E+03  0.7818608E-02  0.1098234E+00
          1   -1    0    0  501    0  0.00000000000E+00  0.00000000000E+00  0.10738707078E+03  0.10738707078E+03  0.00000000000E+00 0.  1.
         -1   -1    0    0    0  501 -0.00000000000E+00 -0.00000000000E+00 -0.17655637026E+03  0.17655637026E+03  0.00000000000E+00 0.  1.
         36    2    1    2    0    0  0.00000000000E+00 -0.13322676296E-14 -0.69169299482E+02  0.28394344104E+03  0.27538969791E+03 0.  0.
         25    2    3    3    0    0  0.23926967492E+02 -0.37630264779E+01 -0.84919360391E+02  0.15538087500E+03  0.12784857607E+03 0.  0.
         25    2    3    3    0    0 -0.23926967492E+02  0.37630264779E+01  0.15750060910E+02  0.12856256604E+03  0.12527413471E+03 0.  0.
          5    1    4    4  502    0 -0.38484516880E+01  0.27342229292E+02 -0.10513363911E+03  0.10880064409E+03  0.47000000000E+01 0.  1.
         -5    1    4    4    0  502  0.27775419180E+02 -0.31105255770E+02  0.20214278715E+02  0.46580230904E+02  0.47000000000E+01 0.  1.
          5    1    5    5  503    0 -0.35193191141E+01 -0.10391058300E+01  0.69978939643E+02  0.70232523389E+02  0.47000000000E+01 0. -1.
         -5    1    5    5    0  503 -0.20407648377E+02  0.48021323080E+01 -0.54228878734E+02  0.58330042651E+02  0.47000000000E+01 0. -1.
<mgrwt>
<rscale>  0 0.27538970E+03</rscale>
<asrwt>0</asrwt>
<pdfrwt beam="1">  1        1 0.16521088E-01 0.27538970E+03</pdfrwt>
<pdfrwt beam="2">  1       -1 0.27162518E-01 0.27538970E+03</pdfrwt>
<totfact> 0.39480487E+03</totfact>
</mgrwt>
</event>
<event>
 9    1  0.2074770E-002  0.2743715E+03  0.7818608E-02  0.1098803E+00
         -2   -1    0    0    0  501 -0.00000000000E+00  0.00000000000E+00  0.12574618984E+03  0.12574618984E+03  0.00000000000E+00 0.  1.
          2   -1    0    0  501    0  0.00000000000E+00 -0.00000000000E+00 -0.14966605179E+03  0.14966605179E+03  0.00000000000E+00 0.  1.
         36    2    1    2    0    0  0.00000000000E+00  0.71054273576E-14 -0.23919861948E+02  0.27541224163E+03  0.27437154197E+03 0.  0.
         25    2    3    3    0    0  0.41412703007E+02 -0.31978242867E+02 -0.18354831983E+02  0.14096463759E+03  0.12960134724E+03 0.  0.
         25    2    3    3    0    0 -0.41412703007E+02  0.31978242867E+02 -0.55650299650E+01  0.13444760404E+03  0.12372375959E+03 0.  0.
          5    1    4    4  502    0  0.89781658957E+01  0.50126557415E+02 -0.29265447115E+01  0.51224348557E+02  0.47000000000E+01 0.  1.
         -5    1    4    4    0  502  0.32434537111E+02 -0.82104800282E+02 -0.15428287272E+02  0.89740289030E+02  0.47000000000E+01 0.  1.
          5    1    5    5  503    0 -0.38267394464E+02  0.76560901882E+02 -0.18477033308E+02  0.87689542911E+02  0.47000000000E+01 0.  1.
         -5    1    5    5    0  503 -0.31453085427E+01 -0.44582659015E+02  0.12912003343E+02  0.46758061134E+02  0.47000000000E+01 0.  1.
<mgrwt>
<rscale>  0 0.27437154E+03</rscale>
<asrwt>0</asrwt>
<pdfrwt beam="1">  1        2 0.23025546E-01 0.27437154E+03</pdfrwt>
<pdfrwt beam="2">  1       -2 0.19345568E-01 0.27437154E+03</pdfrwt>
<totfact> 0.52197653E+03</totfact>
</mgrwt>
</event>
<event>
 9    1  0.2074770E-002  0.2773565E+03  0.7818608E-02  0.1097142E+00
         -2   -1    0    0    0  501 -0.00000000000E+00  0.00000000000E+00  0.25473583537E+02  0.25473583537E+02  0.00000000000E+00 0.  1.
          2   -1    0    0  501    0  0.00000000000E+00 -0.00000000000E+00 -0.75496477645E+03  0.75496477645E+03  0.00000000000E+00 0.  1.
         36    2    1    2    0    0 -0.14210854715E-13 -0.71054273576E-14 -0.72949119292E+03  0.78043835999E+03  0.27735650921E+03 0.  0.
         25    2    3    3    0    0  0.64857008518E+02  0.28861343185E+02 -0.27758049763E+03  0.30601706480E+03  0.10749931443E+03 0.  0.
         25    2    3    3    0    0 -0.64857008518E+02 -0.28861343185E+02 -0.45191069529E+03  0.47442129519E+03  0.12574927487E+03 0.  0.
          5    1    4    4  502    0 -0.14931252608E+02  0.40126342635E+02 -0.14033037494E+03  0.14679158630E+03  0.47000000000E+01 0.  1.
         -5    1    4    4    0  502  0.79788261126E+02 -0.11264999450E+02 -0.13725012269E+03  0.15922547850E+03  0.47000000000E+01 0.  1.
          5    1    5    5  503    0 -0.23571388179E+02 -0.71101095486E+02 -0.33557364630E+03  0.34386441836E+03  0.47000000000E+01 0. -1.
         -5    1    5    5    0  503 -0.41285620339E+02  0.42239752301E+02 -0.11633704898E+03  0.13055687683E+03  0.47000000000E+01 0. -1.
<mgrwt>
<rscale>  0 0.27735651E+03</rscale>
<asrwt>0</asrwt>
<pdfrwt beam="1">  1        2 0.11614841E+00 0.27735651E+03</pdfrwt>
<pdfrwt beam="2">  1       -2 0.39190133E-02 0.27735651E+03</pdfrwt>
<totfact> 0.10789456E+04</totfact>
</mgrwt>
</event>
<event>
 9    1  0.2074770E-002  0.2755904E+03  0.7818608E-02  0.1098122E+00
         -1   -1    0    0    0  501 -0.00000000000E+00  0.00000000000E+00  0.18479976148E+02  0.18479976148E+02  0.00000000000E+00 0.  1.
          1   -1    0    0  501    0  0.00000000000E+00 -0.00000000000E+00 -0.10274645128E+04  0.10274645128E+04  0.00000000000E+00 0.  1.
         36    2    1    2    0    0 -0.35527136788E-14  0.00000000000E+00 -0.10089845367E+04  0.10459444890E+04  0.27559041849E+03 0.  0.
         25    2    3    3    0    0 -0.26656208081E+02 -0.17994652111E+02 -0.55514642089E+03  0.57463746504E+03  0.14486651326E+03 0.  0.
         25    2    3    3    0    0  0.26656208081E+02  0.17994652111E+02 -0.45383811581E+03  0.47130702396E+03  0.12299152222E+03 0.  0.
          5    1    4    4  502    0  0.16644908388E+02  0.24820526379E+02 -0.46360982919E+03  0.46459581921E+03  0.47000000000E+01 0.  1.
         -5    1    4    4    0  502 -0.43301116469E+02 -0.42815178490E+02 -0.91536591696E+02  0.11004164583E+03  0.47000000000E+01 0.  1.
          5    1    5    5  503    0  0.17903817124E+02  0.54574827304E+02 -0.99785037953E+02  0.11523064802E+03  0.47000000000E+01 0.  1.
         -5    1    5    5    0  503  0.87523909574E+01 -0.36580175193E+02 -0.35405307786E+03  0.35607637594E+03  0.47000000000E+01 0.  1.
<mgrwt>
<rscale>  0 0.27559042E+03</rscale>
<asrwt>0</asrwt>
<pdfrwt beam="1">  1        1 0.15807144E+00 0.27559042E+03</pdfrwt>
<pdfrwt beam="2">  1       -1 0.28430736E-02 0.27559042E+03</pdfrwt>
<totfact> 0.62259346E+03</totfact>
</mgrwt>
</event>
<event>
 9    1  0.2074770E-002  0.2606933E+03  0.7818608E-02  0.1106727E+00
         -2   -1    0    0    0  501 -0.00000000000E+00  0.00000000000E+00  0.12628507008E+02  0.12628507008E+02  0.00000000000E+00 0.  1.
          2   -1    0    0  501    0  0.00000000000E+00 -0.00000000000E+00 -0.13453882699E+04  0.13453882699E+04  0.00000000000E+00 0.  1.
         36    2    1    2    0    0 -0.35527136788E-14 -0.71054273576E-14 -0.13327597629E+04  0.13580167769E+04  0.26069326953E+03 0.  0.
         25    2    3    3    0    0 -0.14598949970E+02 -0.89675496844E+01 -0.79474136088E+03  0.80459960422E+03  0.12439110149E+03 0.  0.
         25    2    3    3    0    0  0.14598949970E+02  0.89675496844E+01 -0.53801840203E+03  0.55341717271E+03  0.12850377362E+03 0.  0.
          5    1    4    4  502    0  0.42307854378E+02  0.30588888792E+02 -0.44084053579E+03  0.44394605827E+03  0.47000000000E+01 0. -1.
         -5    1    4    4    0  502 -0.56906804347E+02 -0.39556438477E+02 -0.35390082510E+03  0.36065354595E+03  0.47000000000E+01 0. -1.
          5    1    5    5  503    0  0.33229121104E+01 -0.17201705798E+02 -0.51790642806E+03  0.51822398503E+03  0.47000000000E+01 0.  1.
         -5    1    5    5    0  503  0.11276037859E+02  0.26169255482E+02 -0.20111973971E+02  0.35193187683E+02  0.47000000000E+01 0.  1.
<mgrwt>
<rscale>  0 0.26069327E+03</rscale>
<asrwt>0</asrwt>
<pdfrwt beam="1">  1        2 0.20698275E+00 0.26069327E+03</pdfrwt>
<pdfrwt beam="2">  1       -2 0.19428478E-02 0.26069327E+03</pdfrwt>
<totfact> 0.13327104E+04</totfact>
</mgrwt>
</event>
<event>
 9    1  0.2074770E-002  0.2758452E+03  0.7818608E-02  0.1097980E+00
         -1   -1    0    0    0  501 -0.00000000000E+00  0.00000000000E+00  0.14998879102E+02  0.14998879102E+02  0.00000000000E+00 0.  1.
          1   -1    0    0  501    0  0.00000000000E+00 -0.00000000000E+00 -0.12682708899E+04  0.12682708899E+04  0.00000000000E+00 0.  1.
         36    2    1    2    0    0  0.00000000000E+00  0.00000000000E+00 -0.12532720108E+04  0.12832697690E+04  0.27584518663E+03 0.  0.
         25    2    3    3    0    0  0.38445200040E+02 -0.25966930444E+02 -0.63800704717E+03  0.65270518327E+03  0.12968712020E+03 0.  0.
         25    2    3    3    0    0 -0.38445200040E+02  0.25966930444E+02 -0.61526496367E+03  0.63056458578E+03  0.13003232841E+03 0.  0.
          5    1    4    4  502    0  0.64549155154E+02 -0.58513112102E+02 -0.31076110575E+03  0.32277690835E+03  0.47000000000E+01 0.  1.
         -5    1    4    4    0  502 -0.26103955114E+02  0.32546181658E+02 -0.32724594143E+03  0.32992827492E+03  0.47000000000E+01 0.  1.
          5    1    5    5  503    0 -0.62394530349E+00  0.54364428093E+02 -0.10728770875E+03  0.12036869526E+03  0.47000000000E+01 0. -1.
         -5    1    5    5    0  503 -0.37821254736E+02 -0.28397497649E+02 -0.50797725492E+03  0.51019589052E+03  0.47000000000E+01 0. -1.
<mgrwt>
<rscale>  0 0.27584519E+03</rscale>
<asrwt>0</asrwt>
<pdfrwt beam="1">  1        1 0.19511857E+00 0.27584519E+03</pdfrwt>
<pdfrwt beam="2">  1       -1 0.23075202E-02 0.27584519E+03</pdfrwt>
<totfact> 0.57033478E+03</totfact>
</mgrwt>
</event>
<event>
 9    1  0.2074770E-002  0.2750618E+03  0.7818608E-02  0.1098417E+00
          1   -1    0    0  501    0  0.00000000000E+00  0.00000000000E+00  0.54567620707E+03  0.54567620707E+03  0.00000000000E+00 0.  1.
         -1   -1    0    0    0  501 -0.00000000000E+00 -0.00000000000E+00 -0.34662941065E+02  0.34662941065E+02  0.00000000000E+00 0.  1.
         36    2    1    2    0    0  0.35527136788E-14  0.00000000000E+00  0.51101326600E+03  0.58033914813E+03  0.27506175457E+03 0.  0.
         25    2    3    3    0    0 -0.11244104032E+02 -0.45020095340E+02  0.24088925308E+03  0.27739756384E+03  0.12949338714E+03 0.  0.
         25    2    3    3    0    0  0.11244104032E+02  0.45020095340E+02  0.27012401292E+03  0.30294158429E+03  0.12904798440E+03 0.  0.
          5    1    4    4  502    0  0.20421264342E+02 -0.67373380039E+02  0.22401341025E+03  0.23486229656E+03  0.47000000000E+01 0.  1.
         -5    1    4    4    0  502 -0.31665368374E+02  0.22353284698E+02  0.16875842834E+02  0.42535267278E+02  0.47000000000E+01 0.  1.
          5    1    5    5  503    0  0.33396363915E+02 -0.29846897107E+01  0.70719496707E+01  0.34587974320E+02  0.47000000000E+01 0.  1.
         -5    1    5    5    0  503 -0.22152259883E+02  0.48004785051E+02  0.26305206325E+03  0.26835360997E+03  0.47000000000E+01 0.  1.
<mgrwt>
<rscale>  0 0.27506175E+03</rscale>
<asrwt>0</asrwt>
<pdfrwt beam="1">  1        1 0.83950180E-01 0.27506175E+03</pdfrwt>
<pdfrwt beam="2">  1       -1 0.53327605E-02 0.27506175E+03</pdfrwt>
<totfact> 0.63788609E+03</totfact>
</mgrwt>
</event>
<event>
 9    1  0.2074770E-002  0.2719353E+03  0.7818608E-02  0.1100177E+00
          2   -1    0    0  501    0  0.00000000000E+00  0.00000000000E+00  0.64958139688E+03  0.64958139688E+03  0.00000000000E+00 0.  1.
         -2   -1    0    0    0  501 -0.00000000000E+00 -0.00000000000E+00 -0.28460177200E+02  0.28460177200E+02  0.00000000000E+00 0.  1.
         36    2    1    2    0    0  0.00000000000E+00  0.35527136788E-14  0.62112121968E+03  0.67804157408E+03  0.27193529863E+03 0.  0.
         25    2    3    3    0    0 -0.36432305753E+02  0.29921925289E+02  0.25598459895E+03  0.28945363612E+03  0.12662013286E+03 0.  0.
         25    2    3    3    0    0  0.36432305753E+02 -0.29921925289E+02  0.36513662072E+03  0.38858793796E+03  0.12431089742E+03 0.  0.
          5    1    4    4  502    0  0.21261470105E+02  0.29292864511E+02  0.21608734242E+03  0.21914824109E+03  0.47000000000E+01 0. -1.
         -5    1    4    4    0  502 -0.57693775859E+02  0.62906077795E+00  0.39897256536E+02  0.70305395023E+02  0.47000000000E+01 0. -1.
          5    1    5    5  503    0 -0.32973443031E+02 -0.43181355300E+02  0.22574609960E+03  0.23223967980E+03  0.47000000000E+01 0.  1.
         -5    1    5    5    0  503  0.69405748785E+02  0.13259430012E+02  0.13939052113E+03  0.15634825816E+03  0.47000000000E+01 0.  1.
<mgrwt>
<rscale>  0 0.27193530E+03</rscale>
<asrwt>0</asrwt>
<pdfrwt beam="1">  1        2 0.99935588E-01 0.27193530E+03</pdfrwt>
<pdfrwt beam="2">  1       -2 0.43784893E-02 0.27193530E+03</pdfrwt>
<totfact> 0.10950695E+04</totfact>
</mgrwt>
</event>
<event>
 9    1  0.2074770E-002  0.2745868E+03  0.7818608E-02  0.1098683E+00
         -1   -1    0    0    0  501 -0.00000000000E+00  0.00000000000E+00  0.15792056104E+03  0.15792056104E+03  0.00000000000E+00 0.  1.
          1   -1    0    0  501    0  0.00000000000E+00 -0.00000000000E+00 -0.11936053760E+03  0.11936053760E+03  0.00000000000E+00 0.  1.
         36    2    1    2    0    0  0.00000000000E+00  0.00000000000E+00  0.38560023446E+02  0.27728109864E+03  0.27458683919E+03 0.  0.
         25    2    3    3    0    0  0.35002890506E+02 -0.32834872418E+02 -0.15315398458E+02  0.13362904908E+03  0.12376926169E+03 0.  0.
         25    2    3    3    0    0 -0.35002890506E+02  0.32834872418E+02  0.53875421904E+02  0.14365204956E+03  0.12421762784E+03 0.  0.
          5    1    4    4  502    0  0.13854251985E+02 -0.42699279186E+02  0.48059087770E+02  0.65931287401E+02  0.47000000000E+01 0. -1.
         -5    1    4    4    0  502  0.21148638521E+02  0.98644067685E+01 -0.63374486228E+02  0.67697761682E+02  0.47000000000E+01 0. -1.
          5    1    5    5  503    0 -0.99556789330E+01  0.31283046218E+02  0.91984848387E+02  0.97780605727E+02  0.47000000000E+01 0.  1.
         -5    1    5    5    0  503 -0.25047211573E+02  0.15518262002E+01 -0.38109426483E+02  0.45871443829E+02  0.47000000000E+01 0.  1.
<mgrwt>
<rscale>  0 0.27458684E+03</rscale>
<asrwt>0</asrwt>
<pdfrwt beam="1">  1        1 0.18363160E-01 0.27458684E+03</pdfrwt>
<pdfrwt beam="2">  1       -1 0.24295471E-01 0.27458684E+03</pdfrwt>
<totfact> 0.41447129E+03</totfact>
</mgrwt>
</event>
<event>
 9    1  0.2074770E-002  0.2751880E+03  0.7818608E-02  0.1098347E+00
          2   -1    0    0  501    0  0.00000000000E+00  0.00000000000E+00  0.13832759727E+04  0.13832759727E+04  0.00000000000E+00 0. -1.
         -2   -1    0    0    0  501 -0.00000000000E+00 -0.00000000000E+00 -0.13686430273E+02  0.13686430273E+02  0.00000000000E+00 0. -1.
         36    2    1    2    0    0  0.00000000000E+00  0.00000000000E+00  0.13695895424E+04  0.13969624030E+04  0.27518800954E+03 0.  0.
         25    2    3    3    0    0 -0.40446952557E+02 -0.22089354220E+02  0.57664659410E+03  0.59316683974E+03  0.13115528861E+03 0.  0.
         25    2    3    3    0    0  0.40446952557E+02  0.22089354220E+02  0.79294294832E+03  0.80379556323E+03  0.12330812075E+03 0.  0.
          5    1    4    4  502    0  0.16473604040E+02 -0.63016089367E+02  0.21267312243E+03  0.22247326616E+03  0.47000000000E+01 0. -1.
         -5    1    4    4    0  502 -0.56920556596E+02  0.40926735147E+02  0.36397347167E+03  0.37069357358E+03  0.47000000000E+01 0. -1.
          5    1    5    5  503    0  0.27002913147E+02  0.44995648185E+02  0.75713261467E+03  0.75896353791E+03  0.47000000000E+01 0.  1.
         -5    1    5    5    0  503  0.13444039409E+02 -0.22906293965E+02  0.35810333648E+02  0.44832025326E+02  0.47000000000E+01 0.  1.
<mgrwt>
<rscale>  0 0.27518801E+03</rscale>
<asrwt>0</asrwt>
<pdfrwt beam="1">  1        2 0.21281158E+00 0.27518801E+03</pdfrwt>
<pdfrwt beam="2">  1       -2 0.21056057E-02 0.27518801E+03</pdfrwt>
<totfact> 0.11305306E+04</totfact>
</mgrwt>
</event>
<event>
 9    1  0.2074770E-002  0.2752232E+03  0.7818608E-02  0.1098327E+00
         -2   -1    0    0    0  501 -0.00000000000E+00  0.00000000000E+00  0.44505145048E+02  0.44505145048E+02  0.00000000000E+00 0.  1.
          2   -1    0    0  501    0  0.00000000000E+00 -0.00000000000E+00 -0.42550029432E+03  0.42550029432E+03  0.00000000000E+00 0.  1.
         36    2    1    2    0    0  0.71054273576E-14  0.00000000000E+00 -0.38099514928E+03  0.47000543937E+03  0.27522319900E+03 0.  0.
         25    2    3    3    0    0 -0.41074850702E+02  0.63819414267E+02 -0.13334136840E+03  0.19807204073E+03  0.12526991576E+03 0.  0.
         25    2    3    3    0    0  0.41074850702E+02 -0.63819414267E+02 -0.24765378087E+03  0.27193339864E+03  0.82796842437E+02 0.  0.
          5    1    4    4  502    0 -0.56870545692E+02  0.41432530866E+02 -0.14993953849E+03  0.16569510791E+03  0.47000000000E+01 0. -1.
         -5    1    4    4    0  502  0.15795694990E+02  0.22386883401E+02  0.16598170091E+02  0.32376932822E+02  0.47000000000E+01 0. -1.
          5    1    5    5  503    0  0.21757671733E+02 -0.40715583133E+02 -0.23396215387E+03  0.23851946343E+03  0.47000000000E+01 0. -1.
         -5    1    5    5    0  503  0.19317178969E+02 -0.23103831134E+02 -0.13691626999E+02  0.33413935211E+02  0.47000000000E+01 0. -1.
<mgrwt>
<rscale>  0 0.27522320E+03</rscale>
<asrwt>0</asrwt>
<pdfrwt beam="1">  1        2 0.65461580E-01 0.27522320E+03</pdfrwt>
<pdfrwt beam="2">  1       -2 0.68469457E-02 0.27522320E+03</pdfrwt>
<totfact> 0.89365886E+03</totfact>
</mgrwt>
</event>
<event>
 9    1  0.2074770E-002  0.2751895E+03  0.7818608E-02  0.1098346E+00
          1   -1    0    0  501    0  0.00000000000E+00  0.00000000000E+00  0.46060269491E+03  0.46060269491E+03  0.00000000000E+00 0.  1.
         -1   -1    0    0    0  501 -0.00000000000E+00 -0.00000000000E+00 -0.41103358894E+02  0.41103358894E+02  0.00000000000E+00 0.  1.
         36    2    1    2    0    0  0.00000000000E+00 -0.14210854715E-13  0.41949933602E+03  0.50170605380E+03  0.27518951925E+03 0.  0.
         25    2    3    3    0    0 -0.22835697731E+02  0.47537108385E+02  0.21186597239E+03  0.25204935524E+03  0.12593824462E+03 0.  0.
         25    2    3    3    0    0  0.22835697731E+02 -0.47537108385E+02  0.20763336363E+03  0.24965669856E+03  0.12820143401E+03 0.  0.
          5    1    4    4  502    0  0.32904858256E+02 -0.26697120579E+02  0.53360617493E+02  0.68300156978E+02  0.47000000000E+01 0.  1.
         -5    1    4    4    0  502 -0.55740555987E+02  0.74234228964E+02  0.15850535490E+03  0.18374919826E+03  0.47000000000E+01 0.  1.
          5    1    5    5  503    0  0.66317310164E+02  0.44212407846E+01  0.13294265843E+03  0.14870566037E+03  0.47000000000E+01 0.  1.
         -5    1    5    5    0  503 -0.43481612434E+02 -0.51958349170E+02  0.74690705197E+02  0.10095103819E+03  0.47000000000E+01 0.  1.
<mgrwt>
<rscale>  0 0.27518952E+03</rscale>
<asrwt>0</asrwt>
<pdfrwt beam="1">  1        1 0.70861950E-01 0.27518952E+03</pdfrwt>
<pdfrwt beam="2">  1       -1 0.63235940E-02 0.27518952E+03</pdfrwt>
<totfact> 0.61825005E+03</totfact>
</mgrwt>
</event>
<event>
 9    1  0.2074770E-002  0.2740129E+03  0.7818608E-02  0.1099005E+00
          1   -1    0    0  501    0  0.00000000000E+00  0.00000000000E+00  0.11496222554E+03  0.11496222554E+03  0.00000000000E+00 0.  1.
         -1   -1    0    0    0  501 -0.00000000000E+00 -0.00000000000E+00 -0.16327765201E+03  0.16327765201E+03  0.00000000000E+00 0.  1.
         36    2    1    2    0    0  0.71054273576E-14 -0.71054273576E-14 -0.48315426475E+02  0.27823987755E+03  0.27401286288E+03 0.  0.
         25    2    3    3    0    0  0.48678589003E+02 -0.71433297877E+01 -0.48930966183E+02  0.14241179713E+03  0.12436337211E+03 0.  0.
         25    2    3    3    0    0 -0.48678589003E+02  0.71433297877E+01  0.61553970728E+00  0.13582808042E+03  0.12660275018E+03 0.  0.
          5    1    4    4  502    0  0.50892339288E+02  0.41819223203E+02  0.87039144574E+01  0.66608751335E+02  0.47000000000E+01 0. -1.
         -5    1    4    4    0  502 -0.22137502857E+01 -0.48962552990E+02 -0.57634880640E+02  0.75803045797E+02  0.47000000000E+01 0. -1.
          5    1    5    5  503    0 -0.76382826166E+02 -0.31740989969E+02 -0.17266234036E+02  0.84628833237E+02  0.47000000000E+01 0. -1.
         -5    1    5    5    0  503  0.27704237163E+02  0.38884319757E+02  0.17881773743E+02  0.51199247181E+02  0.47000000000E+01 0. -1.
<mgrwt>
<rscale>  0 0.27401286E+03</rscale>
<asrwt>0</asrwt>
<pdfrwt beam="1">  1        1 0.17686496E-01 0.27401286E+03</pdfrwt>
<pdfrwt beam="2">  1       -1 0.25119639E-01 0.27401286E+03</pdfrwt>
<totfact> 0.41167382E+03</totfact>
</mgrwt>
</event>
<event>
 9    1  0.2074770E-002  0.2746289E+03  0.7818608E-02  0.1098659E+00
          4   -1    0    0  501    0  0.00000000000E+00  0.00000000000E+00  0.77657587665E+01  0.77657587665E+01  0.00000000000E+00 0.  1.
         -4   -1    0    0    0  501 -0.00000000000E+00 -0.00000000000E+00 -0.24279994522E+04  0.24279994522E+04  0.00000000000E+00 0.  1.
         36    2    1    2    0    0  0.00000000000E+00  0.00000000000E+00 -0.24202336934E+04  0.24357652110E+04  0.27462889892E+03 0.  0.
         25    2    3    3    0    0 -0.55437766439E+02 -0.59716610542E-01 -0.15733459472E+04  0.15780510986E+04  0.10841794506E+03 0.  0.
         25    2    3    3    0    0  0.55437766439E+02  0.59716610542E-01 -0.84688774622E+03  0.85771411232E+03  0.12402134599E+03 0.  0.
          5    1    4    4  502    0 -0.18814867877E+02 -0.53145030052E+02 -0.66104714257E+03  0.66346349423E+03  0.47000000000E+01 0.  1.
         -5    1    4    4    0  502 -0.36622898562E+02  0.53085313442E+02 -0.91229880464E+03  0.91458760441E+03  0.47000000000E+01 0.  1.
          5    1    5    5  503    0 -0.18888292599E+02 -0.44812838703E+02 -0.31500828282E+03  0.31877463255E+03  0.47000000000E+01 0.  1.
         -5    1    5    5    0  503  0.74326059038E+02  0.44872555313E+02 -0.53187946339E+03  0.53893947977E+03  0.47000000000E+01 0.  1.
<mgrwt>
<rscale>  0 0.27462890E+03</rscale>
<asrwt>0</asrwt>
<pdfrwt beam="1">  1        4 0.11947303E-02 0.27462890E+03</pdfrwt>
<pdfrwt beam="2">  1       -4 0.37353894E+00 0.27462890E+03</pdfrwt>
<totfact> 0.53720228E+01</totfact>
</mgrwt>
</event>
<event>
 9    1  0.2074770E-002  0.2760007E+03  0.7818608E-02  0.1097894E+00
         -2   -1    0    0    0  501 -0.00000000000E+00  0.00000000000E+00  0.37056584041E+02  0.37056584041E+02  0.00000000000E+00 0. -1.
          2   -1    0    0  501    0  0.00000000000E+00 -0.00000000000E+00 -0.51391947838E+03  0.51391947838E+03  0.00000000000E+00 0. -1.
         36    2    1    2    0    0  0.00000000000E+00  0.00000000000E+00 -0.47686289434E+03  0.55097606242E+03  0.27600072711E+03 0.  0.
         25    2    3    3    0    0 -0.43999262934E+02  0.39282320877E+02 -0.25200297826E+03  0.28670313562E+03  0.12334565680E+03 0.  0.
         25    2    3    3    0    0  0.43999262934E+02 -0.39282320877E+02 -0.22485991609E+03  0.26427292681E+03  0.12569471790E+03 0.  0.
          5    1    4    4  502    0  0.10424043518E+01  0.41630048807E+02 -0.13649488071E+02  0.44074324670E+02  0.47000000000E+01 0.  1.
         -5    1    4    4    0  502 -0.45041667286E+02 -0.23477279303E+01 -0.23835349019E+03  0.24262881095E+03  0.47000000000E+01 0.  1.
          5    1    5    5  503    0  0.50273724380E+02  0.36074185613E+02 -0.11737772170E+03  0.13277203690E+03  0.47000000000E+01 0. -1.
         -5    1    5    5    0  503 -0.62744614457E+01 -0.75356506490E+02 -0.10748219439E+03  0.13150088991E+03  0.47000000000E+01 0. -1.
<mgrwt>
<rscale>  0 0.27600073E+03</rscale>
<asrwt>0</asrwt>
<pdfrwt beam="1">  1        2 0.79064528E-01 0.27600073E+03</pdfrwt>
<pdfrwt beam="2">  1       -2 0.57010134E-02 0.27600073E+03</pdfrwt>
<totfact> 0.96102328E+03</totfact>
</mgrwt>
</event>
<event>
 9    1  0.2074770E-002  0.2745868E+03  0.7818608E-02  0.1098683E+00
         -2   -1    0    0    0  501 -0.00000000000E+00  0.00000000000E+00  0.17853730553E+02  0.17853730553E+02  0.00000000000E+00 0.  1.
          2   -1    0    0  501    0  0.00000000000E+00 -0.00000000000E+00 -0.10557727994E+04  0.10557727994E+04  0.00000000000E+00 0.  1.
         36    2    1    2    0    0  0.17763568394E-14 -0.35527136788E-14 -0.10379190688E+04  0.10736265299E+04  0.27458683935E+03 0.  0.
         25    2    3    3    0    0  0.10238185096E+02  0.30443088180E+02 -0.32407880442E+03  0.34962336522E+03  0.12719207516E+03 0.  0.
         25    2    3    3    0    0 -0.10238185096E+02 -0.30443088180E+02 -0.71384026442E+03  0.72400316473E+03  0.11653779375E+03 0.  0.
          5    1    4    4  502    0  0.33119170872E+01 -0.49447003107E+02 -0.14635839469E+03  0.15459251148E+03  0.47000000000E+01 0. -1.
         -5    1    4    4    0  502  0.69262680084E+01  0.79890091287E+02 -0.17772040973E+03  0.19503085373E+03  0.47000000000E+01 0. -1.
          5    1    5    5  503    0  0.29518953873E+02  0.13101007695E+02 -0.67643829970E+02  0.75105144786E+02  0.47000000000E+01 0. -1.
         -5    1    5    5    0  503 -0.39757138968E+02 -0.43544095875E+02 -0.64619643445E+03  0.64889801994E+03  0.47000000000E+01 0. -1.
<mgrwt>
<rscale>  0 0.27458684E+03</rscale>
<asrwt>0</asrwt>
<pdfrwt beam="1">  1        2 0.16242660E+00 0.27458684E+03</pdfrwt>
<pdfrwt beam="2">  1       -2 0.27467276E-02 0.27458684E+03</pdfrwt>
<totfact> 0.11703634E+04</totfact>
</mgrwt>
</event>
<event>
 9    1  0.2074770E-002  0.2754614E+03  0.7818608E-02  0.1098194E+00
          4   -1    0    0  501    0  0.00000000000E+00  0.00000000000E+00  0.21460648585E+03  0.21460648585E+03  0.00000000000E+00 0.  1.
         -4   -1    0    0    0  501 -0.00000000000E+00 -0.00000000000E+00 -0.88393184022E+02  0.88393184022E+02  0.00000000000E+00 0.  1.
         36    2    1    2    0    0  0.00000000000E+00  0.00000000000E+00  0.12621330183E+03  0.30299966987E+03  0.27546143539E+03 0.  0.
         25    2    3    3    0    0  0.76133062251E+01 -0.35115192372E+02  0.10425785104E+03  0.17008678615E+03  0.12949430935E+03 0.  0.
         25    2    3    3    0    0 -0.76133062251E+01  0.35115192372E+02  0.21955450787E+02  0.13291288372E+03  0.12606646530E+03 0.  0.
          5    1    4    4  502    0  0.63375452139E+02 -0.12047692652E+02  0.22756312008E+02  0.68567737080E+02  0.47000000000E+01 0.  1.
         -5    1    4    4    0  502 -0.55762145914E+02 -0.23067499719E+02  0.81501539032E+02  0.10151904907E+03  0.47000000000E+01 0.  1.
          5    1    5    5  503    0  0.26721964220E+02  0.37558872848E+02 -0.40438513562E+02  0.61498745357E+02  0.47000000000E+01 0. -1.
         -5    1    5    5    0  503 -0.34335270445E+02 -0.24436804761E+01  0.62393964349E+02  0.71414138362E+02  0.47000000000E+01 0. -1.
<mgrwt>
<rscale>  0 0.27546144E+03</rscale>
<asrwt>0</asrwt>
<pdfrwt beam="1">  1        4 0.33016382E-01 0.27546144E+03</pdfrwt>
<pdfrwt beam="2">  1       -4 0.13598951E-01 0.27546144E+03</pdfrwt>
<totfact> 0.74275958E+02</totfact>
</mgrwt>
</event>
<event>
 9    1  0.2074770E-002  0.2731978E+03  0.7818608E-02  0.1099463E+00
          3   -1    0    0  501    0  0.00000000000E+00  0.00000000000E+00  0.83951479723E+02  0.83951479723E+02  0.00000000000E+00 0.  1.
         -3   -1    0    0    0  501 -0.00000000000E+00 -0.00000000000E+00 -0.22226240994E+03  0.22226240994E+03  0.00000000000E+00 0.  1.
         36    2    1    2    0    0 -0.71054273576E-14  0.00000000000E+00 -0.13831093021E+03  0.30621388966E+03  0.27319779063E+03 0.  0.
         25    2    3    3    0    0 -0.24954514704E+02 -0.40015774351E+02 -0.10531320812E+03  0.17099195063E+03  0.12618789709E+03 0.  0.
         25    2    3    3    0    0  0.24954514704E+02  0.40015774351E+02 -0.32997722088E+02  0.13522193903E+03  0.12236066824E+03 0.  0.
          5    1    4    4  502    0 -0.36137741034E+02 -0.88421955642E+01 -0.12613435187E+03  0.13159059796E+03  0.47000000000E+01 0.  1.
         -5    1    4    4    0  502  0.11183226330E+02 -0.31173578787E+02  0.20821143743E+02  0.39401352672E+02  0.47000000000E+01 0.  1.
          5    1    5    5  503    0  0.70305104294E+02  0.10090438409E+01 -0.11044107876E+02  0.71329434164E+02  0.47000000000E+01 0. -1.
         -5    1    5    5    0  503 -0.45350589590E+02  0.39006730511E+02 -0.21953614212E+02  0.63892504868E+02  0.47000000000E+01 0. -1.
<mgrwt>
<rscale>  0 0.27319779E+03</rscale>
<asrwt>0</asrwt>
<pdfrwt beam="1">  1        3 0.12915612E-01 0.27319779E+03</pdfrwt>
<pdfrwt beam="2">  1       -3 0.34194217E-01 0.27319779E+03</pdfrwt>
<totfact> 0.10229425E+03</totfact>
</mgrwt>
</event>
<event>
 9    1  0.2074770E-002  0.2763307E+03  0.7818608E-02  0.1097710E+00
          2   -1    0    0  501    0  0.00000000000E+00  0.00000000000E+00  0.58516141533E+03  0.58516141533E+03  0.00000000000E+00 0. -1.
         -2   -1    0    0    0  501 -0.00000000000E+00 -0.00000000000E+00 -0.32622906596E+02  0.32622906596E+02  0.00000000000E+00 0. -1.
         36    2    1    2    0    0  0.35527136788E-14 -0.35527136788E-14  0.55253850873E+03  0.61778432192E+03  0.27633071632E+03 0.  0.
         25    2    3    3    0    0 -0.28877847770E+02 -0.13656022809E+02  0.42680171079E+03  0.44598835570E+03  0.12540133986E+03 0.  0.
         25    2    3    3    0    0  0.28877847770E+02  0.13656022809E+02  0.12573679795E+03  0.17179596623E+03  0.11262190996E+03 0.  0.
          5    1    4    4  502    0  0.24272877121E+02  0.30220862750E+02  0.52848818472E+02  0.65708148071E+02  0.47000000000E+01 0.  1.
         -5    1    4    4    0  502 -0.53150724892E+02 -0.43876885559E+02  0.37395289231E+03  0.38028020763E+03  0.47000000000E+01 0.  1.
          5    1    5    5  503    0  0.43320397726E+02 -0.37754600074E+02  0.38243989970E+02  0.69186410910E+02  0.47000000000E+01 0. -1.
         -5    1    5    5    0  503 -0.14442549955E+02  0.51410622883E+02  0.87492807976E+02  0.10260955532E+03  0.47000000000E+01 0. -1.
<mgrwt>
<rscale>  0 0.27633072E+03</rscale>
<asrwt>0</asrwt>
<pdfrwt beam="1">  1        2 0.90024826E-01 0.27633072E+03</pdfrwt>
<pdfrwt beam="2">  1       -2 0.50189091E-02 0.27633072E+03</pdfrwt>
<totfact> 0.10068166E+04</totfact>
</mgrwt>
</event>
<event>
 9    1  0.2074770E-002  0.2740057E+03  0.7818608E-02  0.1099009E+00
         -4   -1    0    0    0  501 -0.00000000000E+00  0.00000000000E+00  0.30940359906E+03  0.30940359906E+03  0.00000000000E+00 0. -1.
          4   -1    0    0  501    0  0.00000000000E+00 -0.00000000000E+00 -0.60664388472E+02  0.60664388472E+02  0.00000000000E+00 0. -1.
         36    2    1    2    0    0  0.35527136788E-14  0.71054273576E-14  0.24873921059E+03  0.37006798754E+03  0.27400569431E+03 0.  0.
         25    2    3    3    0    0  0.17698418074E+02  0.23134688851E+02  0.49596411545E+02  0.13692554780E+03  0.12425922007E+03 0.  0.
         25    2    3    3    0    0 -0.17698418074E+02 -0.23134688851E+02  0.19914279905E+03  0.23314243974E+03  0.11768217776E+03 0.  0.
          5    1    4    4  502    0 -0.28963638895E+02 -0.77833479996E+01  0.70682395419E+02  0.76925703808E+02  0.47000000000E+01 0.  1.
         -5    1    4    4    0  502  0.46662056969E+02  0.30918036850E+02 -0.21085983874E+02  0.59999843993E+02  0.47000000000E+01 0.  1.
          5    1    5    5  503    0 -0.21172434610E+02  0.44102473047E+02  0.11650337018E+03  0.12644534543E+03  0.47000000000E+01 0. -1.
         -5    1    5    5    0  503  0.34740165368E+01 -0.67237161897E+02  0.82639428866E+02  0.10669709431E+03  0.47000000000E+01 0. -1.
<mgrwt>
<rscale>  0 0.27400569E+03</rscale>
<asrwt>0</asrwt>
<pdfrwt beam="1">  1        4 0.93329830E-02 0.27400569E+03</pdfrwt>
<pdfrwt beam="2">  1       -4 0.47600553E-01 0.27400569E+03</pdfrwt>
<totfact> 0.68528426E+02</totfact>
</mgrwt>
</event>
<event>
 9    1  0.2074770E-002  0.2738306E+03  0.7818608E-02  0.1099107E+00
          1   -1    0    0  501    0  0.00000000000E+00  0.00000000000E+00  0.11335198455E+03  0.11335198455E+03  0.00000000000E+00 0. -1.
         -1   -1    0    0    0  501 -0.00000000000E+00 -0.00000000000E+00 -0.16537693948E+03  0.16537693948E+03  0.00000000000E+00 0. -1.
         36    2    1    2    0    0  0.00000000000E+00  0.00000000000E+00 -0.52024954939E+02  0.27872892403E+03  0.27383063590E+03 0.  0.
         25    2    3    3    0    0 -0.17405438910E+02 -0.27760035792E+02  0.15068689821E+02  0.12901805753E+03  0.12387503729E+03 0.  0.
         25    2    3    3    0    0  0.17405438910E+02  0.27760035792E+02 -0.67093644760E+02  0.14971086650E+03  0.12976215739E+03 0.  0.
          5    1    4    4  502    0 -0.53120711720E+02 -0.28607163743E+02  0.50248972100E+02  0.78658941184E+02  0.47000000000E+01 0.  1.
         -5    1    4    4    0  502  0.35715272810E+02  0.84712795151E+00 -0.35180282279E+02  0.50359116344E+02  0.47000000000E+01 0.  1.
          5    1    5    5  503    0 -0.39913836288E+02  0.16230305446E+02 -0.78766829277E+02  0.89904619105E+02  0.47000000000E+01 0. -1.
         -5    1    5    5    0  503  0.57319275198E+02  0.11529730345E+02  0.11673184517E+02  0.59806247398E+02  0.47000000000E+01 0. -1.
<mgrwt>
<rscale>  0 0.27383064E+03</rscale>
<asrwt>0</asrwt>
<pdfrwt beam="1">  1        1 0.17438767E-01 0.27383064E+03</pdfrwt>
<pdfrwt beam="2">  1       -1 0.25442606E-01 0.27383064E+03</pdfrwt>
<totfact> 0.41045385E+03</totfact>
</mgrwt>
</event>
<event>
 9    1  0.2074770E-002  0.2743488E+03  0.7818608E-02  0.1098816E+00
          4   -1    0    0  501    0  0.00000000000E+00  0.00000000000E+00  0.15718485293E+03  0.15718485293E+03  0.00000000000E+00 0. -1.
         -4   -1    0    0    0  501 -0.00000000000E+00 -0.00000000000E+00 -0.11971142041E+03  0.11971142041E+03  0.00000000000E+00 0. -1.
         36    2    1    2    0    0  0.00000000000E+00  0.00000000000E+00  0.37473432519E+02  0.27689627333E+03  0.27434884370E+03 0.  0.
         25    2    3    3    0    0  0.22210777380E+02  0.47602306129E+02  0.30210641531E+02  0.14070628793E+03  0.12698928467E+03 0.  0.
         25    2    3    3    0    0 -0.22210777380E+02 -0.47602306129E+02  0.72627909885E+01  0.13618998540E+03  0.12544188220E+03 0.  0.
          5    1    4    4  502    0 -0.35425842701E+02  0.13134938214E+02 -0.31474138831E+02  0.49398667473E+02  0.47000000000E+01 0.  1.
         -5    1    4    4    0  502  0.57636620081E+02  0.34467367915E+02  0.61684780362E+02  0.91307620458E+02  0.47000000000E+01 0.  1.
          5    1    5    5  503    0 -0.46748386210E+02  0.23818962596E+02 -0.19146751125E+02  0.56048574210E+02  0.47000000000E+01 0. -1.
         -5    1    5    5    0  503  0.24537608830E+02 -0.71421268724E+02  0.26409542113E+02  0.80141411192E+02  0.47000000000E+01 0. -1.
<mgrwt>
<rscale>  0 0.27434884E+03</rscale>
<asrwt>0</asrwt>
<pdfrwt beam="1">  1        4 0.24182285E-01 0.27434884E+03</pdfrwt>
<pdfrwt beam="2">  1       -4 0.18417142E-01 0.27434884E+03</pdfrwt>
<totfact> 0.78212971E+02</totfact>
</mgrwt>
</event>
<event>
 9    1  0.2074770E-002  0.2747760E+03  0.7818608E-02  0.1098577E+00
         -2   -1    0    0    0  501 -0.00000000000E+00  0.00000000000E+00  0.12682314590E+02  0.12682314590E+02  0.00000000000E+00 0. -1.
          2   -1    0    0  501    0  0.00000000000E+00 -0.00000000000E+00 -0.14883291493E+04  0.14883291493E+04  0.00000000000E+00 0. -1.
         36    2    1    2    0    0  0.35527136788E-14  0.00000000000E+00 -0.14756468347E+04  0.15010114639E+04  0.27477597045E+03 0.  0.
         25    2    3    3    0    0 -0.13578415241E+02 -0.75477000417E+01 -0.33811150880E+03  0.35669228062E+03  0.11255509554E+03 0.  0.
         25    2    3    3    0    0  0.13578415241E+02  0.75477000417E+01 -0.11375353259E+04  0.11443191833E+04  0.12344405362E+03 0.  0.
          5    1    4    4  502    0 -0.31916953849E+02  0.18373839457E+02 -0.32328530639E+02  0.49229196751E+02  0.47000000000E+01 0.  1.
         -5    1    4    4    0  502  0.18338538609E+02 -0.25921539499E+02 -0.30578297816E+03  0.30746308387E+03  0.47000000000E+01 0.  1.
          5    1    5    5  503    0  0.30579638079E+02 -0.21748901607E+02 -0.11197572041E+03  0.11818959746E+03  0.47000000000E+01 0.  1.
         -5    1    5    5    0  503 -0.17001222838E+02  0.29296601649E+02 -0.10255596055E+04  0.10261295858E+04  0.47000000000E+01 0.  1.
<mgrwt>
<rscale>  0 0.27477597E+03</rscale>
<asrwt>0</asrwt>
<pdfrwt beam="1">  1        2 0.22897374E+00 0.27477597E+03</pdfrwt>
<pdfrwt beam="2">  1       -2 0.19511251E-02 0.27477597E+03</pdfrwt>
<totfact> 0.11097690E+04</totfact>
</mgrwt>
</event>
<event>
 9    1  0.2074770E-002  0.2761361E+03  0.7818608E-02  0.1097818E+00
         -1   -1    0    0    0  501 -0.00000000000E+00  0.00000000000E+00  0.26576923413E+03  0.26576923413E+03  0.00000000000E+00 0.  1.
          1   -1    0    0  501    0  0.00000000000E+00 -0.00000000000E+00 -0.71726811842E+02  0.71726811842E+02  0.00000000000E+00 0.  1.
         36    2    1    2    0    0 -0.17763568394E-14  0.14210854715E-13  0.19404242229E+03  0.33749604597E+03  0.27613605233E+03 0.  0.
         25    2    3    3    0    0  0.11162540712E+02 -0.56700770856E+02  0.13410168555E+03  0.19185100079E+03  0.12443458003E+03 0.  0.
         25    2    3    3    0    0 -0.11162540712E+02  0.56700770856E+02  0.59940736742E+02  0.14564504518E+03  0.11949898549E+03 0.  0.
          5    1    4    4  502    0 -0.15355464420E+02  0.88708312941E+01  0.11766103495E+03  0.11908270690E+03  0.47000000000E+01 0. -1.
         -5    1    4    4    0  502  0.26518005132E+02 -0.65571602150E+02  0.16440650592E+02  0.72768293897E+02  0.47000000000E+01 0. -1.
          5    1    5    5  503    0  0.50944870637E+01 -0.17115797120E+02  0.67082312392E+02  0.69577517528E+02  0.47000000000E+01 0.  1.
         -5    1    5    5    0  503 -0.16257027776E+02  0.73816567977E+02 -0.71415756500E+01  0.76067527650E+02  0.47000000000E+01 0.  1.
<mgrwt>
<rscale>  0 0.27613605E+03</rscale>
<asrwt>0</asrwt>
<pdfrwt beam="1">  1        1 0.11034894E-01 0.27613605E+03</pdfrwt>
<pdfrwt beam="2">  1       -1 0.40887574E-01 0.27613605E+03</pdfrwt>
<totfact> 0.33194784E+03</totfact>
</mgrwt>
</event>
<event>
 9    1  0.2074770E-002  0.2754611E+03  0.7818608E-02  0.1098194E+00
         -2   -1    0    0    0  501 -0.00000000000E+00  0.00000000000E+00  0.56497566927E+01  0.56497566927E+01  0.00000000000E+00 0.  1.
          2   -1    0    0  501    0  0.00000000000E+00 -0.00000000000E+00 -0.33576149951E+04  0.33576149951E+04  0.00000000000E+00 0.  1.
         36    2    1    2    0    0  0.00000000000E+00  0.71054273576E-14 -0.33519652385E+04  0.33632647518E+04  0.27546112459E+03 0.  0.
         25    2    3    3    0    0 -0.17892534073E+02  0.44183900763E+02 -0.21053177850E+04  0.21095739867E+04  0.12516816525E+03 0.  0.
         25    2    3    3    0    0  0.17892534073E+02 -0.44183900763E+02 -0.12466474534E+04  0.12536907651E+04  0.12384789692E+03 0.  0.
          5    1    4    4  502    0 -0.40776822670E+02 -0.32796700953E+02 -0.71219216358E+03  0.71412753814E+03  0.47000000000E+01 0.  1.
         -5    1    4    4    0  502  0.22884288597E+02  0.76980601716E+02 -0.13931256214E+04  0.13954464485E+04  0.47000000000E+01 0.  1.
          5    1    5    5  503    0  0.51098019345E+02  0.12066158854E+02 -0.28625328775E+03  0.29106637476E+03  0.47000000000E+01 0. -1.
         -5    1    5    5    0  503 -0.33205485272E+02 -0.56250059617E+02 -0.96039416570E+03  0.96262439039E+03  0.47000000000E+01 0. -1.
<mgrwt>
<rscale>  0 0.27546112E+03</rscale>
<asrwt>0</asrwt>
<pdfrwt beam="1">  1        2 0.51655689E+00 0.27546112E+03</pdfrwt>
<pdfrwt beam="2">  1       -2 0.86919209E-03 0.27546112E+03</pdfrwt>
<totfact> 0.32807499E+03</totfact>
</mgrwt>
</event>
<event>
 9    1  0.2074770E-002  0.2755816E+03  0.7818608E-02  0.1098127E+00
          2   -1    0    0  501    0  0.00000000000E+00  0.00000000000E+00  0.31237823136E+04  0.31237823136E+04  0.00000000000E+00 0.  1.
         -2   -1    0    0    0  501 -0.00000000000E+00 -0.00000000000E+00 -0.60779846248E+01  0.60779846248E+01  0.00000000000E+00 0.  1.
         36    2    1    2    0    0  0.88817841970E-15  0.71054273576E-14  0.31177043290E+04  0.31298602983E+04  0.27558157321E+03 0.  0.
         25    2    3    3    0    0  0.35179218954E+01 -0.47465967642E+02  0.20436593276E+04  0.20475443507E+04  0.11674342446E+03 0.  0.
         25    2    3    3    0    0 -0.35179218954E+01  0.47465967642E+02  0.10740450014E+04  0.10823159475E+04  0.12477880956E+03 0.  0.
          5    1    4    4  502    0  0.26461056749E+02 -0.63277253686E+02  0.18936071151E+04  0.18948546632E+04  0.47000000000E+01 0.  1.
         -5    1    4    4    0  502 -0.22943134853E+02  0.15811286044E+02  0.15005221243E+03  0.15268968746E+03  0.47000000000E+01 0.  1.
          5    1    5    5  503    0 -0.31493694638E+01 -0.30557575746E+02  0.90840808331E+02  0.96009512142E+02  0.47000000000E+01 0. -1.
         -5    1    5    5    0  503 -0.36855243163E+00  0.78023543388E+02  0.98320419312E+03  0.98630643540E+03  0.47000000000E+01 0. -1.
<mgrwt>
<rscale>  0 0.27558157E+03</rscale>
<asrwt>0</asrwt>
<pdfrwt beam="1">  1        2 0.48058061E+00 0.27558157E+03</pdfrwt>
<pdfrwt beam="2">  1       -2 0.93507705E-03 0.27558157E+03</pdfrwt>
<totfact> 0.41272865E+03</totfact>
</mgrwt>
</event>
<event>
 9    1  0.2074770E-002  0.2749012E+03  0.7818608E-02  0.1098507E+00
         -2   -1    0    0    0  501 -0.00000000000E+00  0.00000000000E+00  0.45223499684E+03  0.45223499684E+03  0.00000000000E+00 0. -1.
          2   -1    0    0  501    0  0.00000000000E+00 -0.00000000000E+00 -0.41776230430E+02  0.41776230430E+02  0.00000000000E+00 0. -1.
         36    2    1    2    0    0  0.71054273576E-14 -0.35527136788E-14  0.41045876641E+03  0.49401122727E+03  0.27490124362E+03 0.  0.
         25    2    3    3    0    0 -0.32164061025E+02 -0.66841170537E+01  0.28679624339E+03  0.31566959352E+03  0.12773410981E+03 0.  0.
         25    2    3    3    0    0  0.32164061025E+02  0.66841170537E+01  0.12366252302E+03  0.17834163375E+03  0.12423411161E+03 0.  0.
          5    1    4    4  502    0  0.76921484582E+01 -0.34604436724E+02  0.13799093629E+02  0.38329377426E+02  0.47000000000E+01 0.  1.
         -5    1    4    4    0  502 -0.39856209483E+02  0.27920319670E+02  0.27299714976E+03  0.27734021610E+03  0.47000000000E+01 0.  1.
          5    1    5    5  503    0  0.57922391710E+02  0.49814689036E+02  0.87565914985E+02  0.11630299296E+03  0.47000000000E+01 0. -1.
         -5    1    5    5    0  503 -0.25758330685E+02 -0.43130571982E+02  0.36096608036E+02  0.62038640789E+02  0.47000000000E+01 0. -1.
<mgrwt>
<rscale>  0 0.27490124E+03</rscale>
<asrwt>0</asrwt>
<pdfrwt beam="1">  1        2 0.64271127E-02 0.27490124E+03</pdfrwt>
<pdfrwt beam="2">  1       -2 0.69574611E-01 0.27490124E+03</pdfrwt>
<totfact> 0.21767033E+03</totfact>
</mgrwt>
</event>
<event>
 9    1  0.2074770E-002  0.2742006E+03  0.7818608E-02  0.1098899E+00
          2   -1    0    0  501    0  0.00000000000E+00  0.00000000000E+00  0.28485545313E+03  0.28485545313E+03  0.00000000000E+00 0.  1.
         -2   -1    0    0    0  501 -0.00000000000E+00 -0.00000000000E+00 -0.65986053774E+02  0.65986053774E+02  0.00000000000E+00 0.  1.
         36    2    1    2    0    0  0.10658141036E-13  0.00000000000E+00  0.21886939936E+03  0.35084150691E+03  0.27420056344E+03 0.  0.
         25    2    3    3    0    0  0.30981176482E+02  0.47893192434E+02  0.11311422152E+03  0.17677864197E+03  0.12329748565E+03 0.  0.
         25    2    3    3    0    0 -0.30981176482E+02 -0.47893192434E+02  0.10575517784E+03  0.17406286494E+03  0.12593701653E+03 0.  0.
          5    1    4    4  502    0 -0.47633095214E+02  0.18369771032E+02  0.35750887411E+02  0.62502609530E+02  0.47000000000E+01 0.  1.
         -5    1    4    4    0  502  0.78614271696E+02  0.29523421402E+02  0.77363334110E+02  0.11427603244E+03  0.47000000000E+01 0.  1.
          5    1    5    5  503    0  0.12340500951E+02 -0.32474914794E+02  0.12053868324E+03  0.12553315184E+03  0.47000000000E+01 0.  1.
         -5    1    5    5    0  503 -0.43321677433E+02 -0.15418277640E+02 -0.14783505402E+02  0.48529713094E+02  0.47000000000E+01 0.  1.
<mgrwt>
<rscale>  0 0.27420056E+03</rscale>
<asrwt>0</asrwt>
<pdfrwt beam="1">  1        2 0.43823915E-01 0.27420056E+03</pdfrwt>
<pdfrwt beam="2">  1       -2 0.10151701E-01 0.27420056E+03</pdfrwt>
<totfact> 0.74353997E+03</totfact>
</mgrwt>
</event>
<event>
 9    1  0.2074770E-002  0.2757123E+03  0.7818608E-02  0.1098054E+00
          2   -1    0    0  501    0  0.00000000000E+00  0.00000000000E+00  0.61055269470E+03  0.61055269470E+03  0.00000000000E+00 0. -1.
         -2   -1    0    0    0  501 -0.00000000000E+00 -0.00000000000E+00 -0.31126413900E+02  0.31126413900E+02  0.00000000000E+00 0. -1.
         36    2    1    2    0    0 -0.71054273576E-14 -0.14210854715E-13  0.57942628080E+03  0.64167910860E+03  0.27571228397E+03 0.  0.
         25    2    3    3    0    0 -0.47154455035E+01 -0.47940792691E+02  0.37319634837E+03  0.39540775249E+03  0.12145460575E+03 0.  0.
         25    2    3    3    0    0  0.47154455035E+01  0.47940792691E+02  0.20622993242E+03  0.24627135611E+03  0.12569105291E+03 0.  0.
          5    1    4    4  502    0 -0.52279843618E+02  0.11917494129E+02  0.16575435021E+03  0.17427507948E+03  0.47000000000E+01 0. -1.
         -5    1    4    4    0  502  0.47564398114E+02 -0.59858286820E+02  0.20744199816E+03  0.22113267301E+03  0.47000000000E+01 0. -1.
          5    1    5    5  503    0 -0.48773207715E+02  0.17032082965E+02  0.16212125493E+03  0.17021841540E+03  0.47000000000E+01 0. -1.
         -5    1    5    5    0  503  0.53488653218E+02  0.30908709726E+02  0.44108677488E+02  0.76052940705E+02  0.47000000000E+01 0. -1.
<mgrwt>
<rscale>  0 0.27571228E+03</rscale>
<asrwt>0</asrwt>
<pdfrwt beam="1">  1        2 0.93931175E-01 0.27571228E+03</pdfrwt>
<pdfrwt beam="2">  1       -2 0.47886795E-02 0.27571228E+03</pdfrwt>
<totfact> 0.10291230E+04</totfact>
</mgrwt>
</event>
<event>
 9    1  0.2074770E-002  0.2768242E+03  0.7818608E-02  0.1097436E+00
          3   -1    0    0  501    0  0.00000000000E+00  0.00000000000E+00  0.71709754578E+02  0.71709754578E+02  0.00000000000E+00 0. -1.
         -3   -1    0    0    0  501 -0.00000000000E+00 -0.00000000000E+00 -0.26715901570E+03  0.26715901570E+03  0.00000000000E+00 0. -1.
         36    2    1    2    0    0 -0.71054273576E-14 -0.71054273576E-14 -0.19544926112E+03  0.33886877028E+03  0.27682418571E+03 0.  0.
         25    2    3    3    0    0  0.35538832571E+02 -0.24227906556E+02 -0.52546587553E+02  0.14184502998E+03  0.12453460801E+03 0.  0.
         25    2    3    3    0    0 -0.35538832571E+02  0.24227906556E+02 -0.14290267357E+03  0.19702374029E+03  0.12863584279E+03 0.  0.
          5    1    4    4  502    0  0.10463647248E+02  0.21573780963E+02  0.33271585219E+02  0.41279587228E+02  0.47000000000E+01 0.  1.
         -5    1    4    4    0  502  0.25075185324E+02 -0.45801687518E+02 -0.85818172773E+02  0.10056544276E+03  0.47000000000E+01 0.  1.
          5    1    5    5  503    0 -0.43390496576E+02  0.73406030485E+02 -0.84727524074E+02  0.12029972502E+03  0.47000000000E+01 0.  1.
         -5    1    5    5    0  503  0.78516640042E+01 -0.49178123929E+02 -0.58175149493E+02  0.76724015271E+02  0.47000000000E+01 0.  1.
<mgrwt>
<rscale>  0 0.27682419E+03</rscale>
<asrwt>0</asrwt>
<pdfrwt beam="1">  1        3 0.11032270E-01 0.27682419E+03</pdfrwt>
<pdfrwt beam="2">  1       -3 0.41101387E-01 0.27682419E+03</pdfrwt>
<totfact> 0.93819436E+02</totfact>
</mgrwt>
</event>
<event>
 9    1  0.2074770E-002  0.2703004E+03  0.7818608E-02  0.1101108E+00
         -3   -1    0    0    0  501 -0.00000000000E+00  0.00000000000E+00  0.27891131029E+03  0.27891131029E+03  0.00000000000E+00 0.  1.
          3   -1    0    0  501    0  0.00000000000E+00 -0.00000000000E+00 -0.65488817511E+02  0.65488817511E+02  0.00000000000E+00 0.  1.
         36    2    1    2    0    0  0.17763568394E-14  0.00000000000E+00  0.21342249278E+03  0.34440012780E+03  0.27030036553E+03 0.  0.
         25    2    3    3    0    0  0.10224513858E+02 -0.29566525184E+02  0.13051846241E+03  0.18577422552E+03  0.12844560616E+03 0.  0.
         25    2    3    3    0    0 -0.10224513858E+02  0.29566525184E+02  0.82904030364E+02  0.15862590228E+03  0.13156891171E+03 0.  0.
          5    1    4    4  502    0  0.44878610858E+02  0.13126954546E+02  0.33110699695E+01  0.47111143401E+02  0.47000000000E+01 0. -1.
         -5    1    4    4    0  502 -0.34654097000E+02 -0.42693479730E+02  0.12720739245E+03  0.13866308212E+03  0.47000000000E+01 0. -1.
          5    1    5    5  503    0 -0.66376526285E+01  0.63349453227E+02 -0.52011752602E+01  0.64080838639E+02  0.47000000000E+01 0. -1.
         -5    1    5    5    0  503 -0.35868612296E+01 -0.33782928043E+02  0.88105205625E+02  0.94545063641E+02  0.47000000000E+01 0. -1.
<mgrwt>
<rscale>  0 0.27030037E+03</rscale>
<asrwt>0</asrwt>
<pdfrwt beam="1">  1        3 0.10075203E-01 0.27030037E+03</pdfrwt>
<pdfrwt beam="2">  1       -3 0.42909432E-01 0.27030037E+03</pdfrwt>
<totfact> 0.10013133E+03</totfact>
</mgrwt>
</event>
<event>
 9    1  0.2074770E-002  0.2751077E+03  0.7818608E-02  0.1098391E+00
          1   -1    0    0  501    0  0.00000000000E+00  0.00000000000E+00  0.95472475982E+03  0.95472475982E+03  0.00000000000E+00 0.  1.
         -1   -1    0    0    0  501 -0.00000000000E+00 -0.00000000000E+00 -0.19818344513E+02  0.19818344513E+02  0.00000000000E+00 0.  1.
         36    2    1    2    0    0 -0.35527136788E-14  0.00000000000E+00  0.93490641530E+03  0.97454310433E+03  0.27510771858E+03 0.  0.
         25    2    3    3    0    0 -0.10427365393E+02 -0.39809292526E+02  0.32926642356E+03  0.35479083694E+03  0.12556532394E+03 0.  0.
         25    2    3    3    0    0  0.10427365393E+02  0.39809292526E+02  0.60563999175E+03  0.61975226738E+03  0.12489821298E+03 0.  0.
          5    1    4    4  502    0  0.94894519511E+01  0.42941929385E+02  0.14825556239E+03  0.15471218690E+03  0.47000000000E+01 0.  1.
         -5    1    4    4    0  502 -0.19916817344E+02 -0.82751221911E+02  0.18101086117E+03  0.20007865004E+03  0.47000000000E+01 0.  1.
          5    1    5    5  503    0 -0.36472184805E+02 -0.19997700973E+02  0.36397336191E+03  0.36637252420E+03  0.47000000000E+01 0.  1.
         -5    1    5    5    0  503  0.46899550197E+02  0.59806993500E+02  0.24166662984E+03  0.25337974319E+03  0.47000000000E+01 0.  1.
<mgrwt>
<rscale>  0 0.27510772E+03</rscale>
<asrwt>0</asrwt>
<pdfrwt beam="1">  1        1 0.14688070E+00 0.27510772E+03</pdfrwt>
<pdfrwt beam="2">  1       -1 0.30489768E-02 0.27510772E+03</pdfrwt>
<totfact> 0.63691540E+03</totfact>
</mgrwt>
</event>
<event>
 9    1  0.2074770E-002  0.2776027E+03  0.7818608E-02  0.1097006E+00
         -2   -1    0    0    0  501 -0.00000000000E+00  0.00000000000E+00  0.52286327942E+02  0.52286327942E+02  0.00000000000E+00 0.  1.
          2   -1    0    0  501    0  0.00000000000E+00 -0.00000000000E+00 -0.36846761872E+03  0.36846761872E+03  0.00000000000E+00 0.  1.
         36    2    1    2    0    0 -0.35527136788E-14  0.00000000000E+00 -0.31618129078E+03  0.42075394666E+03  0.27760272872E+03 0.  0.
         25    2    3    3    0    0  0.31927392361E+01  0.28725308501E+02 -0.91915668573E+02  0.16238765261E+03  0.13071313117E+03 0.  0.
         25    2    3    3    0    0 -0.31927392361E+01 -0.28725308501E+02 -0.22426562221E+03  0.25836629405E+03  0.12499094233E+03 0.  0.
          5    1    4    4  502    0  0.24685721367E+02  0.59607044309E+02 -0.19038667388E+01  0.64715525798E+02  0.47000000000E+01 0. -1.
         -5    1    4    4    0  502 -0.21492982131E+02 -0.30881735808E+02 -0.90011801834E+02  0.97672126816E+02  0.47000000000E+01 0. -1.
          5    1    5    5  503    0 -0.45310679474E+02 -0.89328308197E+01 -0.23131628348E+02  0.51865358100E+02  0.47000000000E+01 0. -1.
         -5    1    5    5    0  503  0.42117940237E+02 -0.19792477682E+02 -0.20113399386E+03  0.20650093595E+03  0.47000000000E+01 0. -1.
<mgrwt>
<rscale>  0 0.27760273E+03</rscale>
<asrwt>0</asrwt>
<pdfrwt beam="1">  1        2 0.56687325E-01 0.27760273E+03</pdfrwt>
<pdfrwt beam="2">  1       -2 0.80440506E-02 0.27760273E+03</pdfrwt>
<totfact> 0.81365495E+03</totfact>
</mgrwt>
</event>
<event>
 9    1  0.2074770E-002  0.2743954E+03  0.7818608E-02  0.1098790E+00
          2   -1    0    0  501    0  0.00000000000E+00  0.00000000000E+00  0.92740215809E+03  0.92740215809E+03  0.00000000000E+00 0.  1.
         -2   -1    0    0    0  501 -0.00000000000E+00 -0.00000000000E+00 -0.20296706631E+02  0.20296706631E+02  0.00000000000E+00 0.  1.
         36    2    1    2    0    0  0.71054273576E-14  0.71054273576E-14  0.90710545146E+03  0.94769886472E+03  0.27439540471E+03 0.  0.
         25    2    3    3    0    0  0.17802030933E+02 -0.56555837962E+02  0.49582714751E+03  0.51467455979E+03  0.12461888770E+03 0.  0.
         25    2    3    3    0    0 -0.17802030933E+02  0.56555837962E+02  0.41127830395E+03  0.43302430494E+03  0.12183895211E+03 0.  0.
          5    1    4    4  502    0  0.68019585799E+02 -0.28539249250E+02  0.35259025716E+03  0.36025426055E+03  0.47000000000E+01 0.  1.
         -5    1    4    4    0  502 -0.50217554866E+02 -0.28016588712E+02  0.14323689035E+03  0.15442029924E+03  0.47000000000E+01 0.  1.
          5    1    5    5  503    0 -0.19376714015E+02  0.34640787002E+02  0.40842404774E+03  0.41037511370E+03  0.47000000000E+01 0.  1.
         -5    1    5    5    0  503  0.15746830820E+01  0.21915050960E+02  0.28542562169E+01  0.22649191242E+02  0.47000000000E+01 0.  1.
<mgrwt>
<rscale>  0 0.27439540E+03</rscale>
<asrwt>0</asrwt>
<pdfrwt beam="1">  1        2 0.14267722E+00 0.27439540E+03</pdfrwt>
<pdfrwt beam="2">  1       -2 0.31225710E-02 0.27439540E+03</pdfrwt>
<totfact> 0.11601336E+04</totfact>
</mgrwt>
</event>
<event>
 9    1  0.2074770E-002  0.2750166E+03  0.7818608E-02  0.1098442E+00
         -2   -1    0    0    0  501 -0.00000000000E+00  0.00000000000E+00  0.39614207698E+02  0.39614207698E+02  0.00000000000E+00 0. -1.
          2   -1    0    0  501    0  0.00000000000E+00 -0.00000000000E+00 -0.47731686932E+03  0.47731686932E+03  0.00000000000E+00 0. -1.
         36    2    1    2    0    0 -0.17763568394E-14 -0.71054273576E-14 -0.43770266162E+03  0.51693107702E+03  0.27501657840E+03 0.  0.
         25    2    3    3    0    0  0.46121844334E+01 -0.38863708810E+02 -0.28452144960E+03  0.31448291806E+03  0.12812255993E+03 0.  0.
         25    2    3    3    0    0 -0.46121844334E+01  0.38863708810E+02 -0.15318121202E+03  0.20244815895E+03  0.12644806539E+03 0.  0.
          5    1    4    4  502    0  0.38352198062E+01 -0.77317849033E+02 -0.25272966000E+03  0.26436174030E+03  0.47000000000E+01 0.  1.
         -5    1    4    4    0  502  0.77696462727E+00  0.38454140223E+02 -0.31791789599E+02  0.50121177762E+02  0.47000000000E+01 0.  1.
          5    1    5    5  503    0 -0.45658650864E+02  0.50086007313E+02 -0.14318553270E+03  0.15848503810E+03  0.47000000000E+01 0. -1.
         -5    1    5    5    0  503  0.41046466431E+02 -0.11222298503E+02 -0.99956793195E+01  0.43963120854E+02  0.47000000000E+01 0. -1.
<mgrwt>
<rscale>  0 0.27501658E+03</rscale>
<asrwt>0</asrwt>
<pdfrwt beam="1">  1        2 0.73433367E-01 0.27501658E+03</pdfrwt>
<pdfrwt beam="2">  1       -2 0.60944933E-02 0.27501658E+03</pdfrwt>
<totfact> 0.94210052E+03</totfact>
</mgrwt>
</event>
<event>
 9    1  0.2074770E-002  0.2749118E+03  0.7818608E-02  0.1098501E+00
          2   -1    0    0  501    0  0.00000000000E+00  0.00000000000E+00  0.18060118388E+03  0.18060118388E+03  0.00000000000E+00 0. -1.
         -2   -1    0    0    0  501 -0.00000000000E+00 -0.00000000000E+00 -0.10461792953E+03  0.10461792953E+03  0.00000000000E+00 0. -1.
         36    2    1    2    0    0  0.00000000000E+00  0.00000000000E+00  0.75983254354E+02  0.28521911340E+03  0.27491178168E+03 0.  0.
         25    2    3    3    0    0 -0.30804230385E+02  0.29975455775E+02  0.60050365714E+02  0.15207727149E+03  0.13294367801E+03 0.  0.
         25    2    3    3    0    0  0.30804230385E+02 -0.29975455775E+02  0.15932888639E+02  0.13314184192E+03  0.12500185827E+03 0.  0.
          5    1    4    4  502    0  0.26165020668E+02  0.66681877973E+02  0.30727589634E+02  0.78085567945E+02  0.47000000000E+01 0.  1.
         -5    1    4    4    0  502 -0.56969251053E+02 -0.36706422198E+02  0.29322776080E+02  0.73991703543E+02  0.47000000000E+01 0.  1.
          5    1    5    5  503    0 -0.42056682833E+02 -0.39028837846E+02 -0.12843848183E+01  0.57582587637E+02  0.47000000000E+01 0. -1.
         -5    1    5    5    0  503  0.72860913219E+02  0.90533820711E+01  0.17217273457E+02  0.75559254279E+02  0.47000000000E+01 0. -1.
<mgrwt>
<rscale>  0 0.27491178E+03</rscale>
<asrwt>0</asrwt>
<pdfrwt beam="1">  1        2 0.27784798E-01 0.27491178E+03</pdfrwt>
<pdfrwt beam="2">  1       -2 0.16095066E-01 0.27491178E+03</pdfrwt>
<totfact> 0.57688227E+03</totfact>
</mgrwt>
</event>
<event>
 9    1  0.2074770E-002  0.2760473E+03  0.7818608E-02  0.1097868E+00
         -1   -1    0    0    0  501 -0.00000000000E+00  0.00000000000E+00  0.20705851669E+03  0.20705851669E+03  0.00000000000E+00 0. -1.
          1   -1    0    0  501    0  0.00000000000E+00 -0.00000000000E+00 -0.92005518200E+02  0.92005518200E+02  0.00000000000E+00 0. -1.
         36    2    1    2    0    0 -0.71054273576E-14 -0.71054273576E-14  0.11505299849E+03  0.29906403489E+03  0.27604728671E+03 0.  0.
         25    2    3    3    0    0 -0.41904106079E+02  0.51721533657E+02  0.10476594345E+02  0.13926386162E+03  0.12187531733E+03 0.  0.
         25    2    3    3    0    0  0.41904106079E+02 -0.51721533657E+02  0.10457640414E+03  0.15980017327E+03  0.10084046768E+03 0.  0.
          5    1    4    4  502    0  0.80792118659E+01 -0.35239942100E+02 -0.75864626505E+01  0.37239382368E+02  0.47000000000E+01 0.  1.
         -5    1    4    4    0  502 -0.49983317945E+02  0.86961475757E+02  0.18063056995E+02  0.10202447925E+03  0.47000000000E+01 0.  1.
          5    1    5    5  503    0  0.56501192139E+02 -0.54949655505E+02  0.11606100766E+03  0.14037128215E+03  0.47000000000E+01 0.  1.
         -5    1    5    5    0  503 -0.14597086060E+02  0.32281218482E+01 -0.11484603517E+02  0.19428891117E+02  0.47000000000E+01 0.  1.
<mgrwt>
<rscale>  0 0.27604729E+03</rscale>
<asrwt>0</asrwt>
<pdfrwt beam="1">  1        1 0.14154695E-01 0.27604729E+03</pdfrwt>
<pdfrwt beam="2">  1       -1 0.31855156E-01 0.27604729E+03</pdfrwt>
<totfact> 0.36893379E+03</totfact>
</mgrwt>
</event>
<event>
 9    1  0.2074770E-002  0.2723837E+03  0.7818608E-02  0.1099923E+00
         -2   -1    0    0    0  501 -0.00000000000E+00  0.00000000000E+00  0.10686639759E+02  0.10686639759E+02  0.00000000000E+00 0. -1.
          2   -1    0    0  501    0  0.00000000000E+00 -0.00000000000E+00 -0.17356460668E+04  0.17356460668E+04  0.00000000000E+00 0. -1.
         36    2    1    2    0    0  0.00000000000E+00 -0.71054273576E-14 -0.17249594270E+04  0.17463327065E+04  0.27238373127E+03 0.  0.
         25    2    3    3    0    0  0.31360710084E+02  0.30985334956E+02 -0.73734415345E+03  0.74903481321E+03  0.12423029281E+03 0.  0.
         25    2    3    3    0    0 -0.31360710084E+02 -0.30985334956E+02 -0.98761527356E+03  0.99729789332E+03  0.13143657913E+03 0.  0.
          5    1    4    4  502    0 -0.77294253796E+01  0.73298796971E+02 -0.39473761693E+03  0.40158726807E+03  0.47000000000E+01 0. -1.
         -5    1    4    4    0  502  0.39090135463E+02 -0.42313462015E+02 -0.34260653652E+03  0.34744754514E+03  0.47000000000E+01 0. -1.
          5    1    5    5  503    0  0.22257471819E+02 -0.63287666941E+02 -0.68165763283E+03  0.68496711033E+03  0.47000000000E+01 0. -1.
         -5    1    5    5    0  503 -0.53618181903E+02  0.32302331985E+02 -0.30595764073E+03  0.31233078299E+03  0.47000000000E+01 0. -1.
<mgrwt>
<rscale>  0 0.27238373E+03</rscale>
<asrwt>0</asrwt>
<pdfrwt beam="1">  1        2 0.26702261E+00 0.27238373E+03</pdfrwt>
<pdfrwt beam="2">  1       -2 0.16440976E-02 0.27238373E+03</pdfrwt>
<totfact> 0.10549662E+04</totfact>
</mgrwt>
</event>
<event>
 9    1  0.2074770E-002  0.2747171E+03  0.7818608E-02  0.1098610E+00
          3   -1    0    0  501    0  0.00000000000E+00  0.00000000000E+00  0.16914047409E+03  0.16914047409E+03  0.00000000000E+00 0. -1.
         -3   -1    0    0    0  501 -0.00000000000E+00 -0.00000000000E+00 -0.11154851286E+03  0.11154851286E+03  0.00000000000E+00 0. -1.
         36    2    1    2    0    0  0.00000000000E+00  0.00000000000E+00  0.57591961235E+02  0.28068898695E+03  0.27471707882E+03 0.  0.
         25    2    3    3    0    0  0.11708853204E+02 -0.55118757733E+02  0.17445997400E+01  0.13598541660E+03  0.12374900082E+03 0.  0.
         25    2    3    3    0    0 -0.11708853204E+02  0.55118757733E+02  0.55847361495E+02  0.14470357035E+03  0.12101661369E+03 0.  0.
          5    1    4    4  502    0 -0.20964441476E+02 -0.46494947939E+02  0.53455989109E+02  0.74033240926E+02  0.47000000000E+01 0. -1.
         -5    1    4    4    0  502  0.32673294681E+02 -0.86238097932E+01 -0.51711389369E+02  0.61952175677E+02  0.47000000000E+01 0. -1.
          5    1    5    5  503    0  0.19847188925E+02  0.52301821960E+02  0.84687314358E+02  0.10160424549E+03  0.47000000000E+01 0. -1.
         -5    1    5    5    0  503 -0.31556042129E+02  0.28169357730E+01 -0.28839952862E+02  0.43099324857E+02  0.47000000000E+01 0. -1.
<mgrwt>
<rscale>  0 0.27471708E+03</rscale>
<asrwt>0</asrwt>
<pdfrwt beam="1">  1        3 0.26021611E-01 0.27471708E+03</pdfrwt>
<pdfrwt beam="2">  1       -3 0.17161310E-01 0.27471708E+03</pdfrwt>
<totfact> 0.10435784E+03</totfact>
</mgrwt>
</event>
<event>
 9    1  0.2074770E-002  0.2761941E+03  0.7818608E-02  0.1097786E+00
         -2   -1    0    0    0  501 -0.00000000000E+00  0.00000000000E+00  0.61921763810E+02  0.61921763810E+02  0.00000000000E+00 0. -1.
          2   -1    0    0  501    0  0.00000000000E+00 -0.00000000000E+00 -0.30798218063E+03  0.30798218063E+03  0.00000000000E+00 0. -1.
         36    2    1    2    0    0  0.44408920985E-15  0.00000000000E+00 -0.24606041682E+03  0.36990394444E+03  0.27619413351E+03 0.  0.
         25    2    3    3    0    0 -0.15427131808E+01 -0.29137122890E+02 -0.81258884493E+02  0.15984038876E+03  0.13451613909E+03 0.  0.
         25    2    3    3    0    0  0.15427131808E+01  0.29137122890E+02 -0.16480153233E+03  0.21006355568E+03  0.12694802272E+03 0.  0.
          5    1    4    4  502    0  0.62505621366E+01  0.47923842958E+02 -0.64020392144E+02  0.80352130409E+02  0.47000000000E+01 0.  1.
         -5    1    4    4    0  502 -0.77932753173E+01 -0.77060965848E+02 -0.17238492349E+02  0.79488258353E+02  0.47000000000E+01 0.  1.
          5    1    5    5  503    0 -0.17885812643E+01  0.17844467441E+02 -0.18515719655E+03  0.18608304994E+03  0.47000000000E+01 0. -1.
         -5    1    5    5    0  503  0.33312944451E+01  0.11292655449E+02  0.20355664219E+02  0.23980505741E+02  0.47000000000E+01 0. -1.
<mgrwt>
<rscale>  0 0.27619413E+03</rscale>
<asrwt>0</asrwt>
<pdfrwt beam="1">  1        2 0.47381874E-01 0.27619413E+03</pdfrwt>
<pdfrwt beam="2">  1       -2 0.95264252E-02 0.27619413E+03</pdfrwt>
<totfact> 0.75646609E+03</totfact>
</mgrwt>
</event>
<event>
 9    1  0.2074770E-002  0.2739619E+03  0.7818608E-02  0.1099033E+00
          2   -1    0    0  501    0  0.00000000000E+00  0.00000000000E+00  0.27693100242E+04  0.27693100242E+04  0.00000000000E+00 0. -1.
         -2   -1    0    0    0  501 -0.00000000000E+00 -0.00000000000E+00 -0.67756176094E+01  0.67756176094E+01  0.00000000000E+00 0. -1.
         36    2    1    2    0    0 -0.88817841970E-15  0.00000000000E+00  0.27625344066E+04  0.27760856418E+04  0.27396193725E+03 0.  0.
         25    2    3    3    0    0  0.29795198626E+01  0.85893699959E+02  0.12490439798E+04  0.12582855167E+04  0.12563826170E+03 0.  0.
         25    2    3    3    0    0 -0.29795198626E+01 -0.85893699959E+02  0.15134904267E+04  0.15178001251E+04  0.75348142629E+02 0.  0.
          5    1    4    4  502    0  0.13229639343E+02  0.77375430343E+02  0.12376135467E+04  0.12401094151E+04  0.47000000000E+01 0.  1.
         -5    1    4    4    0  502 -0.10250119481E+02  0.85182696156E+01  0.11430433134E+02  0.18176101569E+02  0.47000000000E+01 0.  1.
          5    1    5    5  503    0 -0.99893919849E+01 -0.24354405442E+02  0.12075245960E+03  0.12367769207E+03  0.47000000000E+01 0. -1.
         -5    1    5    5    0  503  0.70098721223E+01 -0.61539294517E+02  0.13927379671E+04  0.13941224330E+04  0.47000000000E+01 0. -1.
<mgrwt>
<rscale>  0 0.27396194E+03</rscale>
<asrwt>0</asrwt>
<pdfrwt beam="1">  1        2 0.42604679E+00 0.27396194E+03</pdfrwt>
<pdfrwt beam="2">  1       -2 0.10424049E-02 0.27396194E+03</pdfrwt>
<totfact> 0.56939086E+03</totfact>
</mgrwt>
</event>
<event>
 9    1  0.2074770E-002  0.2751551E+03  0.7818608E-02  0.1098365E+00
         -2   -1    0    0    0  501 -0.00000000000E+00  0.00000000000E+00  0.33283175086E+03  0.33283175086E+03  0.00000000000E+00 0. -1.
          2   -1    0    0  501    0  0.00000000000E+00 -0.00000000000E+00 -0.56868336673E+02  0.56868336673E+02  0.00000000000E+00 0. -1.
         36    2    1    2    0    0 -0.14210854715E-13 -0.10658141036E-13  0.27596341419E+03  0.38970008753E+03  0.27515514215E+03 0.  0.
         25    2    3    3    0    0 -0.41832479941E+02 -0.31922166034E+02  0.15980237359E+03  0.21001374390E+03  0.12569802289E+03 0.  0.
         25    2    3    3    0    0  0.41832479941E+02  0.31922166034E+02  0.11616104060E+03  0.17968634364E+03  0.12658915307E+03 0.  0.
          5    1    4    4  502    0 -0.16607121713E+01  0.35943405690E+01 -0.20733214154E+02  0.21624833368E+02  0.47000000000E+01 0.  1.
         -5    1    4    4    0  502 -0.40171767770E+02 -0.35516506603E+02  0.18053558775E+03  0.18838891053E+03  0.47000000000E+01 0.  1.
          5    1    5    5  503    0 -0.35507150975E+02  0.31455855229E+02  0.10758079863E+02  0.48867728419E+02  0.47000000000E+01 0.  1.
         -5    1    5    5    0  503  0.77339630916E+02  0.46631080484E+00  0.10540296073E+03  0.13081861522E+03  0.47000000000E+01 0.  1.
<mgrwt>
<rscale>  0 0.27515514E+03</rscale>
<asrwt>0</asrwt>
<pdfrwt beam="1">  1        2 0.87489751E-02 0.27515514E+03</pdfrwt>
<pdfrwt beam="2">  1       -2 0.51204884E-01 0.27515514E+03</pdfrwt>
<totfact> 0.27676509E+03</totfact>
</mgrwt>
</event>
<event>
 9    1  0.2074770E-002  0.2777278E+03  0.7818608E-02  0.1096936E+00
          2   -1    0    0  501    0  0.00000000000E+00  0.00000000000E+00  0.89902556708E+03  0.89902556708E+03  0.00000000000E+00 0.  1.
         -2   -1    0    0    0  501 -0.00000000000E+00 -0.00000000000E+00 -0.21448977246E+02  0.21448977246E+02  0.00000000000E+00 0.  1.
         36    2    1    2    0    0 -0.44408920985E-14  0.71054273576E-14  0.87757658984E+03  0.92047454433E+03  0.27772777270E+03 0.  0.
         25    2    3    3    0    0 -0.11172184114E+01  0.40483081812E+02  0.58760718459E+03  0.60218073977E+03  0.12529689492E+03 0.  0.
         25    2    3    3    0    0  0.11172184114E+01 -0.40483081812E+02  0.28996940525E+03  0.31829380456E+03  0.12485416273E+03 0.  0.
          5    1    4    4  502    0  0.74619428894E+01  0.38439940732E+01  0.54522265913E+03  0.54530752325E+03  0.47000000000E+01 0.  1.
         -5    1    4    4    0  502 -0.85791613008E+01  0.36639087739E+02  0.42384525457E+02  0.56873216519E+02  0.47000000000E+01 0.  1.
          5    1    5    5  503    0 -0.48586560199E+02 -0.25007202981E+02  0.55345109678E+02  0.77917810532E+02  0.47000000000E+01 0. -1.
         -5    1    5    5    0  503  0.49703778610E+02 -0.15475878831E+02  0.23462429557E+03  0.24037599403E+03  0.47000000000E+01 0. -1.
<mgrwt>
<rscale>  0 0.27772777E+03</rscale>
<asrwt>0</asrwt>
<pdfrwt beam="1">  1        2 0.13831160E+00 0.27772777E+03</pdfrwt>
<pdfrwt beam="2">  1       -2 0.32998433E-02 0.27772777E+03</pdfrwt>
<totfact> 0.11145423E+04</totfact>
</mgrwt>
</event>
<event>
 9    1  0.2074770E-002  0.2745169E+03  0.7818608E-02  0.1098722E+00
          2   -1    0    0  501    0  0.00000000000E+00  0.00000000000E+00  0.20580546796E+03  0.20580546796E+03  0.00000000000E+00 0.  1.
         -2   -1    0    0    0  501 -0.00000000000E+00 -0.00000000000E+00 -0.91542152631E+02  0.91542152631E+02  0.00000000000E+00 0.  1.
         36    2    1    2    0    0  0.71054273576E-14  0.00000000000E+00  0.11426331533E+03  0.29734762059E+03  0.27451685238E+03 0.  0.
         25    2    3    3    0    0  0.16194558487E+02 -0.10385266095E+02  0.29882199934E+01  0.12628332532E+03  0.12477352010E+03 0.  0.
         25    2    3    3    0    0 -0.16194558487E+02  0.10385266095E+02  0.11127509534E+03  0.17106429527E+03  0.12849408079E+03 0.  0.
          5    1    4    4  502    0 -0.45935523901E+02  0.12925817526E+01  0.32376663017E+02  0.56409940895E+02  0.47000000000E+01 0. -1.
         -5    1    4    4    0  502  0.62130082388E+02 -0.11677847848E+02 -0.29388443024E+02  0.69873384427E+02  0.47000000000E+01 0. -1.
          5    1    5    5  503    0 -0.53520291648E+02  0.31785739700E+02  0.11149652741E+03  0.12778231682E+03  0.47000000000E+01 0. -1.
         -5    1    5    5    0  503  0.37325733162E+02 -0.21400473605E+02 -0.22143207648E+00  0.43281978452E+02  0.47000000000E+01 0. -1.
<mgrwt>
<rscale>  0 0.27451685E+03</rscale>
<asrwt>0</asrwt>
<pdfrwt beam="1">  1        2 0.31662380E-01 0.27451685E+03</pdfrwt>
<pdfrwt beam="2">  1       -2 0.14083408E-01 0.27451685E+03</pdfrwt>
<totfact> 0.62312029E+03</totfact>
</mgrwt>
</event>
<event>
 9    1  0.2074770E-002  0.2744960E+03  0.7818608E-02  0.1098734E+00
          4   -1    0    0  501    0  0.00000000000E+00  0.00000000000E+00  0.60839656975E+02  0.60839656975E+02  0.00000000000E+00 0.  1.
         -4   -1    0    0    0  501 -0.00000000000E+00 -0.00000000000E+00 -0.30961744182E+03  0.30961744182E+03  0.00000000000E+00 0.  1.
         36    2    1    2    0    0  0.35527136788E-14 -0.71054273576E-14 -0.24877778484E+03  0.37045709879E+03  0.27449603971E+03 0.  0.
         25    2    3    3    0    0 -0.26830110912E+02  0.32860568563E+02 -0.68798835575E+02  0.14845443442E+03  0.12452215669E+03 0.  0.
         25    2    3    3    0    0  0.26830110912E+02 -0.32860568563E+02 -0.17997894927E+03  0.22200266437E+03  0.12285393356E+03 0.  0.
          5    1    4    4  502    0 -0.75593516031E+01 -0.46575268848E+02 -0.12331139639E+02  0.48995371921E+02  0.47000000000E+01 0.  1.
         -5    1    4    4    0  502 -0.19270759308E+02  0.79435837410E+02 -0.56467695936E+02  0.99459062502E+02  0.47000000000E+01 0.  1.
          5    1    5    5  503    0  0.58460772547E+02 -0.79192587320E+01 -0.17032674357E+03  0.18031546290E+03  0.47000000000E+01 0. -1.
         -5    1    5    5    0  503 -0.31630661635E+02 -0.24941309830E+02 -0.96522056965E+01  0.41687201470E+02  0.47000000000E+01 0. -1.
<mgrwt>
<rscale>  0 0.27449604E+03</rscale>
<asrwt>0</asrwt>
<pdfrwt beam="1">  1        4 0.93599473E-02 0.27449604E+03</pdfrwt>
<pdfrwt beam="2">  1       -4 0.47633452E-01 0.27449604E+03</pdfrwt>
<totfact> 0.68115708E+02</totfact>
</mgrwt>
</event>
<event>
 9    1  0.2074770E-002  0.2747071E+03  0.7818608E-02  0.1098615E+00
         -3   -1    0    0    0  501 -0.00000000000E+00  0.00000000000E+00  0.22414205118E+02  0.22414205118E+02  0.00000000000E+00 0.  1.
          3   -1    0    0  501    0  0.00000000000E+00 -0.00000000000E+00 -0.84169819344E+03  0.84169819344E+03  0.00000000000E+00 0.  1.
         36    2    1    2    0    0 -0.35527136788E-14  0.00000000000E+00 -0.81928398832E+03  0.86411239855E+03  0.27470708731E+03 0.  0.
         25    2    3    3    0    0 -0.92701336873E+01 -0.25101725907E+02 -0.56674473233E+03  0.58125321529E+03  0.12625243218E+03 0.  0.
         25    2    3    3    0    0  0.92701336873E+01  0.25101725907E+02 -0.25253925599E+03  0.28285918327E+03  0.12456809272E+03 0.  0.
          5    1    4    4  502    0 -0.25048560468E+02  0.11569960784E+02 -0.51485282839E+03  0.51561305188E+03  0.47000000000E+01 0. -1.
         -5    1    4    4    0  502  0.15778426780E+02 -0.36671686691E+02 -0.51891903947E+02  0.65640163403E+02  0.47000000000E+01 0. -1.
          5    1    5    5  503    0  0.42072292154E+02  0.62032988937E+02 -0.17931415441E+03  0.19440634109E+03  0.47000000000E+01 0. -1.
         -5    1    5    5    0  503 -0.32802158466E+02 -0.36931263030E+02 -0.73225101574E+02  0.88452842179E+02  0.47000000000E+01 0. -1.
<mgrwt>
<rscale>  0 0.27470709E+03</rscale>
<asrwt>0</asrwt>
<pdfrwt beam="1">  1        3 0.12949203E+00 0.27470709E+03</pdfrwt>
<pdfrwt beam="2">  1       -3 0.34483394E-02 0.27470709E+03</pdfrwt>
<totfact> 0.51308107E+02</totfact>
</mgrwt>
</event>
<event>
 9    1  0.2074770E-002  0.2763749E+03  0.7818608E-02  0.1097686E+00
          2   -1    0    0  501    0  0.00000000000E+00  0.00000000000E+00  0.44670638559E+03  0.44670638559E+03  0.00000000000E+00 0.  1.
         -2   -1    0    0    0  501 -0.00000000000E+00 -0.00000000000E+00 -0.42747913326E+02  0.42747913326E+02  0.00000000000E+00 0.  1.
         36    2    1    2    0    0 -0.71054273576E-14 -0.71054273576E-14  0.40395847226E+03  0.48945429891E+03  0.27637486031E+03 0.  0.
         25    2    3    3    0    0 -0.94245825486E+01 -0.24011277751E+02  0.29642109062E+03  0.32183815738E+03  0.12267425307E+03 0.  0.
         25    2    3    3    0    0  0.94245825486E+01  0.24011277751E+02  0.10753738164E+03  0.16761614153E+03  0.12595839883E+03 0.  0.
          5    1    4    4  502    0 -0.47885063537E+02 -0.28575070304E+02  0.59326769015E+02  0.81555315428E+02  0.47000000000E+01 0.  1.
         -5    1    4    4    0  502  0.38460480988E+02  0.45637925527E+01  0.23709432160E+03  0.24028284195E+03  0.47000000000E+01 0.  1.
          5    1    5    5  503    0  0.63745951423E+02  0.17346129463E+02  0.86156864384E+02  0.10867166057E+03  0.47000000000E+01 0. -1.
         -5    1    5    5    0  503 -0.54321368874E+02  0.66651482878E+01  0.21380517261E+02  0.58944480967E+02  0.47000000000E+01 0. -1.
<mgrwt>
<rscale>  0 0.27637486E+03</rscale>
<asrwt>0</asrwt>
<pdfrwt beam="1">  1        2 0.68724056E-01 0.27637486E+03</pdfrwt>
<pdfrwt beam="2">  1       -2 0.65766023E-02 0.27637486E+03</pdfrwt>
<totfact> 0.90177207E+03</totfact>
</mgrwt>
</event>
<event>
 9    1  0.2074770E-002  0.2745248E+03  0.7818608E-02  0.1098718E+00
          1   -1    0    0  501    0  0.00000000000E+00  0.00000000000E+00  0.10169840227E+03  0.10169840227E+03  0.00000000000E+00 0.  1.
         -1   -1    0    0    0  501 -0.00000000000E+00 -0.00000000000E+00 -0.18526316087E+03  0.18526316087E+03  0.00000000000E+00 0.  1.
         36    2    1    2    0    0 -0.35527136788E-14  0.71054273576E-14 -0.83564758598E+02  0.28696156314E+03  0.27452480733E+03 0.  0.
         25    2    3    3    0    0  0.21459369626E+02  0.56968405122E+02 -0.42094765077E+02  0.14308916274E+03  0.12246075094E+03 0.  0.
         25    2    3    3    0    0 -0.21459369626E+02 -0.56968405122E+02 -0.41469993521E+02  0.14387240039E+03  0.12358642120E+03 0.  0.
          5    1    4    4  502    0 -0.38141528724E+02 -0.16593755416E+02 -0.15485636048E+02  0.44632094462E+02  0.47000000000E+01 0. -1.
         -5    1    4    4    0  502  0.59600898350E+02  0.73562160538E+02 -0.26609129030E+02  0.98457068283E+02  0.47000000000E+01 0. -1.
          5    1    5    5  503    0 -0.40877711019E+02  0.18866205568E+02 -0.47002496507E+02  0.65255234645E+02  0.47000000000E+01 0.  1.
         -5    1    5    5    0  503  0.19418341393E+02 -0.75834610690E+02  0.55325029867E+01  0.78617165748E+02  0.47000000000E+01 0.  1.
<mgrwt>
<rscale>  0 0.27452481E+03</rscale>
<asrwt>0</asrwt>
<pdfrwt beam="1">  1        1 0.15645908E-01 0.27452481E+03</pdfrwt>
<pdfrwt beam="2">  1       -1 0.28502025E-01 0.27452481E+03</pdfrwt>
<totfact> 0.39083883E+03</totfact>
</mgrwt>
</event>
<event>
 9    1  0.2074770E-002  0.2757949E+03  0.7818608E-02  0.1098008E+00
          2   -1    0    0  501    0  0.00000000000E+00  0.00000000000E+00  0.78402789477E+02  0.78402789477E+02  0.00000000000E+00 0. -1.
         -2   -1    0    0    0  501 -0.00000000000E+00 -0.00000000000E+00 -0.24253866111E+03  0.24253866111E+03  0.00000000000E+00 0. -1.
         36    2    1    2    0    0  0.35527136788E-14 -0.71054273576E-14 -0.16413587164E+03  0.32094145059E+03  0.27579490631E+03 0.  0.
         25    2    3    3    0    0  0.15775559600E+02 -0.58803587603E+02 -0.90244928340E+02  0.16771605071E+03  0.12758446762E+03 0.  0.
         25    2    3    3    0    0 -0.15775559600E+02  0.58803587603E+02 -0.73890943296E+02  0.15322539988E+03  0.11963035347E+03 0.  0.
          5    1    4    4  502    0  0.51108656789E+02 -0.13118123293E+02  0.80799611576E+01  0.53586898864E+02  0.47000000000E+01 0. -1.
         -5    1    4    4    0  502 -0.35333097189E+02 -0.45685464310E+02 -0.98324889497E+02  0.11412915185E+03  0.47000000000E+01 0. -1.
          5    1    5    5  503    0 -0.24850478773E+02  0.93162788212E+02 -0.42111992427E+02  0.10532027967E+03  0.47000000000E+01 0. -1.
         -5    1    5    5    0  503  0.90749191734E+01 -0.34359200609E+02 -0.31778950869E+02  0.47905120215E+02  0.47000000000E+01 0. -1.
<mgrwt>
<rscale>  0 0.27579491E+03</rscale>
<asrwt>0</asrwt>
<pdfrwt beam="1">  1        2 0.12061968E-01 0.27579491E+03</pdfrwt>
<pdfrwt beam="2">  1       -2 0.37313640E-01 0.27579491E+03</pdfrwt>
<totfact> 0.34397305E+03</totfact>
</mgrwt>
</event>
<event>
 9    1  0.2074770E-002  0.2752533E+03  0.7818608E-02  0.1098310E+00
         -2   -1    0    0    0  501 -0.00000000000E+00  0.00000000000E+00  0.11655759905E+02  0.11655759905E+02  0.00000000000E+00 0. -1.
          2   -1    0    0  501    0  0.00000000000E+00 -0.00000000000E+00 -0.16250418628E+04  0.16250418628E+04  0.00000000000E+00 0. -1.
         36    2    1    2    0    0  0.00000000000E+00 -0.71054273576E-14 -0.16133861029E+04  0.16366976227E+04  0.27525332179E+03 0.  0.
         25    2    3    3    0    0 -0.38540495682E+02  0.45683378206E+02 -0.96787625096E+03  0.97679681436E+03  0.11736796205E+03 0.  0.
         25    2    3    3    0    0  0.38540495682E+02 -0.45683378206E+02 -0.64550985189E+03  0.65990080830E+03  0.12334410022E+03 0.  0.
          5    1    4    4  502    0  0.32103001755E+01  0.37032003105E+02 -0.85838957366E+03  0.85920685836E+03  0.47000000000E+01 0.  1.
         -5    1    4    4    0  502 -0.41750795858E+02  0.86513751017E+01 -0.10948667730E+03  0.11758995600E+03  0.47000000000E+01 0.  1.
          5    1    5    5  503    0  0.38755044944E+02  0.16528924928E+02 -0.49717637798E+03  0.49898056043E+03  0.47000000000E+01 0. -1.
         -5    1    5    5    0  503 -0.21454926147E+00 -0.62212303134E+02 -0.14833347391E+03  0.16092024787E+03  0.47000000000E+01 0. -1.
<mgrwt>
<rscale>  0 0.27525332E+03</rscale>
<asrwt>0</asrwt>
<pdfrwt beam="1">  1        2 0.25000639E+00 0.27525332E+03</pdfrwt>
<pdfrwt beam="2">  1       -2 0.17931942E-02 0.27525332E+03</pdfrwt>
<totfact> 0.10625383E+04</totfact>
</mgrwt>
</event>
<event>
 9    1  0.2074770E-002  0.2749334E+03  0.7818608E-02  0.1098489E+00
          1   -1    0    0  501    0  0.00000000000E+00  0.00000000000E+00  0.12874567856E+04  0.12874567856E+04  0.00000000000E+00 0.  1.
         -1   -1    0    0    0  501 -0.00000000000E+00 -0.00000000000E+00 -0.14677844403E+02  0.14677844403E+02  0.00000000000E+00 0.  1.
         36    2    1    2    0    0  0.00000000000E+00  0.35527136788E-14  0.12727789412E+04  0.13021346300E+04  0.27493337647E+03 0.  0.
         25    2    3    3    0    0  0.61288087621E+02  0.18614595404E+02  0.68816722420E+03  0.70145202894E+03  0.11982523769E+03 0.  0.
         25    2    3    3    0    0 -0.61288087621E+02 -0.18614595404E+02  0.58461171700E+03  0.60068260108E+03  0.12225381274E+03 0.  0.
          5    1    4    4  502    0  0.48287206854E+02  0.68576421325E+02  0.43251742696E+03  0.44059935829E+03  0.47000000000E+01 0. -1.
         -5    1    4    4    0  502  0.13000880767E+02 -0.49961825920E+02  0.25564979725E+03  0.26085267064E+03  0.47000000000E+01 0. -1.
          5    1    5    5  503    0  0.31895518864E+02 -0.29359661926E+02  0.20975216123E+03  0.21423672190E+03  0.47000000000E+01 0. -1.
         -5    1    5    5    0  503 -0.93183606485E+02  0.10745066522E+02  0.37485955578E+03  0.38644587917E+03  0.47000000000E+01 0. -1.
<mgrwt>
<rscale>  0 0.27493338E+03</rscale>
<asrwt>0</asrwt>
<pdfrwt beam="1">  1        1 0.19807019E+00 0.27493338E+03</pdfrwt>
<pdfrwt beam="2">  1       -1 0.22581309E-02 0.27493338E+03</pdfrwt>
<totfact> 0.57109537E+03</totfact>
</mgrwt>
</event>
<event>
 9    1  0.2074770E-002  0.2738939E+03  0.7818608E-02  0.1099071E+00
         -3   -1    0    0    0  501 -0.00000000000E+00  0.00000000000E+00  0.11294704264E+03  0.11294704264E+03  0.00000000000E+00 0.  1.
          3   -1    0    0  501    0  0.00000000000E+00 -0.00000000000E+00 -0.16604656263E+03  0.16604656263E+03  0.00000000000E+00 0.  1.
         36    2    1    2    0    0  0.00000000000E+00  0.35527136788E-14 -0.53099519985E+02  0.27899360527E+03  0.27389390786E+03 0.  0.
         25    2    3    3    0    0 -0.50510218772E+02 -0.83677770334E+01 -0.66267977174E+01  0.13440511563E+03  0.12409479750E+03 0.  0.
         25    2    3    3    0    0  0.50510218772E+02  0.83677770334E+01 -0.46472722267E+02  0.14458848965E+03  0.12698352464E+03 0.  0.
          5    1    4    4  502    0 -0.15177094563E+02  0.28580732626E+02  0.48871523547E+02  0.58802366369E+02  0.47000000000E+01 0. -1.
         -5    1    4    4    0  502 -0.35333124209E+02 -0.36948509660E+02 -0.55498321264E+02  0.75602749260E+02  0.47000000000E+01 0. -1.
          5    1    5    5  503    0  0.34826227721E+01  0.47961772277E+02 -0.64278922192E+02  0.80413494511E+02  0.47000000000E+01 0. -1.
         -5    1    5    5    0  503  0.47027596000E+02 -0.39593995243E+02  0.17806199924E+02  0.64174995135E+02  0.47000000000E+01 0. -1.
<mgrwt>
<rscale>  0 0.27389391E+03</rscale>
<asrwt>0</asrwt>
<pdfrwt beam="1">  1        3 0.25545625E-01 0.27389391E+03</pdfrwt>
<pdfrwt beam="2">  1       -3 0.17376468E-01 0.27389391E+03</pdfrwt>
<totfact> 0.10558279E+03</totfact>
</mgrwt>
</event>
<event>
 9    1  0.2074770E-002  0.2754146E+03  0.7818608E-02  0.1098220E+00
          2   -1    0    0  501    0  0.00000000000E+00  0.00000000000E+00  0.27342161667E+04  0.27342161667E+04  0.00000000000E+00 0. -1.
         -2   -1    0    0    0  501 -0.00000000000E+00 -0.00000000000E+00 -0.69355524633E+01  0.69355524633E+01  0.00000000000E+00 0. -1.
         36    2    1    2    0    0  0.00000000000E+00 -0.71054273576E-14  0.27272806142E+04  0.27411517192E+04  0.27541459417E+03 0.  0.
         25    2    3    3    0    0 -0.40657409614E+02 -0.35120864827E+02  0.62014346800E+03  0.62971195506E+03  0.95250854766E+02 0.  0.
         25    2    3    3    0    0  0.40657409614E+02  0.35120864827E+02  0.21071371462E+04  0.21114397641E+04  0.12354927885E+03 0.  0.
          5    1    4    4  502    0 -0.76239891245E+01  0.21196618814E+02  0.38326697215E+03  0.38395713798E+03  0.47000000000E+01 0. -1.
         -5    1    4    4    0  502 -0.33033420489E+02 -0.56317483641E+02  0.23687649585E+03  0.24575481708E+03  0.47000000000E+01 0. -1.
          5    1    5    5  503    0  0.40199850144E+02  0.17209173907E+02  0.22754478584E+03  0.23175612869E+03  0.47000000000E+01 0.  1.
         -5    1    5    5    0  503  0.45755946995E+00  0.17911690921E+02  0.18795923604E+04  0.18796836354E+04  0.47000000000E+01 0.  1.
<mgrwt>
<rscale>  0 0.27541459E+03</rscale>
<asrwt>0</asrwt>
<pdfrwt beam="1">  1        2 0.42064778E+00 0.27541459E+03</pdfrwt>
<pdfrwt beam="2">  1       -2 0.10670103E-02 0.27541459E+03</pdfrwt>
<totfact> 0.57620250E+03</totfact>
</mgrwt>
</event>
<event>
 9    1  0.2074770E-002  0.2745694E+03  0.7818608E-02  0.1098693E+00
         -2   -1    0    0    0  501 -0.00000000000E+00  0.00000000000E+00  0.11927894505E+02  0.11927894505E+02  0.00000000000E+00 0.  1.
          2   -1    0    0  501    0  0.00000000000E+00 -0.00000000000E+00 -0.15800847288E+04  0.15800847288E+04  0.00000000000E+00 0.  1.
         36    2    1    2    0    0 -0.71054273576E-14  0.00000000000E+00 -0.15681568343E+04  0.15920126233E+04  0.27456936431E+03 0.  0.
         25    2    3    3    0    0  0.48322221629E+02 -0.20454252364E+02 -0.77291698578E+03  0.78506346263E+03  0.12716351644E+03 0.  0.
         25    2    3    3    0    0 -0.48322221629E+02  0.20454252364E+02 -0.79523984855E+03  0.80694916070E+03  0.12651923845E+03 0.  0.
          5    1    4    4  502    0  0.20496493126E+02 -0.73941955313E+02 -0.45422910056E+03  0.46068827290E+03  0.47000000000E+01 0. -1.
         -5    1    4    4    0  502  0.27825728503E+02  0.53487702949E+02 -0.31868788521E+03  0.32437518973E+03  0.47000000000E+01 0. -1.
          5    1    5    5  503    0  0.35081954020E+02 -0.16731991644E+02 -0.36537443440E+03  0.36746601252E+03  0.47000000000E+01 0. -1.
         -5    1    5    5    0  503 -0.83404175650E+02  0.37186244008E+02 -0.42986541414E+03  0.43948314818E+03  0.47000000000E+01 0. -1.
<mgrwt>
<rscale>  0 0.27456936E+03</rscale>
<asrwt>0</asrwt>
<pdfrwt beam="1">  1        2 0.24308991E+00 0.27456936E+03</pdfrwt>
<pdfrwt beam="2">  1       -2 0.18350611E-02 0.27456936E+03</pdfrwt>
<totfact> 0.10850028E+04</totfact>
</mgrwt>
</event>
<event>
 9    1  0.2074770E-002  0.2741794E+03  0.7818608E-02  0.1098911E+00
         -1   -1    0    0    0  501 -0.00000000000E+00  0.00000000000E+00  0.12680922920E+03  0.12680922920E+03  0.00000000000E+00 0. -1.
          1   -1    0    0  501    0  0.00000000000E+00 -0.00000000000E+00 -0.14820363656E+03  0.14820363656E+03  0.00000000000E+00 0. -1.
         36    2    1    2    0    0  0.35527136788E-14 -0.14210854715E-13 -0.21394407364E+02  0.27501286576E+03  0.27417942240E+03 0.  0.
         25    2    3    3    0    0  0.28561516127E+02 -0.35932118666E+02 -0.48533485605E+02  0.14323002117E+03  0.12669831248E+03 0.  0.
         25    2    3    3    0    0 -0.28561516127E+02  0.35932118666E+02  0.27139078241E+02  0.13178284459E+03  0.12051270143E+03 0.  0.
          5    1    4    4  502    0 -0.22444562921E+02 -0.34681532019E+02 -0.74855318771E+02  0.85626957298E+02  0.47000000000E+01 0. -1.
         -5    1    4    4    0  502  0.51006079048E+02 -0.12505866475E+01  0.26321833166E+02  0.57603063877E+02  0.47000000000E+01 0. -1.
          5    1    5    5  503    0 -0.52462111271E+02  0.15026887137E+02  0.63115074307E+02  0.83568433399E+02  0.47000000000E+01 0.  1.
         -5    1    5    5    0  503  0.23900595144E+02  0.20905231530E+02 -0.35975996066E+02  0.48214411191E+02  0.47000000000E+01 0.  1.
<mgrwt>
<rscale>  0 0.27417942E+03</rscale>
<asrwt>0</asrwt>
<pdfrwt beam="1">  1        1 0.22800559E-01 0.27417942E+03</pdfrwt>
<pdfrwt beam="2">  1       -1 0.19509112E-01 0.27417942E+03</pdfrwt>
<totfact> 0.44949290E+03</totfact>
</mgrwt>
</event>
<event>
 9    1  0.2074770E-002  0.2756027E+03  0.7818608E-02  0.1098115E+00
          2   -1    0    0  501    0  0.00000000000E+00  0.00000000000E+00  0.40359589940E+03  0.40359589940E+03  0.00000000000E+00 0. -1.
         -2   -1    0    0    0  501 -0.00000000000E+00 -0.00000000000E+00 -0.47050052379E+02  0.47050052379E+02  0.00000000000E+00 0. -1.
         36    2    1    2    0    0  0.00000000000E+00  0.17763568394E-14  0.35654584702E+03  0.45064595178E+03  0.27560267202E+03 0.  0.
         25    2    3    3    0    0 -0.30736127827E+02 -0.11427407266E+02  0.25367494781E+03  0.28528041026E+03  0.12632750350E+03 0.  0.
         25    2    3    3    0    0  0.30736127827E+02  0.11427407266E+02  0.10287089921E+03  0.16536554152E+03  0.12525192704E+03 0.  0.
          5    1    4    4  502    0  0.48980272392E+02 -0.77302554740E+01  0.82721962743E+02  0.96560017882E+02  0.47000000000E+01 0.  1.
         -5    1    4    4    0  502 -0.79716400218E+02 -0.36971517920E+01  0.17095298507E+03  0.18872039238E+03  0.47000000000E+01 0.  1.
          5    1    5    5  503    0  0.12948195223E+02 -0.48713731099E+02  0.86748667523E+02  0.10043955732E+03  0.47000000000E+01 0. -1.
         -5    1    5    5    0  503  0.17787932603E+02  0.60141138365E+02  0.16122231687E+02  0.64925984203E+02  0.47000000000E+01 0. -1.
<mgrwt>
<rscale>  0 0.27560267E+03</rscale>
<asrwt>0</asrwt>
<pdfrwt beam="1">  1        2 0.62091675E-01 0.27560267E+03</pdfrwt>
<pdfrwt beam="2">  1       -2 0.72384699E-02 0.27560267E+03</pdfrwt>
<totfact> 0.86859494E+03</totfact>
</mgrwt>
</event>
<event>
 9    1  0.2074770E-002  0.2743186E+03  0.7818608E-02  0.1098833E+00
          2   -1    0    0  501    0  0.00000000000E+00  0.00000000000E+00  0.18777295227E+03  0.18777295227E+03  0.00000000000E+00 0.  1.
         -2   -1    0    0    0  501 -0.00000000000E+00 -0.00000000000E+00 -0.10018843157E+03  0.10018843157E+03  0.00000000000E+00 0.  1.
         36    2    1    2    0    0  0.53290705182E-14  0.00000000000E+00  0.87584520705E+02  0.28796138384E+03  0.27431862918E+03 0.  0.
         25    2    3    3    0    0 -0.98065521003E+01  0.53348237444E+02  0.28550540479E+02  0.13981371264E+03  0.12566040736E+03 0.  0.
         25    2    3    3    0    0  0.98065521003E+01 -0.53348237444E+02  0.59033980226E+02  0.14814767120E+03  0.12458137404E+03 0.  0.
          5    1    4    4  502    0 -0.67293430536E+02  0.24378457359E+02  0.85180038087E+01  0.72231304608E+02  0.47000000000E+01 0.  1.
         -5    1    4    4    0  502  0.57486878436E+02  0.28969780085E+02  0.20032536671E+02  0.67582408036E+02  0.47000000000E+01 0.  1.
          5    1    5    5  503    0  0.17849261118E+02 -0.50250038172E+02  0.95990915017E+02  0.10990909073E+03  0.47000000000E+01 0.  1.
         -5    1    5    5    0  503 -0.80427090182E+01 -0.30981992719E+01 -0.36956934791E+02  0.38238580468E+02  0.47000000000E+01 0.  1.
<mgrwt>
<rscale>  0 0.27431863E+03</rscale>
<asrwt>0</asrwt>
<pdfrwt beam="1">  1        2 0.28888146E-01 0.27431863E+03</pdfrwt>
<pdfrwt beam="2">  1       -2 0.15413605E-01 0.27431863E+03</pdfrwt>
<totfact> 0.59375609E+03</totfact>
</mgrwt>
</event>
<event>
 9    1  0.2074770E-002  0.2752477E+03  0.7818608E-02  0.1098313E+00
         -1   -1    0    0    0  501 -0.00000000000E+00  0.00000000000E+00  0.28811077425E+03  0.28811077425E+03  0.00000000000E+00 0. -1.
          1   -1    0    0  501    0  0.00000000000E+00 -0.00000000000E+00 -0.65739725989E+02  0.65739725989E+02  0.00000000000E+00 0. -1.
         36    2    1    2    0    0  0.00000000000E+00  0.14210854715E-13  0.22237104826E+03  0.35385050024E+03  0.27524769466E+03 0.  0.
         25    2    3    3    0    0 -0.32652080480E+02  0.53482565410E+02  0.86095575698E+02  0.16354230344E+03  0.12412531449E+03 0.  0.
         25    2    3    3    0    0  0.32652080480E+02 -0.53482565410E+02  0.13627547257E+03  0.19030819680E+03  0.11713096168E+03 0.  0.
          5    1    4    4  502    0  0.32789563820E+02 -0.20550216527E+02  0.34079933115E+02  0.51778361657E+02  0.47000000000E+01 0. -1.
         -5    1    4    4    0  502 -0.65441644300E+02  0.74032781937E+02  0.52015642583E+02  0.11176394179E+03  0.47000000000E+01 0. -1.
          5    1    5    5  503    0  0.61503618361E+01 -0.87848242640E+02  0.10178524545E+03  0.13467541304E+03  0.47000000000E+01 0.  1.
         -5    1    5    5    0  503  0.26501718644E+02  0.34365677230E+02  0.34490227119E+02  0.55632783764E+02  0.47000000000E+01 0.  1.
<mgrwt>
<rscale>  0 0.27524769E+03</rscale>
<asrwt>0</asrwt>
<pdfrwt beam="1">  1        1 0.10113804E-01 0.27524769E+03</pdfrwt>
<pdfrwt beam="2">  1       -1 0.44324734E-01 0.27524769E+03</pdfrwt>
<totfact> 0.32273317E+03</totfact>
</mgrwt>
</event>
<event>
 9    1  0.2074770E-002  0.2754811E+03  0.7818608E-02  0.1098183E+00
         -2   -1    0    0    0  501 -0.00000000000E+00  0.00000000000E+00  0.11005258169E+02  0.11005258169E+02  0.00000000000E+00 0.  1.
          2   -1    0    0  501    0  0.00000000000E+00 -0.00000000000E+00 -0.17239452582E+04  0.17239452582E+04  0.00000000000E+00 0.  1.
         36    2    1    2    0    0 -0.71054273576E-14  0.71054273576E-14 -0.17129400000E+04  0.17349505164E+04  0.27548112556E+03 0.  0.
         25    2    3    3    0    0 -0.13190651134E+02  0.53784799453E+02 -0.10761249023E+04  0.10838198680E+04  0.11642123043E+03 0.  0.
         25    2    3    3    0    0  0.13190651134E+02 -0.53784799453E+02 -0.63681509770E+03  0.65113064838E+03  0.12397925098E+03 0.  0.
          5    1    4    4  502    0  0.31640484636E+02 -0.13541440698E+02 -0.14196379146E+03  0.14615163006E+03  0.47000000000E+01 0. -1.
         -5    1    4    4    0  502 -0.44831135770E+02  0.67326240152E+02 -0.93416111088E+03  0.93766823793E+03  0.47000000000E+01 0. -1.
          5    1    5    5  503    0  0.65218879427E+02 -0.50498999562E+02 -0.42387871447E+03  0.43185519074E+03  0.47000000000E+01 0. -1.
         -5    1    5    5    0  503 -0.52028228293E+02 -0.32857998911E+01 -0.21293638324E+03  0.21927545765E+03  0.47000000000E+01 0. -1.
<mgrwt>
<rscale>  0 0.27548113E+03</rscale>
<asrwt>0</asrwt>
<pdfrwt beam="1">  1        2 0.26522241E+00 0.27548113E+03</pdfrwt>
<pdfrwt beam="2">  1       -2 0.16931162E-02 0.27548113E+03</pdfrwt>
<totfact> 0.10251159E+04</totfact>
</mgrwt>
</event>
<event>
 9    1  0.2074770E-002  0.2752447E+03  0.7818608E-02  0.1098315E+00
         -4   -1    0    0    0  501 -0.00000000000E+00  0.00000000000E+00  0.38139671790E+02  0.38139671790E+02  0.00000000000E+00 0.  1.
          4   -1    0    0  501    0  0.00000000000E+00 -0.00000000000E+00 -0.49659359313E+03  0.49659359313E+03  0.00000000000E+00 0.  1.
         36    2    1    2    0    0  0.00000000000E+00  0.00000000000E+00 -0.45845392134E+03  0.53473326492E+03  0.27524473950E+03 0.  0.
         25    2    3    3    0    0 -0.31031769539E+01 -0.54818064201E+02 -0.16786486452E+03  0.21321610648E+03  0.11944808686E+03 0.  0.
         25    2    3    3    0    0  0.31031769539E+01  0.54818064201E+02 -0.29058905683E+03  0.32151715844E+03  0.12616114042E+03 0.  0.
          5    1    4    4  502    0  0.12563450594E+02 -0.76788457673E+02 -0.16867243373E+03  0.18581385154E+03  0.47000000000E+01 0.  1.
         -5    1    4    4    0  502 -0.15666627548E+02  0.21970393471E+02  0.80756921686E+00  0.27402254944E+02  0.47000000000E+01 0.  1.
          5    1    5    5  503    0  0.35372973717E+02  0.56356497276E+02 -0.63507915734E+02  0.92101288893E+02  0.47000000000E+01 0.  1.
         -5    1    5    5    0  503 -0.32269796763E+02 -0.15384330749E+01 -0.22708114109E+03  0.22941586955E+03  0.47000000000E+01 0.  1.
<mgrwt>
<rscale>  0 0.27524474E+03</rscale>
<asrwt>0</asrwt>
<pdfrwt beam="1">  1        4 0.76399006E-01 0.27524474E+03</pdfrwt>
<pdfrwt beam="2">  1       -4 0.58676424E-02 0.27524474E+03</pdfrwt>
<totfact> 0.54276727E+02</totfact>
</mgrwt>
</event>
<event>
 9    1  0.2074770E-002  0.2742737E+03  0.7818608E-02  0.1098858E+00
         -2   -1    0    0    0  501 -0.00000000000E+00  0.00000000000E+00  0.46923835708E+02  0.46923835708E+02  0.00000000000E+00 0. -1.
          2   -1    0    0  501    0  0.00000000000E+00 -0.00000000000E+00 -0.40078823033E+03  0.40078823033E+03  0.00000000000E+00 0. -1.
         36    2    1    2    0    0  0.00000000000E+00  0.00000000000E+00 -0.35386439463E+03  0.44771206604E+03  0.27427373971E+03 0.  0.
         25    2    3    3    0    0 -0.16972598621E+02 -0.39352735303E+02 -0.12490539681E+03  0.18116172493E+03  0.12402219780E+03 0.  0.
         25    2    3    3    0    0  0.16972598621E+02  0.39352735303E+02 -0.22895899782E+03  0.26655034111E+03  0.12957682966E+03 0.  0.
          5    1    4    4  502    0 -0.32424859754E+02  0.38757615456E+02 -0.57863419832E+02  0.76966159061E+02  0.47000000000E+01 0. -1.
         -5    1    4    4    0  502  0.15452261134E+02 -0.78110350759E+02 -0.67041976978E+02  0.10419556587E+03  0.47000000000E+01 0. -1.
          5    1    5    5  503    0  0.10174054239E+02 -0.39145727794E+02 -0.14792676491E+03  0.15342854090E+03  0.47000000000E+01 0. -1.
         -5    1    5    5    0  503  0.67985443816E+01  0.78498463097E+02 -0.81032232905E+02  0.11312180021E+03  0.47000000000E+01 0. -1.
<mgrwt>
<rscale>  0 0.27427374E+03</rscale>
<asrwt>0</asrwt>
<pdfrwt beam="1">  1        2 0.61659729E-01 0.27427374E+03</pdfrwt>
<pdfrwt beam="2">  1       -2 0.72190516E-02 0.27427374E+03</pdfrwt>
<totfact> 0.87870564E+03</totfact>
</mgrwt>
</event>
<event>
 9    1  0.2074770E-002  0.2745551E+03  0.7818608E-02  0.1098701E+00
          1   -1    0    0  501    0  0.00000000000E+00  0.00000000000E+00  0.90917710226E+03  0.90917710226E+03  0.00000000000E+00 0. -1.
         -1   -1    0    0    0  501 -0.00000000000E+00 -0.00000000000E+00 -0.20727678609E+02  0.20727678609E+02  0.00000000000E+00 0. -1.
         36    2    1    2    0    0  0.14210854715E-13  0.00000000000E+00  0.88844942365E+03  0.92990478087E+03  0.27455513672E+03 0.  0.
         25    2    3    3    0    0 -0.41868947613E+02  0.57298654915E+01  0.66985323275E+03  0.68358978395E+03  0.12963718276E+03 0.  0.
         25    2    3    3    0    0  0.41868947613E+02 -0.57298654915E+01  0.21859619090E+03  0.24631499693E+03  0.10536101225E+03 0.  0.
          5    1    4    4  502    0  0.12499018655E+02  0.58748064270E+02  0.29024409048E+03  0.29643090693E+03  0.47000000000E+01 0. -1.
         -5    1    4    4    0  502 -0.54367966267E+02 -0.53018198778E+02  0.37960914227E+03  0.38715887702E+03  0.47000000000E+01 0. -1.
          5    1    5    5  503    0  0.33688499229E+02  0.42812763913E+02  0.16290691275E+03  0.17183887789E+03  0.47000000000E+01 0.  1.
         -5    1    5    5    0  503  0.81804483835E+01 -0.48542629405E+02  0.55689278155E+02  0.74476119036E+02  0.47000000000E+01 0.  1.
<mgrwt>
<rscale>  0 0.27455514E+03</rscale>
<asrwt>0</asrwt>
<pdfrwt beam="1">  1        1 0.13987337E+00 0.27455514E+03</pdfrwt>
<pdfrwt beam="2">  1       -1 0.31888743E-02 0.27455514E+03</pdfrwt>
<totfact> 0.64637202E+03</totfact>
</mgrwt>
</event>
<event>
 9    1  0.2074770E-002  0.2621471E+03  0.7818608E-02  0.1105860E+00
          2   -1    0    0  501    0  0.00000000000E+00  0.00000000000E+00  0.16912453890E+04  0.16912453890E+04  0.00000000000E+00 0. -1.
         -2   -1    0    0    0  501 -0.00000000000E+00 -0.00000000000E+00 -0.10158354092E+02  0.10158354092E+02  0.00000000000E+00 0. -1.
         36    2    1    2    0    0  0.00000000000E+00  0.35527136788E-14  0.16810870349E+04  0.17014037431E+04  0.26214705429E+03 0.  0.
         25    2    3    3    0    0  0.19089135148E+02 -0.23295488708E+02  0.73416288773E+03  0.74536583393E+03  0.12517190495E+03 0.  0.
         25    2    3    3    0    0 -0.19089135148E+02  0.23295488708E+02  0.94692414718E+03  0.95603790917E+03  0.12820323078E+03 0.  0.
          5    1    4    4  502    0  0.57320500083E+02 -0.23135073477E+02  0.19034312022E+03  0.20018357767E+03  0.47000000000E+01 0. -1.
         -5    1    4    4    0  502 -0.38231364936E+02 -0.16041523135E+00  0.54381976752E+03  0.54518225626E+03  0.47000000000E+01 0. -1.
          5    1    5    5  503    0  0.20002465829E+02 -0.55702145791E+01  0.81647351610E+03  0.81675101373E+03  0.47000000000E+01 0. -1.
         -5    1    5    5    0  503 -0.39091600976E+02  0.28865703287E+02  0.13045063108E+03  0.13928689544E+03  0.47000000000E+01 0. -1.
<mgrwt>
<rscale>  0 0.26214705E+03</rscale>
<asrwt>0</asrwt>
<pdfrwt beam="1">  1        2 0.26019137E+00 0.26214705E+03</pdfrwt>
<pdfrwt beam="2">  1       -2 0.15628250E-02 0.26214705E+03</pdfrwt>
<totfact> 0.11980969E+04</totfact>
</mgrwt>
</event>
<event>
 9    1  0.2074770E-002  0.2739442E+03  0.7818608E-02  0.1099043E+00
          1   -1    0    0  501    0  0.00000000000E+00  0.00000000000E+00  0.25553158141E+04  0.25553158141E+04  0.00000000000E+00 0. -1.
         -1   -1    0    0    0  501 -0.00000000000E+00 -0.00000000000E+00 -0.73420883234E+01  0.73420883234E+01  0.00000000000E+00 0. -1.
         36    2    1    2    0    0  0.00000000000E+00 -0.71054273576E-14  0.25479737258E+04  0.25626579024E+04  0.27394418703E+03 0.  0.
         25    2    3    3    0    0  0.40908979956E+02 -0.21835903836E+02  0.93372027382E+03  0.94295961672E+03  0.12324340832E+03 0.  0.
         25    2    3    3    0    0 -0.40908979956E+02  0.21835903836E+02  0.16142534520E+04  0.16196982857E+04  0.12433011784E+03 0.  0.
          5    1    4    4  502    0  0.46788559320E+02 -0.68889786057E+02  0.63693561438E+03  0.64237375317E+03  0.47000000000E+01 0. -1.
         -5    1    4    4    0  502 -0.58795793636E+01  0.47053882222E+02  0.29678465944E+03  0.30058586355E+03  0.47000000000E+01 0. -1.
          5    1    5    5  503    0  0.51775479984E+01  0.41640267014E+02  0.13514360734E+04  0.13520955104E+04  0.47000000000E+01 0. -1.
         -5    1    5    5    0  503 -0.46086527955E+02 -0.19804363178E+02  0.26281737860E+03  0.26760277531E+03  0.47000000000E+01 0. -1.
<mgrwt>
<rscale>  0 0.27394419E+03</rscale>
<asrwt>0</asrwt>
<pdfrwt beam="1">  1        1 0.39312480E+00 0.27394419E+03</pdfrwt>
<pdfrwt beam="2">  1       -1 0.11295541E-02 0.27394419E+03</pdfrwt>
<totfact> 0.22965386E+03</totfact>
</mgrwt>
</event>
<event>
 9    1  0.2074770E-002  0.2745278E+03  0.7818608E-02  0.1098716E+00
          2   -1    0    0  501    0  0.00000000000E+00  0.00000000000E+00  0.52374561739E+03  0.52374561739E+03  0.00000000000E+00 0.  1.
         -2   -1    0    0    0  501 -0.00000000000E+00 -0.00000000000E+00 -0.35974293524E+02  0.35974293524E+02  0.00000000000E+00 0.  1.
         36    2    1    2    0    0 -0.71054273576E-14  0.88817841970E-15  0.48777132386E+03  0.55971991091E+03  0.27452780239E+03 0.  0.
         25    2    3    3    0    0 -0.50871970406E+02 -0.20343044223E+01  0.29743169118E+03  0.32616627846E+03  0.12380118949E+03 0.  0.
         25    2    3    3    0    0  0.50871970406E+02  0.20343044223E+01  0.19033963268E+03  0.23355363244E+03  0.12540345965E+03 0.  0.
          5    1    4    4  502    0  0.14583869270E+02 -0.34613209465E+01 -0.51619915459E+01  0.16534997500E+02  0.47000000000E+01 0. -1.
         -5    1    4    4    0  502 -0.65455839676E+02  0.14270165242E+01  0.30259368273E+03  0.30963128097E+03  0.47000000000E+01 0. -1.
          5    1    5    5  503    0 -0.40546672914E+02 -0.10591989138E+02  0.71583853140E+02  0.83081652298E+02  0.47000000000E+01 0. -1.
         -5    1    5    5    0  503  0.91418643319E+02  0.12626293560E+02  0.11875577954E+03  0.15047198015E+03  0.47000000000E+01 0. -1.
<mgrwt>
<rscale>  0 0.27452780E+03</rscale>
<asrwt>0</asrwt>
<pdfrwt beam="1">  1        2 0.80576243E-01 0.27452780E+03</pdfrwt>
<pdfrwt beam="2">  1       -2 0.55345071E-02 0.27452780E+03</pdfrwt>
<totfact> 0.98414678E+03</totfact>
</mgrwt>
</event>
<event>
 9    1  0.2074770E-002  0.2751478E+03  0.7818608E-02  0.1098369E+00
          2   -1    0    0  501    0  0.00000000000E+00  0.00000000000E+00  0.71810609376E+02  0.71810609376E+02  0.00000000000E+00 0.  1.
         -2   -1    0    0    0  501 -0.00000000000E+00 -0.00000000000E+00 -0.26356245322E+03  0.26356245322E+03  0.00000000000E+00 0.  1.
         36    2    1    2    0    0  0.00000000000E+00 -0.17763568394E-14 -0.19175184385E+03  0.33537306260E+03  0.27514781754E+03 0.  0.
         25    2    3    3    0    0 -0.46056691619E+02  0.47947310406E+01 -0.55728834382E+02  0.14254983370E+03  0.12276214326E+03 0.  0.
         25    2    3    3    0    0  0.46056691619E+02 -0.47947310406E+01 -0.13602300947E+03  0.19282322890E+03  0.12858588651E+03 0.  0.
          5    1    4    4  502    0  0.34971607938E+02 -0.43315301710E+01  0.10856488882E+02  0.37171613716E+02  0.47000000000E+01 0. -1.
         -5    1    4    4    0  502 -0.81028299558E+02  0.91262612116E+01 -0.66585323263E+02  0.10537821998E+03  0.47000000000E+01 0. -1.
          5    1    5    5  503    0  0.19946919802E+02 -0.57384802701E+02 -0.22549730037E+02  0.64972882924E+02  0.47000000000E+01 0.  1.
         -5    1    5    5    0  503  0.26109771817E+02  0.52590071661E+02 -0.11347327943E+03  0.12785034598E+03  0.47000000000E+01 0.  1.
<mgrwt>
<rscale>  0 0.27514782E+03</rscale>
<asrwt>0</asrwt>
<pdfrwt beam="1">  1        2 0.11047786E-01 0.27514782E+03</pdfrwt>
<pdfrwt beam="2">  1       -2 0.40548069E-01 0.27514782E+03</pdfrwt>
<totfact> 0.32698814E+03</totfact>
</mgrwt>
</event>
<event>
 9    1  0.2074770E-002  0.2746720E+03  0.7818608E-02  0.1098635E+00
         -2   -1    0    0    0  501 -0.00000000000E+00  0.00000000000E+00  0.20267360429E+02  0.20267360429E+02  0.00000000000E+00 0.  1.
          2   -1    0    0  501    0  0.00000000000E+00 -0.00000000000E+00 -0.93061855146E+03  0.93061855146E+03  0.00000000000E+00 0.  1.
         36    2    1    2    0    0  0.00000000000E+00  0.71054273576E-14 -0.91035119103E+03  0.95088591189E+03  0.27467203428E+03 0.  0.
         25    2    3    3    0    0 -0.19416189577E+02  0.10726217137E+02 -0.62058419507E+03  0.63461430639E+03  0.13083781773E+03 0.  0.
         25    2    3    3    0    0  0.19416189577E+02 -0.10726217137E+02 -0.28976699596E+03  0.31627160550E+03  0.12478291689E+03 0.  0.
          5    1    4    4  502    0 -0.31247358251E+02  0.67443441742E+02 -0.36056686179E+03  0.36817871619E+03  0.47000000000E+01 0. -1.
         -5    1    4    4    0  502  0.11831168673E+02 -0.56717224605E+02 -0.26001733328E+03  0.26643559020E+03  0.47000000000E+01 0. -1.
          5    1    5    5  503    0  0.33560968842E+02 -0.61385911993E+02 -0.20221687411E+03  0.21402879011E+03  0.47000000000E+01 0.  1.
         -5    1    5    5    0  503 -0.14144779265E+02  0.50659694856E+02 -0.87550121849E+02  0.10224281539E+03  0.47000000000E+01 0.  1.
<mgrwt>
<rscale>  0 0.27467203E+03</rscale>
<asrwt>0</asrwt>
<pdfrwt beam="1">  1        2 0.14317205E+00 0.27467203E+03</pdfrwt>
<pdfrwt beam="2">  1       -2 0.31180561E-02 0.27467203E+03</pdfrwt>
<totfact> 0.11572192E+04</totfact>
</mgrwt>
</event>
<event>
 9    1  0.2074770E-002  0.2730984E+03  0.7818608E-02  0.1099519E+00
          2   -1    0    0  501    0  0.00000000000E+00  0.00000000000E+00  0.12383232136E+04  0.12383232136E+04  0.00000000000E+00 0. -1.
         -2   -1    0    0    0  501 -0.00000000000E+00 -0.00000000000E+00 -0.15057199616E+02  0.15057199616E+02  0.00000000000E+00 0. -1.
         36    2    1    2    0    0  0.00000000000E+00  0.00000000000E+00  0.12232660140E+04  0.12533804133E+04  0.27309836921E+03 0.  0.
         25    2    3    3    0    0  0.34138889903E+02  0.10023225716E+02  0.81404061611E+03  0.82527833855E+03  0.13098199317E+03 0.  0.
         25    2    3    3    0    0 -0.34138889903E+02 -0.10023225716E+02  0.40922539791E+03  0.42810207471E+03  0.12058205181E+03 0.  0.
          5    1    4    4  502    0 -0.28995475471E+02  0.51045132109E+02  0.41653808646E+03  0.42068088926E+03  0.47000000000E+01 0. -1.
         -5    1    4    4    0  502  0.63134365374E+02 -0.41021906393E+02  0.39750252965E+03  0.40459744929E+03  0.47000000000E+01 0. -1.
          5    1    5    5  503    0 -0.78115204756E+02 -0.14304612657E+02  0.29501009312E+03  0.30554811766E+03  0.47000000000E+01 0. -1.
         -5    1    5    5    0  503  0.43976314853E+02  0.42813869407E+01  0.11421530478E+03  0.12255395705E+03  0.47000000000E+01 0. -1.
<mgrwt>
<rscale>  0 0.27309837E+03</rscale>
<asrwt>0</asrwt>
<pdfrwt beam="1">  1        2 0.19051118E+00 0.27309837E+03</pdfrwt>
<pdfrwt beam="2">  1       -2 0.23164932E-02 0.27309837E+03</pdfrwt>
<totfact> 0.11808086E+04</totfact>
</mgrwt>
</event>
<event>
 9    1  0.2074770E-002  0.2725595E+03  0.7818608E-02  0.1099824E+00
         -1   -1    0    0    0  501 -0.00000000000E+00  0.00000000000E+00  0.47357007256E+02  0.47357007256E+02  0.00000000000E+00 0. -1.
          1   -1    0    0  501    0  0.00000000000E+00 -0.00000000000E+00 -0.39217352179E+03  0.39217352179E+03  0.00000000000E+00 0. -1.
         36    2    1    2    0    0  0.00000000000E+00  0.00000000000E+00 -0.34481651454E+03  0.43953052905E+03  0.27255945639E+03 0.  0.
         25    2    3    3    0    0  0.21363327480E+01  0.42776698242E+02 -0.15843769033E+03  0.20586474537E+03  0.12427140394E+03 0.  0.
         25    2    3    3    0    0 -0.21363327480E+01 -0.42776698242E+02 -0.18637882420E+03  0.23366578368E+03  0.13426921658E+03 0.  0.
          5    1    4    4  502    0 -0.53933027746E+02  0.14840104766E+02 -0.11931041986E+03  0.13185623413E+03  0.47000000000E+01 0. -1.
         -5    1    4    4    0  502  0.56069360494E+02  0.27936593476E+02 -0.39127270476E+02  0.74008511241E+02  0.47000000000E+01 0. -1.
          5    1    5    5  503    0 -0.64653059801E+02 -0.24058744909E+02 -0.60839369718E+02  0.92099729945E+02  0.47000000000E+01 0. -1.
         -5    1    5    5    0  503  0.62516727053E+02 -0.18717953334E+02 -0.12553945449E+03  0.14156605374E+03  0.47000000000E+01 0. -1.
<mgrwt>
<rscale>  0 0.27255946E+03</rscale>
<asrwt>0</asrwt>
<pdfrwt beam="1">  1        1 0.60334385E-01 0.27255946E+03</pdfrwt>
<pdfrwt beam="2">  1       -1 0.72856937E-02 0.27255946E+03</pdfrwt>
<totfact> 0.61390644E+03</totfact>
</mgrwt>
</event>
<event>
 9    1  0.2074770E-002  0.2745512E+03  0.7818608E-02  0.1098703E+00
         -2   -1    0    0    0  501 -0.00000000000E+00  0.00000000000E+00  0.17793132412E+02  0.17793132412E+02  0.00000000000E+00 0.  1.
          2   -1    0    0  501    0  0.00000000000E+00 -0.00000000000E+00 -0.10590933661E+04  0.10590933661E+04  0.00000000000E+00 0.  1.
         36    2    1    2    0    0  0.35527136788E-14 -0.71054273576E-14 -0.10413002337E+04  0.10768864985E+04  0.27455118648E+03 0.  0.
         25    2    3    3    0    0  0.21225421663E+02  0.38065157485E+02 -0.65977553127E+03  0.67390529626E+03  0.13017343019E+03 0.  0.
         25    2    3    3    0    0 -0.21225421663E+02 -0.38065157485E+02 -0.38152470238E+03  0.40298120221E+03  0.12220178425E+03 0.  0.
          5    1    4    4  502    0 -0.49573482134E+02 -0.65589261883E+01 -0.32150102389E+03  0.32540059620E+03  0.47000000000E+01 0. -1.
         -5    1    4    4    0  502  0.70798903797E+02  0.44624083673E+02 -0.33827450738E+03  0.34850470006E+03  0.47000000000E+01 0. -1.
          5    1    5    5  503    0 -0.83311172334E+01 -0.33080345962E+02 -0.38613638438E+03  0.38766882018E+03  0.47000000000E+01 0.  1.
         -5    1    5    5    0  503 -0.12894304430E+02 -0.49848115231E+01  0.46116819956E+01  0.15312382032E+02  0.47000000000E+01 0.  1.
<mgrwt>
<rscale>  0 0.27455119E+03</rscale>
<asrwt>0</asrwt>
<pdfrwt beam="1">  1        2 0.16293753E+00 0.27455119E+03</pdfrwt>
<pdfrwt beam="2">  1       -2 0.27374036E-02 0.27455119E+03</pdfrwt>
<totfact> 0.11709191E+04</totfact>
</mgrwt>
</event>
<event>
 9    1  0.2074770E-002  0.2754256E+03  0.7818608E-02  0.1098214E+00
          2   -1    0    0  501    0  0.00000000000E+00  0.00000000000E+00  0.37022909510E+03  0.37022909510E+03  0.00000000000E+00 0.  1.
         -2   -1    0    0    0  501 -0.00000000000E+00 -0.00000000000E+00 -0.51224542087E+02  0.51224542087E+02  0.00000000000E+00 0.  1.
         36    2    1    2    0    0  0.00000000000E+00 -0.35527136788E-14  0.31900455301E+03  0.42145363718E+03  0.27542560421E+03 0.  0.
         25    2    3    3    0    0  0.54888401319E+02 -0.14993641206E+02  0.14235289333E+03  0.19778744030E+03  0.12497191455E+03 0.  0.
         25    2    3    3    0    0 -0.54888401319E+02  0.14993641206E+02  0.17665165968E+03  0.22366619688E+03  0.12483273963E+03 0.  0.
          5    1    4    4  502    0  0.45986080653E+02 -0.42426145891E+01  0.16464807228E+03  0.17106664520E+03  0.47000000000E+01 0. -1.
         -5    1    4    4    0  502  0.89023206664E+01 -0.10751026617E+02 -0.22295178953E+02  0.26720795106E+02  0.47000000000E+01 0. -1.
          5    1    5    5  503    0  0.26211356429E+02  0.35879384452E+02  0.10208740896E+03  0.11143740172E+03  0.47000000000E+01 0.  1.
         -5    1    5    5    0  503 -0.81099757748E+02 -0.20885743246E+02  0.74564250725E+02  0.11222879516E+03  0.47000000000E+01 0.  1.
<mgrwt>
<rscale>  0 0.27542560E+03</rscale>
<asrwt>0</asrwt>
<pdfrwt beam="1">  1        2 0.56958321E-01 0.27542560E+03</pdfrwt>
<pdfrwt beam="2">  1       -2 0.78806990E-02 0.27542560E+03</pdfrwt>
<totfact> 0.83557242E+03</totfact>
</mgrwt>
</event>
<event>
 9    1  0.2074770E-002  0.2722295E+03  0.7818608E-02  0.1100010E+00
         -2   -1    0    0    0  501 -0.00000000000E+00  0.00000000000E+00  0.18467965961E+02  0.18467965961E+02  0.00000000000E+00 0. -1.
          2   -1    0    0  501    0  0.00000000000E+00 -0.00000000000E+00 -0.10032089337E+04  0.10032089337E+04  0.00000000000E+00 0. -1.
         36    2    1    2    0    0  0.71054273576E-14 -0.71054273576E-14 -0.98474096772E+03  0.10216768996E+04  0.27222952404E+03 0.  0.
         25    2    3    3    0    0 -0.39622127741E+02  0.63537249475E+01 -0.64229659743E+03  0.65511546849E+03  0.12256049590E+03 0.  0.
         25    2    3    3    0    0  0.39622127741E+02 -0.63537249475E+01 -0.34244437029E+03  0.36656143115E+03  0.12445422146E+03 0.  0.
          5    1    4    4  502    0  0.18833272474E+02  0.51289916750E+02 -0.29364328821E+03  0.29872030132E+03  0.47000000000E+01 0.  1.
         -5    1    4    4    0  502 -0.58455400216E+02 -0.44936191802E+02 -0.34865330922E+03  0.35639516717E+03  0.47000000000E+01 0.  1.
          5    1    5    5  503    0  0.34549755116E+02  0.56802309679E+02 -0.15805051261E+03  0.17152913018E+03  0.47000000000E+01 0.  1.
         -5    1    5    5    0  503  0.50723726250E+01 -0.63156034627E+02 -0.18439385768E+03  0.19503230098E+03  0.47000000000E+01 0.  1.
<mgrwt>
<rscale>  0 0.27222952E+03</rscale>
<asrwt>0</asrwt>
<pdfrwt beam="1">  1        2 0.15433980E+00 0.27222952E+03</pdfrwt>
<pdfrwt beam="2">  1       -2 0.28412262E-02 0.27222952E+03</pdfrwt>
<totfact> 0.11971857E+04</totfact>
</mgrwt>
</event>
<event>
 9    1  0.2074770E-002  0.2759099E+03  0.7818608E-02  0.1097944E+00
         -2   -1    0    0    0  501 -0.00000000000E+00  0.00000000000E+00  0.20560793432E+02  0.20560793432E+02  0.00000000000E+00 0. -1.
          2   -1    0    0  501    0  0.00000000000E+00 -0.00000000000E+00 -0.92562424239E+03  0.92562424239E+03  0.00000000000E+00 0. -1.
         36    2    1    2    0    0 -0.35527136788E-14  0.00000000000E+00 -0.90506344896E+03  0.94618503583E+03  0.27590990445E+03 0.  0.
         25    2    3    3    0    0 -0.42752992491E+01 -0.28597298576E+02 -0.53137757371E+03  0.55140647133E+03  0.14439836258E+03 0.  0.
         25    2    3    3    0    0  0.42752992491E+01  0.28597298576E+02 -0.37368587525E+03  0.39477856449E+03  0.12398749111E+03 0.  0.
          5    1    4    4  502    0  0.22380291814E+02 -0.77144539813E+02 -0.20312307880E+03  0.21847936430E+03  0.47000000000E+01 0. -1.
         -5    1    4    4    0  502 -0.26655591063E+02  0.48547241237E+02 -0.32825449491E+03  0.33292710703E+03  0.47000000000E+01 0. -1.
          5    1    5    5  503    0 -0.49299365800E+02 -0.15579144324E+01 -0.26698860918E+03  0.27154716349E+03  0.47000000000E+01 0.  1.
         -5    1    5    5    0  503  0.53574665049E+02  0.30155213008E+02 -0.10669726607E+03  0.12323140100E+03  0.47000000000E+01 0.  1.
<mgrwt>
<rscale>  0 0.27590990E+03</rscale>
<asrwt>0</asrwt>
<pdfrwt beam="1">  1        2 0.14240375E+00 0.27590990E+03</pdfrwt>
<pdfrwt beam="2">  1       -2 0.31631986E-02 0.27590990E+03</pdfrwt>
<totfact> 0.11411650E+04</totfact>
</mgrwt>
</event>
<event>
 9    1  0.2074770E-002  0.2751583E+03  0.7818608E-02  0.1098363E+00
          1   -1    0    0  501    0  0.00000000000E+00  0.00000000000E+00  0.29226780609E+02  0.29226780609E+02  0.00000000000E+00 0. -1.
         -1   -1    0    0    0  501 -0.00000000000E+00 -0.00000000000E+00 -0.64762602996E+03  0.64762602996E+03  0.00000000000E+00 0. -1.
         36    2    1    2    0    0  0.00000000000E+00 -0.71054273576E-14 -0.61839924935E+03  0.67685281057E+03  0.27515831003E+03 0.  0.
         25    2    3    3    0    0  0.27757976883E+02 -0.31102272508E+02 -0.40249347156E+03  0.42398792493E+03  0.12659742967E+03 0.  0.
         25    2    3    3    0    0 -0.27757976883E+02  0.31102272508E+02 -0.21590577779E+03  0.25286488564E+03  0.12484986533E+03 0.  0.
          5    1    4    4  502    0 -0.63019567117E+01  0.23712281471E+02 -0.31057899070E+03  0.31158207012E+03  0.47000000000E+01 0.  1.
         -5    1    4    4    0  502  0.34059933595E+02 -0.54814553979E+02 -0.91914480858E+02  0.11240585481E+03  0.47000000000E+01 0.  1.
          5    1    5    5  503    0 -0.47845431069E+02  0.62037212288E+02 -0.80426620423E+02  0.11237585263E+03  0.47000000000E+01 0.  1.
         -5    1    5    5    0  503  0.20087454186E+02 -0.30934939780E+02 -0.13547915737E+03  0.14048903301E+03  0.47000000000E+01 0.  1.
<mgrwt>
<rscale>  0 0.27515831E+03</rscale>
<asrwt>0</asrwt>
<pdfrwt beam="1">  1        1 0.44964280E-02 0.27515831E+03</pdfrwt>
<pdfrwt beam="2">  1       -1 0.99634769E-01 0.27515831E+03</pdfrwt>
<totfact> 0.19596266E+03</totfact>
</mgrwt>
</event>
<event>
 9    1  0.2074770E-002  0.2752762E+03  0.7818608E-02  0.1098297E+00
          3   -1    0    0  501    0  0.00000000000E+00  0.00000000000E+00  0.84493431061E+02  0.84493431061E+02  0.00000000000E+00 0.  1.
         -3   -1    0    0    0  501 -0.00000000000E+00 -0.00000000000E+00 -0.22420971272E+03  0.22420971272E+03  0.00000000000E+00 0.  1.
         36    2    1    2    0    0 -0.71054273576E-14  0.00000000000E+00 -0.13971628166E+03  0.30870314378E+03  0.27527620969E+03 0.  0.
         25    2    3    3    0    0  0.37436025621E+02 -0.33941293684E+02 -0.80811323613E+02  0.15737078756E+03  0.12522630443E+03 0.  0.
         25    2    3    3    0    0 -0.37436025621E+02  0.33941293684E+02 -0.58904958049E+02  0.15133235622E+03  0.12991620579E+03 0.  0.
          5    1    4    4  502    0  0.19799777538E+02  0.33455520485E+02 -0.78247869205E+02  0.87499269006E+02  0.47000000000E+01 0.  1.
         -5    1    4    4    0  502  0.17636248083E+02 -0.67396814169E+02 -0.25634544081E+01  0.69871518554E+02  0.47000000000E+01 0.  1.
          5    1    5    5  503    0 -0.47256506070E+02  0.76627849438E+02 -0.58140568000E+02  0.10727264480E+03  0.47000000000E+01 0.  1.
         -5    1    5    5    0  503  0.98204804494E+01 -0.42686555754E+02 -0.76439004955E+00  0.44059711422E+02  0.47000000000E+01 0.  1.
<mgrwt>
<rscale>  0 0.27527621E+03</rscale>
<asrwt>0</asrwt>
<pdfrwt beam="1">  1        3 0.12998990E-01 0.27527621E+03</pdfrwt>
<pdfrwt beam="2">  1       -3 0.34493802E-01 0.27527621E+03</pdfrwt>
<totfact> 0.99593319E+02</totfact>
</mgrwt>
</event>
<event>
 9    1  0.2074770E-002  0.2791239E+03  0.7818608E-02  0.1096168E+00
          2   -1    0    0  501    0  0.00000000000E+00  0.00000000000E+00  0.16290019779E+04  0.16290019779E+04  0.00000000000E+00 0. -1.
         -2   -1    0    0    0  501 -0.00000000000E+00 -0.00000000000E+00 -0.11956728468E+02  0.11956728468E+02  0.00000000000E+00 0. -1.
         36    2    1    2    0    0  0.00000000000E+00  0.14210854715E-13  0.16170452494E+04  0.16409587063E+04  0.27912387445E+03 0.  0.
         25    2    3    3    0    0  0.34599672335E+02 -0.43771437505E+02  0.90818748746E+03  0.91908894004E+03  0.12964139483E+03 0.  0.
         25    2    3    3    0    0 -0.34599672335E+02  0.43771437505E+02  0.70885776194E+03  0.72186976630E+03  0.12451327948E+03 0.  0.
          5    1    4    4  502    0  0.84035470870E+02 -0.24320911974E+02  0.58769812583E+03  0.59419243030E+03  0.47000000000E+01 0. -1.
         -5    1    4    4    0  502 -0.49435798535E+02 -0.19450525531E+02  0.32048936163E+03  0.32489650974E+03  0.47000000000E+01 0. -1.
          5    1    5    5  503    0 -0.31056741413E+02 -0.30966371108E+02  0.45611065761E+03  0.45823843063E+03  0.47000000000E+01 0. -1.
         -5    1    5    5    0  503 -0.35429309218E+01  0.74737808613E+02  0.25274710434E+03  0.26363133567E+03  0.47000000000E+01 0. -1.
<mgrwt>
<rscale>  0 0.27912387E+03</rscale>
<asrwt>0</asrwt>
<pdfrwt beam="1">  1        2 0.25061551E+00 0.27912387E+03</pdfrwt>
<pdfrwt beam="2">  1       -2 0.18394980E-02 0.27912387E+03</pdfrwt>
<totfact> 0.10188196E+04</totfact>
</mgrwt>
</event>
<event>
 9    1  0.2074770E-002  0.2665742E+03  0.7818608E-02  0.1103256E+00
         -1   -1    0    0    0  501 -0.00000000000E+00  0.00000000000E+00  0.38337934904E+02  0.38337934904E+02  0.00000000000E+00 0.  1.
          1   -1    0    0  501    0  0.00000000000E+00 -0.00000000000E+00 -0.46339086067E+03  0.46339086067E+03  0.00000000000E+00 0.  1.
         36    2    1    2    0    0 -0.71054273576E-14  0.00000000000E+00 -0.42505292577E+03  0.50172879558E+03  0.26657418218E+03 0.  0.
         25    2    3    3    0    0 -0.43268159485E+02  0.26316680380E+02 -0.20672959652E+03  0.24631136713E+03  0.12396556864E+03 0.  0.
         25    2    3    3    0    0  0.43268159485E+02 -0.26316680380E+02 -0.21832332925E+03  0.25541742845E+03  0.12250830735E+03 0.  0.
          5    1    4    4  502    0 -0.70160058229E+02 -0.23779203154E+02 -0.92274200783E+02  0.11842509195E+03  0.47000000000E+01 0.  1.
         -5    1    4    4    0  502  0.26891898745E+02  0.50095883534E+02 -0.11445539574E+03  0.12788627518E+03  0.47000000000E+01 0.  1.
          5    1    5    5  503    0 -0.17983875462E+02 -0.44833773315E+02 -0.31443076394E+02  0.57829439384E+02  0.47000000000E+01 0. -1.
         -5    1    5    5    0  503  0.61252034947E+02  0.18517092935E+02 -0.18688025285E+03  0.19758798906E+03  0.47000000000E+01 0. -1.
<mgrwt>
<rscale>  0 0.26657418E+03</rscale>
<asrwt>0</asrwt>
<pdfrwt beam="1">  1        1 0.71290898E-01 0.26657418E+03</pdfrwt>
<pdfrwt beam="2">  1       -1 0.58981441E-02 0.26657418E+03</pdfrwt>
<totfact> 0.68066021E+03</totfact>
</mgrwt>
</event>
<event>
 9    1  0.2074770E-002  0.2752905E+03  0.7818608E-02  0.1098289E+00
         -2   -1    0    0    0  501 -0.00000000000E+00  0.00000000000E+00  0.10830105430E+02  0.10830105430E+02  0.00000000000E+00 0. -1.
          2   -1    0    0  501    0  0.00000000000E+00 -0.00000000000E+00 -0.17494027150E+04  0.17494027150E+04  0.00000000000E+00 0. -1.
         36    2    1    2    0    0  0.00000000000E+00  0.00000000000E+00 -0.17385726096E+04  0.17602328205E+04  0.27529050724E+03 0.  0.
         25    2    3    3    0    0 -0.47931860036E+02  0.17051518418E+02 -0.10388889377E+04  0.10476503300E+04  0.12527079308E+03 0.  0.
         25    2    3    3    0    0  0.47931860036E+02 -0.17051518418E+02 -0.69968367191E+03  0.71258249046E+03  0.12501338925E+03 0.  0.
          5    1    4    4  502    0 -0.15680633738E+02 -0.11776911340E+02 -0.22050373399E+02  0.29881212863E+02  0.47000000000E+01 0.  1.
         -5    1    4    4    0  502 -0.32251226298E+02  0.28828429758E+02 -0.10168385643E+04  0.10177691171E+04  0.47000000000E+01 0.  1.
          5    1    5    5  503    0 -0.21731577996E+01  0.36613351520E+02 -0.46890723750E+03  0.47036299546E+03  0.47000000000E+01 0. -1.
         -5    1    5    5    0  503  0.50105017836E+02 -0.53664869938E+02 -0.23077643441E+03  0.24221949500E+03  0.47000000000E+01 0. -1.
<mgrwt>
<rscale>  0 0.27529051E+03</rscale>
<asrwt>0</asrwt>
<pdfrwt beam="1">  1        2 0.26913873E+00 0.27529051E+03</pdfrwt>
<pdfrwt beam="2">  1       -2 0.16661710E-02 0.27529051E+03</pdfrwt>
<totfact> 0.10176409E+04</totfact>
</mgrwt>
</event>
<event>
 9    1  0.2074770E-002  0.2747250E+03  0.7818608E-02  0.1098605E+00
          2   -1    0    0  501    0  0.00000000000E+00  0.00000000000E+00  0.12286318399E+04  0.12286318399E+04  0.00000000000E+00 0.  1.
         -2   -1    0    0    0  501 -0.00000000000E+00 -0.00000000000E+00 -0.15357293097E+02  0.15357293097E+02  0.00000000000E+00 0.  1.
         36    2    1    2    0    0 -0.71054273576E-14  0.71054273576E-14  0.12132745468E+04  0.12439891330E+04  0.27472502087E+03 0.  0.
         25    2    3    3    0    0  0.48412847156E+02 -0.17502301227E+02  0.47412832495E+03  0.49231786429E+03  0.12218460074E+03 0.  0.
         25    2    3    3    0    0 -0.48412847156E+02  0.17502301227E+02  0.73914622183E+03  0.75167126869E+03  0.12657971640E+03 0.  0.
          5    1    4    4  502    0  0.70322772083E+02 -0.51565321967E+02  0.37692965468E+03  0.38691385253E+03  0.47000000000E+01 0. -1.
         -5    1    4    4    0  502 -0.21909924927E+02  0.34063020740E+02  0.97198670271E+02  0.10540401176E+03  0.47000000000E+01 0. -1.
          5    1    5    5  503    0 -0.23896763121E+02 -0.54812913521E+02  0.34327834200E+03  0.34847901065E+03  0.47000000000E+01 0.  1.
         -5    1    5    5    0  503 -0.24516084035E+02  0.72315214747E+02  0.39586787983E+03  0.40319225804E+03  0.47000000000E+01 0.  1.
<mgrwt>
<rscale>  0 0.27472502E+03</rscale>
<asrwt>0</asrwt>
<pdfrwt beam="1">  1        2 0.18902021E+00 0.27472502E+03</pdfrwt>
<pdfrwt beam="2">  1       -2 0.23626614E-02 0.27472502E+03</pdfrwt>
<totfact> 0.11615712E+04</totfact>
</mgrwt>
</event>
<event>
 9    1  0.2074770E-002  0.2750666E+03  0.7818608E-02  0.1098414E+00
         -1   -1    0    0    0  501 -0.00000000000E+00  0.00000000000E+00  0.24162878560E+02  0.24162878560E+02  0.00000000000E+00 0.  1.
          1   -1    0    0  501    0  0.00000000000E+00 -0.00000000000E+00 -0.78282946472E+03  0.78282946472E+03  0.00000000000E+00 0.  1.
         36    2    1    2    0    0  0.00000000000E+00 -0.35527136788E-14 -0.75866658616E+03  0.80699234328E+03  0.27506663403E+03 0.  0.
         25    2    3    3    0    0  0.45397621273E+02  0.29360546332E+02 -0.38762283848E+03  0.41143108897E+03  0.12689007194E+03 0.  0.
         25    2    3    3    0    0 -0.45397621273E+02 -0.29360546332E+02 -0.37104374768E+03  0.39556125431E+03  0.12598514804E+03 0.  0.
          5    1    4    4  502    0 -0.96265102618E+01 -0.29692761801E+02 -0.26044842538E+02  0.40923753812E+02  0.47000000000E+01 0.  1.
         -5    1    4    4    0  502  0.55024131535E+02  0.59053308133E+02 -0.36157799594E+03  0.37050733515E+03  0.47000000000E+01 0.  1.
          5    1    5    5  503    0 -0.61907341246E+02 -0.39017490948E+02 -0.10106137946E+03  0.12486142686E+03  0.47000000000E+01 0. -1.
         -5    1    5    5    0  503  0.16509719973E+02  0.96569446166E+01 -0.26998236822E+03  0.27069982745E+03  0.47000000000E+01 0. -1.
<mgrwt>
<rscale>  0 0.27506663E+03</rscale>
<asrwt>0</asrwt>
<pdfrwt beam="1">  1        1 0.12043530E+00 0.27506663E+03</pdfrwt>
<pdfrwt beam="2">  1       -1 0.37173660E-02 0.27506663E+03</pdfrwt>
<totfact> 0.65232144E+03</totfact>
</mgrwt>
</event>
<event>
 9    1  0.2074770E-002  0.2738813E+03  0.7818608E-02  0.1099079E+00
          1   -1    0    0  501    0  0.00000000000E+00  0.00000000000E+00  0.20784246883E+03  0.20784246883E+03  0.00000000000E+00 0.  1.
         -1   -1    0    0    0  501 -0.00000000000E+00 -0.00000000000E+00 -0.90225713303E+02  0.90225713303E+02  0.00000000000E+00 0.  1.
         36    2    1    2    0    0  0.71054273576E-14 -0.35527136788E-14  0.11761675553E+03  0.29806818214E+03  0.27388125168E+03 0.  0.
         25    2    3    3    0    0 -0.35130879451E+02  0.14096964694E+01 -0.20145209012E+01  0.12381293104E+03  0.11869885283E+03 0.  0.
         25    2    3    3    0    0  0.35130879451E+02 -0.14096964694E+01  0.11963127643E+03  0.17425525109E+03  0.12172544639E+03 0.  0.
          5    1    4    4  502    0 -0.54798406898E+02 -0.31057360546E+02 -0.35952325856E+02  0.72677952483E+02  0.47000000000E+01 0.  1.
         -5    1    4    4    0  502  0.19667527447E+02  0.32467057016E+02  0.33937804955E+02  0.51134978559E+02  0.47000000000E+01 0.  1.
          5    1    5    5  503    0 -0.22203657235E+02  0.42801143966E+02  0.74319029259E+02  0.88714984244E+02  0.47000000000E+01 0. -1.
         -5    1    5    5    0  503  0.57334536686E+02 -0.44210840436E+02  0.45312247172E+02  0.85540266850E+02  0.47000000000E+01 0. -1.
<mgrwt>
<rscale>  0 0.27388125E+03</rscale>
<asrwt>0</asrwt>
<pdfrwt beam="1">  1        1 0.31975764E-01 0.27388125E+03</pdfrwt>
<pdfrwt beam="2">  1       -1 0.13880879E-01 0.27388125E+03</pdfrwt>
<totfact> 0.50438431E+03</totfact>
</mgrwt>
</event>
<event>
 9    1  0.2074770E-002  0.2747234E+03  0.7818608E-02  0.1098606E+00
         -2   -1    0    0    0  501 -0.00000000000E+00  0.00000000000E+00  0.44286431846E+01  0.44286431846E+01  0.00000000000E+00 0.  1.
          2   -1    0    0  501    0  0.00000000000E+00 -0.00000000000E+00 -0.42605000213E+04  0.42605000213E+04  0.00000000000E+00 0.  1.
         36    2    1    2    0    0  0.00000000000E+00  0.35527136788E-14 -0.42560713781E+04  0.42649286645E+04  0.27472338366E+03 0.  0.
         25    2    3    3    0    0 -0.48320466734E+01  0.62524577121E+01 -0.12170769836E+04  0.12233216928E+04  0.12319552870E+03 0.  0.
         25    2    3    3    0    0  0.48320466734E+01 -0.62524577121E+01 -0.30389943946E+04  0.30416069717E+04  0.12579188402E+03 0.  0.
          5    1    4    4  502    0 -0.33539795326E+02 -0.46479667592E+02 -0.77969016367E+03  0.78180823652E+03  0.47000000000E+01 0.  1.
         -5    1    4    4    0  502  0.28707748652E+02  0.52732125304E+02 -0.43738681989E+03  0.44151345629E+03  0.47000000000E+01 0.  1.
          5    1    5    5  503    0  0.41932276450E+02  0.17026607407E+02 -0.46180221238E+03  0.46403835459E+03  0.47000000000E+01 0.  1.
         -5    1    5    5    0  503 -0.37100229776E+02 -0.23279065119E+02 -0.25771921822E+04  0.25775686171E+04  0.47000000000E+01 0.  1.
<mgrwt>
<rscale>  0 0.27472338E+03</rscale>
<asrwt>0</asrwt>
<pdfrwt beam="1">  1        2 0.65546104E+00 0.27472338E+03</pdfrwt>
<pdfrwt beam="2">  1       -2 0.68133024E-03 0.27472338E+03</pdfrwt>
<totfact> 0.10274976E+03</totfact>
</mgrwt>
</event>
<event>
 9    1  0.2074770E-002  0.2712220E+03  0.7818608E-02  0.1100582E+00
         -2   -1    0    0    0  501 -0.00000000000E+00  0.00000000000E+00  0.11394471999E+04  0.11394471999E+04  0.00000000000E+00 0. -1.
          2   -1    0    0  501    0  0.00000000000E+00 -0.00000000000E+00 -0.16139700836E+02  0.16139700836E+02  0.00000000000E+00 0. -1.
         36    2    1    2    0    0 -0.71054273576E-14  0.14210854715E-13  0.11233074991E+04  0.11555869008E+04  0.27122195284E+03 0.  0.
         25    2    3    3    0    0  0.11103317526E+02 -0.46032096189E+02  0.65973118536E+03  0.67307068132E+03  0.12464616952E+03 0.  0.
         25    2    3    3    0    0 -0.11103317526E+02  0.46032096189E+02  0.46357631375E+03  0.48251621946E+03  0.12520649278E+03 0.  0.
          5    1    4    4  502    0 -0.26275447289E+02 -0.78715980218E+02  0.38849392362E+03  0.39728607245E+03  0.47000000000E+01 0.  1.
         -5    1    4    4    0  502  0.37378764815E+02  0.32683884029E+02  0.27123726174E+03  0.27578460887E+03  0.47000000000E+01 0.  1.
          5    1    5    5  503    0 -0.51850908397E+02  0.89777478102E+01  0.37061899058E+03  0.37436565392E+03  0.47000000000E+01 0. -1.
         -5    1    5    5    0  503  0.40747590870E+02  0.37054348379E+02  0.92957323163E+02  0.10815056553E+03  0.47000000000E+01 0. -1.
<mgrwt>
<rscale>  0 0.27122195E+03</rscale>
<asrwt>0</asrwt>
<pdfrwt beam="1">  1        2 0.24830318E-02 0.27122195E+03</pdfrwt>
<pdfrwt beam="2">  1       -2 0.17529951E+00 0.27122195E+03</pdfrwt>
<totfact> 0.85004086E+02</totfact>
</mgrwt>
</event>
<event>
 9    1  0.2074770E-002  0.2746382E+03  0.7818608E-02  0.1098654E+00
          2   -1    0    0  501    0  0.00000000000E+00  0.00000000000E+00  0.20973789274E+04  0.20973789274E+04  0.00000000000E+00 0.  1.
         -2   -1    0    0    0  501 -0.00000000000E+00 -0.00000000000E+00 -0.89905244985E+01  0.89905244985E+01  0.00000000000E+00 0.  1.
         36    2    1    2    0    0  0.17763568394E-14  0.00000000000E+00  0.20883884029E+04  0.21063694519E+04  0.27463821023E+03 0.  0.
         25    2    3    3    0    0  0.90312687415E+01  0.37373991679E+02  0.14170890518E+04  0.14238977448E+04  0.13366012155E+03 0.  0.
         25    2    3    3    0    0 -0.90312687415E+01 -0.37373991679E+02  0.67129935117E+03  0.68247170709E+03  0.11681794817E+03 0.  0.
          5    1    4    4  502    0  0.13090271062E+01 -0.16816313289E+02  0.23909596523E+02  0.29635464405E+02  0.47000000000E+01 0.  1.
         -5    1    4    4    0  502  0.77222416353E+01  0.54190304968E+02  0.13931794552E+04  0.13942622804E+04  0.47000000000E+01 0.  1.
          5    1    5    5  503    0 -0.61117553344E+02 -0.76670987281E+01  0.38478294129E+03  0.38971033042E+03  0.47000000000E+01 0.  1.
         -5    1    5    5    0  503  0.52086284603E+02 -0.29706892950E+02  0.28651640988E+03  0.29276137666E+03  0.47000000000E+01 0.  1.
<mgrwt>
<rscale>  0 0.27463821E+03</rscale>
<asrwt>0</asrwt>
<pdfrwt beam="1">  1        2 0.32267329E+00 0.27463821E+03</pdfrwt>
<pdfrwt beam="2">  1       -2 0.13831593E-02 0.27463821E+03</pdfrwt>
<totfact> 0.87685519E+03</totfact>
</mgrwt>
</event>
<event>
 9    1  0.2074770E-002  0.2750271E+03  0.7818608E-02  0.1098436E+00
          1   -1    0    0  501    0  0.00000000000E+00  0.00000000000E+00  0.64995965766E+03  0.64995965766E+03  0.00000000000E+00 0.  1.
         -1   -1    0    0    0  501 -0.00000000000E+00 -0.00000000000E+00 -0.29094072926E+02  0.29094072926E+02  0.00000000000E+00 0.  1.
         36    2    1    2    0    0  0.17763568394E-14  0.14210854715E-13  0.62086558474E+03  0.67905373059E+03  0.27502707997E+03 0.  0.
         25    2    3    3    0    0  0.10061828677E+02  0.64931343310E+02  0.33729568545E+03  0.36430780246E+03  0.12097303738E+03 0.  0.
         25    2    3    3    0    0 -0.10061828677E+02 -0.64931343310E+02  0.28356989929E+03  0.31474592812E+03  0.11973216672E+03 0.  0.
          5    1    4    4  502    0 -0.46152793319E+01  0.74060865088E+01 -0.87218391593E+01  0.13202704231E+02  0.47000000000E+01 0. -1.
         -5    1    4    4    0  502  0.14677108009E+02  0.57525256801E+02  0.34601752461E+03  0.35110509823E+03  0.47000000000E+01 0. -1.
          5    1    5    5  503    0  0.60473580805E+01 -0.86298064277E+02  0.27155245189E+03  0.28503815633E+03  0.47000000000E+01 0. -1.
         -5    1    5    5    0  503 -0.16109186757E+02  0.21366720967E+02  0.12017447398E+02  0.29707771792E+02  0.47000000000E+01 0. -1.
<mgrwt>
<rscale>  0 0.27502708E+03</rscale>
<asrwt>0</asrwt>
<pdfrwt beam="1">  1        1 0.99993783E-01 0.27502708E+03</pdfrwt>
<pdfrwt beam="2">  1       -1 0.44760117E-02 0.27502708E+03</pdfrwt>
<totfact> 0.65053334E+03</totfact>
</mgrwt>
</event>
<event>
 9    1  0.2074770E-002  0.2754561E+03  0.7818608E-02  0.1098197E+00
         -1   -1    0    0    0  501 -0.00000000000E+00  0.00000000000E+00  0.11003752641E+04  0.11003752641E+04  0.00000000000E+00 0. -1.
          1   -1    0    0  501    0  0.00000000000E+00 -0.00000000000E+00 -0.17238678460E+02  0.17238678460E+02  0.00000000000E+00 0. -1.
         36    2    1    2    0    0  0.14210854715E-13 -0.14210854715E-13  0.10831365857E+04  0.11176139426E+04  0.27545609715E+03 0.  0.
         25    2    3    3    0    0  0.43053860982E+02 -0.41538606327E+02  0.52086214950E+03  0.53865197571E+03  0.12356974304E+03 0.  0.
         25    2    3    3    0    0 -0.43053860982E+02  0.41538606327E+02  0.56227443615E+03  0.57896196686E+03  0.12435966694E+03 0.  0.
          5    1    4    4  502    0  0.77676954386E+02  0.39112015912E+01  0.25312167499E+03  0.26484274407E+03  0.47000000000E+01 0. -1.
         -5    1    4    4    0  502 -0.34623093404E+02 -0.45449807918E+02  0.26774047452E+03  0.27380923164E+03  0.47000000000E+01 0. -1.
          5    1    5    5  503    0 -0.48320724622E+02 -0.31562685048E+02  0.16277900834E+03  0.17277207839E+03  0.47000000000E+01 0.  1.
         -5    1    5    5    0  503  0.52668636406E+01  0.73101291375E+02  0.39949542781E+03  0.40618988847E+03  0.47000000000E+01 0.  1.
<mgrwt>
<rscale>  0 0.27545610E+03</rscale>
<asrwt>0</asrwt>
<pdfrwt beam="1">  1        1 0.26521052E-02 0.27545610E+03</pdfrwt>
<pdfrwt beam="2">  1       -1 0.16928845E+00 0.27545610E+03</pdfrwt>
<totfact> 0.11044763E+03</totfact>
</mgrwt>
</event>
<event>
 9    1  0.2074770E-002  0.2755902E+03  0.7818608E-02  0.1098122E+00
         -2   -1    0    0    0  501 -0.00000000000E+00  0.00000000000E+00  0.47314807301E+02  0.47314807301E+02  0.00000000000E+00 0. -1.
          2   -1    0    0  501    0  0.00000000000E+00 -0.00000000000E+00 -0.40130124090E+03  0.40130124090E+03  0.00000000000E+00 0. -1.
         36    2    1    2    0    0  0.00000000000E+00  0.00000000000E+00 -0.35398643360E+03  0.44861604820E+03  0.27559020943E+03 0.  0.
         25    2    3    3    0    0  0.10991282077E+02  0.66100847210E+02 -0.18043419015E+03  0.23077337951E+03  0.12731741998E+03 0.  0.
         25    2    3    3    0    0 -0.10991282077E+02 -0.66100847210E+02 -0.17355224345E+03  0.21784266869E+03  0.11333541730E+03 0.  0.
          5    1    4    4  502    0 -0.52652190861E+01  0.31042133911E+02 -0.18837216047E+03  0.19104318216E+03  0.47000000000E+01 0. -1.
         -5    1    4    4    0  502  0.16256501163E+02  0.35058713299E+02  0.79379703213E+01  0.39730197345E+02  0.47000000000E+01 0. -1.
          5    1    5    5  503    0  0.28568161222E+02 -0.83341589130E+02 -0.11838466674E+03  0.14764477516E+03  0.47000000000E+01 0.  1.
         -5    1    5    5    0  503 -0.39559443299E+02  0.17240741919E+02 -0.55167576710E+02  0.70197893531E+02  0.47000000000E+01 0.  1.
<mgrwt>
<rscale>  0 0.27559021E+03</rscale>
<asrwt>0</asrwt>
<pdfrwt beam="1">  1        2 0.61738654E-01 0.27559021E+03</pdfrwt>
<pdfrwt beam="2">  1       -2 0.72792009E-02 0.27559021E+03</pdfrwt>
<totfact> 0.86641723E+03</totfact>
</mgrwt>
</event>
<event>
 9    1  0.2074770E-002  0.2753267E+03  0.7818608E-02  0.1098269E+00
          1   -1    0    0  501    0  0.00000000000E+00  0.00000000000E+00  0.19574191129E+02  0.19574191129E+02  0.00000000000E+00 0.  1.
         -1   -1    0    0    0  501 -0.00000000000E+00 -0.00000000000E+00 -0.96817238937E+03  0.96817238937E+03  0.00000000000E+00 0.  1.
         36    2    1    2    0    0 -0.71054273576E-14  0.00000000000E+00 -0.94859819825E+03  0.98774658050E+03  0.27532665251E+03 0.  0.
         25    2    3    3    0    0  0.56904452921E+02 -0.13519650258E+00 -0.46533882910E+03  0.48507226866E+03  0.12456622703E+03 0.  0.
         25    2    3    3    0    0 -0.56904452921E+02  0.13519650258E+00 -0.48325936914E+03  0.50267431184E+03  0.12610991586E+03 0.  0.
          5    1    4    4  502    0 -0.26223422956E+02  0.37042910388E+02 -0.16554346605E+03  0.17171655213E+03  0.47000000000E+01 0.  1.
         -5    1    4    4    0  502  0.83127875878E+02 -0.37178106891E+02 -0.29979536305E+03  0.31335571654E+03  0.47000000000E+01 0.  1.
          5    1    5    5  503    0 -0.13807132767E+02  0.57145844939E+02 -0.30340012262E+03  0.30907929228E+03  0.47000000000E+01 0. -1.
         -5    1    5    5    0  503 -0.43097320154E+02 -0.57010648436E+02 -0.17985924653E+03  0.19359501956E+03  0.47000000000E+01 0. -1.
<mgrwt>
<rscale>  0 0.27532665E+03</rscale>
<asrwt>0</asrwt>
<pdfrwt beam="1">  1        1 0.30114141E-02 0.27532665E+03</pdfrwt>
<pdfrwt beam="2">  1       -1 0.14894959E+00 0.27532665E+03</pdfrwt>
<totfact> 0.13052343E+03</totfact>
</mgrwt>
</event>
<event>
 9    1  0.2074770E-002  0.2744026E+03  0.7818608E-02  0.1098786E+00
          4   -1    0    0  501    0  0.00000000000E+00  0.00000000000E+00  0.51825532889E+03  0.51825532889E+03  0.00000000000E+00 0.  1.
         -4   -1    0    0    0  501 -0.00000000000E+00 -0.00000000000E+00 -0.36322239987E+02  0.36322239987E+02  0.00000000000E+00 0.  1.
         36    2    1    2    0    0  0.00000000000E+00  0.35527136788E-14  0.48193308890E+03  0.55457756887E+03  0.27440258330E+03 0.  0.
         25    2    3    3    0    0 -0.66009940780E+02  0.14625524838E+02  0.27084903000E+03  0.30570457236E+03  0.12459883728E+03 0.  0.
         25    2    3    3    0    0  0.66009940780E+02 -0.14625524838E+02  0.21108405890E+03  0.24887299651E+03  0.11318158072E+03 0.  0.
          5    1    4    4  502    0 -0.34798818949E+02  0.68306946211E+02  0.11959910002E+03  0.14213666461E+03  0.47000000000E+01 0.  1.
         -5    1    4    4    0  502 -0.31211121831E+02 -0.53681421372E+02  0.15124992998E+03  0.16356790775E+03  0.47000000000E+01 0.  1.
          5    1    5    5  503    0 -0.27784217972E+02 -0.31256984554E+01  0.94865888919E+02  0.99011916654E+02  0.47000000000E+01 0. -1.
         -5    1    5    5    0  503  0.93794158753E+02 -0.11499826383E+02  0.11621816998E+03  0.14986107986E+03  0.47000000000E+01 0. -1.
<mgrwt>
<rscale>  0 0.27440258E+03</rscale>
<asrwt>0</asrwt>
<pdfrwt beam="1">  1        4 0.79731584E-01 0.27440258E+03</pdfrwt>
<pdfrwt beam="2">  1       -4 0.55880373E-02 0.27440258E+03</pdfrwt>
<totfact> 0.53435408E+02</totfact>
</mgrwt>
</event>
<event>
 9    1  0.2074770E-002  0.2754448E+03  0.7818608E-02  0.1098203E+00
         -2   -1    0    0    0  501 -0.00000000000E+00  0.00000000000E+00  0.41425681969E+03  0.41425681969E+03  0.00000000000E+00 0. -1.
          2   -1    0    0  501    0  0.00000000000E+00 -0.00000000000E+00 -0.45786705102E+02  0.45786705102E+02  0.00000000000E+00 0. -1.
         36    2    1    2    0    0  0.35527136788E-14  0.00000000000E+00  0.36847011458E+03  0.46004352479E+03  0.27544476644E+03 0.  0.
         25    2    3    3    0    0  0.30669559186E+02 -0.69177108539E+01  0.26435524920E+03  0.29360295275E+03  0.12381647509E+03 0.  0.
         25    2    3    3    0    0 -0.30669559186E+02  0.69177108539E+01  0.10411486539E+03  0.16644057203E+03  0.12599238961E+03 0.  0.
          5    1    4    4  502    0 -0.40826701842E+00 -0.60187344731E+02  0.88018803148E+02  0.10673370065E+03  0.47000000000E+01 0.  1.
         -5    1    4    4    0  502  0.31077826204E+02  0.53269633877E+02  0.17633644605E+03  0.18686925210E+03  0.47000000000E+01 0.  1.
          5    1    5    5  503    0 -0.17626960645E+02  0.52232747684E+02  0.37537211689E+01  0.55454035875E+02  0.47000000000E+01 0.  1.
         -5    1    5    5    0  503 -0.13042598541E+02 -0.45315036830E+02  0.10036114422E+03  0.11098653616E+03  0.47000000000E+01 0.  1.
<mgrwt>
<rscale>  0 0.27544477E+03</rscale>
<asrwt>0</asrwt>
<pdfrwt beam="1">  1        2 0.70441088E-02 0.27544477E+03</pdfrwt>
<pdfrwt beam="2">  1       -2 0.63731816E-01 0.27544477E+03</pdfrwt>
<totfact> 0.23286067E+03</totfact>
</mgrwt>
</event>
<event>
 9    1  0.2074770E-002  0.2687050E+03  0.7818608E-02  0.1102023E+00
         -2   -1    0    0    0  501 -0.00000000000E+00  0.00000000000E+00  0.15426833732E+02  0.15426833732E+02  0.00000000000E+00 0.  1.
          2   -1    0    0  501    0  0.00000000000E+00 -0.00000000000E+00 -0.11700775672E+04  0.11700775672E+04  0.00000000000E+00 0.  1.
         36    2    1    2    0    0  0.00000000000E+00  0.14210854715E-13 -0.11546507334E+04  0.11855044009E+04  0.26870498382E+03 0.  0.
         25    2    3    3    0    0  0.13845024476E+02 -0.35775561263E+02 -0.71622819808E+03  0.72800924231E+03  0.12467176775E+03 0.  0.
         25    2    3    3    0    0 -0.13845024476E+02  0.35775561263E+02 -0.43842253536E+03  0.45749515859E+03  0.12496369529E+03 0.  0.
          5    1    4    4  502    0  0.88965054037E+01  0.43862632283E+02 -0.16543127025E+03  0.17144291615E+03  0.47000000000E+01 0. -1.
         -5    1    4    4    0  502  0.49485190722E+01 -0.79638193546E+02 -0.55079692783E+03  0.55656632616E+03  0.47000000000E+01 0. -1.
          5    1    5    5  503    0  0.18280170668E+02  0.75720112917E+02 -0.29370954227E+03  0.30389979493E+03  0.47000000000E+01 0.  1.
         -5    1    5    5    0  503 -0.32125195144E+02 -0.39944551654E+02 -0.14471299309E+03  0.15359536366E+03  0.47000000000E+01 0.  1.
<mgrwt>
<rscale>  0 0.26870498E+03</rscale>
<asrwt>0</asrwt>
<pdfrwt beam="1">  1        2 0.18001193E+00 0.26870498E+03</pdfrwt>
<pdfrwt beam="2">  1       -2 0.23733591E-02 0.26870498E+03</pdfrwt>
<totfact> 0.12449184E+04</totfact>
</mgrwt>
</event>
<event>
 8    1  0.2074770E-002  0.2902229E+03  0.7818608E-02  0.1090233E+00
          1   -1    0    0  501    0  0.00000000000E+00  0.00000000000E+00  0.20417561366E+04  0.20417561366E+04  0.00000000000E+00 0. -1.
         -1   -1    0    0    0  501 -0.00000000000E+00 -0.00000000000E+00 -0.10313343086E+02  0.10313343086E+02  0.00000000000E+00 0. -1.
         25    2    1    2    0    0  0.71413614550E+02 -0.16318859529E+02  0.10716565639E+04  0.10813867850E+04  0.12483340198E+03 0.  0.
         25    2    1    2    0    0 -0.71413614550E+02  0.16318859529E+02  0.95978622963E+03  0.97068269472E+03  0.12517618677E+03 0.  0.
          5    1    3    3  502    0  0.70564990862E+02 -0.83507896523E+01  0.25718038576E+03  0.26685762954E+03  0.47000000000E+01 0.  1.
         -5    1    3    3    0  502  0.84862368833E+00 -0.79680698771E+01  0.81447617815E+03  0.81452915545E+03  0.47000000000E+01 0.  1.
          5    1    4    4  503    0  0.32832253477E+02  0.10389715298E+02  0.37694073641E+03  0.37853970970E+03  0.47000000000E+01 0.  1.
         -5    1    4    4    0  503 -0.10424586803E+03  0.59291442315E+01  0.58284549321E+03  0.59214298502E+03  0.47000000000E+01 0.  1.
<mgrwt>
<rscale>  0 0.29022289E+03</rscale>
<asrwt>0</asrwt>
<pdfrwt beam="1">  1        1 0.31411601E+00 0.29022289E+03</pdfrwt>
<pdfrwt beam="2">  1       -1 0.15866698E-02 0.29022289E+03</pdfrwt>
<totfact> 0.30470306E+03</totfact>
</mgrwt>
</event>
<event>
 8    1  0.2074770E-002  0.3227418E+03  0.7818608E-02  0.1074394E+00
          1   -1    0    0  501    0  0.00000000000E+00  0.00000000000E+00  0.64760192112E+03  0.64760192112E+03  0.00000000000E+00 0.  1.
         -1   -1    0    0    0  501 -0.00000000000E+00 -0.00000000000E+00 -0.40210761922E+02  0.40210761922E+02  0.00000000000E+00 0.  1.
         25    2    1    2    0    0  0.22844086109E+02  0.45008894688E+02  0.47589895296E+03  0.49575403319E+03  0.12940090852E+03 0.  0.
         25    2    1    2    0    0 -0.22844086109E+02 -0.45008894688E+02  0.13149220624E+03  0.19205864985E+03  0.13057056257E+03 0.  0.
          5    1    3    3  502    0  0.65441560470E+02  0.28602089326E+02  0.14515413033E+03  0.16184093704E+03  0.47000000000E+01 0. -1.
         -5    1    3    3    0  502 -0.42597474361E+02  0.16406805361E+02  0.33074482262E+03  0.33391309614E+03  0.47000000000E+01 0. -1.
          5    1    4    4  503    0 -0.70011108964E+02  0.58898666022E+01  0.67744718380E+02  0.97712244757E+02  0.47000000000E+01 0. -1.
         -5    1    4    4    0  503  0.47167022855E+02 -0.50898761290E+02  0.63747487858E+02  0.94346405094E+02  0.47000000000E+01 0. -1.
<mgrwt>
<rscale>  0 0.32274180E+03</rscale>
<asrwt>0</asrwt>
<pdfrwt beam="1">  1        1 0.99631057E-01 0.32274180E+03</pdfrwt>
<pdfrwt beam="2">  1       -1 0.61862715E-02 0.32274180E+03</pdfrwt>
<totfact> 0.40327375E+03</totfact>
</mgrwt>
</event>
<event>
 9    1  0.2074770E-002  0.2725914E+03  0.7818608E-02  0.1099806E+00
         -1   -1    0    0    0  501 -0.00000000000E+00  0.00000000000E+00  0.52104395345E+03  0.52104395345E+03  0.00000000000E+00 0. -1.
          1   -1    0    0  501    0  0.00000000000E+00 -0.00000000000E+00 -0.35652501445E+02  0.35652501445E+02  0.00000000000E+00 0. -1.
         36    2    1    2    0    0 -0.17763568394E-14  0.35527136788E-14  0.48539145200E+03  0.55669645489E+03  0.27259141808E+03 0.  0.
         25    2    3    3    0    0  0.78532221877E+01  0.28774933138E+02  0.16093673534E+03  0.20726827783E+03  0.12716067134E+03 0.  0.
         25    2    3    3    0    0 -0.78532221877E+01 -0.28774933138E+02  0.32445471666E+03  0.34942817706E+03  0.12625180350E+03 0.  0.
          5    1    4    4  502    0  0.23579961635E+02 -0.17030557194E+02  0.15554705055E+03  0.15831307402E+03  0.47000000000E+01 0.  1.
         -5    1    4    4    0  502 -0.15726739447E+02  0.45805490332E+02  0.53896847908E+01  0.48955203813E+02  0.47000000000E+01 0.  1.
          5    1    5    5  503    0  0.56292399977E+02 -0.32017224641E+02  0.14922932130E+03  0.16274340941E+03  0.47000000000E+01 0.  1.
         -5    1    5    5    0  503 -0.64145622165E+02  0.32422915027E+01  0.17522539535E+03  0.18668476766E+03  0.47000000000E+01 0.  1.
<mgrwt>
<rscale>  0 0.27259142E+03</rscale>
<asrwt>0</asrwt>
<pdfrwt beam="1">  1        1 0.54850006E-02 0.27259142E+03</pdfrwt>
<pdfrwt beam="2">  1       -1 0.80160603E-01 0.27259142E+03</pdfrwt>
<totfact> 0.23720580E+03</totfact>
</mgrwt>
</event>
<event>
 9    1  0.2074770E-002  0.2755027E+03  0.7818608E-02  0.1098171E+00
          1   -1    0    0  501    0  0.00000000000E+00  0.00000000000E+00  0.15742821556E+04  0.15742821556E+04  0.00000000000E+00 0.  1.
         -1   -1    0    0    0  501 -0.00000000000E+00 -0.00000000000E+00 -0.12053391432E+02  0.12053391432E+02  0.00000000000E+00 0.  1.
         36    2    1    2    0    0  0.35527136788E-14 -0.35527136788E-14  0.15622287641E+04  0.15863355470E+04  0.27550273353E+03 0.  0.
         25    2    3    3    0    0 -0.22940511471E+02  0.22966539261E+02  0.96671955418E+03  0.97512060819E+03  0.12353046218E+03 0.  0.
         25    2    3    3    0    0  0.22940511471E+02 -0.22966539261E+02  0.59550920994E+03  0.61121493880E+03  0.13378622235E+03 0.  0.
          5    1    4    4  502    0 -0.33183013866E+02 -0.42834599005E+02  0.59267105720E+03  0.59516131202E+03  0.47000000000E+01 0. -1.
         -5    1    4    4    0  502  0.10242502395E+02  0.65801138266E+02  0.37404849698E+03  0.37995929617E+03  0.47000000000E+01 0. -1.
          5    1    5    5  503    0  0.41323842088E+02 -0.53024765684E+02  0.15182408406E+03  0.16610818223E+03  0.47000000000E+01 0. -1.
         -5    1    5    5    0  503 -0.18383330617E+02  0.30058226423E+02  0.44368512588E+03  0.44510675657E+03  0.47000000000E+01 0. -1.
<mgrwt>
<rscale>  0 0.27550273E+03</rscale>
<asrwt>0</asrwt>
<pdfrwt beam="1">  1        1 0.24219709E+00 0.27550273E+03</pdfrwt>
<pdfrwt beam="2">  1       -1 0.18543692E-02 0.27550273E+03</pdfrwt>
<totfact> 0.48952975E+03</totfact>
</mgrwt>
</event>
<event>
 9    1  0.2074770E-002  0.2707541E+03  0.7818608E-02  0.1100849E+00
          2   -1    0    0  501    0  0.00000000000E+00  0.00000000000E+00  0.30261882641E+03  0.30261882641E+03  0.00000000000E+00 0.  1.
         -2   -1    0    0    0  501 -0.00000000000E+00 -0.00000000000E+00 -0.60561141468E+02  0.60561141468E+02  0.00000000000E+00 0.  1.
         36    2    1    2    0    0  0.71054273576E-14  0.00000000000E+00  0.24205768494E+03  0.36317996787E+03  0.27075406964E+03 0.  0.
         25    2    3    3    0    0 -0.50508227573E+02  0.29804068805E+02  0.12430876592E+03  0.18449143740E+03  0.12306525756E+03 0.  0.
         25    2    3    3    0    0  0.50508227573E+02 -0.29804068805E+02  0.11774891902E+03  0.17868853048E+03  0.12093560032E+03 0.  0.
          5    1    4    4  502    0  0.38549833279E+02  0.21309126997E+02  0.58269292336E+02  0.73195416308E+02  0.47000000000E+01 0. -1.
         -5    1    4    4    0  502 -0.89058060852E+02  0.84949418076E+01  0.66039473582E+02  0.11129602109E+03  0.47000000000E+01 0. -1.
          5    1    5    5  503    0 -0.20264111224E+01 -0.17100445727E+02  0.12290212009E+03  0.12419159677E+03  0.47000000000E+01 0.  1.
         -5    1    5    5    0  503  0.52534638695E+02 -0.12703623078E+02 -0.51532010686E+01  0.54496933706E+02  0.47000000000E+01 0.  1.
<mgrwt>
<rscale>  0 0.27075407E+03</rscale>
<asrwt>0</asrwt>
<pdfrwt beam="1">  1        2 0.46556742E-01 0.27075407E+03</pdfrwt>
<pdfrwt beam="2">  1       -2 0.93170989E-02 0.27075407E+03</pdfrwt>
<totfact> 0.79784873E+03</totfact>
</mgrwt>
</event>
<event>
 9    1  0.2074770E-002  0.2760460E+03  0.7818608E-02  0.1097868E+00
          2   -1    0    0  501    0  0.00000000000E+00  0.00000000000E+00  0.21894525444E+03  0.21894525444E+03  0.00000000000E+00 0.  1.
         -2   -1    0    0    0  501 -0.00000000000E+00 -0.00000000000E+00 -0.87009660187E+02  0.87009660187E+02  0.00000000000E+00 0.  1.
         36    2    1    2    0    0 -0.35527136788E-14 -0.14210854715E-13  0.13193559426E+03  0.30595491463E+03  0.27604602651E+03 0.  0.
         25    2    3    3    0    0 -0.24540359321E+02 -0.35268980245E+02  0.10357161538E+03  0.17125396259E+03  0.12943998605E+03 0.  0.
         25    2    3    3    0    0  0.24540359321E+02  0.35268980245E+02  0.28363978878E+02  0.13470095204E+03  0.12447369593E+03 0.  0.
          5    1    4    4  502    0 -0.17324648504E+02 -0.48345560186E+02 -0.13364583565E+02  0.53274184455E+02  0.47000000000E+01 0. -1.
         -5    1    4    4    0  502 -0.72157108170E+01  0.13076579940E+02  0.11693619894E+03  0.11797977813E+03  0.47000000000E+01 0. -1.
          5    1    5    5  503    0  0.57602078050E+01 -0.29528215782E+02  0.54312841783E+02  0.62266124849E+02  0.47000000000E+01 0. -1.
         -5    1    5    5    0  503  0.18780151516E+02  0.64797196027E+02 -0.25948862905E+02  0.72434827190E+02  0.47000000000E+01 0. -1.
<mgrwt>
<rscale>  0 0.27604603E+03</rscale>
<asrwt>0</asrwt>
<pdfrwt beam="1">  1        2 0.33683885E-01 0.27604603E+03</pdfrwt>
<pdfrwt beam="2">  1       -2 0.13386102E-01 0.27604603E+03</pdfrwt>
<totfact> 0.63305950E+03</totfact>
</mgrwt>
</event>
<event>
 9    1  0.2074770E-002  0.2795473E+03  0.7818608E-02  0.1095936E+00
          1   -1    0    0  501    0  0.00000000000E+00  0.00000000000E+00  0.69615626856E+02  0.69615626856E+02  0.00000000000E+00 0.  1.
         -1   -1    0    0    0  501 -0.00000000000E+00 -0.00000000000E+00 -0.28063622900E+03  0.28063622900E+03  0.00000000000E+00 0.  1.
         36    2    1    2    0    0  0.00000000000E+00  0.71054273576E-14 -0.21102060214E+03  0.35025185586E+03  0.27954725540E+03 0.  0.
         25    2    3    3    0    0  0.72494235704E+01 -0.53230065591E+02 -0.70578576940E+02  0.15480363365E+03  0.12687330469E+03 0.  0.
         25    2    3    3    0    0 -0.72494235704E+01  0.53230065591E+02 -0.14044202520E+03  0.19544822221E+03  0.12486012613E+03 0.  0.
          5    1    4    4  502    0 -0.50705239825E+02  0.97432054920E+01 -0.30870676031E+02  0.60341031128E+02  0.47000000000E+01 0.  1.
         -5    1    4    4    0  502  0.57954663395E+02 -0.62973271083E+02 -0.39707900909E+02  0.94462602519E+02  0.47000000000E+01 0.  1.
          5    1    5    5  503    0 -0.26342685897E+02 -0.20683499199E+02  0.18839347175E+01  0.33873049012E+02  0.47000000000E+01 0.  1.
         -5    1    5    5    0  503  0.19093262326E+02  0.73913564790E+02 -0.14232595992E+03  0.16157517320E+03  0.47000000000E+01 0.  1.
<mgrwt>
<rscale>  0 0.27954726E+03</rscale>
<asrwt>0</asrwt>
<pdfrwt beam="1">  1        1 0.10710096E-01 0.27954726E+03</pdfrwt>
<pdfrwt beam="2">  1       -1 0.43174804E-01 0.27954726E+03</pdfrwt>
<totfact> 0.31350105E+03</totfact>
</mgrwt>
</event>
<event>
 9    1  0.2074770E-002  0.2752790E+03  0.7818608E-02  0.1098296E+00
         -1   -1    0    0    0  501 -0.00000000000E+00  0.00000000000E+00  0.77173156345E+01  0.77173156345E+01  0.00000000000E+00 0.  1.
          1   -1    0    0  501    0  0.00000000000E+00 -0.00000000000E+00 -0.24548207288E+04  0.24548207288E+04  0.00000000000E+00 0.  1.
         36    2    1    2    0    0  0.00000000000E+00 -0.17763568394E-14 -0.24471034131E+04  0.24625380444E+04  0.27527895953E+03 0.  0.
         25    2    3    3    0    0 -0.42886984947E+02  0.15801852465E+02 -0.13512975153E+04  0.13582836133E+04  0.12977059516E+03 0.  0.
         25    2    3    3    0    0  0.42886984947E+02 -0.15801852465E+02 -0.10958058979E+04  0.11042544311E+04  0.12844567255E+03 0.  0.
          5    1    4    4  502    0  0.35703026681E+02  0.20520186533E+02 -0.83189460160E+03  0.83292646874E+03  0.47000000000E+01 0.  1.
         -5    1    4    4    0  502 -0.78590011628E+02 -0.47183340685E+01 -0.51940291368E+03  0.52535714456E+03  0.47000000000E+01 0.  1.
          5    1    5    5  503    0  0.41026478146E+02 -0.13070171206E+02 -0.10703449999E+03  0.11546633913E+03  0.47000000000E+01 0.  1.
         -5    1    5    5    0  503  0.18605068011E+01 -0.27316812591E+01 -0.98877139787E+03  0.98878809197E+03  0.47000000000E+01 0.  1.
<mgrwt>
<rscale>  0 0.27527896E+03</rscale>
<asrwt>0</asrwt>
<pdfrwt beam="1">  1        1 0.37766381E+00 0.27527896E+03</pdfrwt>
<pdfrwt beam="2">  1       -1 0.11872822E-02 0.27527896E+03</pdfrwt>
<totfact> 0.24918288E+03</totfact>
</mgrwt>
</event>
<event>
 9    1  0.2074770E-002  0.2752372E+03  0.7818608E-02  0.1098319E+00
         -1   -1    0    0    0  501 -0.00000000000E+00  0.00000000000E+00  0.44088348035E+02  0.44088348035E+02  0.00000000000E+00 0. -1.
          1   -1    0    0  501    0  0.00000000000E+00 -0.00000000000E+00 -0.42956664189E+03  0.42956664189E+03  0.00000000000E+00 0. -1.
         36    2    1    2    0    0  0.71054273576E-14  0.00000000000E+00 -0.38547829386E+03  0.47365498993E+03  0.27523723303E+03 0.  0.
         25    2    3    3    0    0 -0.26177913042E+02  0.49126583973E+02 -0.21043291223E+03  0.25115820902E+03  0.12529856754E+03 0.  0.
         25    2    3    3    0    0  0.26177913042E+02 -0.49126583973E+02 -0.17504538163E+03  0.22249678090E+03  0.12555965713E+03 0.  0.
          5    1    4    4  502    0  0.44202999223E+02 -0.60650570478E+01 -0.48228154839E+02  0.65869074507E+02  0.47000000000E+01 0.  1.
         -5    1    4    4    0  502 -0.70380912265E+02  0.55191641021E+02 -0.16220475739E+03  0.18528913452E+03  0.47000000000E+01 0.  1.
          5    1    5    5  503    0 -0.48870206851E+02 -0.12077472134E+02 -0.44493326028E+02  0.67349153757E+02  0.47000000000E+01 0.  1.
         -5    1    5    5    0  503  0.75048119893E+02 -0.37049111839E+02 -0.13055205560E+03  0.15514762715E+03  0.47000000000E+01 0.  1.
<mgrwt>
<rscale>  0 0.27523723E+03</rscale>
<asrwt>0</asrwt>
<pdfrwt beam="1">  1        1 0.66087178E-01 0.27523723E+03</pdfrwt>
<pdfrwt beam="2">  1       -1 0.67828225E-02 0.27523723E+03</pdfrwt>
<totfact> 0.60883764E+03</totfact>
</mgrwt>
</event>
<event>
 9    1  0.2074770E-002  0.2740112E+03  0.7818608E-02  0.1099006E+00
         -1   -1    0    0    0  501 -0.00000000000E+00  0.00000000000E+00  0.76492859318E+02  0.76492859318E+02  0.00000000000E+00 0.  1.
          1   -1    0    0  501    0  0.00000000000E+00 -0.00000000000E+00 -0.24538933779E+03  0.24538933779E+03  0.00000000000E+00 0.  1.
         36    2    1    2    0    0  0.00000000000E+00 -0.35527136788E-14 -0.16889647848E+03  0.32188219711E+03  0.27401118294E+03 0.  0.
         25    2    3    3    0    0 -0.46079428531E+01  0.16156667455E+02 -0.31552412896E+02  0.12984239605E+03  0.12482476521E+03 0.  0.
         25    2    3    3    0    0  0.46079428531E+01 -0.16156667455E+02 -0.13734406558E+03  0.19203980107E+03  0.13316764548E+03 0.  0.
          5    1    4    4  502    0  0.41320450862E+02  0.50420775056E+02 -0.31019980622E+02  0.72346136141E+02  0.47000000000E+01 0.  1.
         -5    1    4    4    0  502 -0.45928393715E+02 -0.34264107601E+02 -0.53243227482E+00  0.57496259905E+02  0.47000000000E+01 0.  1.
          5    1    5    5  503    0 -0.50049788304E+02  0.55528569859E+01 -0.98076388879E+01  0.51517912522E+02  0.47000000000E+01 0. -1.
         -5    1    5    5    0  503  0.54657731158E+02 -0.21709524441E+02 -0.12753642669E+03  0.14052188854E+03  0.47000000000E+01 0. -1.
<mgrwt>
<rscale>  0 0.27401118E+03</rscale>
<asrwt>0</asrwt>
<pdfrwt beam="1">  1        1 0.37752206E-01 0.27401118E+03</pdfrwt>
<pdfrwt beam="2">  1       -1 0.11768132E-01 0.27401118E+03</pdfrwt>
<totfact> 0.53039978E+03</totfact>
</mgrwt>
</event>
<event>
 9    1  0.2074770E-002  0.2744975E+03  0.7818608E-02  0.1098733E+00
         -1   -1    0    0    0  501 -0.00000000000E+00  0.00000000000E+00  0.72322185510E+01  0.72322185510E+01  0.00000000000E+00 0.  1.
          1   -1    0    0  501    0  0.00000000000E+00 -0.00000000000E+00 -0.26046255511E+04  0.26046255511E+04  0.00000000000E+00 0.  1.
         36    2    1    2    0    0  0.00000000000E+00  0.00000000000E+00 -0.25973933326E+04  0.26118577697E+04  0.27449751350E+03 0.  0.
         25    2    3    3    0    0  0.44446011881E+02  0.43435714898E+02 -0.12383758443E+04  0.12461941943E+04  0.12475226993E+03 0.  0.
         25    2    3    3    0    0 -0.44446011881E+02 -0.43435714898E+02 -0.13590174882E+04  0.13656635753E+04  0.11935810983E+03 0.  0.
          5    1    4    4  502    0  0.45632267370E+02  0.16322233307E+02 -0.11861621031E+04  0.11871610438E+04  0.47000000000E+01 0. -1.
         -5    1    4    4    0  502 -0.11862554889E+01  0.27113481591E+02 -0.52213741247E+02  0.59033150527E+02  0.47000000000E+01 0. -1.
          5    1    5    5  503    0 -0.42192692391E+02  0.73043126934E-01 -0.15107822531E+03  0.15692975750E+03  0.47000000000E+01 0.  1.
         -5    1    5    5    0  503 -0.22533194895E+01 -0.43508758025E+02 -0.12079392629E+04  0.12087338178E+04  0.47000000000E+01 0.  1.
<mgrwt>
<rscale>  0 0.27449751E+03</rscale>
<asrwt>0</asrwt>
<pdfrwt beam="1">  1        1 0.40071205E+00 0.27449751E+03</pdfrwt>
<pdfrwt beam="2">  1       -1 0.11126478E-02 0.27449751E+03</pdfrwt>
<totfact> 0.21753718E+03</totfact>
</mgrwt>
</event>
<event>
 9    1  0.2074770E-002  0.2745966E+03  0.7818608E-02  0.1098677E+00
         -2   -1    0    0    0  501 -0.00000000000E+00  0.00000000000E+00  0.20178663291E+03  0.20178663291E+03  0.00000000000E+00 0. -1.
          2   -1    0    0  501    0  0.00000000000E+00 -0.00000000000E+00 -0.93419572575E+02  0.93419572575E+02  0.00000000000E+00 0. -1.
         36    2    1    2    0    0 -0.35527136788E-14  0.00000000000E+00  0.10836706033E+03  0.29520620548E+03  0.27459658408E+03 0.  0.
         25    2    3    3    0    0  0.97985479360E+01 -0.34802116205E+02  0.53807372226E+01  0.13092539272E+03  0.12571916040E+03 0.  0.
         25    2    3    3    0    0 -0.97985479360E+01  0.34802116205E+02  0.10298632311E+03  0.16428081276E+03  0.12277949283E+03 0.  0.
          5    1    4    4  502    0 -0.29687913679E+02 -0.55473097147E+01 -0.48828370687E+02  0.57605942816E+02  0.47000000000E+01 0.  1.
         -5    1    4    4    0  502  0.39486461615E+02 -0.29254806491E+02  0.54209107910E+02  0.73319449903E+02  0.47000000000E+01 0.  1.
          5    1    5    5  503    0 -0.15182798448E+02  0.78797938703E+02  0.82630128064E+02  0.11527992269E+03  0.47000000000E+01 0. -1.
         -5    1    5    5    0  503  0.53842505123E+01 -0.43995822497E+02  0.20356195044E+02  0.49000890068E+02  0.47000000000E+01 0. -1.
<mgrwt>
<rscale>  0 0.27459658E+03</rscale>
<asrwt>0</asrwt>
<pdfrwt beam="1">  1        2 0.14372242E-01 0.27459658E+03</pdfrwt>
<pdfrwt beam="2">  1       -2 0.31044097E-01 0.27459658E+03</pdfrwt>
<totfact> 0.39179580E+03</totfact>
</mgrwt>
</event>
<event>
 9    1  0.2074770E-002  0.2744319E+03  0.7818608E-02  0.1098770E+00
         -3   -1    0    0    0  501 -0.00000000000E+00  0.00000000000E+00  0.78163944734E+02  0.78163944734E+02  0.00000000000E+00 0. -1.
          3   -1    0    0  501    0  0.00000000000E+00 -0.00000000000E+00 -0.24088106704E+03  0.24088106704E+03  0.00000000000E+00 0. -1.
         36    2    1    2    0    0  0.00000000000E+00  0.00000000000E+00 -0.16271712231E+03  0.31904501178E+03  0.27443188162E+03 0.  0.
         25    2    3    3    0    0 -0.23605019097E+02 -0.18503522748E+01 -0.25805937995E+02  0.12927814247E+03  0.12444384659E+03 0.  0.
         25    2    3    3    0    0  0.23605019097E+02  0.18503522748E+01 -0.13691118431E+03  0.18976686931E+03  0.12925235614E+03 0.  0.
          5    1    4    4  502    0 -0.53588939289E+00  0.57875016975E+02 -0.29187998124E+02  0.64991030164E+02  0.47000000000E+01 0.  1.
         -5    1    4    4    0  502 -0.23069129704E+02 -0.59725369250E+02  0.33820601287E+01  0.64287112302E+02  0.47000000000E+01 0.  1.
          5    1    5    5  503    0 -0.14202441749E+02 -0.58285832539E+02 -0.60409034435E+02  0.85265990100E+02  0.47000000000E+01 0. -1.
         -5    1    5    5    0  503  0.37807460846E+02  0.60136184814E+02 -0.76502149879E+02  0.10450087921E+03  0.47000000000E+01 0. -1.
<mgrwt>
<rscale>  0 0.27443188E+03</rscale>
<asrwt>0</asrwt>
<pdfrwt beam="1">  1        3 0.37058626E-01 0.27443188E+03</pdfrwt>
<pdfrwt beam="2">  1       -3 0.12025222E-01 0.27443188E+03</pdfrwt>
<totfact> 0.99093000E+02</totfact>
</mgrwt>
</event>
<event>
 9    1  0.2074770E-002  0.2810577E+03  0.7818608E-02  0.1095113E+00
         -1   -1    0    0    0  501 -0.00000000000E+00  0.00000000000E+00  0.97795230752E+01  0.97795230752E+01  0.00000000000E+00 0.  1.
          1   -1    0    0  501    0  0.00000000000E+00 -0.00000000000E+00 -0.20193584833E+04  0.20193584833E+04  0.00000000000E+00 0.  1.
         36    2    1    2    0    0  0.00000000000E+00  0.35527136788E-14 -0.20095789602E+04  0.20291380064E+04  0.28105773702E+03 0.  0.
         25    2    3    3    0    0  0.48068851450E+02  0.21421901141E+02 -0.12133322381E+04  0.12208957177E+04  0.12506686670E+03 0.  0.
         25    2    3    3    0    0 -0.48068851450E+02 -0.21421901141E+02 -0.79624672215E+03  0.80824228870E+03  0.12836371133E+03 0.  0.
          5    1    4    4  502    0  0.30524044948E+02 -0.38271563718E+00 -0.11606105665E+04  0.11610214644E+04  0.47000000000E+01 0. -1.
         -5    1    4    4    0  502  0.17544806501E+02  0.21804616779E+02 -0.52721671596E+02  0.59874253264E+02  0.47000000000E+01 0. -1.
          5    1    5    5  503    0  0.18422196879E+01  0.37298598732E+02 -0.86835036622E+02  0.94641390659E+02  0.47000000000E+01 0. -1.
         -5    1    5    5    0  503 -0.49911071137E+02 -0.58720499873E+02 -0.70941168552E+03  0.71360089804E+03  0.47000000000E+01 0. -1.
<mgrwt>
<rscale>  0 0.28105774E+03</rscale>
<asrwt>0</asrwt>
<pdfrwt beam="1">  1        1 0.31067063E+00 0.28105774E+03</pdfrwt>
<pdfrwt beam="2">  1       -1 0.15045415E-02 0.28105774E+03</pdfrwt>
<totfact> 0.34054513E+03</totfact>
</mgrwt>
</event>
<event>
 9    1  0.2074770E-002  0.2867798E+03  0.7818608E-02  0.1092043E+00
          2   -1    0    0  501    0  0.00000000000E+00  0.00000000000E+00  0.63337807468E+03  0.63337807468E+03  0.00000000000E+00 0.  1.
         -2   -1    0    0    0  501 -0.00000000000E+00 -0.00000000000E+00 -0.32461914256E+02  0.32461914256E+02  0.00000000000E+00 0.  1.
         36    2    1    2    0    0 -0.71054273576E-14 -0.71054273576E-14  0.60091616043E+03  0.66583998894E+03  0.28677980927E+03 0.  0.
         25    2    3    3    0    0 -0.43137425672E+02 -0.38060567135E+02  0.22577135290E+03  0.26651489316E+03  0.12941421954E+03 0.  0.
         25    2    3    3    0    0  0.43137425672E+02  0.38060567135E+02  0.37514480752E+03  0.39932509578E+03  0.12416706988E+03 0.  0.
          5    1    4    4  502    0 -0.60815848335E+02 -0.17220903257E+02  0.22990281936E+03  0.23847960765E+03  0.47000000000E+01 0. -1.
         -5    1    4    4    0  502  0.17678422663E+02 -0.20839663878E+02 -0.41314664535E+01  0.28035285507E+02  0.47000000000E+01 0. -1.
          5    1    5    5  503    0 -0.25493897100E+02  0.11780321348E+02  0.15905954971E+02  0.32616010853E+02  0.47000000000E+01 0.  1.
         -5    1    5    5    0  503  0.68631322772E+02  0.26280245787E+02  0.35923885255E+03  0.36670908493E+03  0.47000000000E+01 0.  1.
<mgrwt>
<rscale>  0 0.28677981E+03</rscale>
<asrwt>0</asrwt>
<pdfrwt beam="1">  1        2 0.97442772E-01 0.28677981E+03</pdfrwt>
<pdfrwt beam="2">  1       -2 0.49941411E-02 0.28677981E+03</pdfrwt>
<totfact> 0.92608129E+03</totfact>
</mgrwt>
</event>
<event>
 9    1  0.2074770E-002  0.2743683E+03  0.7818608E-02  0.1098805E+00
          1   -1    0    0  501    0  0.00000000000E+00  0.00000000000E+00  0.78615428250E+03  0.78615428250E+03  0.00000000000E+00 0.  1.
         -1   -1    0    0    0  501 -0.00000000000E+00 -0.00000000000E+00 -0.23938669027E+02  0.23938669027E+02  0.00000000000E+00 0.  1.
         36    2    1    2    0    0  0.53290705182E-14  0.00000000000E+00  0.76221561347E+03  0.81009295153E+03  0.27436827202E+03 0.  0.
         25    2    3    3    0    0 -0.64758039786E+01  0.55283050962E+01  0.53111978317E+03  0.54586151915E+03  0.12571426260E+03 0.  0.
         25    2    3    3    0    0  0.64758039786E+01 -0.55283050962E+01  0.23109583031E+03  0.26423143238E+03  0.12782984346E+03 0.  0.
          5    1    4    4  502    0  0.92837902958E+01 -0.20654208744E+02  0.12439579617E+02  0.26260583431E+02  0.47000000000E+01 0. -1.
         -5    1    4    4    0  502 -0.15759594274E+02  0.26182513840E+02  0.51868020355E+03  0.51960093572E+03  0.47000000000E+01 0. -1.
          5    1    5    5  503    0  0.65419627279E+02 -0.16846164471E+02  0.11510223126E+03  0.13354450394E+03  0.47000000000E+01 0. -1.
         -5    1    5    5    0  503 -0.58943823301E+02  0.11317859375E+02  0.11599359905E+03  0.13068692844E+03  0.47000000000E+01 0. -1.
<mgrwt>
<rscale>  0 0.27436827E+03</rscale>
<asrwt>0</asrwt>
<pdfrwt beam="1">  1        1 0.12094679E+00 0.27436827E+03</pdfrwt>
<pdfrwt beam="2">  1       -1 0.36828728E-02 0.27436827E+03</pdfrwt>
<totfact> 0.65709732E+03</totfact>
</mgrwt>
</event>
<event>
 9    1  0.2074770E-002  0.2757057E+03  0.7818608E-02  0.1098058E+00
         -3   -1    0    0    0  501 -0.00000000000E+00  0.00000000000E+00  0.10786305263E+02  0.10786305263E+02  0.00000000000E+00 0. -1.
          3   -1    0    0  501    0  0.00000000000E+00 -0.00000000000E+00 -0.17618089841E+04  0.17618089841E+04  0.00000000000E+00 0. -1.
         36    2    1    2    0    0 -0.88817841970E-15  0.71054273576E-14 -0.17510226789E+04  0.17725952894E+04  0.27570570918E+03 0.  0.
         25    2    3    3    0    0  0.67980921189E+01  0.58371550275E+02 -0.84316804702E+03  0.85437643557E+03  0.12479297336E+03 0.  0.
         25    2    3    3    0    0 -0.67980921189E+01 -0.58371550275E+02 -0.90785463183E+03  0.91821885381E+03  0.12438801798E+03 0.  0.
          5    1    4    4  502    0  0.31569788691E+02  0.59643817664E+02 -0.80936204617E+03  0.81218412218E+03  0.47000000000E+01 0. -1.
         -5    1    4    4    0  502 -0.24771696572E+02 -0.12722673885E+01 -0.33806000851E+02  0.42192313387E+02  0.47000000000E+01 0. -1.
          5    1    5    5  503    0  0.47318031296E+01 -0.94742772291E+02 -0.53280117435E+03  0.54120029956E+03  0.47000000000E+01 0.  1.
         -5    1    5    5    0  503 -0.11529895248E+02  0.36371222016E+02 -0.37505345749E+03  0.37701855425E+03  0.47000000000E+01 0.  1.
<mgrwt>
<rscale>  0 0.27570571E+03</rscale>
<asrwt>0</asrwt>
<pdfrwt beam="1">  1        3 0.27104767E+00 0.27570571E+03</pdfrwt>
<pdfrwt beam="2">  1       -3 0.16594308E-02 0.27570571E+03</pdfrwt>
<totfact> 0.20409429E+02</totfact>
</mgrwt>
</event>
<event>
 9    1  0.2074770E-002  0.2744611E+03  0.7818608E-02  0.1098753E+00
          1   -1    0    0  501    0  0.00000000000E+00  0.00000000000E+00  0.17755895570E+04  0.17755895570E+04  0.00000000000E+00 0.  1.
         -1   -1    0    0    0  501 -0.00000000000E+00 -0.00000000000E+00 -0.10606183181E+02  0.10606183181E+02  0.00000000000E+00 0.  1.
         36    2    1    2    0    0  0.00000000000E+00  0.14210854715E-13  0.17649833738E+04  0.17861957402E+04  0.27446113091E+03 0.  0.
         25    2    3    3    0    0  0.13082052317E+02  0.46322338504E+02  0.10847442814E+04  0.10925624407E+04  0.12126677944E+03 0.  0.
         25    2    3    3    0    0 -0.13082052317E+02 -0.46322338504E+02  0.68023909248E+03  0.69363329948E+03  0.12682677979E+03 0.  0.
          5    1    4    4  502    0  0.20941149886E+02  0.74650502681E+02  0.41811552222E+03  0.42526921970E+03  0.47000000000E+01 0.  1.
         -5    1    4    4    0  502 -0.78590975687E+01 -0.28328164177E+02  0.66662875915E+03  0.66729322102E+03  0.47000000000E+01 0.  1.
          5    1    5    5  503    0  0.13964409834E+02  0.13477945908E+01  0.42282139942E+01  0.15387952621E+02  0.47000000000E+01 0.  1.
         -5    1    5    5    0  503 -0.27046462151E+02 -0.47670133095E+02  0.67601087848E+03  0.67824534686E+03  0.47000000000E+01 0.  1.
<mgrwt>
<rscale>  0 0.27446113E+03</rscale>
<asrwt>0</asrwt>
<pdfrwt beam="1">  1        1 0.27316739E+00 0.27446113E+03</pdfrwt>
<pdfrwt beam="2">  1       -1 0.16317219E-02 0.27446113E+03</pdfrwt>
<totfact> 0.43572431E+03</totfact>
</mgrwt>
</event>
<event>
 9    1  0.2074770E-002  0.2752344E+03  0.7818608E-02  0.1098321E+00
         -1   -1    0    0    0  501 -0.00000000000E+00  0.00000000000E+00  0.14925019967E+03  0.14925019967E+03  0.00000000000E+00 0.  1.
          1   -1    0    0  501    0  0.00000000000E+00 -0.00000000000E+00 -0.12689092573E+03  0.12689092573E+03  0.00000000000E+00 0.  1.
         36    2    1    2    0    0  0.00000000000E+00  0.71054273576E-14  0.22359273949E+02  0.27614112540E+03  0.27523441646E+03 0.  0.
         25    2    3    3    0    0  0.14924576433E+02 -0.27873817206E+02  0.60565260472E+02  0.14098596930E+03  0.12332558574E+03 0.  0.
         25    2    3    3    0    0 -0.14924576433E+02  0.27873817206E+02 -0.38205986523E+02  0.13515515610E+03  0.12572798474E+03 0.  0.
          5    1    4    4  502    0 -0.10608701529E+02 -0.72743253940E+02  0.23723925802E+02  0.77388889367E+02  0.47000000000E+01 0. -1.
         -5    1    4    4    0  502  0.25533277962E+02  0.44869436734E+02  0.36841334670E+02  0.63597079938E+02  0.47000000000E+01 0. -1.
          5    1    5    5  503    0  0.14781580602E+01 -0.28266018441E+02  0.32447871045E+02  0.43314051820E+02  0.47000000000E+01 0. -1.
         -5    1    5    5    0  503 -0.16402734493E+02  0.56139835647E+02 -0.70653857568E+02  0.91841104275E+02  0.47000000000E+01 0. -1.
<mgrwt>
<rscale>  0 0.27523442E+03</rscale>
<asrwt>0</asrwt>
<pdfrwt beam="1">  1        1 0.19521681E-01 0.27523442E+03</pdfrwt>
<pdfrwt beam="2">  1       -1 0.22961569E-01 0.27523442E+03</pdfrwt>
<totfact> 0.42044491E+03</totfact>
</mgrwt>
</event>
<event>
 9    1  0.2074770E-002  0.2749472E+03  0.7818608E-02  0.1098481E+00
          1   -1    0    0  501    0  0.00000000000E+00  0.00000000000E+00  0.19008259588E+04  0.19008259588E+04  0.00000000000E+00 0. -1.
         -1   -1    0    0    0  501 -0.00000000000E+00 -0.00000000000E+00 -0.99425141297E+01  0.99425141297E+01  0.00000000000E+00 0. -1.
         36    2    1    2    0    0  0.00000000000E+00  0.14210854715E-13  0.18908834447E+04  0.19107684730E+04  0.27494718732E+03 0.  0.
         25    2    3    3    0    0  0.33895614041E+02 -0.44289256074E+02  0.10441469933E+04  0.10531045765E+04  0.12520325360E+03 0.  0.
         25    2    3    3    0    0 -0.33895614041E+02  0.44289256074E+02  0.84673645144E+03  0.85766389643E+03  0.12455637355E+03 0.  0.
          5    1    4    4  502    0  0.19487168379E+02 -0.44421998368E+02  0.13004785166E+03  0.13887979476E+03  0.47000000000E+01 0. -1.
         -5    1    4    4    0  502  0.14408445661E+02  0.13274229419E+00  0.91409914161E+03  0.91422478178E+03  0.47000000000E+01 0. -1.
          5    1    5    5  503    0 -0.53636717691E+02  0.70997098950E+02  0.75005434188E+03  0.75532846585E+03  0.47000000000E+01 0. -1.
         -5    1    5    5    0  503  0.19741103650E+02 -0.26707842876E+02  0.96682109553E+02  0.10233543058E+03  0.47000000000E+01 0. -1.
<mgrwt>
<rscale>  0 0.27494719E+03</rscale>
<asrwt>0</asrwt>
<pdfrwt beam="1">  1        1 0.29243447E+00 0.27494719E+03</pdfrwt>
<pdfrwt beam="2">  1       -1 0.15296191E-02 0.27494719E+03</pdfrwt>
<totfact> 0.39694821E+03</totfact>
</mgrwt>
</event>
<event>
 9    1  0.2074770E-002  0.2751846E+03  0.7818608E-02  0.1098348E+00
          3   -1    0    0  501    0  0.00000000000E+00  0.00000000000E+00  0.48036266286E+02  0.48036266286E+02  0.00000000000E+00 0.  1.
         -3   -1    0    0    0  501 -0.00000000000E+00 -0.00000000000E+00 -0.39411140881E+03  0.39411140881E+03  0.00000000000E+00 0.  1.
         36    2    1    2    0    0  0.00000000000E+00  0.00000000000E+00 -0.34607514252E+03  0.44214767509E+03  0.27518459680E+03 0.  0.
         25    2    3    3    0    0  0.32909411872E+02  0.35184293885E+02 -0.12956189410E+03  0.18634390232E+03  0.12496720211E+03 0.  0.
         25    2    3    3    0    0 -0.32909411872E+02 -0.35184293885E+02 -0.21651324842E+03  0.25580377277E+03  0.12742299438E+03 0.  0.
          5    1    4    4  502    0  0.20199317837E+02  0.72699527500E+02 -0.12515173216E+03  0.14621313143E+03  0.47000000000E+01 0. -1.
         -5    1    4    4    0  502  0.12710094035E+02 -0.37515233615E+02 -0.44101619356E+01  0.40130770886E+02  0.47000000000E+01 0. -1.
          5    1    5    5  503    0 -0.65305427413E+02  0.83683585825E+01 -0.17581728914E+03  0.18779946069E+03  0.47000000000E+01 0. -1.
         -5    1    5    5    0  503  0.32396015541E+02 -0.43552652468E+02 -0.40695959277E+02  0.68004312079E+02  0.47000000000E+01 0. -1.
<mgrwt>
<rscale>  0 0.27518460E+03</rscale>
<asrwt>0</asrwt>
<pdfrwt beam="1">  1        3 0.73901951E-02 0.27518460E+03</pdfrwt>
<pdfrwt beam="2">  1       -3 0.60632522E-01 0.27518460E+03</pdfrwt>
<totfact> 0.83125134E+02</totfact>
</mgrwt>
</event>
<event>
 9    1  0.2074770E-002  0.2747699E+03  0.7818608E-02  0.1098580E+00
          1   -1    0    0  501    0  0.00000000000E+00  0.00000000000E+00  0.16631132376E+04  0.16631132376E+04  0.00000000000E+00 0. -1.
         -1   -1    0    0    0  501 -0.00000000000E+00 -0.00000000000E+00 -0.11348972150E+02  0.11348972150E+02  0.00000000000E+00 0. -1.
         36    2    1    2    0    0  0.71054273576E-14  0.00000000000E+00  0.16517642655E+04  0.16744622098E+04  0.27476990968E+03 0.  0.
         25    2    3    3    0    0  0.53658846347E+02 -0.21326035379E+02  0.74419074307E+03  0.75618150226E+03  0.12106415953E+03 0.  0.
         25    2    3    3    0    0 -0.53658846347E+02  0.21326035379E+02  0.90757352240E+03  0.91828070750E+03  0.12734083256E+03 0.  0.
          5    1    4    4  502    0 -0.14484020297E+02 -0.38632680146E+01  0.10019860022E+02  0.18633284160E+02  0.47000000000E+01 0.  1.
         -5    1    4    4    0  502  0.68142866643E+02 -0.17462767364E+02  0.73417088304E+03  0.73754821810E+03  0.47000000000E+01 0.  1.
          5    1    5    5  503    0 -0.24947918626E+02 -0.50111497513E+02  0.25201900138E+03  0.25820384947E+03  0.47000000000E+01 0. -1.
         -5    1    5    5    0  503 -0.28710927721E+02  0.71437532892E+02  0.65555452102E+03  0.66007685803E+03  0.47000000000E+01 0. -1.
<mgrwt>
<rscale>  0 0.27476991E+03</rscale>
<asrwt>0</asrwt>
<pdfrwt beam="1">  1        1 0.25586338E+00 0.27476991E+03</pdfrwt>
<pdfrwt beam="2">  1       -1 0.17459970E-02 0.27476991E+03</pdfrwt>
<totfact> 0.46739548E+03</totfact>
</mgrwt>
</event>
<event>
 9    1  0.2074770E-002  0.2736604E+03  0.7818608E-02  0.1099203E+00
         -2   -1    0    0    0  501 -0.00000000000E+00  0.00000000000E+00  0.32049855907E+02  0.32049855907E+02  0.00000000000E+00 0. -1.
          2   -1    0    0  501    0  0.00000000000E+00 -0.00000000000E+00 -0.58416830306E+03  0.58416830306E+03  0.00000000000E+00 0. -1.
         36    2    1    2    0    0 -0.71054273576E-14  0.88817841970E-14 -0.55211844715E+03  0.61621815896E+03  0.27366044609E+03 0.  0.
         25    2    3    3    0    0  0.44278990865E+02 -0.11677909807E+02 -0.34399042865E+03  0.36920603639E+03  0.12604237261E+03 0.  0.
         25    2    3    3    0    0 -0.44278990865E+02  0.11677909807E+02 -0.20812801849E+03  0.24701212257E+03  0.12490281824E+03 0.  0.
          5    1    4    4  502    0 -0.17527692683E+02  0.39565302865E+01 -0.27317116623E+03  0.27380184477E+03  0.47000000000E+01 0.  1.
         -5    1    4    4    0  502  0.61806683548E+02 -0.15634440094E+02 -0.70819262430E+02  0.95404191624E+02  0.47000000000E+01 0.  1.
          5    1    5    5  503    0  0.63889789804E+01 -0.50601636470E+02 -0.98823392734E+02  0.11130812018E+03  0.47000000000E+01 0.  1.
         -5    1    5    5    0  503 -0.50667969845E+02  0.62279546278E+02 -0.10930462576E+03  0.13570400239E+03  0.47000000000E+01 0.  1.
<mgrwt>
<rscale>  0 0.27366045E+03</rscale>
<asrwt>0</asrwt>
<pdfrwt beam="1">  1        2 0.89872041E-01 0.27366045E+03</pdfrwt>
<pdfrwt beam="2">  1       -2 0.49307474E-02 0.27366045E+03</pdfrwt>
<totfact> 0.10359410E+04</totfact>
</mgrwt>
</event>
<event>
 9    1  0.2074770E-002  0.2765974E+03  0.7818608E-02  0.1097562E+00
          2   -1    0    0  501    0  0.00000000000E+00  0.00000000000E+00  0.11095759325E+04  0.11095759325E+04  0.00000000000E+00 0. -1.
         -2   -1    0    0    0  501 -0.00000000000E+00 -0.00000000000E+00 -0.17237698725E+02  0.17237698725E+02  0.00000000000E+00 0. -1.
         36    2    1    2    0    0  0.71054273576E-14 -0.35527136788E-14  0.10923382337E+04  0.11268136312E+04  0.27659743771E+03 0.  0.
         25    2    3    3    0    0  0.19189825005E+02  0.57282962740E+01  0.73003058359E+03  0.74060193792E+03  0.12306711467E+03 0.  0.
         25    2    3    3    0    0 -0.19189825005E+02 -0.57282962740E+01  0.36230765016E+03  0.38621169328E+03  0.13225572161E+03 0.  0.
          5    1    4    4  502    0 -0.22648196844E+02  0.15860325748E+02  0.64085525273E+03  0.64146865528E+03  0.47000000000E+01 0. -1.
         -5    1    4    4    0  502  0.41838021849E+02 -0.10132029474E+02  0.89175330860E+02  0.99133282642E+02  0.47000000000E+01 0. -1.
          5    1    5    5  503    0 -0.44101521253E+02  0.42955311006E+02  0.28367529277E+03  0.29031683493E+03  0.47000000000E+01 0. -1.
         -5    1    5    5    0  503  0.24911696248E+02 -0.48683607280E+02  0.78632357393E+02  0.95894858344E+02  0.47000000000E+01 0. -1.
<mgrwt>
<rscale>  0 0.27659744E+03</rscale>
<asrwt>0</asrwt>
<pdfrwt beam="1">  1        2 0.17070393E+00 0.27659744E+03</pdfrwt>
<pdfrwt beam="2">  1       -2 0.26519545E-02 0.27659744E+03</pdfrwt>
<totfact> 0.11460827E+04</totfact>
</mgrwt>
</event>
<event>
 9    1  0.2074770E-002  0.2762972E+03  0.7818608E-02  0.1097729E+00
          1   -1    0    0  501    0  0.00000000000E+00  0.00000000000E+00  0.50120073651E+02  0.50120073651E+02  0.00000000000E+00 0. -1.
         -1   -1    0    0    0  501 -0.00000000000E+00 -0.00000000000E+00 -0.38078616381E+03  0.38078616381E+03  0.00000000000E+00 0. -1.
         36    2    1    2    0    0  0.00000000000E+00  0.35527136788E-14 -0.33066609015E+03  0.43090623746E+03  0.27629716304E+03 0.  0.
         25    2    3    3    0    0 -0.49656609838E+02 -0.19581361005E+02 -0.21831900571E+03  0.25693468011E+03  0.12451117616E+03 0.  0.
         25    2    3    3    0    0  0.49656609838E+02  0.19581361005E+02 -0.11234708444E+03  0.17397155735E+03  0.12163480909E+03 0.  0.
          5    1    4    4  502    0 -0.21999080708E+02 -0.72212701369E+02 -0.12884756868E+03  0.14940689323E+03  0.47000000000E+01 0.  1.
         -5    1    4    4    0  502 -0.27657529130E+02  0.52631340363E+02 -0.89471437037E+02  0.10752778688E+03  0.47000000000E+01 0.  1.
          5    1    5    5  503    0 -0.35452213982E+02  0.19511037270E+02 -0.64314022594E+02  0.76130963174E+02  0.47000000000E+01 0.  1.
         -5    1    5    5    0  503  0.85108823820E+02  0.70323735176E-01 -0.48033061847E+02  0.97840594172E+02  0.47000000000E+01 0.  1.
<mgrwt>
<rscale>  0 0.27629716E+03</rscale>
<asrwt>0</asrwt>
<pdfrwt beam="1">  1        1 0.77107807E-02 0.27629716E+03</pdfrwt>
<pdfrwt beam="2">  1       -1 0.58582486E-01 0.27629716E+03</pdfrwt>
<totfact> 0.27752605E+03</totfact>
</mgrwt>
</event>
<event>
 9    1  0.2074770E-002  0.2749791E+03  0.7818608E-02  0.1098463E+00
          2   -1    0    0  501    0  0.00000000000E+00  0.00000000000E+00  0.45765430763E+03  0.45765430763E+03  0.00000000000E+00 0. -1.
         -2   -1    0    0    0  501 -0.00000000000E+00 -0.00000000000E+00 -0.41304921331E+02  0.41304921331E+02  0.00000000000E+00 0. -1.
         36    2    1    2    0    0  0.71054273576E-14  0.00000000000E+00  0.41634938630E+03  0.49895922896E+03  0.27497909137E+03 0.  0.
         25    2    3    3    0    0 -0.16384335386E+02 -0.16092978144E+02  0.88032751390E+02  0.14778641466E+03  0.11646299262E+03 0.  0.
         25    2    3    3    0    0  0.16384335386E+02  0.16092978144E+02  0.32831663491E+03  0.35117281430E+03  0.12248715179E+03 0.  0.
          5    1    4    4  502    0 -0.21589070849E+02  0.39778908503E+01  0.11287646256E+03  0.11508734681E+03  0.47000000000E+01 0. -1.
         -5    1    4    4    0  502  0.52047354630E+01 -0.20070868994E+02 -0.24843711172E+02  0.32699067850E+02  0.47000000000E+01 0. -1.
          5    1    5    5  503    0 -0.48196049132E+02  0.12371865604E+02  0.21380720016E+03  0.21957124368E+03  0.47000000000E+01 0. -1.
         -5    1    5    5    0  503  0.64580384518E+02  0.37211125396E+01  0.11450943475E+03  0.13160157062E+03  0.47000000000E+01 0. -1.
<mgrwt>
<rscale>  0 0.27497909E+03</rscale>
<asrwt>0</asrwt>
<pdfrwt beam="1">  1        2 0.70408352E-01 0.27497909E+03</pdfrwt>
<pdfrwt beam="2">  1       -2 0.63546036E-02 0.27497909E+03</pdfrwt>
<totfact> 0.92556958E+03</totfact>
</mgrwt>
</event>
<event>
 9    1  0.2074770E-002  0.2743561E+03  0.7818608E-02  0.1098812E+00
         -2   -1    0    0    0  501 -0.00000000000E+00  0.00000000000E+00  0.60857892608E+01  0.60857892608E+01  0.00000000000E+00 0. -1.
          2   -1    0    0  501    0  0.00000000000E+00 -0.00000000000E+00 -0.30920911154E+04  0.30920911154E+04  0.00000000000E+00 0. -1.
         36    2    1    2    0    0  0.17763568394E-14  0.00000000000E+00 -0.30860053261E+04  0.30981769046E+04  0.27435608179E+03 0.  0.
         25    2    3    3    0    0 -0.41983277576E+01  0.54564670333E+02 -0.17079222524E+04  0.17133564235E+04  0.12488748698E+03 0.  0.
         25    2    3    3    0    0  0.41983277576E+01 -0.54564670333E+02 -0.13780830737E+04  0.13848204811E+04  0.12497950948E+03 0.  0.
          5    1    4    4  502    0  0.65733316237E+01  0.21482588164E+02 -0.49497197279E+02  0.54559809580E+02  0.47000000000E+01 0.  1.
         -5    1    4    4    0  502 -0.10771659381E+02  0.33082082169E+02 -0.16584250552E+04  0.16587966139E+04  0.47000000000E+01 0.  1.
          5    1    5    5  503    0  0.40232413765E+02  0.19103274723E+02 -0.26926764257E+03  0.27296654659E+03  0.47000000000E+01 0. -1.
         -5    1    5    5    0  503 -0.36034086008E+02 -0.73667945056E+02 -0.11088154311E+04  0.11118539345E+04  0.47000000000E+01 0. -1.
<mgrwt>
<rscale>  0 0.27435608E+03</rscale>
<asrwt>0</asrwt>
<pdfrwt beam="1">  1        2 0.47570617E+00 0.27435608E+03</pdfrwt>
<pdfrwt beam="2">  1       -2 0.93627558E-03 0.27435608E+03</pdfrwt>
<totfact> 0.43061903E+03</totfact>
</mgrwt>
</event>
<event>
 9    1  0.2074770E-002  0.2742982E+03  0.7818608E-02  0.1098845E+00
         -1   -1    0    0    0  501 -0.00000000000E+00  0.00000000000E+00  0.78336831739E+03  0.78336831739E+03  0.00000000000E+00 0.  1.
          1   -1    0    0  501    0  0.00000000000E+00 -0.00000000000E+00 -0.24011540588E+02  0.24011540588E+02  0.00000000000E+00 0.  1.
         36    2    1    2    0    0  0.00000000000E+00  0.00000000000E+00  0.75935677680E+03  0.80737985798E+03  0.27429823294E+03 0.  0.
         25    2    3    3    0    0  0.47742050728E+02  0.17058298198E+02  0.31890272377E+03  0.34611393723E+03  0.12460185139E+03 0.  0.
         25    2    3    3    0    0 -0.47742050728E+02 -0.17058298198E+02  0.44045405303E+03  0.46126592075E+03  0.12726424427E+03 0.  0.
          5    1    4    4  502    0  0.77611449069E+01  0.35654523281E+02  0.16232791035E+02  0.40212857465E+02  0.47000000000E+01 0. -1.
         -5    1    4    4    0  502  0.39980905821E+02 -0.18596225083E+02  0.30266993273E+03  0.30590107976E+03  0.47000000000E+01 0. -1.
          5    1    5    5  503    0 -0.64889324419E+01  0.20042022832E+02  0.48562185510E+01  0.22123783177E+02  0.47000000000E+01 0. -1.
         -5    1    5    5    0  503 -0.41253118286E+02 -0.37100321031E+02  0.43559783448E+03  0.43914213757E+03  0.47000000000E+01 0. -1.
<mgrwt>
<rscale>  0 0.27429823E+03</rscale>
<asrwt>0</asrwt>
<pdfrwt beam="1">  1        1 0.36940838E-02 0.27429823E+03</pdfrwt>
<pdfrwt beam="2">  1       -1 0.12051818E+00 0.27429823E+03</pdfrwt>
<totfact> 0.16630630E+03</totfact>
</mgrwt>
</event>
<event>
 9    1  0.2074770E-002  0.2696663E+03  0.7818608E-02  0.1101471E+00
          2   -1    0    0  501    0  0.00000000000E+00  0.00000000000E+00  0.19191011277E+03  0.19191011277E+03  0.00000000000E+00 0. -1.
         -2   -1    0    0    0  501 -0.00000000000E+00 -0.00000000000E+00 -0.94731711193E+02  0.94731711193E+02  0.00000000000E+00 0. -1.
         36    2    1    2    0    0  0.00000000000E+00 -0.71054273576E-14  0.97178401581E+02  0.28664182397E+03  0.26966626321E+03 0.  0.
         25    2    3    3    0    0  0.47966481202E+02 -0.96743608193E+01  0.46590940866E+02  0.14435817944E+03  0.12757033991E+03 0.  0.
         25    2    3    3    0    0 -0.47966481202E+02  0.96743608193E+01  0.50587460715E+02  0.14228364453E+03  0.12365746133E+03 0.  0.
          5    1    4    4  502    0  0.10125442741E+02 -0.28371166882E+02  0.82997617975E+02  0.88420259502E+02  0.47000000000E+01 0.  1.
         -5    1    4    4    0  502  0.37841038461E+02  0.18696806062E+02 -0.36406677109E+02  0.55937919937E+02  0.47000000000E+01 0.  1.
          5    1    5    5  503    0 -0.27031537640E+02  0.65641977603E+02  0.39341559026E+02  0.81298348799E+02  0.47000000000E+01 0. -1.
         -5    1    5    5    0  503 -0.20934943562E+02 -0.55967616784E+02  0.11245901689E+02  0.60985295729E+02  0.47000000000E+01 0. -1.
<mgrwt>
<rscale>  0 0.26966626E+03</rscale>
<asrwt>0</asrwt>
<pdfrwt beam="1">  1        2 0.29524633E-01 0.26966626E+03</pdfrwt>
<pdfrwt beam="2">  1       -2 0.14574109E-01 0.26966626E+03</pdfrwt>
<totfact> 0.63547056E+03</totfact>
</mgrwt>
</event>
<event>
 9    1  0.2074770E-002  0.2700662E+03  0.7818608E-02  0.1101242E+00
          2   -1    0    0  501    0  0.00000000000E+00  0.00000000000E+00  0.14616137376E+04  0.14616137376E+04  0.00000000000E+00 0. -1.
         -2   -1    0    0    0  501 -0.00000000000E+00 -0.00000000000E+00 -0.12475210817E+02  0.12475210817E+02  0.00000000000E+00 0. -1.
         36    2    1    2    0    0  0.00000000000E+00  0.00000000000E+00  0.14491385268E+04  0.14740889485E+04  0.27006621047E+03 0.  0.
         25    2    3    3    0    0 -0.57690191223E+02  0.20413816484E+01  0.90634992415E+03  0.91384007450E+03  0.10149468632E+03 0.  0.
         25    2    3    3    0    0  0.57690191223E+02 -0.20413816484E+01  0.54278860268E+03  0.56024887396E+03  0.12620225108E+03 0.  0.
          5    1    4    4  502    0 -0.32009511854E+02 -0.46738422381E+02  0.58570262442E+03  0.58845453794E+03  0.47000000000E+01 0. -1.
         -5    1    4    4    0  502 -0.25680679369E+02  0.48779804029E+02  0.32064729973E+03  0.32538553656E+03  0.47000000000E+01 0. -1.
          5    1    5    5  503    0 -0.12604448684E+02  0.41336109684E+02  0.31331467161E+03  0.31631585407E+03  0.47000000000E+01 0.  1.
         -5    1    5    5    0  503  0.70294639907E+02 -0.43377491332E+02  0.22947393107E+03  0.24393301989E+03  0.47000000000E+01 0.  1.
<mgrwt>
<rscale>  0 0.27006621E+03</rscale>
<asrwt>0</asrwt>
<pdfrwt beam="1">  1        2 0.22486352E+00 0.27006621E+03</pdfrwt>
<pdfrwt beam="2">  1       -2 0.19192644E-02 0.27006621E+03</pdfrwt>
<totfact> 0.11746694E+04</totfact>
</mgrwt>
</event>
<event>
 9    1  0.2074770E-002  0.2747217E+03  0.7818608E-02  0.1098607E+00
          2   -1    0    0  501    0  0.00000000000E+00  0.00000000000E+00  0.10493084770E+04  0.10493084770E+04  0.00000000000E+00 0.  1.
         -2   -1    0    0    0  501 -0.00000000000E+00 -0.00000000000E+00 -0.17981367327E+02  0.17981367327E+02  0.00000000000E+00 0.  1.
         36    2    1    2    0    0  0.71054273576E-14  0.00000000000E+00  0.10313271097E+04  0.10672898443E+04  0.27472168581E+03 0.  0.
         25    2    3    3    0    0  0.51592543837E+02 -0.54857592691E+00  0.45273061031E+03  0.47297596686E+03  0.12680366003E+03 0.  0.
         25    2    3    3    0    0 -0.51592543837E+02  0.54857592691E+00  0.57859649937E+03  0.59431387747E+03  0.12559054249E+03 0.  0.
          5    1    4    4  502    0  0.91293106948E+02  0.14154688495E+02  0.34339107461E+03  0.35563226331E+03  0.47000000000E+01 0. -1.
         -5    1    4    4    0  502 -0.39700563110E+02 -0.14703264422E+02  0.10933953570E+03  0.11734370356E+03  0.47000000000E+01 0. -1.
          5    1    5    5  503    0  0.31616867705E+02 -0.17099125094E+02  0.72067787229E+02  0.80671323025E+02  0.47000000000E+01 0.  1.
         -5    1    5    5    0  503 -0.83209411542E+02  0.17647701021E+02  0.50652871214E+03  0.51364255445E+03  0.47000000000E+01 0.  1.
<mgrwt>
<rscale>  0 0.27472169E+03</rscale>
<asrwt>0</asrwt>
<pdfrwt beam="1">  1        2 0.16143203E+00 0.27472169E+03</pdfrwt>
<pdfrwt beam="2">  1       -2 0.27663650E-02 0.27472169E+03</pdfrwt>
<totfact> 0.11684345E+04</totfact>
</mgrwt>
</event>
<event>
 9    1  0.2074770E-002  0.2745244E+03  0.7818608E-02  0.1098718E+00
          2   -1    0    0  501    0  0.00000000000E+00  0.00000000000E+00  0.37351487168E+02  0.37351487168E+02  0.00000000000E+00 0. -1.
         -2   -1    0    0    0  501 -0.00000000000E+00 -0.00000000000E+00 -0.50442210206E+03  0.50442210206E+03  0.00000000000E+00 0. -1.
         36    2    1    2    0    0 -0.71054273576E-14  0.00000000000E+00 -0.46707061490E+03  0.54177358923E+03  0.27452443004E+03 0.  0.
         25    2    3    3    0    0  0.49465705807E+02 -0.36872460803E+02 -0.21539293544E+03  0.25618956707E+03  0.12422778764E+03 0.  0.
         25    2    3    3    0    0 -0.49465705807E+02  0.36872460803E+02 -0.25167767945E+03  0.28558402216E+03  0.12004226323E+03 0.  0.
          5    1    4    4  502    0 -0.38978418505E+02 -0.20815385409E+02 -0.10312975958E+03  0.11229619179E+03  0.47000000000E+01 0.  1.
         -5    1    4    4    0  502  0.88444124313E+02 -0.16057075394E+02 -0.11226317586E+03  0.14389337528E+03  0.47000000000E+01 0.  1.
          5    1    5    5  503    0 -0.87023223121E+02  0.40094608248E+02 -0.19550255690E+03  0.21777042666E+03  0.47000000000E+01 0. -1.
         -5    1    5    5    0  503  0.37557517314E+02 -0.32221474450E+01 -0.56175122557E+02  0.67813595504E+02  0.47000000000E+01 0. -1.
<mgrwt>
<rscale>  0 0.27452443E+03</rscale>
<asrwt>0</asrwt>
<pdfrwt beam="1">  1        2 0.57463826E-02 0.27452443E+03</pdfrwt>
<pdfrwt beam="2">  1       -2 0.77603401E-01 0.27452443E+03</pdfrwt>
<totfact> 0.19881295E+03</totfact>
</mgrwt>
</event>
<event>
 9    1  0.2074770E-002  0.2744715E+03  0.7818608E-02  0.1098747E+00
          2   -1    0    0  501    0  0.00000000000E+00  0.00000000000E+00  0.27561475692E+04  0.27561475692E+04  0.00000000000E+00 0. -1.
         -2   -1    0    0    0  501 -0.00000000000E+00 -0.00000000000E+00 -0.68333226671E+01  0.68333226671E+01  0.00000000000E+00 0. -1.
         36    2    1    2    0    0  0.00000000000E+00  0.00000000000E+00  0.27493142465E+04  0.27629808918E+04  0.27447146051E+03 0.  0.
         25    2    3    3    0    0 -0.42929538725E+02  0.17598723555E+02  0.16330394576E+04  0.16388193000E+04  0.12945334088E+03 0.  0.
         25    2    3    3    0    0  0.42929538725E+02 -0.17598723555E+02  0.11162747889E+04  0.11241615919E+04  0.12456813378E+03 0.  0.
          5    1    4    4  502    0 -0.33746525280E+02 -0.42581867201E+02  0.34060220735E+03  0.34494057029E+03  0.47000000000E+01 0.  1.
         -5    1    4    4    0  502 -0.91830134449E+01  0.60180590756E+02  0.12924372503E+04  0.12938787297E+04  0.47000000000E+01 0.  1.
          5    1    5    5  503    0  0.39284224029E+02 -0.12979843845E+02  0.11158417508E+04  0.11166183902E+04  0.47000000000E+01 0. -1.
         -5    1    5    5    0  503  0.36453146956E+01 -0.46188797104E+01  0.43303810876E+00  0.75432016421E+01  0.47000000000E+01 0. -1.
<mgrwt>
<rscale>  0 0.27447146E+03</rscale>
<asrwt>0</asrwt>
<pdfrwt beam="1">  1        2 0.42402181E+00 0.27447146E+03</pdfrwt>
<pdfrwt beam="2">  1       -2 0.10512826E-02 0.27447146E+03</pdfrwt>
<totfact> 0.57217900E+03</totfact>
</mgrwt>
</event>
<event>
 9    1  0.2074770E-002  0.2744765E+03  0.7818608E-02  0.1098745E+00
         -2   -1    0    0    0  501 -0.00000000000E+00  0.00000000000E+00  0.42531287188E+02  0.42531287188E+02  0.00000000000E+00 0. -1.
          2   -1    0    0  501    0  0.00000000000E+00 -0.00000000000E+00 -0.44283500331E+03  0.44283500331E+03  0.00000000000E+00 0. -1.
         36    2    1    2    0    0  0.71054273576E-14  0.00000000000E+00 -0.40030371612E+03  0.48536629050E+03  0.27447653964E+03 0.  0.
         25    2    3    3    0    0 -0.49721780025E+02 -0.21151464334E+02 -0.21093541732E+03  0.25099501317E+03  0.12484032403E+03 0.  0.
         25    2    3    3    0    0  0.49721780025E+02  0.21151464334E+02 -0.18936829881E+03  0.23437127733E+03  0.12708226938E+03 0.  0.
          5    1    4    4  502    0 -0.30053669886E+02 -0.41425102554E+02 -0.15797305404E+02  0.53767155897E+02  0.47000000000E+01 0.  1.
         -5    1    4    4    0  502 -0.19668110140E+02  0.20273638221E+02 -0.19513811191E+03  0.19722785727E+03  0.47000000000E+01 0.  1.
          5    1    5    5  503    0  0.72371310590E+02 -0.34471708269E+01 -0.43486307063E+02  0.84632372561E+02  0.47000000000E+01 0.  1.
         -5    1    5    5    0  503 -0.22649530565E+02  0.24598635161E+02 -0.14588199174E+03  0.14973890477E+03  0.47000000000E+01 0.  1.
<mgrwt>
<rscale>  0 0.27447654E+03</rscale>
<asrwt>0</asrwt>
<pdfrwt beam="1">  1        2 0.68128462E-01 0.27447654E+03</pdfrwt>
<pdfrwt beam="2">  1       -2 0.65432749E-02 0.27447654E+03</pdfrwt>
<totfact> 0.91736295E+03</totfact>
</mgrwt>
</event>
<event>
 9    1  0.2074770E-002  0.2754359E+03  0.7818608E-02  0.1098208E+00
         -1   -1    0    0    0  501 -0.00000000000E+00  0.00000000000E+00  0.17905650515E+03  0.17905650515E+03  0.00000000000E+00 0. -1.
          1   -1    0    0  501    0  0.00000000000E+00 -0.00000000000E+00 -0.10592315109E+03  0.10592315109E+03  0.00000000000E+00 0. -1.
         36    2    1    2    0    0  0.35527136788E-14 -0.71054273576E-14  0.73133354065E+02  0.28497965624E+03  0.27543586730E+03 0.  0.
         25    2    3    3    0    0 -0.14868133108E+02  0.50251212196E+02  0.22827037105E+02  0.14032201211E+03  0.12815204935E+03 0.  0.
         25    2    3    3    0    0  0.14868133108E+02 -0.50251212196E+02  0.50306316960E+02  0.14465764413E+03  0.12509541466E+03 0.  0.
          5    1    4    4  502    0 -0.29606350155E+02  0.90196521885E+02  0.21586053997E+02  0.97467924246E+02  0.47000000000E+01 0.  1.
         -5    1    4    4    0  502  0.14738217048E+02 -0.39945309689E+02  0.12409831075E+01  0.42854087868E+02  0.47000000000E+01 0.  1.
          5    1    5    5  503    0  0.39110378226E+02 -0.79854405410E+02  0.11197756249E+02  0.89743119477E+02  0.47000000000E+01 0. -1.
         -5    1    5    5    0  503 -0.24242245119E+02  0.29603193214E+02  0.39108560711E+02  0.54914524652E+02  0.47000000000E+01 0. -1.
<mgrwt>
<rscale>  0 0.27543587E+03</rscale>
<asrwt>0</asrwt>
<pdfrwt beam="1">  1        1 0.16295869E-01 0.27543587E+03</pdfrwt>
<pdfrwt beam="2">  1       -1 0.27547155E-01 0.27543587E+03</pdfrwt>
<totfact> 0.39254954E+03</totfact>
</mgrwt>
</event>
<event>
 9    1  0.2074770E-002  0.2772896E+03  0.7818608E-02  0.1097179E+00
         -3   -1    0    0    0  501 -0.00000000000E+00  0.00000000000E+00  0.10521254280E+03  0.10521254280E+03  0.00000000000E+00 0.  1.
          3   -1    0    0  501    0  0.00000000000E+00 -0.00000000000E+00 -0.18270040540E+03  0.18270040540E+03  0.00000000000E+00 0.  1.
         36    2    1    2    0    0  0.14210854715E-13  0.71054273576E-14 -0.77487862602E+02  0.28791294820E+03  0.27728955424E+03 0.  0.
         25    2    3    3    0    0 -0.66851220338E+02 -0.12166711080E+02 -0.42753783834E+02  0.14734020320E+03  0.12354810775E+03 0.  0.
         25    2    3    3    0    0  0.66851220338E+02  0.12166711080E+02 -0.34734078767E+02  0.14057274500E+03  0.11805560507E+03 0.  0.
          5    1    4    4  502    0 -0.88580688641E+02 -0.36301372875E+02 -0.57058393350E+02  0.11154406450E+03  0.47000000000E+01 0. -1.
         -5    1    4    4    0  502  0.21729468304E+02  0.24134661796E+02  0.14304609515E+02  0.35796138704E+02  0.47000000000E+01 0. -1.
          5    1    5    5  503    0  0.40425868305E+02  0.60331333728E+02 -0.43436203194E+02  0.84752076113E+02  0.47000000000E+01 0. -1.
         -5    1    5    5    0  503  0.26425352033E+02 -0.48164622648E+02  0.87021244266E+01  0.55820668882E+02  0.47000000000E+01 0. -1.
<mgrwt>
<rscale>  0 0.27728955E+03</rscale>
<asrwt>0</asrwt>
<pdfrwt beam="1">  1        3 0.28107754E-01 0.27728955E+03</pdfrwt>
<pdfrwt beam="2">  1       -3 0.16186545E-01 0.27728955E+03</pdfrwt>
<totfact> 0.10035936E+03</totfact>
</mgrwt>
</event>
<event>
 9    1  0.2074770E-002  0.2750228E+03  0.7818608E-02  0.1098439E+00
         -2   -1    0    0    0  501 -0.00000000000E+00  0.00000000000E+00  0.10303843057E+03  0.10303843057E+03  0.00000000000E+00 0. -1.
          2   -1    0    0  501    0  0.00000000000E+00 -0.00000000000E+00 -0.18351782623E+03  0.18351782623E+03  0.00000000000E+00 0. -1.
         36    2    1    2    0    0  0.71054273576E-14  0.00000000000E+00 -0.80479395659E+02  0.28655625681E+03  0.27502282667E+03 0.  0.
         25    2    3    3    0    0  0.30693032499E+02  0.14593434478E+02  0.46412607480E+01  0.13303811477E+03  0.12854014200E+03 0.  0.
         25    2    3    3    0    0 -0.30693032499E+02 -0.14593434478E+02 -0.85120656407E+02  0.15351814204E+03  0.12315544330E+03 0.  0.
          5    1    4    4  502    0  0.39611662291E+02  0.13484425222E+02 -0.56833560776E+02  0.70732292084E+02  0.47000000000E+01 0.  1.
         -5    1    4    4    0  502 -0.89186297921E+01  0.11090092561E+01  0.61474821524E+02  0.62305822684E+02  0.47000000000E+01 0.  1.
          5    1    5    5  503    0  0.16216327774E+02  0.30236636430E+02  0.11974645867E+02  0.36642947653E+02  0.47000000000E+01 0.  1.
         -5    1    5    5    0  503 -0.46909360273E+02 -0.44830070908E+02 -0.97095302273E+02  0.11687519438E+03  0.47000000000E+01 0.  1.
<mgrwt>
<rscale>  0 0.27502283E+03</rscale>
<asrwt>0</asrwt>
<pdfrwt beam="1">  1        2 0.28233511E-01 0.27502283E+03</pdfrwt>
<pdfrwt beam="2">  1       -2 0.15852066E-01 0.27502283E+03</pdfrwt>
<totfact> 0.58130395E+03</totfact>
</mgrwt>
</event>
<event>
 9    1  0.2074770E-002  0.2760564E+03  0.7818608E-02  0.1097863E+00
         -1   -1    0    0    0  501 -0.00000000000E+00  0.00000000000E+00  0.47528321363E+03  0.47528321363E+03  0.00000000000E+00 0. -1.
          1   -1    0    0  501    0  0.00000000000E+00 -0.00000000000E+00 -0.40085112974E+02  0.40085112974E+02  0.00000000000E+00 0. -1.
         36    2    1    2    0    0  0.00000000000E+00  0.00000000000E+00  0.43519810066E+03  0.51536832661E+03  0.27605638057E+03 0.  0.
         25    2    3    3    0    0  0.38336753918E+02  0.32545383174E+02  0.15507458395E+03  0.20410589364E+03  0.12280952962E+03 0.  0.
         25    2    3    3    0    0 -0.38336753918E+02 -0.32545383174E+02  0.28012351671E+03  0.31126243297E+03  0.12604050498E+03 0.  0.
          5    1    4    4  502    0  0.19641895099E+02 -0.40571520237E+02  0.20496799822E+02  0.49739934663E+02  0.47000000000E+01 0.  1.
         -5    1    4    4    0  502  0.18694858819E+02  0.73116903411E+02  0.13457778413E+03  0.15436595898E+03  0.47000000000E+01 0.  1.
          5    1    5    5  503    0 -0.18933996935E+01  0.36872421214E+02  0.18103056534E+03  0.18481697973E+03  0.47000000000E+01 0.  1.
         -5    1    5    5    0  503 -0.36443354224E+02 -0.69417804388E+02  0.99092951374E+02  0.12644545324E+03  0.47000000000E+01 0.  1.
<mgrwt>
<rscale>  0 0.27605638E+03</rscale>
<asrwt>0</asrwt>
<pdfrwt beam="1">  1        1 0.61669408E-02 0.27605638E+03</pdfrwt>
<pdfrwt beam="2">  1       -1 0.73120491E-01 0.27605638E+03</pdfrwt>
<totfact> 0.24369822E+03</totfact>
</mgrwt>
</event>
<event>
 9    1  0.2074770E-002  0.2747656E+03  0.7818608E-02  0.1098583E+00
         -1   -1    0    0    0  501 -0.00000000000E+00  0.00000000000E+00  0.19992328486E+03  0.19992328486E+03  0.00000000000E+00 0. -1.
          1   -1    0    0  501    0  0.00000000000E+00 -0.00000000000E+00 -0.94406371941E+02  0.94406371941E+02  0.00000000000E+00 0. -1.
         36    2    1    2    0    0 -0.17763568394E-14  0.00000000000E+00  0.10551691292E+03  0.29432965680E+03  0.27476558729E+03 0.  0.
         25    2    3    3    0    0 -0.87006546070E+01 -0.11191906127E+02  0.37914514312E+00  0.12674630569E+03  0.12595047480E+03 0.  0.
         25    2    3    3    0    0  0.87006546070E+01  0.11191906127E+02  0.10513776777E+03  0.16758335111E+03  0.12972767324E+03 0.  0.
          5    1    4    4  502    0 -0.35703562111E+02 -0.40371988244E+02  0.42379704581E+02  0.68722420959E+02  0.47000000000E+01 0.  1.
         -5    1    4    4    0  502  0.27002907504E+02  0.29180082116E+02 -0.42000559438E+02  0.58023884729E+02  0.47000000000E+01 0.  1.
          5    1    5    5  503    0 -0.50204807346E+01 -0.54394215773E+02  0.18304387024E+02  0.57802045991E+02  0.47000000000E+01 0.  1.
         -5    1    5    5    0  503  0.13721135342E+02  0.65586121900E+02  0.86833380749E+02  0.10978130512E+03  0.47000000000E+01 0.  1.
<mgrwt>
<rscale>  0 0.27476559E+03</rscale>
<asrwt>0</asrwt>
<pdfrwt beam="1">  1        1 0.14524057E-01 0.27476559E+03</pdfrwt>
<pdfrwt beam="2">  1       -1 0.30757428E-01 0.27476559E+03</pdfrwt>
<totfact> 0.37863794E+03</totfact>
</mgrwt>
</event>
<event>
 9    1  0.2074770E-002  0.2747991E+03  0.7818608E-02  0.1098564E+00
         -1   -1    0    0    0  501 -0.00000000000E+00  0.00000000000E+00  0.69769727262E+02  0.69769727262E+02  0.00000000000E+00 0.  1.
          1   -1    0    0  501    0  0.00000000000E+00 -0.00000000000E+00 -0.27058482722E+03  0.27058482722E+03  0.00000000000E+00 0.  1.
         36    2    1    2    0    0 -0.71054273576E-14 -0.71054273576E-14 -0.20081509996E+03  0.34035455448E+03  0.27479905092E+03 0.  0.
         25    2    3    3    0    0 -0.47004618949E+02  0.29913278649E+02 -0.73039044364E+02  0.15427955996E+03  0.12394854650E+03 0.  0.
         25    2    3    3    0    0  0.47004618949E+02 -0.29913278649E+02 -0.12777605559E+03  0.18607499452E+03  0.12325966396E+03 0.  0.
          5    1    4    4  502    0 -0.73858207365E+02 -0.27509159077E+01 -0.82322609836E+02  0.11073258068E+03  0.47000000000E+01 0.  1.
         -5    1    4    4    0  502  0.26853588416E+02  0.32664194556E+02  0.92835654723E+01  0.43546979284E+02  0.47000000000E+01 0.  1.
          5    1    5    5  503    0  0.33647289867E+02  0.40468840982E+02 -0.19834886753E+02  0.56439170248E+02  0.47000000000E+01 0. -1.
         -5    1    5    5    0  503  0.13357329082E+02 -0.70382119630E+02 -0.10794116884E+03  0.12963582427E+03  0.47000000000E+01 0. -1.
<mgrwt>
<rscale>  0 0.27479905E+03</rscale>
<asrwt>0</asrwt>
<pdfrwt beam="1">  1        1 0.41628435E-01 0.27479905E+03</pdfrwt>
<pdfrwt beam="2">  1       -1 0.10733804E-01 0.27479905E+03</pdfrwt>
<totfact> 0.54142716E+03</totfact>
</mgrwt>
</event>
<event>
 9    1  0.2074770E-002  0.2757994E+03  0.7818608E-02  0.1098006E+00
          1   -1    0    0  501    0  0.00000000000E+00  0.00000000000E+00  0.37119340243E+03  0.37119340243E+03  0.00000000000E+00 0. -1.
         -1   -1    0    0    0  501 -0.00000000000E+00 -0.00000000000E+00 -0.51230241281E+02  0.51230241281E+02  0.00000000000E+00 0. -1.
         36    2    1    2    0    0  0.14210854715E-13  0.00000000000E+00  0.31996316115E+03  0.42242364371E+03  0.27579940224E+03 0.  0.
         25    2    3    3    0    0  0.38605945268E+02  0.22836974278E+02  0.96825432647E+02  0.16402353747E+03  0.12456568561E+03 0.  0.
         25    2    3    3    0    0 -0.38605945268E+02 -0.22836974278E+02  0.22313772850E+03  0.25840010624E+03  0.12234468775E+03 0.  0.
          5    1    4    4  502    0 -0.16421053642E+02  0.52127526590E+02  0.80440991697E+01  0.55441208163E+02  0.47000000000E+01 0.  1.
         -5    1    4    4    0  502  0.55026998909E+02 -0.29290552312E+02  0.88781333477E+02  0.10858232931E+03  0.47000000000E+01 0.  1.
          5    1    5    5  503    0 -0.28567632093E+02  0.43411359013E+01  0.22692476185E+03  0.22880535965E+03  0.47000000000E+01 0.  1.
         -5    1    5    5    0  503 -0.10038313175E+02 -0.27178110180E+02 -0.37870333461E+01  0.29594746593E+02  0.47000000000E+01 0.  1.
<mgrwt>
<rscale>  0 0.27579940E+03</rscale>
<asrwt>0</asrwt>
<pdfrwt beam="1">  1        1 0.57106676E-01 0.27579940E+03</pdfrwt>
<pdfrwt beam="2">  1       -1 0.78815758E-02 0.27579940E+03</pdfrwt>
<totfact> 0.58442646E+03</totfact>
</mgrwt>
</event>
<event>
 9    1  0.2074770E-002  0.2747763E+03  0.7818608E-02  0.1098577E+00
         -1   -1    0    0    0  501 -0.00000000000E+00  0.00000000000E+00  0.76245424653E+02  0.76245424653E+02  0.00000000000E+00 0. -1.
          1   -1    0    0  501    0  0.00000000000E+00 -0.00000000000E+00 -0.24756251955E+03  0.24756251955E+03  0.00000000000E+00 0. -1.
         36    2    1    2    0    0  0.00000000000E+00  0.71054273576E-14 -0.17131709490E+03  0.32380794420E+03  0.27477634128E+03 0.  0.
         25    2    3    3    0    0 -0.29756101255E+02 -0.13987354706E+02 -0.34625722254E+02  0.13730944327E+03  0.12873954682E+03 0.  0.
         25    2    3    3    0    0  0.29756101255E+02  0.13987354706E+02 -0.13669137264E+03  0.18649850093E+03  0.12254014788E+03 0.  0.
          5    1    4    4  502    0 -0.27024241144E+02  0.54897970189E+02 -0.29300098667E+02  0.68005018360E+02  0.47000000000E+01 0. -1.
         -5    1    4    4    0  502 -0.27318601117E+01 -0.68885324895E+02 -0.53256235870E+01  0.69304424911E+02  0.47000000000E+01 0. -1.
          5    1    5    5  503    0  0.49953885215E+02 -0.38867412387E+02 -0.42054364450E+02  0.76136232918E+02  0.47000000000E+01 0.  1.
         -5    1    5    5    0  503 -0.20197783960E+02  0.52854767093E+02 -0.94637008195E+02  0.11036226802E+03  0.47000000000E+01 0.  1.
<mgrwt>
<rscale>  0 0.27477634E+03</rscale>
<asrwt>0</asrwt>
<pdfrwt beam="1">  1        1 0.38086542E-01 0.27477634E+03</pdfrwt>
<pdfrwt beam="2">  1       -1 0.11730065E-01 0.27477634E+03</pdfrwt>
<totfact> 0.52726646E+03</totfact>
</mgrwt>
</event>
<event>
 9    1  0.2074770E-002  0.2773356E+03  0.7818608E-02  0.1097153E+00
          2   -1    0    0  501    0  0.00000000000E+00  0.00000000000E+00  0.25282682913E+04  0.25282682913E+04  0.00000000000E+00 0. -1.
         -2   -1    0    0    0  501 -0.00000000000E+00 -0.00000000000E+00 -0.76055036837E+01  0.76055036837E+01  0.00000000000E+00 0. -1.
         36    2    1    2    0    0 -0.53290705182E-14 -0.35527136788E-14  0.25206627877E+04  0.25358737950E+04  0.27733556428E+03 0.  0.
         25    2    3    3    0    0 -0.56364320617E+01  0.22454374836E+02  0.17703837603E+04  0.17748773439E+04  0.12407642417E+03 0.  0.
         25    2    3    3    0    0  0.56364320617E+01 -0.22454374836E+02  0.75027902741E+03  0.76099645112E+03  0.12514396243E+03 0.  0.
          5    1    4    4  502    0  0.51944911273E+01  0.20523759910E+02  0.17561488802E+04  0.17562827753E+04  0.47000000000E+01 0. -1.
         -5    1    4    4    0  502 -0.10830923189E+02  0.19306149265E+01  0.14234880085E+02  0.18594568620E+02  0.47000000000E+01 0. -1.
          5    1    5    5  503    0 -0.32995053788E+02 -0.16366865817E+02  0.67512805560E+03  0.67614830424E+03  0.47000000000E+01 0.  1.
         -5    1    5    5    0  503  0.38631485849E+02 -0.60875090188E+01  0.75150971806E+02  0.84848146877E+02  0.47000000000E+01 0.  1.
<mgrwt>
<rscale>  0 0.27733556E+03</rscale>
<asrwt>0</asrwt>
<pdfrwt beam="1">  1        2 0.38896368E+00 0.27733556E+03</pdfrwt>
<pdfrwt beam="2">  1       -2 0.11700795E-02 0.27733556E+03</pdfrwt>
<totfact> 0.65638517E+03</totfact>
</mgrwt>
</event>
<event>
 9    1  0.2074770E-002  0.2755834E+03  0.7818608E-02  0.1098126E+00
         -1   -1    0    0    0  501 -0.00000000000E+00  0.00000000000E+00  0.41641175416E+02  0.41641175416E+02  0.00000000000E+00 0. -1.
          1   -1    0    0  501    0  0.00000000000E+00 -0.00000000000E+00 -0.45595636944E+03  0.45595636944E+03  0.00000000000E+00 0. -1.
         36    2    1    2    0    0  0.00000000000E+00  0.35527136788E-14 -0.41431519403E+03  0.49759754486E+03  0.27558344770E+03 0.  0.
         25    2    3    3    0    0 -0.40185816569E+02 -0.17800628446E+02 -0.27766723486E+03  0.30755292858E+03  0.12473150500E+03 0.  0.
         25    2    3    3    0    0  0.40185816569E+02  0.17800628446E+02 -0.13664795917E+03  0.19004461628E+03  0.12454930431E+03 0.  0.
          5    1    4    4  502    0  0.26467154919E+02  0.33479710071E+02 -0.57032995291E+02  0.71388051016E+02  0.47000000000E+01 0. -1.
         -5    1    4    4    0  502 -0.66652971488E+02 -0.51280338517E+02 -0.22063423957E+03  0.23616487757E+03  0.47000000000E+01 0. -1.
          5    1    5    5  503    0 -0.47619863410E+01  0.20201546460E+02 -0.14279539238E+03  0.14437241107E+03  0.47000000000E+01 0.  1.
         -5    1    5    5    0  503  0.44947802910E+02 -0.24009180143E+01  0.61474332073E+01  0.45672205210E+02  0.47000000000E+01 0.  1.
<mgrwt>
<rscale>  0 0.27558345E+03</rscale>
<asrwt>0</asrwt>
<pdfrwt beam="1">  1        1 0.70147131E-01 0.27558345E+03</pdfrwt>
<pdfrwt beam="2">  1       -1 0.64063349E-02 0.27558345E+03</pdfrwt>
<totfact> 0.61433318E+03</totfact>
</mgrwt>
</event>
<event>
 9    1  0.2074770E-002  0.2736222E+03  0.7818608E-02  0.1099224E+00
          3   -1    0    0  501    0  0.00000000000E+00  0.00000000000E+00  0.56499515997E+02  0.56499515997E+02  0.00000000000E+00 0.  1.
         -3   -1    0    0    0  501 -0.00000000000E+00 -0.00000000000E+00 -0.33128199980E+03  0.33128199980E+03  0.00000000000E+00 0.  1.
         36    2    1    2    0    0 -0.71054273576E-14 -0.71054273576E-14 -0.27478248380E+03  0.38778151579E+03  0.27362216757E+03 0.  0.
         25    2    3    3    0    0  0.38981407864E+02 -0.31144592852E+02 -0.12513839256E+03  0.18378014845E+03  0.12500395933E+03 0.  0.
         25    2    3    3    0    0 -0.38981407864E+02  0.31144592852E+02 -0.14964409124E+03  0.20400136735E+03  0.12935867970E+03 0.  0.
          5    1    4    4  502    0 -0.18582071000E+02 -0.59754228111E+02 -0.91845813506E+02  0.11123670527E+03  0.47000000000E+01 0.  1.
         -5    1    4    4    0  502  0.57563478863E+02  0.28609635259E+02 -0.33292579056E+02  0.72543443182E+02  0.47000000000E+01 0.  1.
          5    1    5    5  503    0 -0.49572174852E+02  0.75421828354E+02 -0.80192907801E+02  0.12082568093E+03  0.47000000000E+01 0.  1.
         -5    1    5    5    0  503  0.10590766988E+02 -0.44277235502E+02 -0.69451183437E+02  0.83175686411E+02  0.47000000000E+01 0.  1.
<mgrwt>
<rscale>  0 0.27362217E+03</rscale>
<asrwt>0</asrwt>
<pdfrwt beam="1">  1        3 0.86922333E-02 0.27362217E+03</pdfrwt>
<pdfrwt beam="2">  1       -3 0.50966461E-01 0.27362217E+03</pdfrwt>
<totfact> 0.90901009E+02</totfact>
</mgrwt>
</event>
<event>
 9    1  0.2074770E-002  0.2753435E+03  0.7818608E-02  0.1098260E+00
          2   -1    0    0  501    0  0.00000000000E+00  0.00000000000E+00  0.22344235447E+03  0.22344235447E+03  0.00000000000E+00 0.  1.
         -2   -1    0    0    0  501 -0.00000000000E+00 -0.00000000000E+00 -0.84825050554E+02  0.84825050554E+02  0.00000000000E+00 0.  1.
         36    2    1    2    0    0  0.35527136788E-14  0.71054273576E-14  0.13861730392E+03  0.30826740503E+03  0.27534348741E+03 0.  0.
         25    2    3    3    0    0 -0.90959167121E+01  0.52667711424E+02  0.95025796809E+02  0.16636099872E+03  0.12565610334E+03 0.  0.
         25    2    3    3    0    0  0.90959167121E+01 -0.52667711424E+02  0.43591507111E+02  0.14190640631E+03  0.12401848706E+03 0.  0.
          5    1    4    4  502    0 -0.16786773554E+02  0.29669038746E+01 -0.28142920767E+02  0.33237212191E+02  0.47000000000E+01 0. -1.
         -5    1    4    4    0  502  0.76908568416E+01  0.49700807550E+02  0.12316871758E+03  0.13312378653E+03  0.47000000000E+01 0. -1.
          5    1    5    5  503    0  0.41290842892E+02  0.21026003079E+02 -0.65310130821E+01  0.47029465700E+02  0.47000000000E+01 0.  1.
         -5    1    5    5    0  503 -0.32194926180E+02 -0.73693714503E+02  0.50122520193E+02  0.94876940610E+02  0.47000000000E+01 0.  1.
<mgrwt>
<rscale>  0 0.27534349E+03</rscale>
<asrwt>0</asrwt>
<pdfrwt beam="1">  1        2 0.34375747E-01 0.27534349E+03</pdfrwt>
<pdfrwt beam="2">  1       -2 0.13050008E-01 0.27534349E+03</pdfrwt>
<totfact> 0.64536640E+03</totfact>
</mgrwt>
</event>
<event>
 9    1  0.2074770E-002  0.2752248E+03  0.7818608E-02  0.1098326E+00
         -2   -1    0    0    0  501 -0.00000000000E+00  0.00000000000E+00  0.26615983571E+02  0.26615983571E+02  0.00000000000E+00 0.  1.
          2   -1    0    0  501    0  0.00000000000E+00 -0.00000000000E+00 -0.71149636256E+03  0.71149636256E+03  0.00000000000E+00 0.  1.
         36    2    1    2    0    0 -0.17763568394E-14  0.14210854715E-13 -0.68488037899E+03  0.73811234613E+03  0.27522482080E+03 0.  0.
         25    2    3    3    0    0 -0.11975380477E+02  0.45401843777E+02 -0.49216791829E+03  0.50977358583E+03  0.12423812565E+03 0.  0.
         25    2    3    3    0    0  0.11975380477E+02 -0.45401843777E+02 -0.19271246070E+03  0.22833876030E+03  0.11311834417E+03 0.  0.
          5    1    4    4  502    0  0.36805458034E+02  0.63124188486E+02 -0.36625521049E+03  0.37350270966E+03  0.47000000000E+01 0.  1.
         -5    1    4    4    0  502 -0.48780838511E+02 -0.17722344709E+02 -0.12591270780E+03  0.13627087617E+03  0.47000000000E+01 0.  1.
          5    1    5    5  503    0  0.47871143940E+01  0.27406834776E+01  0.14083833677E+02  0.15838945078E+02  0.47000000000E+01 0.  1.
         -5    1    5    5    0  503  0.71882660832E+01 -0.48142527255E+02 -0.20679629438E+03  0.21249981522E+03  0.47000000000E+01 0.  1.
<mgrwt>
<rscale>  0 0.27522482E+03</rscale>
<asrwt>0</asrwt>
<pdfrwt beam="1">  1        2 0.10946097E+00 0.27522482E+03</pdfrwt>
<pdfrwt beam="2">  1       -2 0.40947671E-02 0.27522482E+03</pdfrwt>
<totfact> 0.10863229E+04</totfact>
</mgrwt>
</event>
<event>
 9    1  0.2074770E-002  0.2818819E+03  0.7818608E-02  0.1094666E+00
          1   -1    0    0  501    0  0.00000000000E+00  0.00000000000E+00  0.22294983827E+03  0.22294983827E+03  0.00000000000E+00 0.  1.
         -1   -1    0    0    0  501 -0.00000000000E+00 -0.00000000000E+00 -0.89097827679E+02  0.89097827679E+02  0.00000000000E+00 0.  1.
         36    2    1    2    0    0 -0.14210854715E-13  0.17763568394E-14  0.13385201059E+03  0.31204766594E+03  0.28188186370E+03 0.  0.
         25    2    3    3    0    0  0.61936334440E+02  0.88718892099E+01  0.71246895247E+02  0.15805509013E+03  0.12645343607E+03 0.  0.
         25    2    3    3    0    0 -0.61936334440E+02 -0.88718892099E+01  0.62605115340E+02  0.15399257581E+03  0.12601386033E+03 0.  0.
          5    1    4    4  502    0  0.37350211817E+02  0.64344019090E+02  0.16846250429E+02  0.76426940728E+02  0.47000000000E+01 0.  1.
         -5    1    4    4    0  502  0.24586122623E+02 -0.55472129880E+02  0.54400644818E+02  0.81628149407E+02  0.47000000000E+01 0.  1.
          5    1    5    5  503    0 -0.90002269239E+02 -0.59549258038E+01  0.79878661323E+02  0.12057595177E+03  0.47000000000E+01 0.  1.
         -5    1    5    5    0  503  0.28065934799E+02 -0.29169634061E+01 -0.17273545983E+02  0.33416624044E+02  0.47000000000E+01 0.  1.
<mgrwt>
<rscale>  0 0.28188186E+03</rscale>
<asrwt>0</asrwt>
<pdfrwt beam="1">  1        1 0.34299975E-01 0.28188186E+03</pdfrwt>
<pdfrwt beam="2">  1       -1 0.13707358E-01 0.28188186E+03</pdfrwt>
<totfact> 0.47143401E+03</totfact>
</mgrwt>
</event>
<event>
 9    1  0.2074770E-002  0.2753963E+03  0.7818608E-02  0.1098230E+00
         -1   -1    0    0    0  501 -0.00000000000E+00  0.00000000000E+00  0.60206564731E+02  0.60206564731E+02  0.00000000000E+00 0. -1.
          1   -1    0    0  501    0  0.00000000000E+00 -0.00000000000E+00 -0.31492883467E+03  0.31492883467E+03  0.00000000000E+00 0. -1.
         36    2    1    2    0    0 -0.71054273576E-14 -0.71054273576E-14 -0.25472226994E+03  0.37513539940E+03  0.27539632002E+03 0.  0.
         25    2    3    3    0    0 -0.54578719542E+02  0.18776051468E+01 -0.12518038719E+03  0.18425478339E+03  0.12368239098E+03 0.  0.
         25    2    3    3    0    0  0.54578719542E+02 -0.18776051468E+01 -0.12954188275E+03  0.19088061601E+03  0.12911989836E+03 0.  0.
          5    1    4    4  502    0 -0.37432859087E+02 -0.44441207979E+02 -0.10406725685E+02  0.59216803743E+02  0.47000000000E+01 0.  1.
         -5    1    4    4    0  502 -0.17145860454E+02  0.46318813126E+02 -0.11477366150E+03  0.12503797965E+03  0.47000000000E+01 0.  1.
          5    1    5    5  503    0 -0.19584837698E+02 -0.48228394332E+02 -0.54980670068E+02  0.75858473282E+02  0.47000000000E+01 0.  1.
         -5    1    5    5    0  503  0.74163557239E+02  0.46350789186E+02 -0.74561212682E+02  0.11502214273E+03  0.47000000000E+01 0.  1.
<mgrwt>
<rscale>  0 0.27539632E+03</rscale>
<asrwt>0</asrwt>
<pdfrwt beam="1">  1        1 0.48450590E-01 0.27539632E+03</pdfrwt>
<pdfrwt beam="2">  1       -1 0.92625484E-02 0.27539632E+03</pdfrwt>
<totfact> 0.56190753E+03</totfact>
</mgrwt>
</event>
<event>
 9    1  0.2074770E-002  0.2752276E+03  0.7818608E-02  0.1098324E+00
         -1   -1    0    0    0  501 -0.00000000000E+00  0.00000000000E+00  0.19592178923E+02  0.19592178923E+02  0.00000000000E+00 0. -1.
          1   -1    0    0  501    0  0.00000000000E+00 -0.00000000000E+00 -0.96658745635E+03  0.96658745635E+03  0.00000000000E+00 0. -1.
         36    2    1    2    0    0  0.00000000000E+00 -0.14210854715E-13 -0.94699527743E+03  0.98617963527E+03  0.27522757412E+03 0.  0.
         25    2    3    3    0    0 -0.36888228582E+02 -0.71211124113E+02 -0.43348671454E+03  0.45228351871E+03  0.10108354966E+03 0.  0.
         25    2    3    3    0    0  0.36888228582E+02  0.71211124113E+02 -0.51350856289E+03  0.53389611656E+03  0.12215667609E+03 0.  0.
          5    1    4    4  502    0 -0.32434823784E+02 -0.51066292227E+02 -0.92408372660E+02  0.11054945198E+03  0.47000000000E+01 0.  1.
         -5    1    4    4    0  502 -0.44534047974E+01 -0.20144831886E+02 -0.34107834188E+03  0.34173406673E+03  0.47000000000E+01 0.  1.
          5    1    5    5  503    0  0.27748467053E+02  0.93886010094E+02 -0.23979440393E+03  0.25905213080E+03  0.47000000000E+01 0. -1.
         -5    1    5    5    0  503  0.91397615290E+01 -0.22674885981E+02 -0.27371415896E+03  0.27484398576E+03  0.47000000000E+01 0. -1.
<mgrwt>
<rscale>  0 0.27522757E+03</rscale>
<asrwt>0</asrwt>
<pdfrwt beam="1">  1        1 0.14870575E+00 0.27522757E+03</pdfrwt>
<pdfrwt beam="2">  1       -1 0.30141816E-02 0.27522757E+03</pdfrwt>
<totfact> 0.63446078E+03</totfact>
</mgrwt>
</event>
<event>
 9    1  0.2074770E-002  0.2744308E+03  0.7818608E-02  0.1098770E+00
         -4   -1    0    0    0  501 -0.00000000000E+00  0.00000000000E+00  0.77153880916E+02  0.77153880916E+02  0.00000000000E+00 0. -1.
          4   -1    0    0  501    0  0.00000000000E+00 -0.00000000000E+00 -0.24403273125E+03  0.24403273125E+03  0.00000000000E+00 0. -1.
         36    2    1    2    0    0  0.00000000000E+00 -0.35527136788E-14 -0.16687885033E+03  0.32118661216E+03  0.27443084583E+03 0.  0.
         25    2    3    3    0    0 -0.56442350145E+02  0.20657887816E+02 -0.73418783552E+02  0.15410030165E+03  0.12142527731E+03 0.  0.
         25    2    3    3    0    0  0.56442350145E+02 -0.20657887816E+02 -0.93460066777E+02  0.16708631051E+03  0.12478206546E+03 0.  0.
          5    1    4    4  502    0  0.33941655580E+02  0.34359544779E+01  0.27695857613E+01  0.34548550939E+02  0.47000000000E+01 0.  1.
         -5    1    4    4    0  502 -0.90384005725E+02  0.17221933338E+02 -0.76188369313E+02  0.11955175071E+03  0.47000000000E+01 0.  1.
          5    1    5    5  503    0  0.13416529744E+02  0.51999761525E+02 -0.34907678424E+02  0.64223161569E+02  0.47000000000E+01 0. -1.
         -5    1    5    5    0  503  0.43025820401E+02 -0.72657649341E+02 -0.58552388353E+02  0.10286314894E+03  0.47000000000E+01 0. -1.
<mgrwt>
<rscale>  0 0.27443085E+03</rscale>
<asrwt>0</asrwt>
<pdfrwt beam="1">  1        4 0.37543497E-01 0.27443085E+03</pdfrwt>
<pdfrwt beam="2">  1       -4 0.11869828E-01 0.27443085E+03</pdfrwt>
<totfact> 0.73155742E+02</totfact>
</mgrwt>
</event>
<event>
 9    1  0.2074770E-002  0.2762437E+03  0.7818608E-02  0.1097758E+00
          2   -1    0    0  501    0  0.00000000000E+00  0.00000000000E+00  0.35886485007E+03  0.35886485007E+03  0.00000000000E+00 0. -1.
         -2   -1    0    0    0  501 -0.00000000000E+00 -0.00000000000E+00 -0.53161090488E+02  0.53161090488E+02  0.00000000000E+00 0. -1.
         36    2    1    2    0    0  0.71054273576E-14  0.71054273576E-14  0.30570375958E+03  0.41202594055E+03  0.27624370956E+03 0.  0.
         25    2    3    3    0    0  0.27680256628E+02  0.58373592242E+02  0.15476088468E+03  0.20742318707E+03  0.12206463136E+03 0.  0.
         25    2    3    3    0    0 -0.27680256628E+02 -0.58373592242E+02  0.15094287490E+03  0.20460275348E+03  0.12208547159E+03 0.  0.
          5    1    4    4  502    0  0.72091403696E+02  0.53755452270E+02  0.12294622777E+03  0.15239646997E+03  0.47000000000E+01 0. -1.
         -5    1    4    4    0  502 -0.44411147068E+02  0.46181399717E+01  0.31814656913E+02  0.55026717103E+02  0.47000000000E+01 0. -1.
          5    1    5    5  503    0  0.96062876148E-01  0.36794613440E+02  0.56571379699E+02  0.67648087980E+02  0.47000000000E+01 0. -1.
         -5    1    5    5    0  503 -0.27776319504E+02 -0.95168205681E+02  0.94371495197E+02  0.13695466550E+03  0.47000000000E+01 0. -1.
<mgrwt>
<rscale>  0 0.27624371E+03</rscale>
<asrwt>0</asrwt>
<pdfrwt beam="1">  1        2 0.55209976E-01 0.27624371E+03</pdfrwt>
<pdfrwt beam="2">  1       -2 0.81786295E-02 0.27624371E+03</pdfrwt>
<totfact> 0.81563330E+03</totfact>
</mgrwt>
</event>
<event>
 9    1  0.2074770E-002  0.2764695E+03  0.7818608E-02  0.1097633E+00
         -2   -1    0    0    0  501 -0.00000000000E+00  0.00000000000E+00  0.13406667363E+03  0.13406667363E+03  0.00000000000E+00 0.  1.
          2   -1    0    0  501    0  0.00000000000E+00 -0.00000000000E+00 -0.14253236476E+03  0.14253236476E+03  0.00000000000E+00 0.  1.
         36    2    1    2    0    0 -0.17763568394E-14  0.00000000000E+00 -0.84656911343E+01  0.27659903839E+03  0.27646945602E+03 0.  0.
         25    2    3    3    0    0  0.40283160491E+01 -0.70787967360E+02 -0.14122206931E+02  0.13528600845E+03  0.11434904329E+03 0.  0.
         25    2    3    3    0    0 -0.40283160491E+01  0.70787967360E+02  0.56565157970E+01  0.14131302994E+03  0.12210738146E+03 0.  0.
          5    1    4    4  502    0 -0.98290412121E+01 -0.24183224714E+02 -0.61661129730E+02  0.67123940053E+02  0.47000000000E+01 0.  1.
         -5    1    4    4    0  502  0.13857357261E+02 -0.46604742647E+02  0.47538922798E+02  0.68162068398E+02  0.47000000000E+01 0.  1.
          5    1    5    5  503    0 -0.39916325589E+02  0.90834728059E+02  0.93753831650E+01  0.99770981150E+02  0.47000000000E+01 0.  1.
         -5    1    5    5    0  503  0.35888009540E+02 -0.20046760699E+02 -0.37188673680E+01  0.41542048791E+02  0.47000000000E+01 0.  1.
<mgrwt>
<rscale>  0 0.27646946E+03</rscale>
<asrwt>0</asrwt>
<pdfrwt beam="1">  1        2 0.21928056E-01 0.27646946E+03</pdfrwt>
<pdfrwt beam="2">  1       -2 0.20625642E-01 0.27646946E+03</pdfrwt>
<totfact> 0.49447441E+03</totfact>
</mgrwt>
</event>
<event>
 9    1  0.2074770E-002  0.2751057E+03  0.7818608E-02  0.1098393E+00
          2   -1    0    0  501    0  0.00000000000E+00  0.00000000000E+00  0.37709456083E+03  0.37709456083E+03  0.00000000000E+00 0. -1.
         -2   -1    0    0    0  501 -0.00000000000E+00 -0.00000000000E+00 -0.50175189481E+02  0.50175189481E+02  0.00000000000E+00 0. -1.
         36    2    1    2    0    0  0.71054273576E-14 -0.71054273576E-14  0.32691937135E+03  0.42726975031E+03  0.27510573271E+03 0.  0.
         25    2    3    3    0    0 -0.23276085193E+02 -0.32859435880E+02  0.11789890239E+03  0.17713054775E+03  0.12591092523E+03 0.  0.
         25    2    3    3    0    0  0.23276085193E+02  0.32859435880E+02  0.20902046896E+03  0.25013920256E+03  0.13137178367E+03 0.  0.
          5    1    4    4  502    0 -0.37619077666E+02 -0.67329693464E+02  0.32533246690E+02  0.83839040826E+02  0.47000000000E+01 0.  1.
         -5    1    4    4    0  502  0.14342992473E+02  0.34470257584E+02  0.85365655701E+02  0.93291506925E+02  0.47000000000E+01 0.  1.
          5    1    5    5  503    0  0.34584741978E+02 -0.40254886498E+02  0.13608388968E+03  0.14614196965E+03  0.47000000000E+01 0.  1.
         -5    1    5    5    0  503 -0.11308656784E+02  0.73114322378E+02  0.72936579285E+02  0.10399723291E+03  0.47000000000E+01 0.  1.
<mgrwt>
<rscale>  0 0.27510573E+03</rscale>
<asrwt>0</asrwt>
<pdfrwt beam="1">  1        2 0.58014546E-01 0.27510573E+03</pdfrwt>
<pdfrwt beam="2">  1       -2 0.77192602E-02 0.27510573E+03</pdfrwt>
<totfact> 0.84596187E+03</totfact>
</mgrwt>
</event>
<event>
 9    1  0.2074770E-002  0.2766155E+03  0.7818608E-02  0.1097552E+00
          2   -1    0    0  501    0  0.00000000000E+00  0.00000000000E+00  0.11102023158E+04  0.11102023158E+04  0.00000000000E+00 0. -1.
         -2   -1    0    0    0  501 -0.00000000000E+00 -0.00000000000E+00 -0.17230218840E+02  0.17230218840E+02  0.00000000000E+00 0. -1.
         36    2    1    2    0    0  0.00000000000E+00  0.00000000000E+00  0.10929720970E+04  0.11274325346E+04  0.27661546491E+03 0.  0.
         25    2    3    3    0    0 -0.43067199390E+02  0.96619364816E+01  0.68940016726E+03  0.70399008459E+03  0.13557769694E+03 0.  0.
         25    2    3    3    0    0  0.43067199390E+02 -0.96619364816E+01  0.40357192970E+03  0.42344245004E+03  0.12035393379E+03 0.  0.
          5    1    4    4  502    0 -0.87691529523E+02 -0.12621611874E+02  0.35828279017E+03  0.36910399235E+03  0.47000000000E+01 0.  1.
         -5    1    4    4    0  502  0.44624330133E+02  0.22283548355E+02  0.33111737709E+03  0.33488609224E+03  0.47000000000E+01 0.  1.
          5    1    5    5  503    0 -0.20380719581E+02 -0.48650842091E+02  0.14739230462E+03  0.15661691999E+03  0.47000000000E+01 0.  1.
         -5    1    5    5    0  503  0.63447918971E+02  0.38988905609E+02  0.25617962508E+03  0.26682553005E+03  0.47000000000E+01 0.  1.
<mgrwt>
<rscale>  0 0.27661546E+03</rscale>
<asrwt>0</asrwt>
<pdfrwt beam="1">  1        2 0.17080030E+00 0.27661546E+03</pdfrwt>
<pdfrwt beam="2">  1       -2 0.26508038E-02 0.27661546E+03</pdfrwt>
<totfact> 0.11458547E+04</totfact>
</mgrwt>
</event>
<event>
 9    1  0.2074770E-002  0.2751527E+03  0.7818608E-02  0.1098366E+00
          3   -1    0    0  501    0  0.00000000000E+00  0.00000000000E+00  0.34932403138E+02  0.34932403138E+02  0.00000000000E+00 0.  1.
         -3   -1    0    0    0  501 -0.00000000000E+00 -0.00000000000E+00 -0.54182503198E+03  0.54182503198E+03  0.00000000000E+00 0.  1.
         36    2    1    2    0    0 -0.71054273576E-14  0.71054273576E-14 -0.50689262884E+03  0.57675743512E+03  0.27515268814E+03 0.  0.
         25    2    3    3    0    0 -0.49957586483E+02  0.37287438388E+02 -0.30416756632E+03  0.33457093323E+03  0.12463421464E+03 0.  0.
         25    2    3    3    0    0  0.49957586483E+02 -0.37287438388E+02 -0.20272506253E+03  0.24218650188E+03  0.11692192784E+03 0.  0.
          5    1    4    4  502    0 -0.15917986337E+02 -0.37671103512E+02 -0.18584527675E+03  0.19034981276E+03  0.47000000000E+01 0.  1.
         -5    1    4    4    0  502 -0.34039600146E+02  0.74958541900E+02 -0.11832228957E+03  0.14422112047E+03  0.47000000000E+01 0.  1.
          5    1    5    5  503    0  0.19893732588E+02 -0.65945230347E+02 -0.18372969294E+03  0.19627334019E+03  0.47000000000E+01 0.  1.
         -5    1    5    5    0  503  0.30063853895E+02  0.28657791959E+02 -0.18995369586E+02  0.45913161693E+02  0.47000000000E+01 0.  1.
<mgrwt>
<rscale>  0 0.27515269E+03</rscale>
<asrwt>0</asrwt>
<pdfrwt beam="1">  1        3 0.53742163E-02 0.27515269E+03</pdfrwt>
<pdfrwt beam="2">  1       -3 0.83357691E-01 0.27515269E+03</pdfrwt>
<totfact> 0.70269562E+02</totfact>
</mgrwt>
</event>
<event>
 9    1  0.2074770E-002  0.2757674E+03  0.7818608E-02  0.1098023E+00
          1   -1    0    0  501    0  0.00000000000E+00  0.00000000000E+00  0.10106698053E+03  0.10106698053E+03  0.00000000000E+00 0.  1.
         -1   -1    0    0    0  501 -0.00000000000E+00 -0.00000000000E+00 -0.18811204552E+03  0.18811204552E+03  0.00000000000E+00 0.  1.
         36    2    1    2    0    0  0.00000000000E+00  0.00000000000E+00 -0.87045064996E+02  0.28917902605E+03  0.27576741244E+03 0.  0.
         25    2    3    3    0    0 -0.39011480024E+02  0.21542963982E+02  0.15763762007E+01  0.13424180563E+03  0.12661904496E+03 0.  0.
         25    2    3    3    0    0  0.39011480024E+02 -0.21542963982E+02 -0.88621441197E+02  0.15493722041E+03  0.11902011409E+03 0.  0.
          5    1    4    4  502    0  0.30943195046E+02  0.25291147149E+01  0.40957698010E+02  0.51609115156E+02  0.47000000000E+01 0. -1.
         -5    1    4    4    0  502 -0.69954675070E+02  0.19013849267E+02 -0.39381321809E+02  0.82632690478E+02  0.47000000000E+01 0. -1.
          5    1    5    5  503    0  0.23911266699E+02 -0.27789874130E+02  0.22002393959E+02  0.43014196718E+02  0.47000000000E+01 0.  1.
         -5    1    5    5    0  503  0.15100213325E+02  0.62469101484E+01 -0.11062383516E+03  0.11192302370E+03  0.47000000000E+01 0.  1.
<mgrwt>
<rscale>  0 0.27576741E+03</rscale>
<asrwt>0</asrwt>
<pdfrwt beam="1">  1        1 0.15548766E-01 0.27576741E+03</pdfrwt>
<pdfrwt beam="2">  1       -1 0.28940314E-01 0.27576741E+03</pdfrwt>
<totfact> 0.38404669E+03</totfact>
</mgrwt>
</event>
<event>
 9    1  0.2074770E-002  0.2721230E+03  0.7818608E-02  0.1100071E+00
          1   -1    0    0  501    0  0.00000000000E+00  0.00000000000E+00  0.69085113517E+03  0.69085113517E+03  0.00000000000E+00 0.  1.
         -1   -1    0    0    0  501 -0.00000000000E+00 -0.00000000000E+00 -0.26797000487E+02  0.26797000487E+02  0.00000000000E+00 0.  1.
         36    2    1    2    0    0 -0.21316282073E-13  0.17763568394E-14  0.66405413469E+03  0.71764813566E+03  0.27212304721E+03 0.  0.
         25    2    3    3    0    0 -0.38314742348E+02 -0.10185555603E+02  0.43008516375E+03  0.44946946739E+03  0.12440976255E+03 0.  0.
         25    2    3    3    0    0  0.38314742348E+02  0.10185555603E+02  0.23396897094E+03  0.26817866827E+03  0.12492619312E+03 0.  0.
          5    1    4    4  502    0  0.32531595077E+02  0.15906622409E+02  0.49911017871E+02  0.61842744276E+02  0.47000000000E+01 0. -1.
         -5    1    4    4    0  502 -0.70846337425E+02 -0.26092178011E+02  0.38017414588E+03  0.38762672312E+03  0.47000000000E+01 0. -1.
          5    1    5    5  503    0 -0.41749466000E+02 -0.18263774918E+02  0.88208548854E+02  0.99395278945E+02  0.47000000000E+01 0. -1.
         -5    1    5    5    0  503  0.80064208348E+02  0.28449330521E+02  0.14576042208E+03  0.16878338932E+03  0.47000000000E+01 0. -1.
<mgrwt>
<rscale>  0 0.27212305E+03</rscale>
<asrwt>0</asrwt>
<pdfrwt beam="1">  1        1 0.10628478E+00 0.27212305E+03</pdfrwt>
<pdfrwt beam="2">  1       -1 0.41226160E-02 0.27212305E+03</pdfrwt>
<totfact> 0.67340861E+03</totfact>
</mgrwt>
</event>
<event>
 9    1  0.2074770E-002  0.2758158E+03  0.7818608E-02  0.1097996E+00
         -1   -1    0    0    0  501 -0.00000000000E+00  0.00000000000E+00  0.23664961844E+03  0.23664961844E+03  0.00000000000E+00 0. -1.
          1   -1    0    0  501    0  0.00000000000E+00 -0.00000000000E+00 -0.80366050364E+02  0.80366050364E+02  0.00000000000E+00 0. -1.
         36    2    1    2    0    0  0.00000000000E+00  0.00000000000E+00  0.15628356808E+03  0.31701566881E+03  0.27581584548E+03 0.  0.
         25    2    3    3    0    0 -0.32181989996E+02 -0.55604829237E+02  0.76531536064E+02  0.15902218402E+03  0.12370691768E+03 0.  0.
         25    2    3    3    0    0  0.32181989996E+02  0.55604829237E+02  0.79752032014E+02  0.15799348479E+03  0.12030784310E+03 0.  0.
          5    1    4    4  502    0 -0.31865674501E+02 -0.45914602413E+02 -0.21747031068E+02  0.60154761128E+02  0.47000000000E+01 0. -1.
         -5    1    4    4    0  502 -0.31631549563E+00 -0.96902268237E+01  0.98278567132E+02  0.98867422890E+02  0.47000000000E+01 0. -1.
          5    1    5    5  503    0  0.32679417381E+02  0.87930311929E+02  0.30235499613E+02  0.98670965908E+02  0.47000000000E+01 0. -1.
         -5    1    5    5    0  503 -0.49742738471E+00 -0.32325482692E+02  0.49516532402E+02  0.59322518881E+02  0.47000000000E+01 0. -1.
<mgrwt>
<rscale>  0 0.27581585E+03</rscale>
<asrwt>0</asrwt>
<pdfrwt beam="1">  1        1 0.12364008E-01 0.27581585E+03</pdfrwt>
<pdfrwt beam="2">  1       -1 0.36407633E-01 0.27581585E+03</pdfrwt>
<totfact> 0.35009569E+03</totfact>
</mgrwt>
</event>
<event>
 9    1  0.2074770E-002  0.2750409E+03  0.7818608E-02  0.1098429E+00
         -2   -1    0    0    0  501 -0.00000000000E+00  0.00000000000E+00  0.87477758736E+02  0.87477758736E+02  0.00000000000E+00 0.  1.
          2   -1    0    0  501    0  0.00000000000E+00 -0.00000000000E+00 -0.21619069881E+03  0.21619069881E+03  0.00000000000E+00 0.  1.
         36    2    1    2    0    0 -0.71054273576E-14  0.14210854715E-13 -0.12871294008E+03  0.30366845755E+03  0.27504092635E+03 0.  0.
         25    2    3    3    0    0  0.30360545451E+02 -0.44352775439E+02 -0.36487535968E+02  0.13955115219E+03  0.12350810657E+03 0.  0.
         25    2    3    3    0    0 -0.30360545451E+02  0.44352775439E+02 -0.92225404107E+02  0.16411730535E+03  0.12465967008E+03 0.  0.
          5    1    4    4  502    0  0.11094983308E+02  0.37012695124E+02 -0.39890425289E+02  0.55734856999E+02  0.47000000000E+01 0.  1.
         -5    1    4    4    0  502  0.19265562143E+02 -0.81365470563E+02  0.34028893209E+01  0.83816295196E+02  0.47000000000E+01 0.  1.
          5    1    5    5  503    0 -0.76609874829E+01  0.20723162654E+02 -0.11925901136E+03  0.12137933098E+03  0.47000000000E+01 0.  1.
         -5    1    5    5    0  503 -0.22699557968E+02  0.23629612785E+02  0.27033607251E+02  0.42737974371E+02  0.47000000000E+01 0.  1.
<mgrwt>
<rscale>  0 0.27504093E+03</rscale>
<asrwt>0</asrwt>
<pdfrwt beam="1">  1        2 0.33260107E-01 0.27504093E+03</pdfrwt>
<pdfrwt beam="2">  1       -2 0.13458117E-01 0.27504093E+03</pdfrwt>
<totfact> 0.63616237E+03</totfact>
</mgrwt>
</event>
<event>
 9    1  0.2074770E-002  0.2759537E+03  0.7818608E-02  0.1097920E+00
         -1   -1    0    0    0  501 -0.00000000000E+00  0.00000000000E+00  0.40640080468E+03  0.40640080468E+03  0.00000000000E+00 0.  1.
          1   -1    0    0  501    0  0.00000000000E+00 -0.00000000000E+00 -0.46844431532E+02  0.46844431532E+02  0.00000000000E+00 0.  1.
         36    2    1    2    0    0  0.71054273576E-14  0.71054273576E-14  0.35955637314E+03  0.45324523621E+03  0.27595372561E+03 0.  0.
         25    2    3    3    0    0 -0.35246989919E+02 -0.38965170619E+02  0.22339908477E+03  0.26012148541E+03  0.12245571150E+03 0.  0.
         25    2    3    3    0    0  0.35246989919E+02  0.38965170619E+02  0.13615728838E+03  0.19312375079E+03  0.12648059583E+03 0.  0.
          5    1    4    4  502    0 -0.38400036230E+02  0.46758842424E+01  0.73740455555E+01  0.39659717898E+02  0.47000000000E+01 0. -1.
         -5    1    4    4    0  502  0.31530463109E+01 -0.43641054861E+02  0.21602503921E+03  0.22046176752E+03  0.47000000000E+01 0. -1.
          5    1    5    5  503    0  0.69526486697E+02 -0.15923293752E+02  0.62366164256E+02  0.94863649942E+02  0.47000000000E+01 0.  1.
         -5    1    5    5    0  503 -0.34279496778E+02  0.54888464371E+02  0.73791124121E+02  0.98260100852E+02  0.47000000000E+01 0.  1.
<mgrwt>
<rscale>  0 0.27595373E+03</rscale>
<asrwt>0</asrwt>
<pdfrwt beam="1">  1        1 0.72068359E-02 0.27595373E+03</pdfrwt>
<pdfrwt beam="2">  1       -1 0.62523198E-01 0.27595373E+03</pdfrwt>
<totfact> 0.26841735E+03</totfact>
</mgrwt>
</event>
<event>
 9    1  0.2074770E-002  0.2743699E+03  0.7818608E-02  0.1098804E+00
          1   -1    0    0  501    0  0.00000000000E+00  0.00000000000E+00  0.35425905586E+03  0.35425905586E+03  0.00000000000E+00 0. -1.
         -1   -1    0    0    0  501 -0.00000000000E+00 -0.00000000000E+00 -0.53124146148E+02  0.53124146148E+02  0.00000000000E+00 0. -1.
         36    2    1    2    0    0  0.00000000000E+00  0.00000000000E+00  0.30113490971E+03  0.40738320201E+03  0.27436989527E+03 0.  0.
         25    2    3    3    0    0  0.20748210083E+02  0.55750986838E+02  0.14923058734E+03  0.20340080832E+03  0.12475359663E+03 0.  0.
         25    2    3    3    0    0 -0.20748210083E+02 -0.55750986838E+02  0.15190432237E+03  0.20398239369E+03  0.12245502450E+03 0.  0.
          5    1    4    4  502    0  0.21616645989E+01 -0.27502622006E+02  0.10202619943E+03  0.10579462360E+03  0.47000000000E+01 0.  1.
         -5    1    4    4    0  502  0.18586545484E+02  0.83253608844E+02  0.47204387904E+02  0.97606184722E+02  0.47000000000E+01 0.  1.
          5    1    5    5  503    0  0.35853111904E+02  0.20083769570E+02  0.44181231324E+02  0.60521687308E+02  0.47000000000E+01 0. -1.
         -5    1    5    5    0  503 -0.56601321987E+02 -0.75834756408E+02  0.10772309105E+03  0.14346070638E+03  0.47000000000E+01 0. -1.
<mgrwt>
<rscale>  0 0.27436990E+03</rscale>
<asrwt>0</asrwt>
<pdfrwt beam="1">  1        1 0.54501392E-01 0.27436990E+03</pdfrwt>
<pdfrwt beam="2">  1       -1 0.81729458E-02 0.27436990E+03</pdfrwt>
<totfact> 0.58662779E+03</totfact>
</mgrwt>
</event>
<event>
 9    1  0.2074770E-002  0.2752167E+03  0.7818608E-02  0.1098331E+00
          2   -1    0    0  501    0  0.00000000000E+00  0.00000000000E+00  0.17179198269E+03  0.17179198269E+03  0.00000000000E+00 0.  1.
         -2   -1    0    0    0  501 -0.00000000000E+00 -0.00000000000E+00 -0.11022667845E+03  0.11022667845E+03  0.00000000000E+00 0.  1.
         36    2    1    2    0    0  0.00000000000E+00 -0.17763568394E-14  0.61565304241E+02  0.28201866115E+03  0.27521671197E+03 0.  0.
         25    2    3    3    0    0 -0.42582066928E+02 -0.44310316629E+01  0.45251266938E+02  0.14138643922E+03  0.12692352646E+03 0.  0.
         25    2    3    3    0    0  0.42582066928E+02  0.44310316629E+01  0.16314037303E+02  0.14063222193E+03  0.13296017286E+03 0.  0.
          5    1    4    4  502    0 -0.75100466855E+02 -0.30787170533E+02  0.24552232937E+01  0.81339093385E+02  0.47000000000E+01 0.  1.
         -5    1    4    4    0  502  0.32518399927E+02  0.26356138870E+02  0.42796043645E+02  0.60047345833E+02  0.47000000000E+01 0.  1.
          5    1    5    5  503    0  0.22006462784E+02  0.92666485128E+01 -0.58174963192E+02  0.63060062808E+02  0.47000000000E+01 0.  1.
         -5    1    5    5    0  503  0.20575604143E+02 -0.48356168499E+01  0.74489000495E+02  0.77572159122E+02  0.47000000000E+01 0.  1.
<mgrwt>
<rscale>  0 0.27521671E+03</rscale>
<asrwt>0</asrwt>
<pdfrwt beam="1">  1        2 0.26429536E-01 0.27521671E+03</pdfrwt>
<pdfrwt beam="2">  1       -2 0.16957951E-01 0.27521671E+03</pdfrwt>
<totfact> 0.55884801E+03</totfact>
</mgrwt>
</event>
<event>
 9    1  0.2074770E-002  0.2770999E+03  0.7818608E-02  0.1097284E+00
          2   -1    0    0  501    0  0.00000000000E+00  0.00000000000E+00  0.45572784879E+02  0.45572784879E+02  0.00000000000E+00 0. -1.
         -2   -1    0    0    0  501 -0.00000000000E+00 -0.00000000000E+00 -0.42121819775E+03  0.42121819775E+03  0.00000000000E+00 0. -1.
         36    2    1    2    0    0  0.14210854715E-13 -0.71054273576E-14 -0.37564541287E+03  0.46679098263E+03  0.27709988317E+03 0.  0.
         25    2    3    3    0    0 -0.37885863814E+02 -0.19186608025E+02 -0.28923768994E+03  0.31800942445E+03  0.12517223396E+03 0.  0.
         25    2    3    3    0    0  0.37885863814E+02  0.19186608025E+02 -0.86407722932E+02  0.14878155818E+03  0.11342924168E+03 0.  0.
          5    1    4    4  502    0 -0.21772644441E+00  0.41556736840E+02 -0.19611661843E+03  0.20052637684E+03  0.47000000000E+01 0.  1.
         -5    1    4    4    0  502 -0.37668137369E+02 -0.60743344865E+02 -0.93121071506E+02  0.11748304761E+03  0.47000000000E+01 0.  1.
          5    1    5    5  503    0 -0.75964824635E+01 -0.42933710955E+02 -0.28017970722E+02  0.52039473148E+02  0.47000000000E+01 0.  1.
         -5    1    5    5    0  503  0.45482346277E+02  0.62120318980E+02 -0.58389752210E+02  0.96742085031E+02  0.47000000000E+01 0.  1.
<mgrwt>
<rscale>  0 0.27709988E+03</rscale>
<asrwt>0</asrwt>
<pdfrwt beam="1">  1        2 0.70111978E-02 0.27709988E+03</pdfrwt>
<pdfrwt beam="2">  1       -2 0.64802798E-01 0.27709988E+03</pdfrwt>
<totfact> 0.22624272E+03</totfact>
</mgrwt>
</event>
<event>
 9    1  0.2074770E-002  0.2753561E+03  0.7818608E-02  0.1098253E+00
         -1   -1    0    0    0  501 -0.00000000000E+00  0.00000000000E+00  0.32835006693E+02  0.32835006693E+02  0.00000000000E+00 0. -1.
          1   -1    0    0  501    0  0.00000000000E+00 -0.00000000000E+00 -0.57728750343E+03  0.57728750343E+03  0.00000000000E+00 0. -1.
         36    2    1    2    0    0 -0.14210854715E-13  0.00000000000E+00 -0.54445249674E+03  0.61012251012E+03  0.27535605342E+03 0.  0.
         25    2    3    3    0    0 -0.58839837611E+02 -0.15270240039E+01 -0.28076507084E+03  0.31273471670E+03  0.12453722229E+03 0.  0.
         25    2    3    3    0    0  0.58839837611E+02  0.15270240039E+01 -0.26368742590E+03  0.29738779342E+03  0.12427382189E+03 0.  0.
          5    1    4    4  502    0  0.98812527182E+01  0.91195559590E+01  0.75451786658E+01  0.16119093562E+02  0.47000000000E+01 0. -1.
         -5    1    4    4    0  502 -0.68721090329E+02 -0.10646579963E+02 -0.28831024950E+03  0.29661562314E+03  0.47000000000E+01 0. -1.
          5    1    5    5  503    0  0.59653010390E+02 -0.31191538175E+02 -0.57763559322E+02  0.88826305157E+02  0.47000000000E+01 0.  1.
         -5    1    5    5    0  503 -0.81317277950E+00  0.32718562179E+02 -0.20592386658E+03  0.20856148827E+03  0.47000000000E+01 0.  1.
<mgrwt>
<rscale>  0 0.27535605E+03</rscale>
<asrwt>0</asrwt>
<pdfrwt beam="1">  1        1 0.88813463E-01 0.27535605E+03</pdfrwt>
<pdfrwt beam="2">  1       -1 0.50515395E-02 0.27535605E+03</pdfrwt>
<totfact> 0.64074027E+03</totfact>
</mgrwt>
</event>
<event>
 9    1  0.2074770E-002  0.2737580E+03  0.7818608E-02  0.1099148E+00
         -1   -1    0    0    0  501 -0.00000000000E+00  0.00000000000E+00  0.29409886047E+02  0.29409886047E+02  0.00000000000E+00 0.  1.
          1   -1    0    0  501    0  0.00000000000E+00 -0.00000000000E+00 -0.63706008670E+03  0.63706008670E+03  0.00000000000E+00 0.  1.
         36    2    1    2    0    0 -0.35527136788E-14  0.00000000000E+00 -0.60765020066E+03  0.66646997275E+03  0.27375802860E+03 0.  0.
         25    2    3    3    0    0 -0.11867778648E+02  0.11465176378E+02 -0.16708357082E+03  0.20958204054E+03  0.12544089301E+03 0.  0.
         25    2    3    3    0    0  0.11867778648E+02 -0.11465176378E+02 -0.44056662984E+03  0.45688793222E+03  0.11989717611E+03 0.  0.
          5    1    4    4  502    0  0.23321997173E+01  0.50967801283E+02 -0.15837121241E+03  0.16645325724E+03  0.47000000000E+01 0.  1.
         -5    1    4    4    0  502 -0.14199978366E+02 -0.39502624905E+02 -0.87123584064E+01  0.43128783300E+02  0.47000000000E+01 0.  1.
          5    1    5    5  503    0 -0.31546500512E+02 -0.47023905649E+02 -0.30228997000E+03  0.30758372090E+03  0.47000000000E+01 0.  1.
         -5    1    5    5    0  503  0.43414279161E+02  0.35558729271E+02 -0.13827665983E+03  0.14930421132E+03  0.47000000000E+01 0.  1.
<mgrwt>
<rscale>  0 0.27375803E+03</rscale>
<asrwt>0</asrwt>
<pdfrwt beam="1">  1        1 0.98009241E-01 0.27375803E+03</pdfrwt>
<pdfrwt beam="2">  1       -1 0.45245980E-02 0.27375803E+03</pdfrwt>
<totfact> 0.65850477E+03</totfact>
</mgrwt>
</event>
<event>
 9    1  0.2074770E-002  0.2750859E+03  0.7818608E-02  0.1098404E+00
         -1   -1    0    0    0  501 -0.00000000000E+00  0.00000000000E+00  0.27441260353E+02  0.27441260353E+02  0.00000000000E+00 0.  1.
          1   -1    0    0  501    0  0.00000000000E+00 -0.00000000000E+00 -0.68940205933E+03  0.68940205933E+03  0.00000000000E+00 0.  1.
         36    2    1    2    0    0  0.00000000000E+00  0.00000000000E+00 -0.66196079897E+03  0.71684331968E+03  0.27508588766E+03 0.  0.
         25    2    3    3    0    0 -0.13112787144E+02 -0.53348448579E+02 -0.31914578497E+03  0.34808794195E+03  0.12764474575E+03 0.  0.
         25    2    3    3    0    0  0.13112787144E+02  0.53348448579E+02 -0.34281501401E+03  0.36875537773E+03  0.12425937640E+03 0.  0.
          5    1    4    4  502    0 -0.49892496748E+02 -0.72051189688E+02 -0.14881420126E+03  0.17276687086E+03  0.47000000000E+01 0. -1.
         -5    1    4    4    0  502  0.36779709605E+02  0.18702741110E+02 -0.17033158370E+03  0.17532107110E+03  0.47000000000E+01 0. -1.
          5    1    5    5  503    0  0.38045352067E+02  0.43018738838E+02 -0.33548559647E+03  0.34039790854E+03  0.47000000000E+01 0. -1.
         -5    1    5    5    0  503 -0.24932564923E+02  0.10329709740E+02 -0.73294175401E+01  0.28357469183E+02  0.47000000000E+01 0. -1.
<mgrwt>
<rscale>  0 0.27508589E+03</rscale>
<asrwt>0</asrwt>
<pdfrwt beam="1">  1        1 0.10606186E+00 0.27508589E+03</pdfrwt>
<pdfrwt beam="2">  1       -1 0.42217321E-02 0.27508589E+03</pdfrwt>
<totfact> 0.65218675E+03</totfact>
</mgrwt>
</event>
<event>
 9    1  0.2074770E-002  0.2752654E+03  0.7818608E-02  0.1098303E+00
          2   -1    0    0  501    0  0.00000000000E+00  0.00000000000E+00  0.22619075392E+04  0.22619075392E+04  0.00000000000E+00 0.  1.
         -2   -1    0    0    0  501 -0.00000000000E+00 -0.00000000000E+00 -0.83746833659E+01  0.83746833659E+01  0.00000000000E+00 0.  1.
         36    2    1    2    0    0  0.71054273576E-14  0.00000000000E+00  0.22535328559E+04  0.22702822226E+04  0.27526539517E+03 0.  0.
         25    2    3    3    0    0 -0.48650215088E+02 -0.23915288847E+01  0.14089938409E+04  0.14156400486E+04  0.12806459584E+03 0.  0.
         25    2    3    3    0    0  0.48650215088E+02  0.23915288847E+01  0.84453901498E+03  0.85464217400E+03  0.12163278717E+03 0.  0.
          5    1    4    4  502    0 -0.76966158785E+00 -0.58820738411E+02  0.46329550061E+03  0.46703884478E+03  0.47000000000E+01 0. -1.
         -5    1    4    4    0  502 -0.47880553500E+02  0.56429209527E+02  0.94569834027E+03  0.94860120382E+03  0.47000000000E+01 0. -1.
          5    1    5    5  503    0 -0.13481271123E+02 -0.47096622115E+02  0.40263328965E+03  0.40562974795E+03  0.47000000000E+01 0. -1.
         -5    1    5    5    0  503  0.62131486211E+02  0.49488151000E+02  0.44190572533E+03  0.44901242606E+03  0.47000000000E+01 0. -1.
<mgrwt>
<rscale>  0 0.27526540E+03</rscale>
<asrwt>0</asrwt>
<pdfrwt beam="1">  1        2 0.34798529E+00 0.27526540E+03</pdfrwt>
<pdfrwt beam="2">  1       -2 0.12884146E-02 0.27526540E+03</pdfrwt>
<totfact> 0.79524874E+03</totfact>
</mgrwt>
</event>
<event>
 9    1  0.2074770E-002  0.2760148E+03  0.7818608E-02  0.1097886E+00
         -2   -1    0    0    0  501 -0.00000000000E+00  0.00000000000E+00  0.77920235833E+01  0.77920235833E+01  0.00000000000E+00 0. -1.
          2   -1    0    0  501    0  0.00000000000E+00 -0.00000000000E+00 -0.24443003320E+04  0.24443003320E+04  0.00000000000E+00 0. -1.
         36    2    1    2    0    0 -0.35527136788E-14  0.00000000000E+00 -0.24365083084E+04  0.24520923555E+04  0.27601482447E+03 0.  0.
         25    2    3    3    0    0  0.96442246483E+01 -0.78317731493E+02 -0.13121113847E+04  0.13194241819E+04  0.11409297803E+03 0.  0.
         25    2    3    3    0    0 -0.96442246483E+01  0.78317731493E+02 -0.11243969237E+04  0.11326681737E+04  0.11154403439E+03 0.  0.
          5    1    4    4  502    0 -0.25483147300E+00 -0.85726418064E+01 -0.61435207990E+01  0.11549371170E+02  0.47000000000E+01 0.  1.
         -5    1    4    4    0  502  0.98990561213E+01 -0.69745089687E+02 -0.13059678639E+04  0.13078748107E+04  0.47000000000E+01 0.  1.
          5    1    5    5  503    0 -0.34079416708E+02  0.82485519108E+02 -0.10558483701E+04  0.10596240551E+04  0.47000000000E+01 0.  1.
         -5    1    5    5    0  503  0.24435192060E+02 -0.41677876153E+01 -0.68548553570E+02  0.73044118593E+02  0.47000000000E+01 0.  1.
<mgrwt>
<rscale>  0 0.27601482E+03</rscale>
<asrwt>0</asrwt>
<pdfrwt beam="1">  1        2 0.37604610E+00 0.27601482E+03</pdfrwt>
<pdfrwt beam="2">  1       -2 0.11987732E-02 0.27601482E+03</pdfrwt>
<totfact> 0.70435826E+03</totfact>
</mgrwt>
</event>
<event>
 9    1  0.2074770E-002  0.2757249E+03  0.7818608E-02  0.1098047E+00
          2   -1    0    0  501    0  0.00000000000E+00  0.00000000000E+00  0.15874547913E+04  0.15874547913E+04  0.00000000000E+00 0.  1.
         -2   -1    0    0    0  501 -0.00000000000E+00 -0.00000000000E+00 -0.11972655836E+02  0.11972655836E+02  0.00000000000E+00 0.  1.
         36    2    1    2    0    0  0.35527136788E-14 -0.14210854715E-13  0.15754821355E+04  0.15994274472E+04  0.27572486194E+03 0.  0.
         25    2    3    3    0    0 -0.21621951405E+02 -0.24854575393E+02  0.10784796003E+04  0.10859333673E+04  0.12266935800E+03 0.  0.
         25    2    3    3    0    0  0.21621951405E+02  0.24854575393E+02  0.49700253520E+03  0.51349407981E+03  0.12481743189E+03 0.  0.
          5    1    4    4  502    0 -0.15902249660E+02 -0.66503406769E+02  0.89587699453E+03  0.89849499943E+03  0.47000000000E+01 0.  1.
         -5    1    4    4    0  502 -0.57197017448E+01  0.41648831377E+02  0.18260260574E+03  0.18743836792E+03  0.47000000000E+01 0.  1.
          5    1    5    5  503    0 -0.11830511088E+02 -0.44514569606E+02  0.26454845692E+03  0.26856932803E+03  0.47000000000E+01 0. -1.
         -5    1    5    5    0  503  0.33452462493E+02  0.69369144999E+02  0.23245407828E+03  0.24492475178E+03  0.47000000000E+01 0. -1.
<mgrwt>
<rscale>  0 0.27572486E+03</rscale>
<asrwt>0</asrwt>
<pdfrwt beam="1">  1        2 0.24422365E+00 0.27572486E+03</pdfrwt>
<pdfrwt beam="2">  1       -2 0.18419483E-02 0.27572486E+03</pdfrwt>
<totfact> 0.10694624E+04</totfact>
</mgrwt>
</event>
<event>
 9    1  0.2074770E-002  0.2751958E+03  0.7818608E-02  0.1098342E+00
          1   -1    0    0  501    0  0.00000000000E+00  0.00000000000E+00  0.89102298508E+02  0.89102298508E+02  0.00000000000E+00 0.  1.
         -1   -1    0    0    0  501 -0.00000000000E+00 -0.00000000000E+00 -0.21248806955E+03  0.21248806955E+03  0.00000000000E+00 0.  1.
         36    2    1    2    0    0  0.00000000000E+00  0.35527136788E-14 -0.12338577104E+03  0.30159036806E+03  0.27519575144E+03 0.  0.
         25    2    3    3    0    0 -0.34627094969E+02  0.53771288464E+01 -0.11517325502E+03  0.17478077604E+03  0.12671026707E+03 0.  0.
         25    2    3    3    0    0  0.34627094969E+02 -0.53771288464E+01 -0.82125160164E+01  0.12680959202E+03  0.12159472845E+03 0.  0.
          5    1    4    4  502    0 -0.34260982591E+02  0.36251448543E+02  0.52485122990E+01  0.50374788644E+02  0.47000000000E+01 0. -1.
         -5    1    4    4    0  502 -0.36611237703E+00 -0.30874319697E+02 -0.12042176732E+03  0.12440598740E+03  0.47000000000E+01 0. -1.
          5    1    5    5  503    0  0.68001465899E+01  0.53777998148E+02 -0.23882528367E+02  0.59420368895E+02  0.47000000000E+01 0.  1.
         -5    1    5    5    0  503  0.27826948379E+02 -0.59155126994E+02  0.15670012351E+02  0.67389223121E+02  0.47000000000E+01 0.  1.
<mgrwt>
<rscale>  0 0.27519575E+03</rscale>
<asrwt>0</asrwt>
<pdfrwt beam="1">  1        1 0.13708046E-01 0.27519575E+03</pdfrwt>
<pdfrwt beam="2">  1       -1 0.32690472E-01 0.27519575E+03</pdfrwt>
<totfact> 0.36808973E+03</totfact>
</mgrwt>
</event>
<event>
 9    1  0.2074770E-002  0.2753508E+03  0.7818608E-02  0.1098256E+00
         -2   -1    0    0    0  501 -0.00000000000E+00  0.00000000000E+00  0.17743689162E+02  0.17743689162E+02  0.00000000000E+00 0. -1.
          2   -1    0    0  501    0  0.00000000000E+00 -0.00000000000E+00 -0.10682395532E+04  0.10682395532E+04  0.00000000000E+00 0. -1.
         36    2    1    2    0    0  0.00000000000E+00 -0.53290705182E-14 -0.10504958641E+04  0.10859832424E+04  0.27535076236E+03 0.  0.
         25    2    3    3    0    0 -0.14861978458E+02 -0.19438044506E+01 -0.74236988818E+03  0.75306509018E+03  0.12557596266E+03 0.  0.
         25    2    3    3    0    0  0.14861978458E+02  0.19438044506E+01 -0.30812597588E+03  0.33291815220E+03  0.12517276969E+03 0.  0.
          5    1    4    4  502    0  0.22001233561E+01  0.94591940594E+01 -0.40004155378E+00  0.10796616520E+02  0.47000000000E+01 0. -1.
         -5    1    4    4    0  502 -0.17062101814E+02 -0.11402998510E+02 -0.74196984662E+03  0.74226847366E+03  0.47000000000E+01 0. -1.
          5    1    5    5  503    0  0.37322281024E+02 -0.36756634118E+02 -0.26644589155E+03  0.27158701356E+03  0.47000000000E+01 0. -1.
         -5    1    5    5    0  503 -0.22460302566E+02  0.38700438569E+02 -0.41680084335E+02  0.61331138640E+02  0.47000000000E+01 0. -1.
<mgrwt>
<rscale>  0 0.27535076E+03</rscale>
<asrwt>0</asrwt>
<pdfrwt beam="1">  1        2 0.16434456E+00 0.27535076E+03</pdfrwt>
<pdfrwt beam="2">  1       -2 0.27297981E-02 0.27535076E+03</pdfrwt>
<totfact> 0.11612072E+04</totfact>
</mgrwt>
</event>
<event>
 9    1  0.2074770E-002  0.2751875E+03  0.7818608E-02  0.1098347E+00
          2   -1    0    0  501    0  0.00000000000E+00  0.00000000000E+00  0.13098240385E+03  0.13098240385E+03  0.00000000000E+00 0. -1.
         -2   -1    0    0    0  501 -0.00000000000E+00 -0.00000000000E+00 -0.14453885059E+03  0.14453885059E+03  0.00000000000E+00 0. -1.
         36    2    1    2    0    0  0.17763568394E-14  0.71054273576E-14 -0.13556446747E+02  0.27552125444E+03  0.27518754405E+03 0.  0.
         25    2    3    3    0    0  0.51972929602E+01  0.48423516831E+02  0.19553978229E+02  0.13663729918E+03  0.12615682552E+03 0.  0.
         25    2    3    3    0    0 -0.51972929602E+01 -0.48423516831E+02 -0.33110424976E+02  0.13888395526E+03  0.12577998231E+03 0.  0.
          5    1    4    4  502    0 -0.46463787134E+02  0.51914041470E+02 -0.18463834347E+02  0.72228487423E+02  0.47000000000E+01 0. -1.
         -5    1    4    4    0  502  0.51661080095E+02 -0.34905246386E+01  0.38017812576E+02  0.64408811756E+02  0.47000000000E+01 0. -1.
          5    1    5    5  503    0 -0.77742007238E+01  0.16138871942E+02  0.38253063809E+02  0.42500450295E+02  0.47000000000E+01 0. -1.
         -5    1    5    5    0  503  0.25769077636E+01 -0.64562388773E+02 -0.71363488785E+02  0.96383504965E+02  0.47000000000E+01 0. -1.
<mgrwt>
<rscale>  0 0.27518754E+03</rscale>
<asrwt>0</asrwt>
<pdfrwt beam="1">  1        2 0.20151139E-01 0.27518754E+03</pdfrwt>
<pdfrwt beam="2">  1       -2 0.22236746E-01 0.27518754E+03</pdfrwt>
<totfact> 0.47805024E+03</totfact>
</mgrwt>
</event>
<event>
 9    1  0.2074770E-002  0.2745275E+03  0.7818608E-02  0.1098716E+00
          1   -1    0    0  501    0  0.00000000000E+00  0.00000000000E+00  0.36955648281E+03  0.36955648281E+03  0.00000000000E+00 0.  1.
         -1   -1    0    0    0  501 -0.00000000000E+00 -0.00000000000E+00 -0.50983628227E+02  0.50983628227E+02  0.00000000000E+00 0.  1.
         36    2    1    2    0    0  0.00000000000E+00  0.00000000000E+00  0.31857285458E+03  0.42054011103E+03  0.27452745093E+03 0.  0.
         25    2    3    3    0    0 -0.24107490828E+02 -0.51755728493E+02  0.16494617587E+03  0.21478556538E+03  0.12516298022E+03 0.  0.
         25    2    3    3    0    0  0.24107490828E+02  0.51755728493E+02  0.15362667871E+03  0.20575454565E+03  0.12439433306E+03 0.  0.
          5    1    4    4  502    0  0.34498058011E+02 -0.30324276734E+02  0.93929800163E+01  0.47116831807E+02  0.47000000000E+01 0.  1.
         -5    1    4    4    0  502 -0.58605548839E+02 -0.21431451759E+02  0.15555319585E+03  0.16766873358E+03  0.47000000000E+01 0.  1.
          5    1    5    5  503    0 -0.50987625578E+02  0.19108667343E+02  0.66907264033E+02  0.86391846317E+02  0.47000000000E+01 0. -1.
         -5    1    5    5    0  503  0.75095116407E+02  0.32647061150E+02  0.86719414679E+02  0.11936269933E+03  0.47000000000E+01 0. -1.
<mgrwt>
<rscale>  0 0.27452745E+03</rscale>
<asrwt>0</asrwt>
<pdfrwt beam="1">  1        1 0.56854842E-01 0.27452745E+03</pdfrwt>
<pdfrwt beam="2">  1       -1 0.78436353E-02 0.27452745E+03</pdfrwt>
<totfact> 0.59198298E+03</totfact>
</mgrwt>
</event>
<event>
 9    1  0.2074770E-002  0.2722569E+03  0.7818608E-02  0.1099995E+00
         -2   -1    0    0    0  501 -0.00000000000E+00  0.00000000000E+00  0.63184078843E+01  0.63184078843E+01  0.00000000000E+00 0. -1.
          2   -1    0    0  501    0  0.00000000000E+00 -0.00000000000E+00 -0.29328515824E+04  0.29328515824E+04  0.00000000000E+00 0. -1.
         36    2    1    2    0    0  0.53290705182E-14 -0.35527136788E-14 -0.29265331745E+04  0.29391699902E+04  0.27225688283E+03 0.  0.
         25    2    3    3    0    0 -0.13078856472E+02 -0.14396081719E+02 -0.10502095502E+04  0.10576743109E+04  0.12392152736E+03 0.  0.
         25    2    3    3    0    0  0.13078856472E+02  0.14396081719E+02 -0.18763236243E+04  0.18814956793E+04  0.13804834202E+03 0.  0.
          5    1    4    4  502    0 -0.64773434667E+02 -0.29568488659E+02 -0.59921128719E+03  0.60344523369E+03  0.47000000000E+01 0. -1.
         -5    1    4    4    0  502  0.51694578195E+02  0.15172406940E+02 -0.45099826302E+03  0.45422907722E+03  0.47000000000E+01 0. -1.
          5    1    5    5  503    0 -0.15020224057E+02  0.43261515212E+02 -0.16977656843E+04  0.16983897005E+04  0.47000000000E+01 0. -1.
         -5    1    5    5    0  503  0.28099080529E+02 -0.28865433494E+02 -0.17855793996E+03  0.18310597887E+03  0.47000000000E+01 0. -1.
<mgrwt>
<rscale>  0 0.27225688E+03</rscale>
<asrwt>0</asrwt>
<pdfrwt beam="1">  1        2 0.45120797E+00 0.27225688E+03</pdfrwt>
<pdfrwt beam="2">  1       -2 0.97206268E-03 0.27225688E+03</pdfrwt>
<totfact> 0.50716018E+03</totfact>
</mgrwt>
</event>
<event>
 9    1  0.2074770E-002  0.2748207E+03  0.7818608E-02  0.1098552E+00
          2   -1    0    0  501    0  0.00000000000E+00  0.00000000000E+00  0.55675059776E+03  0.55675059776E+03  0.00000000000E+00 0.  1.
         -2   -1    0    0    0  501 -0.00000000000E+00 -0.00000000000E+00 -0.33913925760E+02  0.33913925760E+02  0.00000000000E+00 0.  1.
         36    2    1    2    0    0 -0.71054273576E-14  0.35527136788E-14  0.52283667200E+03  0.59066452352E+03  0.27482065745E+03 0.  0.
         25    2    3    3    0    0 -0.37321871296E+02  0.11826475392E+02  0.14258923608E+03  0.18833539125E+03  0.11664365287E+03 0.  0.
         25    2    3    3    0    0  0.37321871296E+02 -0.11826475392E+02  0.38024743593E+03  0.40232913227E+03  0.12549036039E+03 0.  0.
          5    1    4    4  502    0 -0.48298792838E+02 -0.43701577171E+02  0.87756426378E+02  0.10938867221E+03  0.47000000000E+01 0. -1.
         -5    1    4    4    0  502  0.10976921542E+02  0.55528052563E+02  0.54832809698E+02  0.78946719041E+02  0.47000000000E+01 0. -1.
          5    1    5    5  503    0  0.74104541484E+02 -0.24182586418E+02  0.32747995503E+03  0.33666228107E+03  0.47000000000E+01 0. -1.
         -5    1    5    5    0  503 -0.36782670189E+02  0.12356111026E+02  0.52767480902E+02  0.65666851201E+02  0.47000000000E+01 0. -1.
<mgrwt>
<rscale>  0 0.27482066E+03</rscale>
<asrwt>0</asrwt>
<pdfrwt beam="1">  1        2 0.85653932E-01 0.27482066E+03</pdfrwt>
<pdfrwt beam="2">  1       -2 0.52175274E-02 0.27482066E+03</pdfrwt>
<totfact> 0.10046822E+04</totfact>
</mgrwt>
</event>
<event>
 9    1  0.2074770E-002  0.2749057E+03  0.7818608E-02  0.1098504E+00
          1   -1    0    0  501    0  0.00000000000E+00  0.00000000000E+00  0.12864450223E+04  0.12864450223E+04  0.00000000000E+00 0.  1.
         -1   -1    0    0    0  501 -0.00000000000E+00 -0.00000000000E+00 -0.14686431234E+02  0.14686431234E+02  0.00000000000E+00 0.  1.
         36    2    1    2    0    0 -0.71054273576E-14  0.71054273576E-14  0.12717585911E+04  0.13011314536E+04  0.27490570279E+03 0.  0.
         25    2    3    3    0    0  0.33708446254E+02  0.46491690970E+02  0.63564456298E+03  0.65059556529E+03  0.12622536374E+03 0.  0.
         25    2    3    3    0    0 -0.33708446254E+02 -0.46491690970E+02  0.63611402812E+03  0.65053588828E+03  0.12352387820E+03 0.  0.
          5    1    4    4  502    0 -0.32626881817E+02  0.55514998137E+02  0.41430355671E+03  0.41930413251E+03  0.47000000000E+01 0. -1.
         -5    1    4    4    0  502  0.66335328071E+02 -0.90233071676E+01  0.22134100627E+03  0.23129143278E+03  0.47000000000E+01 0. -1.
          5    1    5    5  503    0 -0.38908252953E+02 -0.62116326421E+02  0.62670974923E+03  0.63099880343E+03  0.47000000000E+01 0.  1.
         -5    1    5    5    0  503  0.51998066989E+01  0.15624635451E+02  0.94042788910E+01  0.19537084843E+02  0.47000000000E+01 0.  1.
<mgrwt>
<rscale>  0 0.27490570E+03</rscale>
<asrwt>0</asrwt>
<pdfrwt beam="1">  1        1 0.19791453E+00 0.27490570E+03</pdfrwt>
<pdfrwt beam="2">  1       -1 0.22594520E-02 0.27490570E+03</pdfrwt>
<totfact> 0.57151724E+03</totfact>
</mgrwt>
</event>
<event>
 9    1  0.2074770E-002  0.2685826E+03  0.7818608E-02  0.1102094E+00
         -2   -1    0    0    0  501 -0.00000000000E+00  0.00000000000E+00  0.12716646706E+03  0.12716646706E+03  0.00000000000E+00 0.  1.
          2   -1    0    0  501    0  0.00000000000E+00 -0.00000000000E+00 -0.14181530283E+03  0.14181530283E+03  0.00000000000E+00 0.  1.
         36    2    1    2    0    0  0.00000000000E+00  0.71054273576E-14 -0.14648835767E+02  0.26898176989E+03  0.26858258348E+03 0.  0.
         25    2    3    3    0    0  0.18288933042E+02  0.47145017975E+02  0.31887873916E+02  0.13624470570E+03  0.12242812396E+03 0.  0.
         25    2    3    3    0    0 -0.18288933042E+02 -0.47145017975E+02 -0.46536709682E+02  0.13273706419E+03  0.11356198779E+03 0.  0.
          5    1    4    4  502    0  0.47778343079E+01  0.84028188858E+02  0.43712767854E+02  0.94955043557E+02  0.47000000000E+01 0. -1.
         -5    1    4    4    0  502  0.13511098734E+02 -0.36883170884E+02 -0.11824893938E+02  0.41289662145E+02  0.47000000000E+01 0. -1.
          5    1    5    5  503    0 -0.24204642324E+02  0.19007795977E+02 -0.57375389011E+02  0.65277762539E+02  0.47000000000E+01 0. -1.
         -5    1    5    5    0  503  0.59157092821E+01 -0.66152813951E+02  0.10838679329E+02  0.67459301654E+02  0.47000000000E+01 0. -1.
<mgrwt>
<rscale>  0 0.26858258E+03</rscale>
<asrwt>0</asrwt>
<pdfrwt beam="1">  1        2 0.21817739E-01 0.26858258E+03</pdfrwt>
<pdfrwt beam="2">  1       -2 0.19564072E-01 0.26858258E+03</pdfrwt>
<totfact> 0.54381462E+03</totfact>
</mgrwt>
</event>
<event>
 9    1  0.2074770E-002  0.2756392E+03  0.7818608E-02  0.1098095E+00
         -2   -1    0    0    0  501 -0.00000000000E+00  0.00000000000E+00  0.42112973923E+03  0.42112973923E+03  0.00000000000E+00 0. -1.
          2   -1    0    0  501    0  0.00000000000E+00 -0.00000000000E+00 -0.45103071442E+02  0.45103071442E+02  0.00000000000E+00 0. -1.
         36    2    1    2    0    0  0.00000000000E+00 -0.71054273576E-14  0.37602666778E+03  0.46623281067E+03  0.27563921865E+03 0.  0.
         25    2    3    3    0    0 -0.44177817627E+02 -0.26017613623E+02  0.22421385786E+03  0.26261162893E+03  0.12674548435E+03 0.  0.
         25    2    3    3    0    0  0.44177817627E+02  0.26017613623E+02  0.15181280992E+03  0.20362118174E+03  0.12564179482E+03 0.  0.
          5    1    4    4  502    0 -0.81766031647E+02  0.11983057765E+02  0.14432417142E+03  0.16637558132E+03  0.47000000000E+01 0.  1.
         -5    1    4    4    0  502  0.37588214021E+02 -0.38000671388E+02  0.79889686442E+02  0.96236047607E+02  0.47000000000E+01 0.  1.
          5    1    5    5  503    0 -0.29209396402E+02  0.49506990969E+02  0.76168042512E+02  0.95539477145E+02  0.47000000000E+01 0. -1.
         -5    1    5    5    0  503  0.73387214029E+02 -0.23489377346E+02  0.75644767412E+02  0.10808170459E+03  0.47000000000E+01 0. -1.
<mgrwt>
<rscale>  0 0.27563922E+03</rscale>
<asrwt>0</asrwt>
<pdfrwt beam="1">  1        2 0.69389344E-02 0.27563922E+03</pdfrwt>
<pdfrwt beam="2">  1       -2 0.64789188E-01 0.27563922E+03</pdfrwt>
<totfact> 0.22934824E+03</totfact>
</mgrwt>
</event>
<event>
 9    1  0.2074770E-002  0.2746790E+03  0.7818608E-02  0.1098631E+00
          2   -1    0    0  501    0  0.00000000000E+00  0.00000000000E+00  0.19515034416E+04  0.19515034416E+04  0.00000000000E+00 0. -1.
         -2   -1    0    0    0  501 -0.00000000000E+00 -0.00000000000E+00 -0.96654422571E+01  0.96654422571E+01  0.00000000000E+00 0. -1.
         36    2    1    2    0    0  0.71054273576E-14  0.00000000000E+00  0.19418379994E+04  0.19611688839E+04  0.27467904055E+03 0.  0.
         25    2    3    3    0    0 -0.49093174429E+02 -0.17007501974E+02  0.10219681833E+04  0.10308949445E+04  0.12500409564E+03 0.  0.
         25    2    3    3    0    0  0.49093174429E+02  0.17007501974E+02  0.91986981605E+03  0.93027393941E+03  0.12864574989E+03 0.  0.
          5    1    4    4  502    0 -0.84416719954E+02  0.51942120167E+01  0.83422023941E+03  0.83850978545E+03  0.47000000000E+01 0. -1.
         -5    1    4    4    0  502  0.35323545524E+02 -0.22201713990E+02  0.18774794393E+03  0.19238515905E+03  0.47000000000E+01 0. -1.
          5    1    5    5  503    0  0.84706224312E+02 -0.41219903843E+01  0.41009569864E+03  0.41879912522E+03  0.47000000000E+01 0. -1.
         -5    1    5    5    0  503 -0.35613049882E+02  0.21129492358E+02  0.50977411740E+03  0.51147481418E+03  0.47000000000E+01 0. -1.
<mgrwt>
<rscale>  0 0.27467904E+03</rscale>
<asrwt>0</asrwt>
<pdfrwt beam="1">  1        2 0.30023099E+00 0.27467904E+03</pdfrwt>
<pdfrwt beam="2">  1       -2 0.14869927E-02 0.27467904E+03</pdfrwt>
<totfact> 0.94147898E+03</totfact>
</mgrwt>
</event>
<event>
 9    1  0.2074770E-002  0.2744400E+03  0.7818608E-02  0.1098765E+00
         -2   -1    0    0    0  501 -0.00000000000E+00  0.00000000000E+00  0.16208478929E+03  0.16208478929E+03  0.00000000000E+00 0. -1.
          2   -1    0    0  501    0  0.00000000000E+00 -0.00000000000E+00 -0.11616962981E+03  0.11616962981E+03  0.00000000000E+00 0. -1.
         36    2    1    2    0    0  0.71054273576E-14  0.00000000000E+00  0.45915159479E+02  0.27825441910E+03  0.27444001144E+03 0.  0.
         25    2    3    3    0    0 -0.51367820320E+02  0.22999436204E+02  0.33524187994E+02  0.14199796240E+03  0.12598382085E+03 0.  0.
         25    2    3    3    0    0  0.51367820320E+02 -0.22999436204E+02  0.12390971485E+02  0.13625645669E+03  0.12346926252E+03 0.  0.
          5    1    4    4  502    0  0.37444298940E+02 -0.89733158666E+01 -0.65578734266E+01  0.39340712050E+02  0.47000000000E+01 0. -1.
         -5    1    4    4    0  502 -0.88812119260E+02  0.31972752070E+02  0.40082061421E+02  0.10265725035E+03  0.47000000000E+01 0. -1.
          5    1    5    5  503    0  0.85778195335E+02 -0.32471761571E+02  0.29416165284E+02  0.96435029292E+02  0.47000000000E+01 0. -1.
         -5    1    5    5    0  503 -0.34410375015E+02  0.94723253671E+01 -0.17025193799E+02  0.39821427403E+02  0.47000000000E+01 0. -1.
<mgrwt>
<rscale>  0 0.27444001E+03</rscale>
<asrwt>0</asrwt>
<pdfrwt beam="1">  1        2 0.17872251E-01 0.27444001E+03</pdfrwt>
<pdfrwt beam="2">  1       -2 0.24936121E-01 0.27444001E+03</pdfrwt>
<totfact> 0.44921828E+03</totfact>
</mgrwt>
</event>
<event>
 9    1  0.2074770E-002  0.2725082E+03  0.7818608E-02  0.1099853E+00
          2   -1    0    0  501    0  0.00000000000E+00  0.00000000000E+00  0.18592851747E+03  0.18592851747E+03  0.00000000000E+00 0.  1.
         -2   -1    0    0    0  501 -0.00000000000E+00 -0.00000000000E+00 -0.99851186114E+02  0.99851186114E+02  0.00000000000E+00 0.  1.
         36    2    1    2    0    0 -0.14210854715E-13  0.35527136788E-14  0.86077331352E+02  0.28577970358E+03  0.27250822374E+03 0.  0.
         25    2    3    3    0    0 -0.43467540270E+02  0.30522953077E+02  0.36042843493E+02  0.13973775328E+03  0.12412282386E+03 0.  0.
         25    2    3    3    0    0  0.43467540270E+02 -0.30522953077E+02  0.50034487859E+02  0.14604195030E+03  0.12650582418E+03 0.  0.
          5    1    4    4  502    0 -0.11460148576E+02  0.13558958901E+02 -0.46216988273E+02  0.49732085990E+02  0.47000000000E+01 0.  1.
         -5    1    4    4    0  502 -0.32007391694E+02  0.16963994176E+02  0.82259831766E+02  0.90005667286E+02  0.47000000000E+01 0.  1.
          5    1    5    5  503    0  0.34362780477E+01 -0.44409830427E+02  0.81540313747E+02  0.93032004232E+02  0.47000000000E+01 0.  1.
         -5    1    5    5    0  503  0.40031262222E+02  0.13886877349E+02 -0.31505825888E+02  0.53009946071E+02  0.47000000000E+01 0.  1.
<mgrwt>
<rscale>  0 0.27250822E+03</rscale>
<asrwt>0</asrwt>
<pdfrwt beam="1">  1        2 0.28604387E-01 0.27250822E+03</pdfrwt>
<pdfrwt beam="2">  1       -2 0.15361721E-01 0.27250822E+03</pdfrwt>
<totfact> 0.60346184E+03</totfact>
</mgrwt>
</event>
<event>
 9    1  0.2074770E-002  0.2748820E+03  0.7818608E-02  0.1098518E+00
          1   -1    0    0  501    0  0.00000000000E+00  0.00000000000E+00  0.12090972022E+04  0.12090972022E+04  0.00000000000E+00 0. -1.
         -1   -1    0    0    0  501 -0.00000000000E+00 -0.00000000000E+00 -0.15623244926E+02  0.15623244926E+02  0.00000000000E+00 0. -1.
         36    2    1    2    0    0  0.00000000000E+00  0.35527136788E-14  0.11934739573E+04  0.12247204471E+04  0.27488195088E+03 0.  0.
         25    2    3    3    0    0 -0.51425483455E+02 -0.27018283350E+02  0.45919196592E+03  0.47866198500E+03  0.12200600943E+03 0.  0.
         25    2    3    3    0    0  0.51425483455E+02  0.27018283350E+02  0.73428199136E+03  0.74605846213E+03  0.11856904358E+03 0.  0.
          5    1    4    4  502    0 -0.82178780001E+02  0.84041140032E+01  0.35142539597E+03  0.36103445812E+03  0.47000000000E+01 0. -1.
         -5    1    4    4    0  502  0.30753296545E+02 -0.35422397353E+02  0.10776656995E+03  0.11762752689E+03  0.47000000000E+01 0. -1.
          5    1    5    5  503    0 -0.91172650096E+01  0.38119395970E+02  0.83563320231E+02  0.92418241480E+02  0.47000000000E+01 0.  1.
         -5    1    5    5    0  503  0.60542748465E+02 -0.11101112620E+02  0.65071867113E+03  0.65364022065E+03  0.47000000000E+01 0.  1.
<mgrwt>
<rscale>  0 0.27488195E+03</rscale>
<asrwt>0</asrwt>
<pdfrwt beam="1">  1        1 0.18601488E+00 0.27488195E+03</pdfrwt>
<pdfrwt beam="2">  1       -1 0.24035771E-02 0.27488195E+03</pdfrwt>
<totfact> 0.59038088E+03</totfact>
</mgrwt>
</event>
<event>
 9    1  0.2074770E-002  0.2753303E+03  0.7818608E-02  0.1098267E+00
         -1   -1    0    0    0  501 -0.00000000000E+00  0.00000000000E+00  0.10767844940E+02  0.10767844940E+02  0.00000000000E+00 0. -1.
          1   -1    0    0  501    0  0.00000000000E+00 -0.00000000000E+00 -0.17600270091E+04  0.17600270091E+04  0.00000000000E+00 0. -1.
         36    2    1    2    0    0 -0.71054273576E-14  0.71054273576E-14 -0.17492591642E+04  0.17707948541E+04  0.27533033195E+03 0.  0.
         25    2    3    3    0    0 -0.56715089927E+02  0.29914151395E+02 -0.10531118335E+04  0.10630755872E+04  0.13028320041E+03 0.  0.
         25    2    3    3    0    0  0.56715089927E+02 -0.29914151395E+02 -0.69614733068E+03  0.70771926689E+03  0.11015442264E+03 0.  0.
          5    1    4    4  502    0 -0.26803962281E+02  0.42482692233E+01 -0.36682428333E+02  0.45871458815E+02  0.47000000000E+01 0.  1.
         -5    1    4    4    0  502 -0.29911127646E+02  0.25665882172E+02 -0.10164294052E+04  0.10172041284E+04  0.47000000000E+01 0.  1.
          5    1    5    5  503    0  0.75972597757E+02 -0.23459622328E+02 -0.66779046987E+03  0.67252389633E+03  0.47000000000E+01 0.  1.
         -5    1    5    5    0  503 -0.19257507830E+02 -0.64545290673E+01 -0.28356860813E+02  0.35195370554E+02  0.47000000000E+01 0.  1.
<mgrwt>
<rscale>  0 0.27533033E+03</rscale>
<asrwt>0</asrwt>
<pdfrwt beam="1">  1        1 0.27077322E+00 0.27533033E+03</pdfrwt>
<pdfrwt beam="2">  1       -1 0.16565925E-02 0.27533033E+03</pdfrwt>
<totfact> 0.43627990E+03</totfact>
</mgrwt>
</event>
<event>
 9    1  0.2074770E-002  0.2745105E+03  0.7818608E-02  0.1098726E+00
         -1   -1    0    0    0  501 -0.00000000000E+00  0.00000000000E+00  0.69464552777E+02  0.69464552777E+02  0.00000000000E+00 0. -1.
          1   -1    0    0  501    0  0.00000000000E+00 -0.00000000000E+00 -0.27120307911E+03  0.27120307911E+03  0.00000000000E+00 0. -1.
         36    2    1    2    0    0  0.00000000000E+00  0.00000000000E+00 -0.20173852633E+03  0.34066763189E+03  0.27451047778E+03 0.  0.
         25    2    3    3    0    0  0.19489330386E+02 -0.50526194599E+02 -0.84913891117E+02  0.15991040946E+03  0.12421046578E+03 0.  0.
         25    2    3    3    0    0 -0.19489330386E+02  0.50526194599E+02 -0.11682463521E+03  0.18075722243E+03  0.12685601179E+03 0.  0.
          5    1    4    4  502    0  0.52747933462E+01 -0.30612136417E+02  0.29330985530E+02  0.42980496193E+02  0.47000000000E+01 0.  1.
         -5    1    4    4    0  502  0.14214537040E+02 -0.19914058182E+02 -0.11424487665E+03  0.11692991327E+03  0.47000000000E+01 0.  1.
          5    1    5    5  503    0 -0.18702453112E+02  0.14780418758E+02 -0.13720160287E+03  0.13933632822E+03  0.47000000000E+01 0. -1.
         -5    1    5    5    0  503 -0.78687727413E+00  0.35745775841E+02  0.20376967655E+02  0.41420894209E+02  0.47000000000E+01 0. -1.
<mgrwt>
<rscale>  0 0.27451048E+03</rscale>
<asrwt>0</asrwt>
<pdfrwt beam="1">  1        1 0.41723550E-01 0.27451048E+03</pdfrwt>
<pdfrwt beam="2">  1       -1 0.10686854E-01 0.27451048E+03</pdfrwt>
<totfact> 0.54354449E+03</totfact>
</mgrwt>
</event>
<event>
 9    1  0.2074770E-002  0.2750760E+03  0.7818608E-02  0.1098409E+00
         -2   -1    0    0    0  501 -0.00000000000E+00  0.00000000000E+00  0.36304727423E+02  0.36304727423E+02  0.00000000000E+00 0. -1.
          2   -1    0    0  501    0  0.00000000000E+00 -0.00000000000E+00 -0.52105353045E+03  0.52105353045E+03  0.00000000000E+00 0. -1.
         36    2    1    2    0    0  0.71054273576E-14  0.71054273576E-14 -0.48474880303E+03  0.55735825788E+03  0.27507603600E+03 0.  0.
         25    2    3    3    0    0  0.21844911907E+02 -0.26526116693E+02 -0.29525708661E+03  0.32657859746E+03  0.13526270027E+03 0.  0.
         25    2    3    3    0    0 -0.21844911907E+02  0.26526116693E+02 -0.18949171642E+03  0.23077966041E+03  0.12716645008E+03 0.  0.
          5    1    4    4  502    0  0.80440206595E+01 -0.68661818981E+02 -0.26185594120E+03  0.27086855778E+03  0.47000000000E+01 0. -1.
         -5    1    4    4    0  502  0.13800891247E+02  0.42135702288E+02 -0.33401145411E+02  0.55710039681E+02  0.47000000000E+01 0. -1.
          5    1    5    5  503    0  0.44924339901E+02  0.40578055506E+02 -0.66499491888E+02  0.90050248892E+02  0.47000000000E+01 0. -1.
         -5    1    5    5    0  503 -0.66769251808E+02 -0.14051938813E+02 -0.12299222453E+03  0.14072941152E+03  0.47000000000E+01 0. -1.
<mgrwt>
<rscale>  0 0.27507604E+03</rscale>
<asrwt>0</asrwt>
<pdfrwt beam="1">  1        2 0.80162079E-01 0.27507604E+03</pdfrwt>
<pdfrwt beam="2">  1       -2 0.55853428E-02 0.27507604E+03</pdfrwt>
<totfact> 0.97622558E+03</totfact>
</mgrwt>
</event>
<event>
 9    1  0.2074770E-002  0.2748038E+03  0.7818608E-02  0.1098561E+00
         -2   -1    0    0    0  501 -0.00000000000E+00  0.00000000000E+00  0.59944751983E+02  0.59944751983E+02  0.00000000000E+00 0.  1.
          2   -1    0    0  501    0  0.00000000000E+00 -0.00000000000E+00 -0.31494464796E+03  0.31494464796E+03  0.00000000000E+00 0.  1.
         36    2    1    2    0    0  0.00000000000E+00  0.00000000000E+00 -0.25499989597E+03  0.37488939994E+03  0.27480377588E+03 0.  0.
         25    2    3    3    0    0  0.65736139676E+02  0.17142187530E+02 -0.74780462756E+02  0.15965010514E+03  0.12361611468E+03 0.  0.
         25    2    3    3    0    0 -0.65736139676E+02 -0.17142187530E+02 -0.18021943322E+03  0.21523929480E+03  0.96092743032E+02 0.  0.
          5    1    4    4  502    0  0.80621826911E+02  0.19822886596E+02 -0.99883675826E+02  0.12996793645E+03  0.47000000000E+01 0.  1.
         -5    1    4    4    0  502 -0.14885687235E+02 -0.26806990653E+01  0.25103213070E+02  0.29682168694E+02  0.47000000000E+01 0.  1.
          5    1    5    5  503    0 -0.83179976879E+02 -0.16491649949E+02 -0.92085886598E+02  0.12527084091E+03  0.47000000000E+01 0. -1.
         -5    1    5    5    0  503  0.17443837203E+02 -0.65053758171E+00 -0.88133546619E+02  0.89968453889E+02  0.47000000000E+01 0. -1.
<mgrwt>
<rscale>  0 0.27480378E+03</rscale>
<asrwt>0</asrwt>
<pdfrwt beam="1">  1        2 0.48453023E-01 0.27480378E+03</pdfrwt>
<pdfrwt beam="2">  1       -2 0.92222695E-02 0.27480378E+03</pdfrwt>
<totfact> 0.77722124E+03</totfact>
</mgrwt>
</event>
<event>
 9    1  0.2074770E-002  0.2739538E+03  0.7818608E-02  0.1099038E+00
          1   -1    0    0  501    0  0.00000000000E+00  0.00000000000E+00  0.43486974701E+03  0.43486974701E+03  0.00000000000E+00 0. -1.
         -1   -1    0    0    0  501 -0.00000000000E+00 -0.00000000000E+00 -0.43145481370E+02  0.43145481370E+02  0.00000000000E+00 0. -1.
         36    2    1    2    0    0  0.00000000000E+00  0.00000000000E+00  0.39172426564E+03  0.47801522838E+03  0.27395375207E+03 0.  0.
         25    2    3    3    0    0  0.50496207032E+02  0.22532546409E+02  0.16447990735E+03  0.21299820890E+03  0.12351928796E+03 0.  0.
         25    2    3    3    0    0 -0.50496207032E+02 -0.22532546409E+02  0.22724435829E+03  0.26501701948E+03  0.12464525530E+03 0.  0.
          5    1    4    4  502    0  0.54867443731E+02  0.50325446968E+02  0.16842064729E+03  0.18420285401E+03  0.47000000000E+01 0.  1.
         -5    1    4    4    0  502 -0.43712366991E+01 -0.27792900559E+02 -0.39407399341E+01  0.28795354885E+02  0.47000000000E+01 0.  1.
          5    1    5    5  503    0 -0.19883010512E+02 -0.64726321051E+02  0.18716887548E+03  0.19909572746E+03  0.47000000000E+01 0.  1.
         -5    1    5    5    0  503 -0.30613196520E+02  0.42193774642E+02  0.40075482808E+02  0.65921292023E+02  0.47000000000E+01 0.  1.
<mgrwt>
<rscale>  0 0.27395375E+03</rscale>
<asrwt>0</asrwt>
<pdfrwt beam="1">  1        1 0.66903035E-01 0.27395375E+03</pdfrwt>
<pdfrwt beam="2">  1       -1 0.66377667E-02 0.27395375E+03</pdfrwt>
<totfact> 0.61909907E+03</totfact>
</mgrwt>
</event>
<event>
 9    1  0.2074770E-002  0.2744786E+03  0.7818608E-02  0.1098743E+00
          2   -1    0    0  501    0  0.00000000000E+00  0.00000000000E+00  0.29356987776E+03  0.29356987776E+03  0.00000000000E+00 0. -1.
         -2   -1    0    0    0  501 -0.00000000000E+00 -0.00000000000E+00 -0.64157207698E+02  0.64157207698E+02  0.00000000000E+00 0. -1.
         36    2    1    2    0    0  0.00000000000E+00  0.00000000000E+00  0.22941267006E+03  0.35772708546E+03  0.27447858657E+03 0.  0.
         25    2    3    3    0    0  0.34494774022E+02 -0.47066676687E+02  0.11483381302E+03  0.17845209953E+03  0.12350378830E+03 0.  0.
         25    2    3    3    0    0 -0.34494774022E+02  0.47066676687E+02  0.11457885704E+03  0.17927498592E+03  0.12492415543E+03 0.  0.
          5    1    4    4  502    0  0.55488078706E+01 -0.81366484499E+02  0.39744842391E+02  0.90846224827E+02  0.47000000000E+01 0.  1.
         -5    1    4    4    0  502  0.28945966151E+02  0.34299807812E+02  0.75088970631E+02  0.87605874705E+02  0.47000000000E+01 0.  1.
          5    1    5    5  503    0 -0.33131957884E+02  0.30907096323E+02  0.14085719220E+03  0.14803990621E+03  0.47000000000E+01 0.  1.
         -5    1    5    5    0  503 -0.13628161380E+01  0.16159580364E+02 -0.26278335167E+02  0.31235079710E+02  0.47000000000E+01 0.  1.
<mgrwt>
<rscale>  0 0.27447859E+03</rscale>
<asrwt>0</asrwt>
<pdfrwt beam="1">  1        2 0.45164596E-01 0.27447859E+03</pdfrwt>
<pdfrwt beam="2">  1       -2 0.98703398E-02 0.27447859E+03</pdfrwt>
<totfact> 0.75274912E+03</totfact>
</mgrwt>
</event>
<event>
 9    1  0.2074770E-002  0.2754071E+03  0.7818608E-02  0.1098224E+00
         -2   -1    0    0    0  501 -0.00000000000E+00  0.00000000000E+00  0.17586182916E+02  0.17586182916E+02  0.00000000000E+00 0. -1.
          2   -1    0    0  501    0  0.00000000000E+00 -0.00000000000E+00 -0.10782478632E+04  0.10782478632E+04  0.00000000000E+00 0. -1.
         36    2    1    2    0    0  0.35527136788E-14  0.14210854715E-13 -0.10606616803E+04  0.10958340461E+04  0.27540707435E+03 0.  0.
         25    2    3    3    0    0 -0.40743852824E+01 -0.60601104132E+02 -0.52050336812E+03  0.53832385455E+03  0.12320601332E+03 0.  0.
         25    2    3    3    0    0  0.40743852824E+01  0.60601104132E+02 -0.54015831215E+03  0.55751019155E+03  0.12392544960E+03 0.  0.
          5    1    4    4  502    0 -0.28008745875E+02 -0.70936464422E+02 -0.16498922267E+03  0.18182410573E+03  0.47000000000E+01 0.  1.
         -5    1    4    4    0  502  0.23934360592E+02  0.10335360290E+02 -0.35551414545E+03  0.35649974882E+03  0.47000000000E+01 0.  1.
          5    1    5    5  503    0 -0.44635452653E+02 -0.67184534332E+01 -0.29830791631E+03  0.30174022633E+03  0.47000000000E+01 0. -1.
         -5    1    5    5    0  503  0.48709837936E+02  0.67319557565E+02 -0.24185039584E+03  0.25576996522E+03  0.47000000000E+01 0. -1.
<mgrwt>
<rscale>  0 0.27540707E+03</rscale>
<asrwt>0</asrwt>
<pdfrwt beam="1">  1        2 0.16588422E+00 0.27540707E+03</pdfrwt>
<pdfrwt beam="2">  1       -2 0.27055676E-02 0.27540707E+03</pdfrwt>
<totfact> 0.11606929E+04</totfact>
</mgrwt>
</event>
<event>
 8    1  0.2074770E-002  0.3014234E+03  0.7818608E-02  0.1084531E+00
         -1   -1    0    0    0  501 -0.00000000000E+00  0.00000000000E+00  0.15915765310E+03  0.15915765310E+03  0.00000000000E+00 0. -1.
          1   -1    0    0  501    0  0.00000000000E+00 -0.00000000000E+00 -0.14271393195E+03  0.14271393195E+03  0.00000000000E+00 0. -1.
         25    2    1    2    0    0  0.52968295500E+02 -0.54713422995E+02 -0.29334159170E+02  0.14906588492E+03  0.12474352156E+03 0.  0.
         25    2    1    2    0    0 -0.52968295500E+02  0.54713422995E+02  0.45777880312E+02  0.15280570013E+03  0.12431720992E+03 0.  0.
          5    1    3    3  502    0  0.27967983981E+02 -0.39161533389E+02 -0.78130237635E+02  0.91881760204E+02  0.47000000000E+01 0.  1.
         -5    1    3    3    0  502  0.25000311519E+02 -0.15551889607E+02  0.48796078465E+02  0.57184124720E+02  0.47000000000E+01 0.  1.
          5    1    4    4  503    0 -0.23288083765E+02  0.90828965682E+02  0.48639892214E+02  0.10573629919E+03  0.47000000000E+01 0.  1.
         -5    1    4    4    0  503 -0.29680211735E+02 -0.36115542687E+02 -0.28620119024E+01  0.47069400934E+02  0.47000000000E+01 0.  1.
<mgrwt>
<rscale>  0 0.30142339E+03</rscale>
<asrwt>0</asrwt>
<pdfrwt beam="1">  1        1 0.21955990E-01 0.30142339E+03</pdfrwt>
<pdfrwt beam="2">  1       -1 0.24485793E-01 0.30142339E+03</pdfrwt>
<totfact> 0.32566762E+03</totfact>
</mgrwt>
</event>
<event>
 9    1  0.2074770E-002  0.2737069E+03  0.7818608E-02  0.1099177E+00
         -4   -1    0    0    0  501 -0.00000000000E+00  0.00000000000E+00  0.48569042342E+03  0.48569042342E+03  0.00000000000E+00 0.  1.
          4   -1    0    0  501    0  0.00000000000E+00 -0.00000000000E+00 -0.38561329001E+02  0.38561329001E+02  0.00000000000E+00 0.  1.
         36    2    1    2    0    0  0.35527136788E-14  0.00000000000E+00  0.44712909442E+03  0.52425175243E+03  0.27370691047E+03 0.  0.
         25    2    3    3    0    0  0.10786386294E+01  0.10268320488E+02  0.33829765223E+03  0.35603006781E+03  0.11047853101E+03 0.  0.
         25    2    3    3    0    0 -0.10786386294E+01 -0.10268320488E+02  0.10883144220E+03  0.16822168462E+03  0.12785793091E+03 0.  0.
          5    1    4    4  502    0 -0.18750646069E+01  0.14120847471E+02 -0.24642263311E+01  0.15201204294E+02  0.47000000000E+01 0.  1.
         -5    1    4    4    0  502  0.29537032363E+01 -0.38525269822E+01  0.34076187856E+03  0.34082886351E+03  0.47000000000E+01 0.  1.
          5    1    5    5  503    0 -0.38641253833E+02  0.16377064186E+02 -0.76140856783E+01  0.42911758643E+02  0.47000000000E+01 0.  1.
         -5    1    5    5    0  503  0.37562615204E+02 -0.26645384674E+02  0.11644552788E+03  0.12530992597E+03  0.47000000000E+01 0.  1.
<mgrwt>
<rscale>  0 0.27370691E+03</rscale>
<asrwt>0</asrwt>
<pdfrwt beam="1">  1        4 0.59325125E-02 0.27370691E+03</pdfrwt>
<pdfrwt beam="2">  1       -4 0.74721599E-01 0.27370691E+03</pdfrwt>
<totfact> 0.55949214E+02</totfact>
</mgrwt>
</event>
<event>
 9    1  0.2074770E-002  0.2754622E+03  0.7818608E-02  0.1098194E+00
          2   -1    0    0  501    0  0.00000000000E+00  0.00000000000E+00  0.62552688015E+03  0.62552688015E+03  0.00000000000E+00 0. -1.
         -2   -1    0    0    0  501 -0.00000000000E+00 -0.00000000000E+00 -0.30326201424E+02  0.30326201424E+02  0.00000000000E+00 0. -1.
         36    2    1    2    0    0  0.00000000000E+00  0.00000000000E+00  0.59520067873E+03  0.65585308158E+03  0.27546218734E+03 0.  0.
         25    2    3    3    0    0  0.83205007564E+01  0.13072706414E+02  0.42908914551E+03  0.44675462240E+03  0.12341827847E+03 0.  0.
         25    2    3    3    0    0 -0.83205007564E+01 -0.13072706414E+02  0.16611153322E+03  0.20909845917E+03  0.12605156791E+03 0.  0.
          5    1    4    4  502    0  0.17078351718E+01  0.65689696643E+02  0.17143348788E+03  0.18365615620E+03  0.47000000000E+01 0. -1.
         -5    1    4    4    0  502  0.66126655846E+01 -0.52616990229E+02  0.25765565763E+03  0.26309846620E+03  0.47000000000E+01 0. -1.
          5    1    5    5  503    0 -0.24802251243E+01  0.32663159944E+02 -0.34922022125E+01  0.33276403208E+02  0.47000000000E+01 0.  1.
         -5    1    5    5    0  503 -0.58402756321E+01 -0.45735866358E+02  0.16960373543E+03  0.17582205596E+03  0.47000000000E+01 0.  1.
<mgrwt>
<rscale>  0 0.27546219E+03</rscale>
<asrwt>0</asrwt>
<pdfrwt beam="1">  1        2 0.96234895E-01 0.27546219E+03</pdfrwt>
<pdfrwt beam="2">  1       -2 0.46655699E-02 0.27546219E+03</pdfrwt>
<totfact> 0.10405904E+04</totfact>
</mgrwt>
</event>
<event>
 9    1  0.2074770E-002  0.2745125E+03  0.7818608E-02  0.1098724E+00
          2   -1    0    0  501    0  0.00000000000E+00  0.00000000000E+00  0.12681479430E+04  0.12681479430E+04  0.00000000000E+00 0. -1.
         -2   -1    0    0    0  501 -0.00000000000E+00 -0.00000000000E+00 -0.14855743027E+02  0.14855743027E+02  0.00000000000E+00 0. -1.
         36    2    1    2    0    0  0.00000000000E+00  0.00000000000E+00  0.12532921999E+04  0.12830036860E+04  0.27451251309E+03 0.  0.
         25    2    3    3    0    0 -0.48469737625E+00  0.36274576678E+02  0.38995321285E+03  0.41076579311E+03  0.12389087428E+03 0.  0.
         25    2    3    3    0    0  0.48469737625E+00 -0.36274576678E+02  0.86333898710E+03  0.87223789289E+03  0.11886402027E+03 0.  0.
          5    1    4    4  502    0 -0.10499180379E+02  0.80781103547E+02  0.21694206533E+03  0.23177957026E+03  0.47000000000E+01 0. -1.
         -5    1    4    4    0  502  0.10014483003E+02 -0.44506526869E+02  0.17301114752E+03  0.17898622285E+03  0.47000000000E+01 0. -1.
          5    1    5    5  503    0 -0.58522467067E+02 -0.25176206050E+02  0.46715309175E+03  0.47150060618E+03  0.47000000000E+01 0.  1.
         -5    1    5    5    0  503  0.59007164444E+02 -0.11098370628E+02  0.39618589535E+03  0.40073728671E+03  0.47000000000E+01 0.  1.
<mgrwt>
<rscale>  0 0.27451251E+03</rscale>
<asrwt>0</asrwt>
<pdfrwt beam="1">  1        2 0.19509960E+00 0.27451251E+03</pdfrwt>
<pdfrwt beam="2">  1       -2 0.22854999E-02 0.27451251E+03</pdfrwt>
<totfact> 0.11592451E+04</totfact>
</mgrwt>
</event>
<event>
 9    1  0.2074770E-002  0.2759017E+03  0.7818608E-02  0.1097949E+00
          2   -1    0    0  501    0  0.00000000000E+00  0.00000000000E+00  0.39729373093E+03  0.39729373093E+03  0.00000000000E+00 0. -1.
         -2   -1    0    0    0  501 -0.00000000000E+00 -0.00000000000E+00 -0.47900160307E+02  0.47900160307E+02  0.00000000000E+00 0. -1.
         36    2    1    2    0    0  0.00000000000E+00  0.00000000000E+00  0.34939357062E+03  0.44519389123E+03  0.27590167379E+03 0.  0.
         25    2    3    3    0    0  0.42425057028E+02 -0.21358692828E+02  0.99260756850E+02  0.16171559042E+03  0.11850381897E+03 0.  0.
         25    2    3    3    0    0 -0.42425057028E+02  0.21358692828E+02  0.25013281377E+03  0.28347830082E+03  0.12464928113E+03 0.  0.
          5    1    4    4  502    0 -0.41469873039E+02 -0.59042956140E+01  0.35534551509E+02  0.55130802892E+02  0.47000000000E+01 0.  1.
         -5    1    4    4    0  502  0.83894930067E+02 -0.15454397214E+02  0.63726205341E+02  0.10658478752E+03  0.47000000000E+01 0.  1.
          5    1    5    5  503    0  0.10957330875E+02 -0.32404280518E+02  0.16851782615E+03  0.17201874383E+03  0.47000000000E+01 0. -1.
         -5    1    5    5    0  503 -0.53382387903E+02  0.53762973347E+02  0.81614987616E+02  0.11145955699E+03  0.47000000000E+01 0. -1.
<mgrwt>
<rscale>  0 0.27590167E+03</rscale>
<asrwt>0</asrwt>
<pdfrwt beam="1">  1        2 0.61122110E-01 0.27590167E+03</pdfrwt>
<pdfrwt beam="2">  1       -2 0.73692557E-02 0.27590167E+03</pdfrwt>
<totfact> 0.85938912E+03</totfact>
</mgrwt>
</event>
<event>
 9    1  0.2074770E-002  0.2742142E+03  0.7818608E-02  0.1098892E+00
         -2   -1    0    0    0  501 -0.00000000000E+00  0.00000000000E+00  0.22395986621E+02  0.22395986621E+02  0.00000000000E+00 0. -1.
          2   -1    0    0  501    0  0.00000000000E+00 -0.00000000000E+00 -0.83936261469E+03  0.83936261469E+03  0.00000000000E+00 0. -1.
         36    2    1    2    0    0  0.71054273576E-14  0.17763568394E-14 -0.81696662807E+03  0.86175860131E+03  0.27421417826E+03 0.  0.
         25    2    3    3    0    0  0.42995807032E+02 -0.52321065872E+01 -0.37876743319E+03  0.40775781389E+03  0.14465701497E+03 0.  0.
         25    2    3    3    0    0 -0.42995807032E+02  0.52321065872E+01 -0.43819919488E+03  0.45400078742E+03  0.11055390642E+03 0.  0.
          5    1    4    4  502    0 -0.42310236613E+02  0.13520503480E+02 -0.23704276478E+03  0.24121426672E+03  0.47000000000E+01 0. -1.
         -5    1    4    4    0  502  0.85306043646E+02 -0.18752610067E+02 -0.14172466841E+03  0.16654354717E+03  0.47000000000E+01 0. -1.
          5    1    5    5  503    0 -0.24793924663E+02 -0.45297795685E+02 -0.11256718019E+03  0.12393582634E+03  0.47000000000E+01 0.  1.
         -5    1    5    5    0  503 -0.18201882369E+02  0.50529902272E+02 -0.32563201469E+03  0.33006496108E+03  0.47000000000E+01 0.  1.
<mgrwt>
<rscale>  0 0.27421418E+03</rscale>
<asrwt>0</asrwt>
<pdfrwt beam="1">  1        2 0.12913270E+00 0.27421418E+03</pdfrwt>
<pdfrwt beam="2">  1       -2 0.34455366E-02 0.27421418E+03</pdfrwt>
<totfact> 0.11433262E+04</totfact>
</mgrwt>
</event>
<event>
 9    1  0.2074770E-002  0.2752128E+03  0.7818608E-02  0.1098333E+00
         -2   -1    0    0    0  501 -0.00000000000E+00  0.00000000000E+00  0.87674198464E+02  0.87674198464E+02  0.00000000000E+00 0.  1.
          2   -1    0    0  501    0  0.00000000000E+00 -0.00000000000E+00 -0.21597603531E+03  0.21597603531E+03  0.00000000000E+00 0.  1.
         36    2    1    2    0    0  0.00000000000E+00 -0.14210854715E-13 -0.12830183684E+03  0.30365023377E+03  0.27521283243E+03 0.  0.
         25    2    3    3    0    0  0.47254180484E+02  0.34101207271E+02 -0.87645373674E+02  0.16184465448E+03  0.12294767483E+03 0.  0.
         25    2    3    3    0    0 -0.47254180484E+02 -0.34101207271E+02 -0.40656463170E+02  0.14180557929E+03  0.12271929111E+03 0.  0.
          5    1    4    4  502    0  0.75712098323E+02  0.48823543643E+02 -0.28835280401E+02  0.94708097025E+02  0.47000000000E+01 0. -1.
         -5    1    4    4    0  502 -0.28457917839E+02 -0.14722336372E+02 -0.58810093273E+02  0.67136557454E+02  0.47000000000E+01 0. -1.
          5    1    5    5  503    0 -0.62831874750E+02 -0.64176664590E+02 -0.54223171046E+02  0.10501776536E+03  0.47000000000E+01 0.  1.
         -5    1    5    5    0  503  0.15577694266E+02  0.30075457320E+02  0.13566707876E+02  0.36787813936E+02  0.47000000000E+01 0.  1.
<mgrwt>
<rscale>  0 0.27521283E+03</rscale>
<asrwt>0</asrwt>
<pdfrwt beam="1">  1        2 0.33227082E-01 0.27521283E+03</pdfrwt>
<pdfrwt beam="2">  1       -2 0.13488338E-01 0.27521283E+03</pdfrwt>
<totfact> 0.63453631E+03</totfact>
</mgrwt>
</event>
<event>
 9    1  0.2074770E-002  0.2751567E+03  0.7818608E-02  0.1098364E+00
         -1   -1    0    0    0  501 -0.00000000000E+00  0.00000000000E+00  0.25933720429E+03  0.25933720429E+03  0.00000000000E+00 0. -1.
          1   -1    0    0  501    0  0.00000000000E+00 -0.00000000000E+00 -0.72985294429E+02  0.72985294429E+02  0.00000000000E+00 0. -1.
         36    2    1    2    0    0  0.00000000000E+00  0.00000000000E+00  0.18635190987E+03  0.33232249872E+03  0.27515669871E+03 0.  0.
         25    2    3    3    0    0 -0.24550788981E+02  0.51744796438E+02  0.96024674290E+02  0.16796549958E+03  0.12534514661E+03 0.  0.
         25    2    3    3    0    0  0.24550788981E+02 -0.51744796438E+02  0.90327235576E+02  0.16435699915E+03  0.12479562686E+03 0.  0.
          5    1    4    4  502    0  0.25541044143E+02  0.43271307758E+02  0.10468583004E+03  0.11621516262E+03  0.47000000000E+01 0. -1.
         -5    1    4    4    0  502 -0.50091833124E+02  0.84734886805E+01 -0.86611557537E+01  0.51750336957E+02  0.47000000000E+01 0. -1.
          5    1    5    5  503    0 -0.15773304538E+02 -0.81681534078E+02  0.73715242561E+02  0.11125060508E+03  0.47000000000E+01 0. -1.
         -5    1    5    5    0  503  0.40324093519E+02  0.29936737640E+02  0.16611993015E+02  0.53106394065E+02  0.47000000000E+01 0. -1.
<mgrwt>
<rscale>  0 0.27515670E+03</rscale>
<asrwt>0</asrwt>
<pdfrwt beam="1">  1        1 0.11228507E-01 0.27515670E+03</pdfrwt>
<pdfrwt beam="2">  1       -1 0.39898031E-01 0.27515670E+03</pdfrwt>
<totfact> 0.33873420E+03</totfact>
</mgrwt>
</event>
<event>
 9    1  0.2074770E-002  0.2747219E+03  0.7818608E-02  0.1098607E+00
          2   -1    0    0  501    0  0.00000000000E+00  0.00000000000E+00  0.12987960687E+04  0.12987960687E+04  0.00000000000E+00 0. -1.
         -2   -1    0    0    0  501 -0.00000000000E+00 -0.00000000000E+00 -0.14527327662E+02  0.14527327662E+02  0.00000000000E+00 0. -1.
         36    2    1    2    0    0 -0.17763568394E-14  0.00000000000E+00  0.12842687410E+04  0.13133233964E+04  0.27472193983E+03 0.  0.
         25    2    3    3    0    0  0.61030392615E+01 -0.10094047463E+01  0.38761835801E+03  0.40828173139E+03  0.12809260219E+03 0.  0.
         25    2    3    3    0    0 -0.61030392615E+01  0.10094047463E+01  0.89665038302E+03  0.90504166496E+03  0.12280162849E+03 0.  0.
          5    1    4    4  502    0 -0.22038584728E+02  0.36307886355E+02  0.33512736475E+03  0.33784079451E+03  0.47000000000E+01 0.  1.
         -5    1    4    4    0  502  0.28141623990E+02 -0.37317291102E+02  0.52490993256E+02  0.70440936883E+02  0.47000000000E+01 0.  1.
          5    1    5    5  503    0 -0.60321382116E+01  0.57423283497E+02  0.28826605023E+03  0.29402929428E+03  0.47000000000E+01 0.  1.
         -5    1    5    5    0  503 -0.70901049882E-01 -0.56413878750E+02  0.60838433279E+03  0.61101237068E+03  0.47000000000E+01 0.  1.
<mgrwt>
<rscale>  0 0.27472194E+03</rscale>
<asrwt>0</asrwt>
<pdfrwt beam="1">  1        2 0.19981469E+00 0.27472194E+03</pdfrwt>
<pdfrwt beam="2">  1       -2 0.22349745E-02 0.27472194E+03</pdfrwt>
<totfact> 0.11520588E+04</totfact>
</mgrwt>
</event>
<event>
 9    1  0.2074770E-002  0.2747998E+03  0.7818608E-02  0.1098564E+00
          1   -1    0    0  501    0  0.00000000000E+00  0.00000000000E+00  0.19189411852E+03  0.19189411852E+03  0.00000000000E+00 0. -1.
         -1   -1    0    0    0  501 -0.00000000000E+00 -0.00000000000E+00 -0.98380999072E+02  0.98380999072E+02  0.00000000000E+00 0. -1.
         36    2    1    2    0    0  0.00000000000E+00  0.71054273576E-14  0.93513119448E+02  0.29027511759E+03  0.27479981875E+03 0.  0.
         25    2    3    3    0    0 -0.18756714189E+02 -0.47642382144E+02  0.58337717542E+02  0.15470255717E+03  0.13382070469E+03 0.  0.
         25    2    3    3    0    0  0.18756714189E+02  0.47642382144E+02  0.35175401906E+02  0.13557256042E+03  0.12050310924E+03 0.  0.
          5    1    4    4  502    0  0.21583076400E+02 -0.43143760291E+02 -0.30257453569E+02  0.57138574846E+02  0.47000000000E+01 0. -1.
         -5    1    4    4    0  502 -0.40339790589E+02 -0.44986218537E+01  0.88595171111E+02  0.97563982327E+02  0.47000000000E+01 0. -1.
          5    1    5    5  503    0  0.26199833749E+02  0.76234758850E+02  0.56743367732E+02  0.98691790575E+02  0.47000000000E+01 0.  1.
         -5    1    5    5    0  503 -0.74431195594E+01 -0.28592376706E+02 -0.21567965825E+02  0.36880769844E+02  0.47000000000E+01 0.  1.
<mgrwt>
<rscale>  0 0.27479982E+03</rscale>
<asrwt>0</asrwt>
<pdfrwt beam="1">  1        1 0.29522172E-01 0.27479982E+03</pdfrwt>
<pdfrwt beam="2">  1       -1 0.15135538E-01 0.27479982E+03</pdfrwt>
<totfact> 0.48645665E+03</totfact>
</mgrwt>
</event>
<event>
 9    1  0.2074770E-002  0.2755298E+03  0.7818608E-02  0.1098156E+00
          1   -1    0    0  501    0  0.00000000000E+00  0.00000000000E+00  0.56460970932E+03  0.56460970932E+03  0.00000000000E+00 0. -1.
         -1   -1    0    0    0  501 -0.00000000000E+00 -0.00000000000E+00 -0.33614659638E+02  0.33614659638E+02  0.00000000000E+00 0. -1.
         36    2    1    2    0    0  0.00000000000E+00  0.00000000000E+00  0.53099504969E+03  0.59822436896E+03  0.27552976759E+03 0.  0.
         25    2    3    3    0    0 -0.41888544969E+02  0.33545553503E+02  0.22490410632E+03  0.26272707303E+03  0.12475457308E+03 0.  0.
         25    2    3    3    0    0  0.41888544969E+02 -0.33545553503E+02  0.30609094337E+03  0.33549729593E+03  0.12643897978E+03 0.  0.
          5    1    4    4  502    0 -0.50817050252E+02  0.39149757240E+02  0.23725700167E+03  0.24582117673E+03  0.47000000000E+01 0. -1.
         -5    1    4    4    0  502  0.89285052827E+01 -0.56042037362E+01 -0.12352895351E+02  0.16905896298E+02  0.47000000000E+01 0. -1.
          5    1    5    5  503    0  0.57568896764E+02 -0.73107480892E+02  0.23058087211E+03  0.24869360712E+03  0.47000000000E+01 0. -1.
         -5    1    5    5    0  503 -0.15680351794E+02  0.39561927388E+02  0.75510071253E+02  0.86803688814E+02  0.47000000000E+01 0. -1.
<mgrwt>
<rscale>  0 0.27552977E+03</rscale>
<asrwt>0</asrwt>
<pdfrwt beam="1">  1        1 0.86863025E-01 0.27552977E+03</pdfrwt>
<pdfrwt beam="2">  1       -1 0.51714865E-02 0.27552977E+03</pdfrwt>
<totfact> 0.63771217E+03</totfact>
</mgrwt>
</event>
<event>
 9    1  0.2074770E-002  0.2747975E+03  0.7818608E-02  0.1098565E+00
          2   -1    0    0  501    0  0.00000000000E+00  0.00000000000E+00  0.16552933788E+04  0.16552933788E+04  0.00000000000E+00 0. -1.
         -2   -1    0    0    0  501 -0.00000000000E+00 -0.00000000000E+00 -0.11404879071E+02  0.11404879071E+02  0.00000000000E+00 0. -1.
         36    2    1    2    0    0  0.14210854715E-13  0.88817841970E-14  0.16438884997E+04  0.16666982579E+04  0.27479753137E+03 0.  0.
         25    2    3    3    0    0 -0.43228033572E+02  0.14186344486E+02  0.68649811721E+03  0.69942929341E+03  0.12590375801E+03 0.  0.
         25    2    3    3    0    0  0.43228033572E+02 -0.14186344486E+02  0.95739038252E+03  0.96726896447E+03  0.13016524047E+03 0.  0.
          5    1    4    4  502    0 -0.17490932067E+02  0.64271251747E+02  0.23156588796E+03  0.24100119703E+03  0.47000000000E+01 0.  1.
         -5    1    4    4    0  502 -0.25737101505E+02 -0.50084907261E+02  0.45493222926E+03  0.45842809638E+03  0.47000000000E+01 0.  1.
          5    1    5    5  503    0  0.69334389060E+02 -0.19074719928E+02  0.27312105346E+03  0.28246823236E+03  0.47000000000E+01 0. -1.
         -5    1    5    5    0  503 -0.26106355489E+02  0.48883754418E+01  0.68426932906E+03  0.68480073211E+03  0.47000000000E+01 0. -1.
<mgrwt>
<rscale>  0 0.27479753E+03</rscale>
<asrwt>0</asrwt>
<pdfrwt beam="1">  1        2 0.25466033E+00 0.27479753E+03</pdfrwt>
<pdfrwt beam="2">  1       -2 0.17545981E-02 0.27479753E+03</pdfrwt>
<totfact> 0.10573381E+04</totfact>
</mgrwt>
</event>
<event>
 9    1  0.2074770E-002  0.2715401E+03  0.7818608E-02  0.1100401E+00
          1   -1    0    0  501    0  0.00000000000E+00  0.00000000000E+00  0.20160720477E+04  0.20160720477E+04  0.00000000000E+00 0. -1.
         -1   -1    0    0    0  501 -0.00000000000E+00 -0.00000000000E+00 -0.91432766518E+01  0.91432766518E+01  0.00000000000E+00 0. -1.
         36    2    1    2    0    0  0.00000000000E+00 -0.71054273576E-14  0.20069287710E+04  0.20252153243E+04  0.27154008530E+03 0.  0.
         25    2    3    3    0    0  0.19274976740E+02  0.85263029644E+01  0.12645892886E+04  0.12708895340E+04  0.12461908511E+03 0.  0.
         25    2    3    3    0    0 -0.19274976740E+02 -0.85263029644E+01  0.74233948242E+03  0.75432579027E+03  0.13226967954E+03 0.  0.
          5    1    4    4  502    0  0.18190745556E+02 -0.55732595390E+02  0.74536125961E+03  0.74767808765E+03  0.47000000000E+01 0.  1.
         -5    1    4    4    0  502  0.10842311842E+01  0.64258898355E+02  0.51922802897E+03  0.52321144640E+03  0.47000000000E+01 0.  1.
          5    1    5    5  503    0 -0.38846001931E+02 -0.30264481974E+02  0.10261907181E+03  0.11391977280E+03  0.47000000000E+01 0. -1.
         -5    1    5    5    0  503  0.19571025191E+02  0.21738179010E+02  0.63972041061E+03  0.64040601746E+03  0.47000000000E+01 0. -1.
<mgrwt>
<rscale>  0 0.27154009E+03</rscale>
<asrwt>0</asrwt>
<pdfrwt beam="1">  1        1 0.31016458E+00 0.27154009E+03</pdfrwt>
<pdfrwt beam="2">  1       -1 0.14066596E-02 0.27154009E+03</pdfrwt>
<totfact> 0.37748141E+03</totfact>
</mgrwt>
</event>
<event>
 9    1  0.2074770E-002  0.2757190E+03  0.7818608E-02  0.1098050E+00
         -2   -1    0    0    0  501 -0.00000000000E+00  0.00000000000E+00  0.13215496188E+02  0.13215496188E+02  0.00000000000E+00 0. -1.
          2   -1    0    0  501    0  0.00000000000E+00 -0.00000000000E+00 -0.14381027432E+04  0.14381027432E+04  0.00000000000E+00 0. -1.
         36    2    1    2    0    0  0.71054273576E-14  0.00000000000E+00 -0.14248872470E+04  0.14513182393E+04  0.27571899696E+03 0.  0.
         25    2    3    3    0    0 -0.31410694874E+02  0.37384780604E+02 -0.89579959778E+03  0.90517817245E+03  0.12044231365E+03 0.  0.
         25    2    3    3    0    0  0.31410694874E+02 -0.37384780604E+02 -0.52908764918E+03  0.54614006689E+03  0.12629718356E+03 0.  0.
          5    1    4    4  502    0  0.41105932873E+02  0.34318215548E+02 -0.28138033182E+03  0.28646887924E+03  0.47000000000E+01 0. -1.
         -5    1    4    4    0  502 -0.72516627747E+02  0.30665650563E+01 -0.61441926596E+03  0.61870929321E+03  0.47000000000E+01 0. -1.
          5    1    5    5  503    0  0.49091897638E+02  0.34175793029E+02 -0.27868418550E+03  0.28507010452E+03  0.47000000000E+01 0. -1.
         -5    1    5    5    0  503 -0.17681202763E+02 -0.71560573633E+02 -0.25040346368E+03  0.26106996238E+03  0.47000000000E+01 0. -1.
<mgrwt>
<rscale>  0 0.27571900E+03</rscale>
<asrwt>0</asrwt>
<pdfrwt beam="1">  1        2 0.22124660E+00 0.27571900E+03</pdfrwt>
<pdfrwt beam="2">  1       -2 0.20331531E-02 0.27571900E+03</pdfrwt>
<totfact> 0.11116561E+04</totfact>
</mgrwt>
</event>
<event>
 9    1  0.2074770E-002  0.2745205E+03  0.7818608E-02  0.1098720E+00
         -2   -1    0    0    0  501 -0.00000000000E+00  0.00000000000E+00  0.50480000821E+03  0.50480000821E+03  0.00000000000E+00 0.  1.
          2   -1    0    0  501    0  0.00000000000E+00 -0.00000000000E+00 -0.37322450738E+02  0.37322450738E+02  0.00000000000E+00 0.  1.
         36    2    1    2    0    0 -0.71054273576E-14  0.00000000000E+00  0.46747755747E+03  0.54212245895E+03  0.27452047966E+03 0.  0.
         25    2    3    3    0    0 -0.55962022129E+02 -0.38402425028E+02  0.21966596251E+03  0.26710838605E+03  0.13596786621E+03 0.  0.
         25    2    3    3    0    0  0.55962022129E+02  0.38402425028E+02  0.24781159496E+03  0.27501407290E+03  0.98059469346E+02 0.  0.
          5    1    4    4  502    0 -0.12644950797E+02  0.50205513772E+00 -0.17926452330E+02  0.22440912040E+02  0.47000000000E+01 0.  1.
         -5    1    4    4    0  502 -0.43317071332E+02 -0.38904480166E+02  0.23759241484E+03  0.24466747401E+03  0.47000000000E+01 0.  1.
          5    1    5    5  503    0  0.15401301200E+02 -0.67461199370E+01  0.19084643220E+03  0.19164331686E+03  0.47000000000E+01 0. -1.
         -5    1    5    5    0  503  0.40560720930E+02  0.45148544965E+02  0.56965162756E+02  0.83370756040E+02  0.47000000000E+01 0. -1.
<mgrwt>
<rscale>  0 0.27452048E+03</rscale>
<asrwt>0</asrwt>
<pdfrwt beam="1">  1        2 0.57419158E-02 0.27452048E+03</pdfrwt>
<pdfrwt beam="2">  1       -2 0.77661535E-01 0.27452048E+03</pdfrwt>
<totfact> 0.19868896E+03</totfact>
</mgrwt>
</event>
<event>
 9    1  0.2074770E-002  0.2738889E+03  0.7818608E-02  0.1099074E+00
          1   -1    0    0  501    0  0.00000000000E+00  0.00000000000E+00  0.55993796948E+03  0.55993796948E+03  0.00000000000E+00 0.  1.
         -1   -1    0    0    0  501 -0.00000000000E+00 -0.00000000000E+00 -0.33492595729E+02  0.33492595729E+02  0.00000000000E+00 0.  1.
         36    2    1    2    0    0 -0.35527136788E-14  0.00000000000E+00  0.52644537375E+03  0.59343056521E+03  0.27388885370E+03 0.  0.
         25    2    3    3    0    0  0.29131981865E+02  0.28208198859E+02  0.35356130391E+03  0.37772861629E+03  0.12660543865E+03 0.  0.
         25    2    3    3    0    0 -0.29131981865E+02 -0.28208198859E+02  0.17288406984E+03  0.21570194891E+03  0.12245021156E+03 0.  0.
          5    1    4    4  502    0 -0.98661448684E+01  0.46976317033E+02  0.31766076269E+03  0.32130136217E+03  0.47000000000E+01 0. -1.
         -5    1    4    4    0  502  0.38998126733E+02 -0.18768118174E+02  0.35900541217E+02  0.56427254126E+02  0.47000000000E+01 0. -1.
          5    1    5    5  503    0  0.98767955950E+01 -0.54668549557E+02  0.26281204067E+02  0.61635972363E+02  0.47000000000E+01 0. -1.
         -5    1    5    5    0  503 -0.39008777460E+02  0.26460350697E+02  0.14660286577E+03  0.15406597655E+03  0.47000000000E+01 0. -1.
<mgrwt>
<rscale>  0 0.27388885E+03</rscale>
<asrwt>0</asrwt>
<pdfrwt beam="1">  1        1 0.86144296E-01 0.27388885E+03</pdfrwt>
<pdfrwt beam="2">  1       -1 0.51527075E-02 0.27388885E+03</pdfrwt>
<totfact> 0.64839883E+03</totfact>
</mgrwt>
</event>
<event>
 9    1  0.2074770E-002  0.2753228E+03  0.7818608E-02  0.1098271E+00
          2   -1    0    0  501    0  0.00000000000E+00  0.00000000000E+00  0.69603081145E+03  0.69603081145E+03  0.00000000000E+00 0. -1.
         -2   -1    0    0    0  501 -0.00000000000E+00 -0.00000000000E+00 -0.27226759050E+02  0.27226759050E+02  0.00000000000E+00 0. -1.
         36    2    1    2    0    0 -0.53290705182E-14  0.71054273576E-14  0.66880405240E+03  0.72325757050E+03  0.27532281558E+03 0.  0.
         25    2    3    3    0    0 -0.75130525320E+01  0.51896018519E+02  0.41010129932E+03  0.43212112179E+03  0.12568192195E+03 0.  0.
         25    2    3    3    0    0  0.75130525320E+01 -0.51896018519E+02  0.25870275308E+03  0.29113644871E+03  0.12281561226E+03 0.  0.
          5    1    4    4  502    0 -0.22267801156E+02 -0.38359176926E+02  0.13620665902E+03  0.14332349906E+03  0.47000000000E+01 0.  1.
         -5    1    4    4    0  502  0.14754748624E+02  0.90255195445E+02  0.27389464030E+03  0.28879762273E+03  0.47000000000E+01 0.  1.
          5    1    5    5  503    0 -0.43931634825E+02  0.15839965771E+01  0.16867534173E+03  0.17437304405E+03  0.47000000000E+01 0.  1.
         -5    1    5    5    0  503  0.51444687357E+02 -0.53480015096E+02  0.90027411360E+02  0.11676340466E+03  0.47000000000E+01 0.  1.
<mgrwt>
<rscale>  0 0.27532282E+03</rscale>
<asrwt>0</asrwt>
<pdfrwt beam="1">  1        2 0.10708165E+00 0.27532282E+03</pdfrwt>
<pdfrwt beam="2">  1       -2 0.41887327E-02 0.27532282E+03</pdfrwt>
<totfact> 0.10782612E+04</totfact>
</mgrwt>
</event>
<event>
 9    1  0.2074770E-002  0.2756253E+03  0.7818608E-02  0.1098103E+00
         -2   -1    0    0    0  501 -0.00000000000E+00  0.00000000000E+00  0.68451393940E+03  0.68451393940E+03  0.00000000000E+00 0.  1.
          2   -1    0    0  501    0  0.00000000000E+00 -0.00000000000E+00 -0.27745702480E+02  0.27745702480E+02  0.00000000000E+00 0.  1.
         36    2    1    2    0    0 -0.35527136788E-14  0.00000000000E+00  0.65676823692E+03  0.71225964188E+03  0.27562525361E+03 0.  0.
         25    2    3    3    0    0  0.55273174027E+01  0.50384862191E+02  0.24246159248E+03  0.27668603104E+03  0.12328158974E+03 0.  0.
         25    2    3    3    0    0 -0.55273174027E+01 -0.50384862191E+02  0.41430664444E+03  0.43557361084E+03  0.12451983480E+03 0.  0.
          5    1    4    4  502    0 -0.42151836939E+02  0.56993292828E+02  0.79119685651E+02  0.10633450730E+03  0.47000000000E+01 0.  1.
         -5    1    4    4    0  502  0.47679154342E+02 -0.66084306370E+01  0.16334190683E+03  0.17035152374E+03  0.47000000000E+01 0.  1.
          5    1    5    5  503    0  0.18917165247E+02 -0.87304525253E+02  0.29309982471E+03  0.30644662915E+03  0.47000000000E+01 0. -1.
         -5    1    5    5    0  503 -0.24444482650E+02  0.36919663061E+02  0.12120681972E+03  0.12912698169E+03  0.47000000000E+01 0. -1.
<mgrwt>
<rscale>  0 0.27562525E+03</rscale>
<asrwt>0</asrwt>
<pdfrwt beam="1">  1        2 0.42685701E-02 0.27562525E+03</pdfrwt>
<pdfrwt beam="2">  1       -2 0.10530982E+00 0.27562525E+03</pdfrwt>
<totfact> 0.14739417E+03</totfact>
</mgrwt>
</event>
<event>
 9    1  0.2074770E-002  0.2751415E+03  0.7818608E-02  0.1098373E+00
         -3   -1    0    0    0  501 -0.00000000000E+00  0.00000000000E+00  0.59216899067E+02  0.59216899067E+02  0.00000000000E+00 0.  1.
          3   -1    0    0  501    0  0.00000000000E+00 -0.00000000000E+00 -0.31959982057E+03  0.31959982057E+03  0.00000000000E+00 0.  1.
         36    2    1    2    0    0  0.00000000000E+00  0.71054273576E-14 -0.26038292150E+03  0.37881671963E+03  0.27514149317E+03 0.  0.
         25    2    3    3    0    0 -0.46643968439E+01  0.28106687712E+02 -0.21698442898E+03  0.25283740736E+03  0.12662057356E+03 0.  0.
         25    2    3    3    0    0  0.46643968439E+01 -0.28106687712E+02 -0.43398492520E+02  0.12597931227E+03  0.11478508386E+03 0.  0.
          5    1    4    4  502    0  0.49006170665E+02  0.34191303554E+02 -0.17278332073E+03  0.18288470665E+03  0.47000000000E+01 0. -1.
         -5    1    4    4    0  502 -0.53670567509E+02 -0.60846158425E+01 -0.44201108248E+02  0.69952700713E+02  0.47000000000E+01 0. -1.
          5    1    5    5  503    0  0.22179156588E+02 -0.39287372821E+02 -0.75129028597E+02  0.87760318983E+02  0.47000000000E+01 0.  1.
         -5    1    5    5    0  503 -0.17514759744E+02  0.11180685109E+02  0.31730536077E+02  0.38218993291E+02  0.47000000000E+01 0.  1.
<mgrwt>
<rscale>  0 0.27514149E+03</rscale>
<asrwt>0</asrwt>
<pdfrwt beam="1">  1        3 0.49169203E-01 0.27514149E+03</pdfrwt>
<pdfrwt beam="2">  1       -3 0.91102922E-02 0.27514149E+03</pdfrwt>
<totfact> 0.90519354E+02</totfact>
</mgrwt>
</event>
<event>
 9    1  0.2074770E-002  0.2758373E+03  0.7818608E-02  0.1097984E+00
         -1   -1    0    0    0  501 -0.00000000000E+00  0.00000000000E+00  0.46293827813E+03  0.46293827813E+03  0.00000000000E+00 0. -1.
          1   -1    0    0  501    0  0.00000000000E+00 -0.00000000000E+00 -0.41088756761E+02  0.41088756761E+02  0.00000000000E+00 0. -1.
         36    2    1    2    0    0  0.00000000000E+00  0.00000000000E+00  0.42184952137E+03  0.50402703489E+03  0.27583733109E+03 0.  0.
         25    2    3    3    0    0 -0.40738531888E+02  0.23097107147E+02  0.31842890812E+03  0.34479911035E+03  0.12367842429E+03 0.  0.
         25    2    3    3    0    0  0.40738531888E+02 -0.23097107147E+02  0.10342061325E+03  0.15922792454E+03  0.11164499259E+03 0.  0.
          5    1    4    4  502    0  0.40587386368E+02  0.19097878154E+02  0.69519643481E+02  0.82868182748E+02  0.47000000000E+01 0.  1.
         -5    1    4    4    0  502 -0.81325918255E+02  0.39992289933E+01  0.24890926464E+03  0.26193092760E+03  0.47000000000E+01 0.  1.
          5    1    5    5  503    0 -0.96209718011E+01 -0.51840132169E+02  0.81248388553E+02  0.96970887611E+02  0.47000000000E+01 0.  1.
         -5    1    5    5    0  503  0.50359503689E+02  0.28743025022E+02  0.22172224698E+02  0.62257036929E+02  0.47000000000E+01 0.  1.
<mgrwt>
<rscale>  0 0.27583733E+03</rscale>
<asrwt>0</asrwt>
<pdfrwt beam="1">  1        1 0.63213475E-02 0.27583733E+03</pdfrwt>
<pdfrwt beam="2">  1       -1 0.71221270E-01 0.27583733E+03</pdfrwt>
<totfact> 0.24837528E+03</totfact>
</mgrwt>
</event>
<event>
 9    1  0.2074770E-002  0.2800592E+03  0.7818608E-02  0.1095657E+00
         -2   -1    0    0    0  501 -0.00000000000E+00  0.00000000000E+00  0.22559131376E+02  0.22559131376E+02  0.00000000000E+00 0. -1.
          2   -1    0    0  501    0  0.00000000000E+00 -0.00000000000E+00 -0.86919548519E+03  0.86919548519E+03  0.00000000000E+00 0. -1.
         36    2    1    2    0    0  0.00000000000E+00  0.00000000000E+00 -0.84663635382E+03  0.89175461657E+03  0.28005924475E+03 0.  0.
         25    2    3    3    0    0 -0.26727812324E+02  0.26928840623E+02 -0.54555495500E+03  0.56043664427E+03  0.12255400814E+03 0.  0.
         25    2    3    3    0    0  0.26727812324E+02 -0.26928840623E+02 -0.30108139882E+03  0.33131797230E+03  0.13297387580E+03 0.  0.
          5    1    4    4  502    0 -0.62925147069E+02  0.51018640182E+02 -0.41162458295E+03  0.41954661608E+03  0.47000000000E+01 0.  1.
         -5    1    4    4    0  502  0.36197334745E+02 -0.24089799559E+02 -0.13393037205E+03  0.14089002819E+03  0.47000000000E+01 0.  1.
          5    1    5    5  503    0  0.72006978526E+02 -0.18994378157E+02 -0.98720147279E+02  0.12374792458E+03  0.47000000000E+01 0. -1.
         -5    1    5    5    0  503 -0.45279166202E+02 -0.79344624653E+01 -0.20236125154E+03  0.20757004772E+03  0.47000000000E+01 0. -1.
<mgrwt>
<rscale>  0 0.28005924E+03</rscale>
<asrwt>0</asrwt>
<pdfrwt beam="1">  1        2 0.13372240E+00 0.28005924E+03</pdfrwt>
<pdfrwt beam="2">  1       -2 0.34706350E-02 0.28005924E+03</pdfrwt>
<totfact> 0.10812324E+04</totfact>
</mgrwt>
</event>
<event>
 9    1  0.2074770E-002  0.2760513E+03  0.7818608E-02  0.1097865E+00
          2   -1    0    0  501    0  0.00000000000E+00  0.00000000000E+00  0.67564302106E+03  0.67564302106E+03  0.00000000000E+00 0.  1.
         -2   -1    0    0    0  501 -0.00000000000E+00 -0.00000000000E+00 -0.28196960838E+02  0.28196960838E+02  0.00000000000E+00 0.  1.
         36    2    1    2    0    0  0.00000000000E+00  0.00000000000E+00  0.64744606022E+03  0.70383998190E+03  0.27605129817E+03 0.  0.
         25    2    3    3    0    0  0.38334550325E+02  0.21891593858E+02  0.21875099315E+03  0.25450381760E+03  0.12235774000E+03 0.  0.
         25    2    3    3    0    0 -0.38334550325E+02 -0.21891593858E+02  0.42869506707E+03  0.44933616430E+03  0.12717998422E+03 0.  0.
          5    1    4    4  502    0 -0.99459495364E+01  0.96553497728E+01 -0.11666689103E+02  0.18717620736E+02  0.47000000000E+01 0. -1.
         -5    1    4    4    0  502  0.48280499861E+02  0.12236244086E+02  0.23041768225E+03  0.23578619686E+03  0.47000000000E+01 0. -1.
          5    1    5    5  503    0  0.34315142875E+01  0.33277058859E+02  0.31692313783E+02  0.46320953030E+02  0.47000000000E+01 0. -1.
         -5    1    5    5    0  503 -0.41766064612E+02 -0.55168652718E+02  0.39700275329E+03  0.40301521127E+03  0.47000000000E+01 0. -1.
<mgrwt>
<rscale>  0 0.27605130E+03</rscale>
<asrwt>0</asrwt>
<pdfrwt beam="1">  1        2 0.10394507E+00 0.27605130E+03</pdfrwt>
<pdfrwt beam="2">  1       -2 0.43379945E-02 0.27605130E+03</pdfrwt>
<totfact> 0.10602183E+04</totfact>
</mgrwt>
</event>
<event>
 9    1  0.2074770E-002  0.2748348E+03  0.7818608E-02  0.1098544E+00
         -2   -1    0    0    0  501 -0.00000000000E+00  0.00000000000E+00  0.53552237333E+01  0.53552237333E+01  0.00000000000E+00 0.  1.
          2   -1    0    0  501    0  0.00000000000E+00 -0.00000000000E+00 -0.35261921875E+04  0.35261921875E+04  0.00000000000E+00 0.  1.
         36    2    1    2    0    0  0.00000000000E+00  0.71054273576E-14 -0.35208369637E+04  0.35315474112E+04  0.27483484561E+03 0.  0.
         25    2    3    3    0    0 -0.34196145525E+02  0.50554793330E+02 -0.17011504417E+04  0.17066878227E+04  0.12306638620E+03 0.  0.
         25    2    3    3    0    0  0.34196145525E+02 -0.50554793330E+02 -0.18196865221E+04  0.18248595885E+04  0.12299721833E+03 0.  0.
          5    1    4    4  502    0 -0.22825408199E+02  0.16043060099E+02 -0.75539450518E+02  0.80663979702E+02  0.47000000000E+01 0.  1.
         -5    1    4    4    0  502 -0.11370737327E+02  0.34511733231E+02 -0.16256109911E+04  0.16260238430E+04  0.47000000000E+01 0.  1.
          5    1    5    5  503    0 -0.31515652824E+02  0.66424104164E-01 -0.10887935684E+04  0.10892597328E+04  0.47000000000E+01 0.  1.
         -5    1    5    5    0  503  0.65711798349E+02 -0.50621217434E+02 -0.73089295367E+03  0.73559985578E+03  0.47000000000E+01 0.  1.
<mgrwt>
<rscale>  0 0.27483485E+03</rscale>
<asrwt>0</asrwt>
<pdfrwt beam="1">  1        2 0.54249081E+00 0.27483485E+03</pdfrwt>
<pdfrwt beam="2">  1       -2 0.82388102E-03 0.27483485E+03</pdfrwt>
<totfact> 0.27518166E+03</totfact>
</mgrwt>
</event>
<event>
 9    1  0.2074770E-002  0.2752917E+03  0.7818608E-02  0.1098289E+00
         -2   -1    0    0    0  501 -0.00000000000E+00  0.00000000000E+00  0.11681191845E+02  0.11681191845E+02  0.00000000000E+00 0.  1.
          2   -1    0    0  501    0  0.00000000000E+00 -0.00000000000E+00 -0.16219557357E+04  0.16219557357E+04  0.00000000000E+00 0.  1.
         36    2    1    2    0    0 -0.35527136788E-14 -0.35527136788E-14 -0.16102745439E+04  0.16336369275E+04  0.27529167160E+03 0.  0.
         25    2    3    3    0    0  0.40058550987E+01 -0.14263461231E+02 -0.12513252070E+04  0.12577512978E+04  0.12611130068E+03 0.  0.
         25    2    3    3    0    0 -0.40058550987E+01  0.14263461231E+02 -0.35894933686E+03  0.37588562978E+03  0.11057073322E+03 0.  0.
          5    1    4    4  502    0 -0.43544472464E+02  0.70455661545E+01 -0.10027122958E+04  0.10036930802E+04  0.47000000000E+01 0. -1.
         -5    1    4    4    0  502  0.47550327563E+02 -0.21309027386E+02 -0.24861291117E+03  0.25405821754E+03  0.47000000000E+01 0. -1.
          5    1    5    5  503    0 -0.22792455347E+02 -0.25252314336E+02 -0.35262094214E+02  0.49220734334E+02  0.47000000000E+01 0.  1.
         -5    1    5    5    0  503  0.18786600248E+02  0.39515775567E+02 -0.32368724264E+03  0.32666489545E+03  0.47000000000E+01 0.  1.
<mgrwt>
<rscale>  0 0.27529167E+03</rscale>
<asrwt>0</asrwt>
<pdfrwt beam="1">  1        2 0.24953136E+00 0.27529167E+03</pdfrwt>
<pdfrwt beam="2">  1       -2 0.17971085E-02 0.27529167E+03</pdfrwt>
<totfact> 0.10631368E+04</totfact>
</mgrwt>
</event>
<event>
 9    1  0.2074770E-002  0.2748936E+03  0.7818608E-02  0.1098511E+00
          1   -1    0    0  501    0  0.00000000000E+00  0.00000000000E+00  0.33490979650E+03  0.33490979650E+03  0.00000000000E+00 0.  1.
         -1   -1    0    0    0  501 -0.00000000000E+00 -0.00000000000E+00 -0.56408106458E+02  0.56408106458E+02  0.00000000000E+00 0.  1.
         36    2    1    2    0    0 -0.71054273576E-14 -0.17763568394E-14  0.27850169004E+03  0.39131790295E+03  0.27489363365E+03 0.  0.
         25    2    3    3    0    0  0.26353296453E+02  0.37279487443E+01  0.82189144820E+02  0.14961474571E+03  0.12215204776E+03 0.  0.
         25    2    3    3    0    0 -0.26353296453E+02 -0.37279487443E+01  0.19631254522E+03  0.24170315724E+03  0.13846807204E+03 0.  0.
          5    1    4    4  502    0  0.65072156155E+02 -0.59147991006E+01  0.90021527379E+01  0.66124875115E+02  0.47000000000E+01 0. -1.
         -5    1    4    4    0  502 -0.38718859702E+02  0.96427478449E+01  0.73186992082E+02  0.83489870599E+02  0.47000000000E+01 0. -1.
          5    1    5    5  503    0 -0.21706801622E+02  0.39616435514E+02  0.19239513446E+03  0.19768314284E+03  0.47000000000E+01 0. -1.
         -5    1    5    5    0  503 -0.46464948306E+01 -0.43344384258E+02  0.39174107603E+01  0.44020014402E+02  0.47000000000E+01 0. -1.
<mgrwt>
<rscale>  0 0.27489363E+03</rscale>
<asrwt>0</asrwt>
<pdfrwt beam="1">  1        1 0.51524583E-01 0.27489363E+03</pdfrwt>
<pdfrwt beam="2">  1       -1 0.86781704E-02 0.27489363E+03</pdfrwt>
<totfact> 0.57464677E+03</totfact>
</mgrwt>
</event>
<event>
 9    1  0.2074770E-002  0.2753171E+03  0.7818608E-02  0.1098274E+00
          2   -1    0    0  501    0  0.00000000000E+00  0.00000000000E+00  0.12431675883E+04  0.12431675883E+04  0.00000000000E+00 0.  1.
         -2   -1    0    0    0  501 -0.00000000000E+00 -0.00000000000E+00 -0.15243218239E+02  0.15243218239E+02  0.00000000000E+00 0.  1.
         36    2    1    2    0    0  0.35527136788E-14  0.00000000000E+00  0.12279243700E+04  0.12584108065E+04  0.27531708887E+03 0.  0.
         25    2    3    3    0    0 -0.25155026752E+02  0.12671247407E+02  0.40591298652E+03  0.42625107512E+03  0.12700901755E+03 0.  0.
         25    2    3    3    0    0  0.25155026752E+02 -0.12671247407E+02  0.82201138353E+03  0.83215973140E+03  0.12646646999E+03 0.  0.
          5    1    4    4  502    0 -0.48165392705E+02  0.31984141160E+02  0.38500345909E+03  0.38934900006E+03  0.47000000000E+01 0.  1.
         -5    1    4    4    0  502  0.23010365953E+02 -0.19312893753E+02  0.20909527428E+02  0.36902075059E+02  0.47000000000E+01 0.  1.
          5    1    5    5  503    0 -0.19524335486E+02 -0.56896948211E+02  0.27582913416E+03  0.28235131245E+03  0.47000000000E+01 0.  1.
         -5    1    5    5    0  503  0.44679362238E+02  0.44225700804E+02  0.54618224937E+03  0.54980841895E+03  0.47000000000E+01 0.  1.
<mgrwt>
<rscale>  0 0.27531709E+03</rscale>
<asrwt>0</asrwt>
<pdfrwt beam="1">  1        2 0.19125647E+00 0.27531709E+03</pdfrwt>
<pdfrwt beam="2">  1       -2 0.23451115E-02 0.27531709E+03</pdfrwt>
<totfact> 0.11525948E+04</totfact>
</mgrwt>
</event>
<event>
 9    1  0.2074770E-002  0.2757064E+03  0.7818608E-02  0.1098057E+00
         -4   -1    0    0    0  501 -0.00000000000E+00  0.00000000000E+00  0.28906721469E+03  0.28906721469E+03  0.00000000000E+00 0. -1.
          4   -1    0    0  501    0  0.00000000000E+00 -0.00000000000E+00 -0.65740787968E+02  0.65740787968E+02  0.00000000000E+00 0. -1.
         36    2    1    2    0    0  0.00000000000E+00  0.71054273576E-14  0.22332642672E+03  0.35480800266E+03  0.27570641247E+03 0.  0.
         25    2    3    3    0    0  0.26358239473E+02  0.27068855598E+02  0.17050830144E+03  0.21391210761E+03  0.12352258574E+03 0.  0.
         25    2    3    3    0    0 -0.26358239473E+02 -0.27068855598E+02  0.52818125279E+02  0.14089589505E+03  0.12503767094E+03 0.  0.
          5    1    4    4  502    0 -0.50881339803E+01 -0.34000953363E+02  0.12884694749E+03  0.13343755024E+03  0.47000000000E+01 0.  1.
         -5    1    4    4    0  502  0.31446373453E+02  0.61069808962E+02  0.41661353954E+02  0.80474557366E+02  0.47000000000E+01 0.  1.
          5    1    5    5  503    0 -0.15735904516E+02 -0.46185827273E+02  0.87108899184E+02  0.99953987659E+02  0.47000000000E+01 0. -1.
         -5    1    5    5    0  503 -0.10622334957E+02  0.19116971675E+02 -0.34290773905E+02  0.40941907393E+02  0.47000000000E+01 0. -1.
<mgrwt>
<rscale>  0 0.27570641E+03</rscale>
<asrwt>0</asrwt>
<pdfrwt beam="1">  1        4 0.10113967E-01 0.27570641E+03</pdfrwt>
<pdfrwt beam="2">  1       -4 0.44471879E-01 0.27570641E+03</pdfrwt>
<totfact> 0.68704727E+02</totfact>
</mgrwt>
</event>
<event>
 9    1  0.2074770E-002  0.2811301E+03  0.7818608E-02  0.1095073E+00
          4   -1    0    0  501    0  0.00000000000E+00  0.00000000000E+00  0.29452094445E+02  0.29452094445E+02  0.00000000000E+00 0. -1.
         -4   -1    0    0    0  501 -0.00000000000E+00 -0.00000000000E+00 -0.67087033306E+03  0.67087033306E+03  0.00000000000E+00 0. -1.
         36    2    1    2    0    0 -0.14210854715E-13 -0.88817841970E-15 -0.64141823861E+03  0.70032242750E+03  0.28113012225E+03 0.  0.
         25    2    3    3    0    0 -0.86288216842E+02 -0.75258675553E+01 -0.31188350532E+03  0.34712262602E+03  0.12538142428E+03 0.  0.
         25    2    3    3    0    0  0.86288216842E+02  0.75258675553E+01 -0.32953473329E+03  0.35319980149E+03  0.93030448110E+02 0.  0.
          5    1    4    4  502    0 -0.81356260879E+02  0.18859218093E+02 -0.87346434961E+02  0.12093800474E+03  0.47000000000E+01 0.  1.
         -5    1    4    4    0  502 -0.49319559635E+01 -0.26385085648E+02 -0.22453707036E+03  0.22618462127E+03  0.47000000000E+01 0.  1.
          5    1    5    5  503    0  0.73044866176E+02  0.75282685036E+01 -0.33099155618E+03  0.33907186195E+03  0.47000000000E+01 0.  1.
         -5    1    5    5    0  503  0.13243350666E+02 -0.24009482650E-02  0.14568228901E+01  0.14127939537E+02  0.47000000000E+01 0.  1.
<mgrwt>
<rscale>  0 0.28113012E+03</rscale>
<asrwt>0</asrwt>
<pdfrwt beam="1">  1        4 0.45310919E-02 0.28113012E+03</pdfrwt>
<pdfrwt beam="2">  1       -4 0.10321081E+00 0.28113012E+03</pdfrwt>
<totfact> 0.41670924E+02</totfact>
</mgrwt>
</event>
<event>
 9    1  0.2074770E-002  0.2757931E+03  0.7818608E-02  0.1098009E+00
          2   -1    0    0  501    0  0.00000000000E+00  0.00000000000E+00  0.11026850829E+04  0.11026850829E+04  0.00000000000E+00 0.  1.
         -2   -1    0    0    0  501 -0.00000000000E+00 -0.00000000000E+00 -0.17244685101E+02  0.17244685101E+02  0.00000000000E+00 0.  1.
         36    2    1    2    0    0  0.00000000000E+00  0.00000000000E+00  0.10854403978E+04  0.11199297680E+04  0.27579308926E+03 0.  0.
         25    2    3    3    0    0  0.46494258919E+02  0.48698563483E+02  0.58702399294E+03  0.60148935854E+03  0.11251228356E+03 0.  0.
         25    2    3    3    0    0 -0.46494258919E+02 -0.48698563483E+02  0.49841640489E+03  0.51844040949E+03  0.12581048976E+03 0.  0.
          5    1    4    4  502    0  0.81363260016E+02  0.24446344897E+02  0.44938808674E+03  0.45737221862E+03  0.47000000000E+01 0. -1.
         -5    1    4    4    0  502 -0.34869001096E+02  0.24252218586E+02  0.13763590620E+03  0.14411713992E+03  0.47000000000E+01 0. -1.
          5    1    5    5  503    0 -0.18816027947E+02  0.34997847516E+02  0.28021827162E+03  0.28306052708E+03  0.47000000000E+01 0. -1.
         -5    1    5    5    0  503 -0.27678230972E+02 -0.83696410999E+02  0.21819813327E+03  0.23537988241E+03  0.47000000000E+01 0. -1.
<mgrwt>
<rscale>  0 0.27579309E+03</rscale>
<asrwt>0</asrwt>
<pdfrwt beam="1">  1        2 0.16964380E+00 0.27579309E+03</pdfrwt>
<pdfrwt beam="2">  1       -2 0.26530293E-02 0.27579309E+03</pdfrwt>
<totfact> 0.11559985E+04</totfact>
</mgrwt>
</event>
<event>
 9    1  0.2074770E-002  0.2758201E+03  0.7818608E-02  0.1097994E+00
         -2   -1    0    0    0  501 -0.00000000000E+00  0.00000000000E+00  0.79344783942E+01  0.79344783942E+01  0.00000000000E+00 0. -1.
          2   -1    0    0  501    0  0.00000000000E+00 -0.00000000000E+00 -0.23970295280E+04  0.23970295280E+04  0.00000000000E+00 0. -1.
         36    2    1    2    0    0  0.00000000000E+00  0.00000000000E+00 -0.23890950496E+04  0.24049640064E+04  0.27582007904E+03 0.  0.
         25    2    3    3    0    0 -0.32693583655E+02  0.40386758042E+02 -0.89518175106E+03  0.90496848945E+03  0.12213778625E+03 0.  0.
         25    2    3    3    0    0  0.32693583655E+02 -0.40386758042E+02 -0.14939132986E+04  0.14999955170E+04  0.12453773180E+03 0.  0.
          5    1    4    4  502    0  0.39710996178E+02  0.22920697989E+02 -0.17637631337E+03  0.18229924720E+03  0.47000000000E+01 0. -1.
         -5    1    4    4    0  502 -0.72404579833E+02  0.17466060053E+02 -0.71880543769E+03  0.72266924225E+03  0.47000000000E+01 0. -1.
          5    1    5    5  503    0  0.42331771412E+02 -0.38939161759E+02 -0.14845937748E+04  0.14857149805E+04  0.47000000000E+01 0. -1.
         -5    1    5    5    0  503 -0.96381877571E+01 -0.14475962832E+01 -0.93195238238E+01  0.14280536494E+02  0.47000000000E+01 0. -1.
<mgrwt>
<rscale>  0 0.27582008E+03</rscale>
<asrwt>0</asrwt>
<pdfrwt beam="1">  1        2 0.36877356E+00 0.27582008E+03</pdfrwt>
<pdfrwt beam="2">  1       -2 0.12206897E-02 0.27582008E+03</pdfrwt>
<totfact> 0.72778128E+03</totfact>
</mgrwt>
</event>
<event>
 9    1  0.2074770E-002  0.2749159E+03  0.7818608E-02  0.1098499E+00
         -2   -1    0    0    0  501 -0.00000000000E+00  0.00000000000E+00  0.38227298323E+02  0.38227298323E+02  0.00000000000E+00 0. -1.
          2   -1    0    0  501    0  0.00000000000E+00 -0.00000000000E+00 -0.49427215719E+03  0.49427215719E+03  0.00000000000E+00 0. -1.
         36    2    1    2    0    0 -0.14210854715E-13  0.00000000000E+00 -0.45604485887E+03  0.53249945552E+03  0.27491590864E+03 0.  0.
         25    2    3    3    0    0 -0.34542892130E+02  0.13179099042E+02 -0.13698312375E+03  0.18745150610E+03  0.12250220773E+03 0.  0.
         25    2    3    3    0    0  0.34542892130E+02 -0.13179099042E+02 -0.31906173512E+03  0.34504794941E+03  0.12605870272E+03 0.  0.
          5    1    4    4  502    0  0.90692545165E+01 -0.47308396907E+02 -0.29942326436E+02  0.56911938183E+02  0.47000000000E+01 0.  1.
         -5    1    4    4    0  502 -0.43612146647E+02  0.60487495950E+02 -0.10704079732E+03  0.13053956792E+03  0.47000000000E+01 0.  1.
          5    1    5    5  503    0  0.30276944096E+02 -0.57530578222E+02 -0.27345445322E+03  0.28111543672E+03  0.47000000000E+01 0.  1.
         -5    1    5    5    0  503  0.42659480341E+01  0.44351479180E+02 -0.45607281897E+02  0.63932512699E+02  0.47000000000E+01 0.  1.
<mgrwt>
<rscale>  0 0.27491591E+03</rscale>
<asrwt>0</asrwt>
<pdfrwt beam="1">  1        2 0.76041868E-01 0.27491591E+03</pdfrwt>
<pdfrwt beam="2">  1       -2 0.58811230E-02 0.27491591E+03</pdfrwt>
<totfact> 0.95708947E+03</totfact>
</mgrwt>
</event>
<event>
 9    1  0.2074770E-002  0.2777490E+03  0.7818608E-02  0.1096925E+00
         -2   -1    0    0    0  501 -0.00000000000E+00  0.00000000000E+00  0.20479891159E+02  0.20479891159E+02  0.00000000000E+00 0.  1.
          2   -1    0    0  501    0  0.00000000000E+00 -0.00000000000E+00 -0.94171065002E+03  0.94171065002E+03  0.00000000000E+00 0.  1.
         36    2    1    2    0    0  0.00000000000E+00  0.00000000000E+00 -0.92123075886E+03  0.96219054118E+03  0.27774903504E+03 0.  0.
         25    2    3    3    0    0 -0.52982559848E+02 -0.17285280954E+01 -0.47489382869E+03  0.49523840617E+03  0.13010300135E+03 0.  0.
         25    2    3    3    0    0  0.52982559848E+02  0.17285280954E+01 -0.44633693017E+03  0.46695213501E+03  0.12656026903E+03 0.  0.
          5    1    4    4  502    0 -0.56868556905E+02  0.53331535723E+02 -0.19781699232E+03  0.21267801466E+03  0.47000000000E+01 0.  1.
         -5    1    4    4    0  502  0.38859970569E+01 -0.55060063819E+02 -0.27707683637E+03  0.28256039152E+03  0.47000000000E+01 0.  1.
          5    1    5    5  503    0  0.16725458319E+02 -0.59323601224E+02 -0.26587151974E+03  0.27296297483E+03  0.47000000000E+01 0. -1.
         -5    1    5    5    0  503  0.36257101529E+02  0.61052129319E+02 -0.18046541043E+03  0.19398916018E+03  0.47000000000E+01 0. -1.
<mgrwt>
<rscale>  0 0.27774904E+03</rscale>
<asrwt>0</asrwt>
<pdfrwt beam="1">  1        2 0.14487857E+00 0.27774904E+03</pdfrwt>
<pdfrwt beam="2">  1       -2 0.31507522E-02 0.27774904E+03</pdfrwt>
<totfact> 0.11214981E+04</totfact>
</mgrwt>
</event>
<event>
 9    1  0.2074770E-002  0.2747245E+03  0.7818608E-02  0.1098606E+00
         -1   -1    0    0    0  501 -0.00000000000E+00  0.00000000000E+00  0.14487145853E+03  0.14487145853E+03  0.00000000000E+00 0.  1.
          1   -1    0    0  501    0  0.00000000000E+00 -0.00000000000E+00 -0.13024224947E+03  0.13024224947E+03  0.00000000000E+00 0.  1.
         36    2    1    2    0    0  0.00000000000E+00 -0.71054273576E-14  0.14629209062E+02  0.27511370799E+03  0.27472447756E+03 0.  0.
         25    2    3    3    0    0 -0.28986195861E+02  0.48388498717E+02  0.18677856077E+02  0.13713338792E+03  0.12359230322E+03 0.  0.
         25    2    3    3    0    0  0.28986195861E+02 -0.48388498717E+02 -0.40486470153E+01  0.13798032007E+03  0.12585917061E+03 0.  0.
          5    1    4    4  502    0 -0.44045615917E+02  0.69073694501E+02 -0.25446142231E+02  0.85911510917E+02  0.47000000000E+01 0.  1.
         -5    1    4    4    0  502  0.15059420056E+02 -0.20685195784E+02  0.44123998309E+02  0.51221877004E+02  0.47000000000E+01 0.  1.
          5    1    5    5  503    0 -0.38978950765E+02 -0.35249928451E+02  0.29997096621E+02  0.60694578541E+02  0.47000000000E+01 0.  1.
         -5    1    5    5    0  503  0.67965146626E+02 -0.13138570266E+02 -0.34045743636E+02  0.77285741533E+02  0.47000000000E+01 0.  1.
<mgrwt>
<rscale>  0 0.27472448E+03</rscale>
<asrwt>0</asrwt>
<pdfrwt beam="1">  1        1 0.20037269E-01 0.27472448E+03</pdfrwt>
<pdfrwt beam="2">  1       -1 0.22287917E-01 0.27472448E+03</pdfrwt>
<totfact> 0.42694033E+03</totfact>
</mgrwt>
</event>
<event>
 9    1  0.2074770E-002  0.2742579E+03  0.7818608E-02  0.1098867E+00
          2   -1    0    0  501    0  0.00000000000E+00  0.00000000000E+00  0.13100556599E+03  0.13100556599E+03  0.00000000000E+00 0. -1.
         -2   -1    0    0    0  501 -0.00000000000E+00 -0.00000000000E+00 -0.14353852553E+03  0.14353852553E+03  0.00000000000E+00 0. -1.
         36    2    1    2    0    0  0.00000000000E+00 -0.71054273576E-14 -0.12532959548E+02  0.27454409152E+03  0.27425787703E+03 0.  0.
         25    2    3    3    0    0 -0.45903221474E+02 -0.18450250098E+02 -0.43667988127E+02  0.14023297998E+03  0.12373713273E+03 0.  0.
         25    2    3    3    0    0  0.45903221474E+02  0.18450250098E+02  0.31135028580E+02  0.13431111154E+03  0.12092380745E+03 0.  0.
          5    1    4    4  502    0 -0.58315419195E+02 -0.34902235569E+02  0.21727986525E+02  0.71505591124E+02  0.47000000000E+01 0. -1.
         -5    1    4    4    0  502  0.12412197721E+02  0.16451985471E+02 -0.65395974652E+02  0.68727388856E+02  0.47000000000E+01 0. -1.
          5    1    5    5  503    0  0.39160530363E+02  0.49003539317E+02  0.63266576576E+02  0.89216835382E+02  0.47000000000E+01 0.  1.
         -5    1    5    5    0  503  0.67426911108E+01 -0.30553289218E+02 -0.32131547996E+02  0.45094276157E+02  0.47000000000E+01 0.  1.
<mgrwt>
<rscale>  0 0.27425788E+03</rscale>
<asrwt>0</asrwt>
<pdfrwt beam="1">  1        2 0.20154703E-01 0.27425788E+03</pdfrwt>
<pdfrwt beam="2">  1       -2 0.22082850E-01 0.27425788E+03</pdfrwt>
<totfact> 0.48368858E+03</totfact>
</mgrwt>
</event>
<event>
 9    1  0.2074770E-002  0.2769337E+03  0.7818608E-02  0.1097376E+00
         -2   -1    0    0    0  501 -0.00000000000E+00  0.00000000000E+00  0.21956392200E+02  0.21956392200E+02  0.00000000000E+00 0. -1.
          2   -1    0    0  501    0  0.00000000000E+00 -0.00000000000E+00 -0.87323420403E+03  0.87323420403E+03  0.00000000000E+00 0. -1.
         36    2    1    2    0    0  0.35527136788E-14 -0.14210854715E-13 -0.85127781183E+03  0.89519059623E+03  0.27693372974E+03 0.  0.
         25    2    3    3    0    0  0.11865374976E+02  0.57217111627E+02 -0.43021897087E+03  0.45234727466E+03  0.12694529928E+03 0.  0.
         25    2    3    3    0    0 -0.11865374976E+02 -0.57217111627E+02 -0.42105884096E+03  0.44284332157E+03  0.12411718222E+03 0.  0.
          5    1    4    4  502    0  0.28615956974E+02  0.85957774579E+02 -0.19902530884E+03  0.21872534276E+03  0.47000000000E+01 0.  1.
         -5    1    4    4    0  502 -0.16750581998E+02 -0.28740662953E+02 -0.23119366203E+03  0.23362193191E+03  0.47000000000E+01 0.  1.
          5    1    5    5  503    0 -0.34197602099E+02  0.25968487484E+02 -0.21773570440E+03  0.22197920016E+03  0.47000000000E+01 0.  1.
         -5    1    5    5    0  503  0.22332227123E+02 -0.83185599111E+02 -0.20332313656E+03  0.22086412141E+03  0.47000000000E+01 0.  1.
<mgrwt>
<rscale>  0 0.27693373E+03</rscale>
<asrwt>0</asrwt>
<pdfrwt beam="1">  1        2 0.13434374E+00 0.27693373E+03</pdfrwt>
<pdfrwt beam="2">  1       -2 0.33779061E-02 0.27693373E+03</pdfrwt>
<totfact> 0.11186449E+04</totfact>
</mgrwt>
</event>
<event>
 9    1  0.2074770E-002  0.2753777E+03  0.7818608E-02  0.1098241E+00
          1   -1    0    0  501    0  0.00000000000E+00  0.00000000000E+00  0.38234931957E+02  0.38234931957E+02  0.00000000000E+00 0. -1.
         -1   -1    0    0    0  501 -0.00000000000E+00 -0.00000000000E+00 -0.49583497976E+03  0.49583497976E+03  0.00000000000E+00 0. -1.
         36    2    1    2    0    0 -0.71054273576E-14  0.00000000000E+00 -0.45760004780E+03  0.53406991172E+03  0.27537768038E+03 0.  0.
         25    2    3    3    0    0 -0.22729889135E+02 -0.38128196244E+02 -0.20163751681E+03  0.24720363284E+03  0.13594683040E+03 0.  0.
         25    2    3    3    0    0  0.22729889135E+02  0.38128196244E+02 -0.25596253099E+03  0.28686627888E+03  0.12167595274E+03 0.  0.
          5    1    4    4  502    0  0.16231816435E+02  0.11324424495E+02 -0.17897471025E+03  0.18012704229E+03  0.47000000000E+01 0. -1.
         -5    1    4    4    0  502 -0.38961705570E+02 -0.49452620739E+02 -0.22662806564E+02  0.67076590553E+02  0.47000000000E+01 0. -1.
          5    1    5    5  503    0  0.72645898117E+02  0.19984180122E+02 -0.13499103673E+03  0.15466565218E+03  0.47000000000E+01 0.  1.
         -5    1    5    5    0  503 -0.49916008983E+02  0.18144016122E+02 -0.12097149426E+03  0.13220062669E+03  0.47000000000E+01 0.  1.
<mgrwt>
<rscale>  0 0.27537768E+03</rscale>
<asrwt>0</asrwt>
<pdfrwt beam="1">  1        1 0.58822968E-02 0.27537768E+03</pdfrwt>
<pdfrwt beam="2">  1       -1 0.76282311E-01 0.27537768E+03</pdfrwt>
<totfact> 0.23861141E+03</totfact>
</mgrwt>
</event>
<event>
 9    1  0.2074770E-002  0.2726625E+03  0.7818608E-02  0.1099765E+00
          3   -1    0    0  501    0  0.00000000000E+00  0.00000000000E+00  0.60890535843E+02  0.60890535843E+02  0.00000000000E+00 0. -1.
         -3   -1    0    0    0  501 -0.00000000000E+00 -0.00000000000E+00 -0.30523974566E+03  0.30523974566E+03  0.00000000000E+00 0. -1.
         36    2    1    2    0    0  0.00000000000E+00 -0.71054273576E-14 -0.24434920981E+03  0.36613028150E+03  0.27266251428E+03 0.  0.
         25    2    3    3    0    0  0.16645845499E+02 -0.50094389591E+02 -0.11891887800E+03  0.18114713415E+03  0.12603988506E+03 0.  0.
         25    2    3    3    0    0 -0.16645845499E+02  0.50094389591E+02 -0.12543033182E+03  0.18498314735E+03  0.12529750445E+03 0.  0.
          5    1    4    4  502    0  0.56488925740E+02 -0.56795401524E+02 -0.34311412541E+02  0.87270151805E+02  0.47000000000E+01 0.  1.
         -5    1    4    4    0  502 -0.39843080241E+02  0.67010119329E+01 -0.84607465454E+02  0.93876982347E+02  0.47000000000E+01 0.  1.
          5    1    5    5  503    0  0.23573342816E+01  0.56091525603E+01  0.25388269607E+02  0.26526851509E+02  0.47000000000E+01 0. -1.
         -5    1    5    5    0  503 -0.19003179781E+02  0.44485237031E+02 -0.15081860143E+03  0.15845629584E+03  0.47000000000E+01 0. -1.
<mgrwt>
<rscale>  0 0.27266251E+03</rscale>
<asrwt>0</asrwt>
<pdfrwt beam="1">  1        3 0.93677748E-02 0.27266251E+03</pdfrwt>
<pdfrwt beam="2">  1       -3 0.46959961E-01 0.27266251E+03</pdfrwt>
<totfact> 0.94625524E+02</totfact>
</mgrwt>
</event>
<event>
 9    1  0.2074770E-002  0.2752796E+03  0.7818608E-02  0.1098295E+00
         -2   -1    0    0    0  501 -0.00000000000E+00  0.00000000000E+00  0.23197750042E+03  0.23197750042E+03  0.00000000000E+00 0.  1.
          2   -1    0    0  501    0  0.00000000000E+00 -0.00000000000E+00 -0.81666172421E+02  0.81666172421E+02  0.00000000000E+00 0.  1.
         36    2    1    2    0    0  0.00000000000E+00  0.00000000000E+00  0.15031132800E+03  0.31364367284E+03  0.27527960002E+03 0.  0.
         25    2    3    3    0    0  0.38554629538E+02  0.37964204501E+02  0.10468068800E+03  0.16999099434E+03  0.12252000423E+03 0.  0.
         25    2    3    3    0    0 -0.38554629538E+02 -0.37964204501E+02  0.45630640002E+02  0.14365267850E+03  0.12500478571E+03 0.  0.
          5    1    4    4  502    0 -0.23080349776E+02  0.48412386407E+02  0.91141074166E+02  0.10585483977E+03  0.47000000000E+01 0.  1.
         -5    1    4    4    0  502  0.61634979314E+02 -0.10448181906E+02  0.13539613830E+02  0.64136154569E+02  0.47000000000E+01 0.  1.
          5    1    5    5  503    0 -0.39951522538E+02 -0.73867472092E+01  0.84545986240E+02  0.93919124659E+02  0.47000000000E+01 0.  1.
         -5    1    5    5    0  503  0.13968930003E+01 -0.30577457292E+02 -0.38915346238E+02  0.49733553837E+02  0.47000000000E+01 0.  1.
<mgrwt>
<rscale>  0 0.27527960E+03</rscale>
<asrwt>0</asrwt>
<pdfrwt beam="1">  1        2 0.12564027E-01 0.27527960E+03</pdfrwt>
<pdfrwt beam="2">  1       -2 0.35688846E-01 0.27527960E+03</pdfrwt>
<totfact> 0.35589032E+03</totfact>
</mgrwt>
</event>
<event>
 9    1  0.2074770E-002  0.2742486E+03  0.7818608E-02  0.1098872E+00
          4   -1    0    0  501    0  0.00000000000E+00  0.00000000000E+00  0.28410817758E+03  0.28410817758E+03  0.00000000000E+00 0. -1.
         -4   -1    0    0    0  501 -0.00000000000E+00 -0.00000000000E+00 -0.66182804144E+02  0.66182804144E+02  0.00000000000E+00 0. -1.
         36    2    1    2    0    0 -0.71054273576E-14 -0.35527136788E-14  0.21792537344E+03  0.35029098173E+03  0.27424861621E+03 0.  0.
         25    2    3    3    0    0  0.55679179505E+00 -0.20353142760E+02  0.43442744739E+02  0.13528997121E+03  0.12649720868E+03 0.  0.
         25    2    3    3    0    0 -0.55679179505E+00  0.20353142760E+02  0.17448262870E+03  0.21500101051E+03  0.12396243934E+03 0.  0.
          5    1    4    4  502    0 -0.56766493821E+02 -0.30367271851E+02  0.41768590125E+02  0.76885051482E+02  0.47000000000E+01 0. -1.
         -5    1    4    4    0  502  0.57323285616E+02  0.10014129091E+02  0.16741546132E+01  0.58404919732E+02  0.47000000000E+01 0. -1.
          5    1    5    5  503    0  0.41805099658E+02  0.14361892821E+02  0.10788385243E+02  0.45742863694E+02  0.47000000000E+01 0. -1.
         -5    1    5    5    0  503 -0.42361891453E+02  0.59912499393E+01  0.16369424346E+03  0.16925814682E+03  0.47000000000E+01 0. -1.
<mgrwt>
<rscale>  0 0.27424862E+03</rscale>
<asrwt>0</asrwt>
<pdfrwt beam="1">  1        4 0.43708950E-01 0.27424862E+03</pdfrwt>
<pdfrwt beam="2">  1       -4 0.10181970E-01 0.27424862E+03</pdfrwt>
<totfact> 0.70285907E+02</totfact>
</mgrwt>
</event>
<event>
 9    1  0.2074770E-002  0.2757972E+03  0.7818608E-02  0.1098007E+00
          2   -1    0    0  501    0  0.00000000000E+00  0.00000000000E+00  0.12936009117E+03  0.12936009117E+03  0.00000000000E+00 0. -1.
         -2   -1    0    0    0  501 -0.00000000000E+00 -0.00000000000E+00 -0.14700067712E+03  0.14700067712E+03  0.00000000000E+00 0. -1.
         36    2    1    2    0    0  0.00000000000E+00  0.71054273576E-14 -0.17640585950E+02  0.27636076830E+03  0.27579717907E+03 0.  0.
         25    2    3    3    0    0 -0.14165037917E+00  0.50548104829E+02 -0.29502837556E+02  0.13651810305E+03  0.12333549395E+03 0.  0.
         25    2    3    3    0    0  0.14165037917E+00 -0.50548104829E+02  0.11862251606E+02  0.13984266525E+03  0.12984655192E+03 0.  0.
          5    1    4    4  502    0  0.40221776249E+02 -0.15071344499E+02 -0.39683128407E+02  0.58666663360E+02  0.47000000000E+01 0. -1.
         -5    1    4    4    0  502 -0.40363426628E+02  0.65619449328E+02  0.10180290850E+02  0.77851439685E+02  0.47000000000E+01 0. -1.
          5    1    5    5  503    0 -0.13380515473E+02 -0.85446868270E+02  0.37342135017E+02  0.94322481621E+02  0.47000000000E+01 0. -1.
         -5    1    5    5    0  503  0.13522165852E+02  0.34898763441E+02 -0.25479883411E+02  0.45520183630E+02  0.47000000000E+01 0. -1.
<mgrwt>
<rscale>  0 0.27579718E+03</rscale>
<asrwt>0</asrwt>
<pdfrwt beam="1">  1        2 0.19901553E-01 0.27579718E+03</pdfrwt>
<pdfrwt beam="2">  1       -2 0.22615489E-01 0.27579718E+03</pdfrwt>
<totfact> 0.47093531E+03</totfact>
</mgrwt>
</event>
<event>
 9    1  0.2074770E-002  0.2750228E+03  0.7818608E-02  0.1098439E+00
          1   -1    0    0  501    0  0.00000000000E+00  0.00000000000E+00  0.11659454742E+03  0.11659454742E+03  0.00000000000E+00 0.  1.
         -1   -1    0    0    0  501 -0.00000000000E+00 -0.00000000000E+00 -0.16218068970E+03  0.16218068970E+03  0.00000000000E+00 0.  1.
         36    2    1    2    0    0  0.00000000000E+00  0.00000000000E+00 -0.45586142284E+02  0.27877523712E+03  0.27502279263E+03 0.  0.
         25    2    3    3    0    0  0.18758177239E+02  0.30983621832E+02  0.15196770449E+02  0.13224553048E+03  0.12627780670E+03 0.  0.
         25    2    3    3    0    0 -0.18758177239E+02 -0.30983621832E+02 -0.60782912732E+02  0.14652970664E+03  0.12831421750E+03 0.  0.
          5    1    4    4  502    0 -0.10844692926E+02  0.67049106323E+02 -0.22894896645E+02  0.71829355530E+02  0.47000000000E+01 0.  1.
         -5    1    4    4    0  502  0.29602870165E+02 -0.36065484491E+02  0.38091667094E+02  0.60416174950E+02  0.47000000000E+01 0.  1.
          5    1    5    5  503    0  0.30429890934E+02 -0.51563671983E+02 -0.69981257991E+02  0.92218528511E+02  0.47000000000E+01 0.  1.
         -5    1    5    5    0  503 -0.49188068173E+02  0.20580050151E+02  0.91983452586E+01  0.54311178134E+02  0.47000000000E+01 0.  1.
<mgrwt>
<rscale>  0 0.27502279E+03</rscale>
<asrwt>0</asrwt>
<pdfrwt beam="1">  1        1 0.17937623E-01 0.27502279E+03</pdfrwt>
<pdfrwt beam="2">  1       -1 0.24950875E-01 0.27502279E+03</pdfrwt>
<totfact> 0.40881126E+03</totfact>
</mgrwt>
</event>
<event>
 9    1  0.2074770E-002  0.2753450E+03  0.7818608E-02  0.1098259E+00
         -3   -1    0    0    0  501 -0.00000000000E+00  0.00000000000E+00  0.30614044347E+03  0.30614044347E+03  0.00000000000E+00 0. -1.
          3   -1    0    0  501    0  0.00000000000E+00 -0.00000000000E+00 -0.61911835100E+02  0.61911835100E+02  0.00000000000E+00 0. -1.
         36    2    1    2    0    0 -0.71054273576E-14  0.00000000000E+00  0.24422860837E+03  0.36805227857E+03  0.27534499562E+03 0.  0.
         25    2    3    3    0    0  0.46578789177E+02 -0.12642729917E+02  0.11466270973E+03  0.17897138052E+03  0.12866155533E+03 0.  0.
         25    2    3    3    0    0 -0.46578789177E+02  0.12642729917E+02  0.12956589864E+03  0.18908089805E+03  0.12897612840E+03 0.  0.
          5    1    4    4  502    0  0.69467705675E+01  0.63265864202E+01 -0.27849727441E+02  0.29765426850E+02  0.47000000000E+01 0.  1.
         -5    1    4    4    0  502  0.39632018610E+02 -0.18969316337E+02  0.14251243717E+03  0.14920595367E+03  0.47000000000E+01 0.  1.
          5    1    5    5  503    0  0.34337842286E+02 -0.30180698552E+02  0.46395726428E+02  0.65304022914E+02  0.47000000000E+01 0. -1.
         -5    1    5    5    0  503 -0.80916631464E+02  0.42823428468E+02  0.83170172209E+02  0.12377687514E+03  0.47000000000E+01 0. -1.
<mgrwt>
<rscale>  0 0.27534500E+03</rscale>
<asrwt>0</asrwt>
<pdfrwt beam="1">  1        3 0.95248979E-02 0.27534500E+03</pdfrwt>
<pdfrwt beam="2">  1       -3 0.47098529E-01 0.27534500E+03</pdfrwt>
<totfact> 0.91600470E+02</totfact>
</mgrwt>
</event>
<event>
 9    1  0.2074770E-002  0.2756830E+03  0.7818608E-02  0.1098070E+00
         -4   -1    0    0    0  501 -0.00000000000E+00  0.00000000000E+00  0.50358804260E+03  0.50358804260E+03  0.00000000000E+00 0.  1.
          4   -1    0    0  501    0  0.00000000000E+00 -0.00000000000E+00 -0.37729814505E+02  0.37729814505E+02  0.00000000000E+00 0.  1.
         36    2    1    2    0    0 -0.35527136788E-14  0.00000000000E+00  0.46585822809E+03  0.54131785710E+03  0.27568303128E+03 0.  0.
         25    2    3    3    0    0 -0.28624275193E+02 -0.41345781547E+02  0.19288143625E+03  0.23611427770E+03  0.12656176713E+03 0.  0.
         25    2    3    3    0    0  0.28624275193E+02  0.41345781547E+02  0.27297679184E+03  0.30520357941E+03  0.12690182511E+03 0.  0.
          5    1    4    4  502    0  0.58308887056E+01  0.21079149745E+02  0.15230745025E+03  0.15394147985E+03  0.47000000000E+01 0. -1.
         -5    1    4    4    0  502 -0.34455163899E+02 -0.62424931292E+02  0.40573986003E+02  0.82172797849E+02  0.47000000000E+01 0. -1.
          5    1    5    5  503    0 -0.14647230776E+02  0.62549292153E+02  0.23500704425E+03  0.24367469332E+03  0.47000000000E+01 0.  1.
         -5    1    5    5    0  503  0.43271505969E+02 -0.21203510605E+02  0.37969747598E+02  0.61528886090E+02  0.47000000000E+01 0.  1.
<mgrwt>
<rscale>  0 0.27568303E+03</rscale>
<asrwt>0</asrwt>
<pdfrwt beam="1">  1        4 0.58045872E-02 0.27568303E+03</pdfrwt>
<pdfrwt beam="2">  1       -4 0.77475079E-01 0.27568303E+03</pdfrwt>
<totfact> 0.53567664E+02</totfact>
</mgrwt>
</event>
<event>
 9    1  0.2074770E-002  0.2752896E+03  0.7818608E-02  0.1098290E+00
          2   -1    0    0  501    0  0.00000000000E+00  0.00000000000E+00  0.85780524780E+02  0.85780524780E+02  0.00000000000E+00 0.  1.
         -2   -1    0    0    0  501 -0.00000000000E+00 -0.00000000000E+00 -0.22086709803E+03  0.22086709803E+03  0.00000000000E+00 0.  1.
         36    2    1    2    0    0  0.00000000000E+00  0.00000000000E+00 -0.13508657326E+03  0.30664762281E+03  0.27528963348E+03 0.  0.
         25    2    3    3    0    0  0.49751103589E+02  0.18949655333E+02 -0.95888225850E+02  0.16729523718E+03  0.12632847178E+03 0.  0.
         25    2    3    3    0    0 -0.49751103589E+02 -0.18949655333E+02 -0.39198347405E+02  0.13935238563E+03  0.12267157452E+03 0.  0.
          5    1    4    4  502    0 -0.54144086864E+01 -0.48674438480E+02 -0.41424794654E+02  0.64316563924E+02  0.47000000000E+01 0.  1.
         -5    1    4    4    0  502  0.55165512275E+02  0.67624093814E+02 -0.54463431196E+02  0.10297867326E+03  0.47000000000E+01 0.  1.
          5    1    5    5  503    0 -0.19948631196E+02  0.15308321356E+02 -0.76333571606E+02  0.80505880179E+02  0.47000000000E+01 0.  1.
         -5    1    5    5    0  503 -0.29802472392E+02 -0.34257976689E+02  0.37135224201E+02  0.58846505452E+02  0.47000000000E+01 0.  1.
<mgrwt>
<rscale>  0 0.27528963E+03</rscale>
<asrwt>0</asrwt>
<pdfrwt beam="1">  1        2 0.13197004E-01 0.27528963E+03</pdfrwt>
<pdfrwt beam="2">  1       -2 0.33979553E-01 0.27528963E+03</pdfrwt>
<totfact> 0.36749144E+03</totfact>
</mgrwt>
</event>
<event>
 9    1  0.2074770E-002  0.2756350E+03  0.7818608E-02  0.1098097E+00
          2   -1    0    0  501    0  0.00000000000E+00  0.00000000000E+00  0.18385623546E+04  0.18385623546E+04  0.00000000000E+00 0. -1.
         -2   -1    0    0    0  501 -0.00000000000E+00 -0.00000000000E+00 -0.10330713942E+02  0.10330713942E+02  0.00000000000E+00 0. -1.
         36    2    1    2    0    0  0.00000000000E+00  0.35527136788E-14  0.18282316406E+04  0.18488930685E+04  0.27563498870E+03 0.  0.
         25    2    3    3    0    0 -0.13681165178E+02 -0.96888299220E+01  0.12813239355E+04  0.12870532402E+04  0.12014144958E+03 0.  0.
         25    2    3    3    0    0  0.13681165178E+02  0.96888299220E+01  0.54690770516E+03  0.56183982827E+03  0.12757314358E+03 0.  0.
          5    1    4    4  502    0  0.36267291222E+02  0.28615770914E+02  0.28741077626E+03  0.29113780769E+03  0.47000000000E+01 0.  1.
         -5    1    4    4    0  502 -0.49948456400E+02 -0.38304600836E+02  0.99391315921E+03  0.99591543255E+03  0.47000000000E+01 0.  1.
          5    1    5    5  503    0  0.49661565644E+02  0.14040488263E+02  0.49849679935E+03  0.50118315552E+03  0.47000000000E+01 0. -1.
         -5    1    5    5    0  503 -0.35980400466E+02 -0.43516583407E+01  0.48410905810E+02  0.60656672752E+02  0.47000000000E+01 0. -1.
<mgrwt>
<rscale>  0 0.27563499E+03</rscale>
<asrwt>0</asrwt>
<pdfrwt beam="1">  1        2 0.28285549E+00 0.27563499E+03</pdfrwt>
<pdfrwt beam="2">  1       -2 0.15893421E-02 0.27563499E+03</pdfrwt>
<totfact> 0.97907018E+03</totfact>
</mgrwt>
</event>
<event>
 9    1  0.2074770E-002  0.2786142E+03  0.7818608E-02  0.1096448E+00
          1   -1    0    0  501    0  0.00000000000E+00  0.00000000000E+00  0.52160358536E+02  0.52160358536E+02  0.00000000000E+00 0. -1.
         -1   -1    0    0    0  501 -0.00000000000E+00 -0.00000000000E+00 -0.37205393612E+03  0.37205393612E+03  0.00000000000E+00 0. -1.
         36    2    1    2    0    0  0.35527136788E-14  0.00000000000E+00 -0.31989357758E+03  0.42421429465E+03  0.27861418990E+03 0.  0.
         25    2    3    3    0    0 -0.36467891264E+01  0.30305021871E+02 -0.21212085694E+03  0.24991677710E+03  0.12857466353E+03 0.  0.
         25    2    3    3    0    0  0.36467891264E+01 -0.30305021871E+02 -0.10777272064E+03  0.17429751756E+03  0.13354015086E+03 0.  0.
          5    1    4    4  502    0  0.45413100912E+02  0.24388414533E+02 -0.27246541037E+02  0.58494516806E+02  0.47000000000E+01 0. -1.
         -5    1    4    4    0  502 -0.49059890039E+02  0.59166073381E+01 -0.18487431590E+03  0.19142226029E+03  0.47000000000E+01 0. -1.
          5    1    5    5  503    0 -0.12099521633E+02  0.44084166914E+02 -0.47976983289E+01  0.46205195655E+02  0.47000000000E+01 0.  1.
         -5    1    5    5    0  503  0.15746310760E+02 -0.74389188785E+02 -0.10297502231E+03  0.12809232190E+03  0.47000000000E+01 0.  1.
<mgrwt>
<rscale>  0 0.27861419E+03</rscale>
<asrwt>0</asrwt>
<pdfrwt beam="1">  1        1 0.80246707E-02 0.27861419E+03</pdfrwt>
<pdfrwt beam="2">  1       -1 0.57239066E-01 0.27861419E+03</pdfrwt>
<totfact> 0.27481778E+03</totfact>
</mgrwt>
</event>
<event>
 9    1  0.2074770E-002  0.2751712E+03  0.7818608E-02  0.1098356E+00
          2   -1    0    0  501    0  0.00000000000E+00  0.00000000000E+00  0.22851128751E+03  0.22851128751E+03  0.00000000000E+00 0. -1.
         -2   -1    0    0    0  501 -0.00000000000E+00 -0.00000000000E+00 -0.82839663445E+02  0.82839663445E+02  0.00000000000E+00 0. -1.
         36    2    1    2    0    0  0.10658141036E-13  0.35527136788E-14  0.14567162407E+03  0.31135095096E+03  0.27517120599E+03 0.  0.
         25    2    3    3    0    0 -0.31635417326E+02 -0.13640399849E+02  0.42328752209E+02  0.14575698015E+03  0.13515366759E+03 0.  0.
         25    2    3    3    0    0  0.31635417326E+02  0.13640399849E+02  0.10334287186E+03  0.16559397081E+03  0.12471869894E+03 0.  0.
          5    1    4    4  502    0 -0.42716348137E+02  0.15306372836E+02  0.82817328752E+02  0.94550364300E+02  0.47000000000E+01 0. -1.
         -5    1    4    4    0  502  0.11080930811E+02 -0.28946772685E+02 -0.40488576544E+02  0.51206615853E+02  0.47000000000E+01 0. -1.
          5    1    5    5  503    0  0.78254032169E+02  0.28619077457E+00  0.78353166132E+02  0.11083809859E+03  0.47000000000E+01 0.  1.
         -5    1    5    5    0  503 -0.46618614843E+02  0.13354209075E+02  0.24989705729E+02  0.54755872218E+02  0.47000000000E+01 0.  1.
<mgrwt>
<rscale>  0 0.27517121E+03</rscale>
<asrwt>0</asrwt>
<pdfrwt beam="1">  1        2 0.35155582E-01 0.27517121E+03</pdfrwt>
<pdfrwt beam="2">  1       -2 0.12744564E-01 0.27517121E+03</pdfrwt>
<totfact> 0.65454569E+03</totfact>
</mgrwt>
</event>
<event>
 9    1  0.2074770E-002  0.2751269E+03  0.7818608E-02  0.1098381E+00
         -2   -1    0    0    0  501 -0.00000000000E+00  0.00000000000E+00  0.11930663824E+03  0.11930663824E+03  0.00000000000E+00 0.  1.
          2   -1    0    0  501    0  0.00000000000E+00 -0.00000000000E+00 -0.15861399482E+03  0.15861399482E+03  0.00000000000E+00 0.  1.
         36    2    1    2    0    0  0.00000000000E+00  0.00000000000E+00 -0.39307356575E+02  0.27792063306E+03  0.27512689799E+03 0.  0.
         25    2    3    3    0    0 -0.42930326515E+02  0.49827261919E+02 -0.23628285561E+02  0.13586489562E+03  0.11651268180E+03 0.  0.
         25    2    3    3    0    0  0.42930326515E+02 -0.49827261919E+02 -0.15679071014E+02  0.14205573744E+03  0.12493290322E+03 0.  0.
          5    1    4    4  502    0 -0.49749091314E+02  0.15948353031E+02  0.38192271528E+02  0.64884987905E+02  0.47000000000E+01 0.  1.
         -5    1    4    4    0  502  0.68187647996E+01  0.33878908889E+02 -0.61820557089E+02  0.70979907718E+02  0.47000000000E+01 0.  1.
          5    1    5    5  503    0  0.28697116889E+02  0.39107121581E+02  0.65393209251E+01  0.49170562273E+02  0.47000000000E+01 0.  1.
         -5    1    5    5    0  503  0.14233209626E+02 -0.88934383500E+02 -0.22218391939E+02  0.92885175164E+02  0.47000000000E+01 0.  1.
<mgrwt>
<rscale>  0 0.27512690E+03</rscale>
<asrwt>0</asrwt>
<pdfrwt beam="1">  1        2 0.24402153E-01 0.27512690E+03</pdfrwt>
<pdfrwt beam="2">  1       -2 0.18354867E-01 0.27512690E+03</pdfrwt>
<totfact> 0.53469224E+03</totfact>
</mgrwt>
</event>
<event>
 9    1  0.2074770E-002  0.2749847E+03  0.7818608E-02  0.1098460E+00
         -2   -1    0    0    0  501 -0.00000000000E+00  0.00000000000E+00  0.15952498635E+02  0.15952498635E+02  0.00000000000E+00 0. -1.
          2   -1    0    0  501    0  0.00000000000E+00 -0.00000000000E+00 -0.11850269041E+04  0.11850269041E+04  0.00000000000E+00 0. -1.
         36    2    1    2    0    0  0.14210854715E-13  0.10658141036E-13 -0.11690744054E+04  0.12009794027E+04  0.27498465462E+03 0.  0.
         25    2    3    3    0    0  0.45915305339E+02  0.29351956124E+02 -0.51039800577E+03  0.52828742610E+03  0.12494689948E+03 0.  0.
         25    2    3    3    0    0 -0.45915305339E+02 -0.29351956124E+02 -0.65867639965E+03  0.67269197659E+03  0.12526030225E+03 0.  0.
          5    1    4    4  502    0  0.22108006547E+02 -0.11538069151E+02 -0.12798889211E+02  0.28421691685E+02  0.47000000000E+01 0. -1.
         -5    1    4    4    0  502  0.23807298793E+02  0.40890025275E+02 -0.49759911656E+03  0.49986573442E+03  0.47000000000E+01 0. -1.
          5    1    5    5  503    0  0.37283114205E+02  0.14370183773E+02 -0.14556238220E+03  0.15101996523E+03  0.47000000000E+01 0.  1.
         -5    1    5    5    0  503 -0.83198419544E+02 -0.43722139897E+02 -0.51311401745E+03  0.52167201136E+03  0.47000000000E+01 0.  1.
<mgrwt>
<rscale>  0 0.27498465E+03</rscale>
<asrwt>0</asrwt>
<pdfrwt beam="1">  1        2 0.18231189E+00 0.27498465E+03</pdfrwt>
<pdfrwt beam="2">  1       -2 0.24542297E-02 0.27498465E+03</pdfrwt>
<totfact> 0.11624528E+04</totfact>
</mgrwt>
</event>
<event>
 9    1  0.2074770E-002  0.2745666E+03  0.7818608E-02  0.1098694E+00
          2   -1    0    0  501    0  0.00000000000E+00  0.00000000000E+00  0.20608806165E+03  0.20608806165E+03  0.00000000000E+00 0. -1.
         -2   -1    0    0    0  501 -0.00000000000E+00 -0.00000000000E+00 -0.91449787810E+02  0.91449787810E+02  0.00000000000E+00 0. -1.
         36    2    1    2    0    0 -0.14210854715E-13  0.17763568394E-14  0.11463827384E+03  0.29753784946E+03  0.27456663678E+03 0.  0.
         25    2    3    3    0    0  0.66665110707E+02  0.19689741062E+01  0.54600068192E+02  0.14671620757E+03  0.11872811071E+03 0.  0.
         25    2    3    3    0    0 -0.66665110707E+02 -0.19689741062E+01  0.60038205648E+02  0.15082164189E+03  0.12122073949E+03 0.  0.
          5    1    4    4  502    0  0.92628212931E+02 -0.14972640661E+02  0.13335330161E+02  0.94889866844E+02  0.47000000000E+01 0. -1.
         -5    1    4    4    0  502 -0.25963102224E+02  0.16941614767E+02  0.41264738031E+02  0.51826340723E+02  0.47000000000E+01 0. -1.
          5    1    5    5  503    0 -0.45089391374E+02  0.41838416927E+02  0.77225359814E+02  0.98840035127E+02  0.47000000000E+01 0. -1.
         -5    1    5    5    0  503 -0.21575719333E+02 -0.43807391033E+02 -0.17187154166E+02  0.51981606768E+02  0.47000000000E+01 0. -1.
<mgrwt>
<rscale>  0 0.27456664E+03</rscale>
<asrwt>0</asrwt>
<pdfrwt beam="1">  1        2 0.31705855E-01 0.27456664E+03</pdfrwt>
<pdfrwt beam="2">  1       -2 0.14069198E-01 0.27456664E+03</pdfrwt>
<totfact> 0.62322226E+03</totfact>
</mgrwt>
</event>
<event>
 9    1  0.2074770E-002  0.2751179E+03  0.7818608E-02  0.1098386E+00
          1   -1    0    0  501    0  0.00000000000E+00  0.00000000000E+00  0.10353351239E+03  0.10353351239E+03  0.00000000000E+00 0.  1.
         -1   -1    0    0    0  501 -0.00000000000E+00 -0.00000000000E+00 -0.18276650375E+03  0.18276650375E+03  0.00000000000E+00 0.  1.
         36    2    1    2    0    0 -0.17763568394E-14  0.00000000000E+00 -0.79232991362E+02  0.28630001614E+03  0.27511785170E+03 0.  0.
         25    2    3    3    0    0 -0.10263046460E+02 -0.43293912677E+02  0.91887913409E+01  0.13283738930E+03  0.12482645998E+03 0.  0.
         25    2    3    3    0    0  0.10263046460E+02  0.43293912677E+02 -0.88421782703E+02  0.15346262685E+03  0.11727179194E+03 0.  0.
          5    1    4    4  502    0 -0.36619747782E+02 -0.61721373587E+02 -0.33371717959E+02  0.79286161747E+02  0.47000000000E+01 0. -1.
         -5    1    4    4    0  502  0.26356701322E+02  0.18427460910E+02  0.42560509300E+02  0.53551227549E+02  0.47000000000E+01 0. -1.
          5    1    5    5  503    0  0.24489925324E+02  0.33366625708E+02  0.18112439114E+02  0.45422886349E+02  0.47000000000E+01 0. -1.
         -5    1    5    5    0  503 -0.14226878864E+02  0.99272869682E+01 -0.10653422182E+03  0.10803974050E+03  0.47000000000E+01 0. -1.
<mgrwt>
<rscale>  0 0.27511785E+03</rscale>
<asrwt>0</asrwt>
<pdfrwt beam="1">  1        1 0.15928233E-01 0.27511785E+03</pdfrwt>
<pdfrwt beam="2">  1       -1 0.28117923E-01 0.27511785E+03</pdfrwt>
<totfact> 0.39067618E+03</totfact>
</mgrwt>
</event>
<event>
 9    1  0.2074770E-002  0.2754879E+03  0.7818608E-02  0.1098179E+00
         -2   -1    0    0    0  501 -0.00000000000E+00  0.00000000000E+00  0.41918958650E+03  0.41918958650E+03  0.00000000000E+00 0.  1.
          2   -1    0    0  501    0  0.00000000000E+00 -0.00000000000E+00 -0.45262072333E+02  0.45262072333E+02  0.00000000000E+00 0.  1.
         36    2    1    2    0    0  0.35527136788E-14  0.14210854715E-13  0.37392751417E+03  0.46445165884E+03  0.27548785371E+03 0.  0.
         25    2    3    3    0    0  0.20825960220E+02 -0.47289557594E+02  0.12588625516E+03  0.18344820442E+03  0.12302793012E+03 0.  0.
         25    2    3    3    0    0 -0.20825960220E+02  0.47289557594E+02  0.24804125901E+03  0.28100345442E+03  0.12152552138E+03 0.  0.
          5    1    4    4  502    0 -0.35329229914E+02 -0.36360003471E+02  0.69527327609E+01  0.51387107639E+02  0.47000000000E+01 0.  1.
         -5    1    4    4    0  502  0.56155190134E+02 -0.10929554123E+02  0.11893352240E+03  0.13206109678E+03  0.47000000000E+01 0.  1.
          5    1    5    5  503    0 -0.98294057033E+01 -0.37619262830E+02  0.12529174601E+03  0.13127047562E+03  0.47000000000E+01 0. -1.
         -5    1    5    5    0  503 -0.10996554517E+02  0.84908820423E+02  0.12274951301E+03  0.14973297880E+03  0.47000000000E+01 0. -1.
<mgrwt>
<rscale>  0 0.27548785E+03</rscale>
<asrwt>0</asrwt>
<pdfrwt beam="1">  1        2 0.69633960E-02 0.27548785E+03</pdfrwt>
<pdfrwt beam="2">  1       -2 0.64490703E-01 0.27548785E+03</pdfrwt>
<totfact> 0.23053696E+03</totfact>
</mgrwt>
</event>
<event>
 9    1  0.2074770E-002  0.2749474E+03  0.7818608E-02  0.1098481E+00
          1   -1    0    0  501    0  0.00000000000E+00  0.00000000000E+00  0.62357822894E+03  0.62357822894E+03  0.00000000000E+00 0.  1.
         -1   -1    0    0    0  501 -0.00000000000E+00 -0.00000000000E+00 -0.30307365544E+02  0.30307365544E+02  0.00000000000E+00 0.  1.
         36    2    1    2    0    0  0.71054273576E-14  0.00000000000E+00  0.59327086340E+03  0.65388559448E+03  0.27494736463E+03 0.  0.
         25    2    3    3    0    0  0.38733497919E+02 -0.16334104004E+02  0.20555002847E+03  0.24364800590E+03  0.12388078850E+03 0.  0.
         25    2    3    3    0    0 -0.38733497919E+02  0.16334104004E+02  0.38772083492E+03  0.41023758858E+03  0.12728058155E+03 0.  0.
          5    1    4    4  502    0  0.23188452481E+01  0.43696985516E+02  0.14257985020E+03  0.14921765066E+03  0.47000000000E+01 0. -1.
         -5    1    4    4    0  502  0.36414652671E+02 -0.60031089520E+02  0.62970178275E+02  0.94430355237E+02  0.47000000000E+01 0. -1.
          5    1    5    5  503    0 -0.53519648817E+02 -0.45329461882E+02  0.21366465551E+03  0.22493062917E+03  0.47000000000E+01 0.  1.
         -5    1    5    5    0  503  0.14786150898E+02  0.61663565886E+02  0.17405617941E+03  0.18530695941E+03  0.47000000000E+01 0.  1.
<mgrwt>
<rscale>  0 0.27494736E+03</rscale>
<asrwt>0</asrwt>
<pdfrwt beam="1">  1        1 0.95935103E-01 0.27494736E+03</pdfrwt>
<pdfrwt beam="2">  1       -1 0.46626721E-02 0.27494736E+03</pdfrwt>
<totfact> 0.64893338E+03</totfact>
</mgrwt>
</event>
<event>
 9    1  0.2074770E-002  0.2751653E+03  0.7818608E-02  0.1098359E+00
          2   -1    0    0  501    0  0.00000000000E+00  0.00000000000E+00  0.17875451942E+03  0.17875451942E+03  0.00000000000E+00 0.  1.
         -2   -1    0    0    0  501 -0.00000000000E+00 -0.00000000000E+00 -0.10589377509E+03  0.10589377509E+03  0.00000000000E+00 0.  1.
         36    2    1    2    0    0  0.26645352591E-14  0.00000000000E+00  0.72860744325E+02  0.28464829451E+03  0.27516533849E+03 0.  0.
         25    2    3    3    0    0 -0.29871508994E+01 -0.70799528086E+02  0.11578644571E+02  0.13945050686E+03  0.11954447962E+03 0.  0.
         25    2    3    3    0    0  0.29871508994E+01  0.70799528086E+02  0.61282099754E+02  0.14519778765E+03  0.11092973244E+03 0.  0.
          5    1    4    4  502    0 -0.29984951567E+02 -0.99293123026E+01  0.52283532255E+02  0.61264559970E+02  0.47000000000E+01 0. -1.
         -5    1    4    4    0  502  0.26997800668E+02 -0.60870215784E+02 -0.40704887684E+02  0.78185946895E+02  0.47000000000E+01 0. -1.
          5    1    5    5  503    0 -0.17172202427E+00  0.43661776755E+02 -0.27751416370E+02  0.51948160202E+02  0.47000000000E+01 0.  1.
         -5    1    5    5    0  503  0.31588729236E+01  0.27137751332E+02  0.89033516124E+02  0.93249627446E+02  0.47000000000E+01 0.  1.
<mgrwt>
<rscale>  0 0.27516534E+03</rscale>
<asrwt>0</asrwt>
<pdfrwt beam="1">  1        2 0.27500695E-01 0.27516534E+03</pdfrwt>
<pdfrwt beam="2">  1       -2 0.16291350E-01 0.27516534E+03</pdfrwt>
<totfact> 0.57182640E+03</totfact>
</mgrwt>
</event>
<event>
 9    1  0.2074770E-002  0.2738603E+03  0.7818608E-02  0.1099090E+00
          2   -1    0    0  501    0  0.00000000000E+00  0.00000000000E+00  0.10802386495E+04  0.10802386495E+04  0.00000000000E+00 0.  1.
         -2   -1    0    0    0  501 -0.00000000000E+00 -0.00000000000E+00 -0.17357149791E+02  0.17357149791E+02  0.00000000000E+00 0.  1.
         36    2    1    2    0    0  0.00000000000E+00  0.00000000000E+00  0.10628814997E+04  0.10975957993E+04  0.27386028592E+03 0.  0.
         25    2    3    3    0    0 -0.34557681567E+02 -0.44539992569E+02  0.57397305327E+03  0.58987135079E+03  0.12379458914E+03 0.  0.
         25    2    3    3    0    0  0.34557681567E+02  0.44539992569E+02  0.48890844647E+03  0.50772444854E+03  0.12479824647E+03 0.  0.
          5    1    4    4  502    0 -0.11536061402E+02  0.43091689556E+02  0.16812871198E+03  0.17400956357E+03  0.47000000000E+01 0. -1.
         -5    1    4    4    0  502 -0.23021620165E+02 -0.87631682125E+02  0.40584434129E+03  0.41586178722E+03  0.47000000000E+01 0. -1.
          5    1    5    5  503    0  0.39420549227E+02  0.17311095020E+02  0.43330160398E+02  0.61263745496E+02  0.47000000000E+01 0.  1.
         -5    1    5    5    0  503 -0.48628676602E+01  0.27228897549E+02  0.44557828607E+03  0.44646070304E+03  0.47000000000E+01 0.  1.
<mgrwt>
<rscale>  0 0.27386029E+03</rscale>
<asrwt>0</asrwt>
<pdfrwt beam="1">  1        2 0.16619051E+00 0.27386029E+03</pdfrwt>
<pdfrwt beam="2">  1       -2 0.26703316E-02 0.27386029E+03</pdfrwt>
<totfact> 0.11800696E+04</totfact>
</mgrwt>
</event>
<event>
 9    1  0.2074770E-002  0.2752316E+03  0.7818608E-02  0.1098322E+00
          1   -1    0    0  501    0  0.00000000000E+00  0.00000000000E+00  0.12580990436E+03  0.12580990436E+03  0.00000000000E+00 0.  1.
         -1   -1    0    0    0  501 -0.00000000000E+00 -0.00000000000E+00 -0.15052950793E+03  0.15052950793E+03  0.00000000000E+00 0.  1.
         36    2    1    2    0    0  0.00000000000E+00  0.00000000000E+00 -0.24719603568E+02  0.27633941229E+03  0.27523156066E+03 0.  0.
         25    2    3    3    0    0  0.68457581959E+01 -0.45804626220E+02 -0.25553143806E+02  0.14477809198E+03  0.13476944969E+03 0.  0.
         25    2    3    3    0    0 -0.68457581959E+01  0.45804626220E+02  0.83354023751E+00  0.13156132031E+03  0.12313715128E+03 0.  0.
          5    1    4    4  502    0  0.72112412800E+01 -0.14574601020E+02 -0.80033957238E+02  0.81804311053E+02  0.47000000000E+01 0. -1.
         -5    1    4    4    0  502 -0.36548308414E+00 -0.31230025200E+02  0.54480813432E+02  0.62973780926E+02  0.47000000000E+01 0. -1.
          5    1    5    5  503    0  0.49848114354E+02 -0.10825375515E+02 -0.16568656220E+01  0.51252887366E+02  0.47000000000E+01 0. -1.
         -5    1    5    5    0  503 -0.56693872550E+02  0.56630001735E+02  0.24904058595E+01  0.80308432947E+02  0.47000000000E+01 0. -1.
<mgrwt>
<rscale>  0 0.27523156E+03</rscale>
<asrwt>0</asrwt>
<pdfrwt beam="1">  1        1 0.19355370E-01 0.27523156E+03</pdfrwt>
<pdfrwt beam="2">  1       -1 0.23158386E-01 0.27523156E+03</pdfrwt>
<totfact> 0.41917305E+03</totfact>
</mgrwt>
</event>
<event>
 9    1  0.2074770E-002  0.2750669E+03  0.7818608E-02  0.1098414E+00
          2   -1    0    0  501    0  0.00000000000E+00  0.00000000000E+00  0.16248778559E+04  0.16248778559E+04  0.00000000000E+00 0. -1.
         -2   -1    0    0    0  501 -0.00000000000E+00 -0.00000000000E+00 -0.11641154726E+02  0.11641154726E+02  0.00000000000E+00 0. -1.
         36    2    1    2    0    0 -0.71054273576E-14  0.71054273576E-14  0.16132367012E+04  0.16365190106E+04  0.27506693390E+03 0.  0.
         25    2    3    3    0    0  0.27828060069E+02  0.54004255445E+02  0.81170329069E+03  0.82309155206E+03  0.12217450806E+03 0.  0.
         25    2    3    3    0    0 -0.27828060069E+02 -0.54004255445E+02  0.80153341048E+03  0.81342745856E+03  0.12456950548E+03 0.  0.
          5    1    4    4  502    0  0.56090149149E+02  0.72751941719E+02  0.70635210070E+03  0.71231617279E+03  0.47000000000E+01 0. -1.
         -5    1    4    4    0  502 -0.28262089080E+02 -0.18747686274E+02  0.10535118999E+03  0.11077537927E+03  0.47000000000E+01 0. -1.
          5    1    5    5  503    0  0.35776427587E+02 -0.12158590363E+02  0.53048788974E+03  0.53185268190E+03  0.47000000000E+01 0.  1.
         -5    1    5    5    0  503 -0.63604487655E+02 -0.41845665082E+02  0.27104552074E+03  0.28157477665E+03  0.47000000000E+01 0.  1.
<mgrwt>
<rscale>  0 0.27506693E+03</rscale>
<asrwt>0</asrwt>
<pdfrwt beam="1">  1        2 0.24998103E+00 0.27506693E+03</pdfrwt>
<pdfrwt beam="2">  1       -2 0.17909482E-02 0.27506693E+03</pdfrwt>
<totfact> 0.10646954E+04</totfact>
</mgrwt>
</event>
<event>
 9    1  0.2074770E-002  0.2748356E+03  0.7818608E-02  0.1098544E+00
         -2   -1    0    0    0  501 -0.00000000000E+00  0.00000000000E+00  0.11400262736E+02  0.11400262736E+02  0.00000000000E+00 0.  1.
          2   -1    0    0  501    0  0.00000000000E+00 -0.00000000000E+00 -0.16564228681E+04  0.16564228681E+04  0.00000000000E+00 0.  1.
         36    2    1    2    0    0  0.00000000000E+00  0.00000000000E+00 -0.16450226054E+04  0.16678231308E+04  0.27483563013E+03 0.  0.
         25    2    3    3    0    0  0.34463185451E+02  0.35392336811E+02 -0.61550774675E+03  0.62954628073E+03  0.12263117307E+03 0.  0.
         25    2    3    3    0    0 -0.34463185451E+02 -0.35392336811E+02 -0.10295148586E+04  0.10382768501E+04  0.12521040178E+03 0.  0.
          5    1    4    4  502    0 -0.21539049908E+02  0.85204519882E+01 -0.20500849798E+02  0.31287435424E+02  0.47000000000E+01 0. -1.
         -5    1    4    4    0  502  0.56002235359E+02  0.26871884823E+02 -0.59500689696E+03  0.59825884530E+03  0.47000000000E+01 0. -1.
          5    1    5    5  503    0 -0.16136864371E+02 -0.31383013760E+02 -0.69683726898E+02  0.78250902479E+02  0.47000000000E+01 0. -1.
         -5    1    5    5    0  503 -0.18326321081E+02 -0.40093230513E+01 -0.95983113170E+03  0.96002594762E+03  0.47000000000E+01 0. -1.
<mgrwt>
<rscale>  0 0.27483563E+03</rscale>
<asrwt>0</asrwt>
<pdfrwt beam="1">  1        2 0.25483432E+00 0.27483563E+03</pdfrwt>
<pdfrwt beam="2">  1       -2 0.17538864E-02 0.27483563E+03</pdfrwt>
<totfact> 0.10565169E+04</totfact>
</mgrwt>
</event>
<event>
 9    1  0.2074770E-002  0.2765562E+03  0.7818608E-02  0.1097585E+00
          1   -1    0    0  501    0  0.00000000000E+00  0.00000000000E+00  0.36720489438E+03  0.36720489438E+03  0.00000000000E+00 0. -1.
         -1   -1    0    0    0  501 -0.00000000000E+00 -0.00000000000E+00 -0.52071273003E+02  0.52071273003E+02  0.00000000000E+00 0. -1.
         36    2    1    2    0    0  0.71054273576E-14 -0.71054273576E-14  0.31513362138E+03  0.41927616738E+03  0.27655615201E+03 0.  0.
         25    2    3    3    0    0 -0.47060660007E+02 -0.38309988886E+01  0.19644859002E+03  0.23918138101E+03  0.12800899275E+03 0.  0.
         25    2    3    3    0    0  0.47060660007E+02  0.38309988886E+01  0.11868503135E+03  0.18009478638E+03  0.12695910026E+03 0.  0.
          5    1    4    4  502    0 -0.33915887288E+02  0.47028747499E+02  0.31811086033E+02  0.66302531600E+02  0.47000000000E+01 0.  1.
         -5    1    4    4    0  502 -0.13144772719E+02 -0.50859746388E+02  0.16463750399E+03  0.17287884941E+03  0.47000000000E+01 0.  1.
          5    1    5    5  503    0  0.32178663701E+02  0.64646583530E+02  0.69537532154E+02  0.10036037833E+03  0.47000000000E+01 0. -1.
         -5    1    5    5    0  503  0.14881996307E+02 -0.60815584642E+02  0.49147499200E+02  0.79734408050E+02  0.47000000000E+01 0. -1.
<mgrwt>
<rscale>  0 0.27655615E+03</rscale>
<asrwt>0</asrwt>
<pdfrwt beam="1">  1        1 0.56493059E-01 0.27655615E+03</pdfrwt>
<pdfrwt beam="2">  1       -1 0.80109653E-02 0.27655615E+03</pdfrwt>
<totfact> 0.57802306E+03</totfact>
</mgrwt>
</event>
<event>
 9    1  0.2074770E-002  0.2726672E+03  0.7818608E-02  0.1099763E+00
         -1   -1    0    0    0  501 -0.00000000000E+00  0.00000000000E+00  0.47575140777E+02  0.47575140777E+02  0.00000000000E+00 0.  1.
          1   -1    0    0  501    0  0.00000000000E+00 -0.00000000000E+00 -0.39068418288E+03  0.39068418288E+03  0.00000000000E+00 0.  1.
         36    2    1    2    0    0  0.35527136788E-14  0.71054273576E-14 -0.34310904210E+03  0.43825932365E+03  0.27266723309E+03 0.  0.
         25    2    3    3    0    0 -0.73531676341E+01 -0.36684022533E+02 -0.12068807696E+03  0.17792712056E+03  0.12527035454E+03 0.  0.
         25    2    3    3    0    0  0.73531676341E+01  0.36684022533E+02 -0.22242096514E+03  0.26033220309E+03  0.13000762921E+03 0.  0.
          5    1    4    4  502    0 -0.24904697370E+02 -0.22368310776E+01  0.19737491058E+02  0.32201023549E+02  0.47000000000E+01 0.  1.
         -5    1    4    4    0  502  0.17551529736E+02 -0.34447191456E+02 -0.14042556802E+03  0.14572609701E+03  0.47000000000E+01 0.  1.
          5    1    5    5  503    0 -0.49273116556E+02  0.26041014161E+01 -0.32715063805E+02  0.59388439608E+02  0.47000000000E+01 0.  1.
         -5    1    5    5    0  503  0.56626284190E+02  0.34079921117E+02 -0.18970590133E+03  0.20094376349E+03  0.47000000000E+01 0.  1.
<mgrwt>
<rscale>  0 0.27266723E+03</rscale>
<asrwt>0</asrwt>
<pdfrwt beam="1">  1        1 0.60105261E-01 0.27266723E+03</pdfrwt>
<pdfrwt beam="2">  1       -1 0.73192521E-02 0.27266723E+03</pdfrwt>
<totfact> 0.61261390E+03</totfact>
</mgrwt>
</event>
<event>
 9    1  0.2074770E-002  0.2740811E+03  0.7818608E-02  0.1098966E+00
          2   -1    0    0  501    0  0.00000000000E+00  0.00000000000E+00  0.42462091513E+03  0.42462091513E+03  0.00000000000E+00 0.  1.
         -2   -1    0    0    0  501 -0.00000000000E+00 -0.00000000000E+00 -0.44227939429E+02  0.44227939429E+02  0.00000000000E+00 0.  1.
         36    2    1    2    0    0  0.00000000000E+00  0.71054273576E-14  0.38039297570E+03  0.46884885456E+03  0.27408106913E+03 0.  0.
         25    2    3    3    0    0 -0.89535314478E+01  0.32417300049E+02  0.23534349424E+03  0.27435053576E+03  0.13693286355E+03 0.  0.
         25    2    3    3    0    0  0.89535314478E+01 -0.32417300049E+02  0.14504948146E+03  0.19449831880E+03  0.12513671274E+03 0.  0.
          5    1    4    4  502    0 -0.12244981657E+02  0.28463638830E+02 -0.68308326140E+01  0.32075981442E+02  0.47000000000E+01 0.  1.
         -5    1    4    4    0  502  0.32914502095E+01  0.39536612186E+01  0.24217432685E+03  0.24227455431E+03  0.47000000000E+01 0.  1.
          5    1    5    5  503    0 -0.11520392588E+01 -0.76217316622E+02  0.56220610532E+02  0.94832766469E+02  0.47000000000E+01 0.  1.
         -5    1    5    5    0  503  0.10105570707E+02  0.43800016573E+02  0.88828870930E+02  0.99665552333E+02  0.47000000000E+01 0.  1.
<mgrwt>
<rscale>  0 0.27408107E+03</rscale>
<asrwt>0</asrwt>
<pdfrwt beam="1">  1        2 0.65326292E-01 0.27408107E+03</pdfrwt>
<pdfrwt beam="2">  1       -2 0.68042986E-02 0.27408107E+03</pdfrwt>
<totfact> 0.90423159E+03</totfact>
</mgrwt>
</event>
<event>
 9    1  0.2074770E-002  0.2756519E+03  0.7818608E-02  0.1098088E+00
         -2   -1    0    0    0  501 -0.00000000000E+00  0.00000000000E+00  0.14939692985E+02  0.14939692985E+02  0.00000000000E+00 0.  1.
          2   -1    0    0  501    0  0.00000000000E+00 -0.00000000000E+00 -0.12715115688E+04  0.12715115688E+04  0.00000000000E+00 0.  1.
         36    2    1    2    0    0  0.00000000000E+00  0.71054273576E-14 -0.12565718758E+04  0.12864512618E+04  0.27565189979E+03 0.  0.
         25    2    3    3    0    0 -0.11893890858E+01  0.62177612160E+02 -0.52850618378E+03  0.54640599302E+03  0.12398892213E+03 0.  0.
         25    2    3    3    0    0  0.11893890858E+01 -0.62177612160E+02 -0.72806569201E+03  0.74004526874E+03  0.11713188210E+03 0.  0.
          5    1    4    4  502    0  0.21680008385E+02 -0.13575348284E+02 -0.22989324105E+02  0.34711840450E+02  0.47000000000E+01 0. -1.
         -5    1    4    4    0  502 -0.22869397471E+02  0.75752960444E+02 -0.50551685968E+03  0.51169415257E+03  0.47000000000E+01 0. -1.
          5    1    5    5  503    0 -0.19992423988E+02  0.30596583092E+02 -0.17572725727E+03  0.17954945519E+03  0.47000000000E+01 0. -1.
         -5    1    5    5    0  503  0.21181813074E+02 -0.92774195252E+02 -0.55233843474E+03  0.56049581354E+03  0.47000000000E+01 0. -1.
<mgrwt>
<rscale>  0 0.27565190E+03</rscale>
<asrwt>0</asrwt>
<pdfrwt beam="1">  1        2 0.19561717E+00 0.27565190E+03</pdfrwt>
<pdfrwt beam="2">  1       -2 0.22984142E-02 0.27565190E+03</pdfrwt>
<totfact> 0.11448085E+04</totfact>
</mgrwt>
</event>
<event>
 9    1  0.2074770E-002  0.2762215E+03  0.7818608E-02  0.1097771E+00
         -2   -1    0    0    0  501 -0.00000000000E+00  0.00000000000E+00  0.46296846000E+02  0.46296846000E+02  0.00000000000E+00 0.  1.
          2   -1    0    0  501    0  0.00000000000E+00 -0.00000000000E+00 -0.41200609495E+03  0.41200609495E+03  0.00000000000E+00 0.  1.
         36    2    1    2    0    0  0.00000000000E+00  0.00000000000E+00 -0.36570924895E+03  0.45830294095E+03  0.27622152507E+03 0.  0.
         25    2    3    3    0    0  0.35688854358E+02 -0.48782847406E+02 -0.22916956175E+03  0.26766412311E+03  0.12438623012E+03 0.  0.
         25    2    3    3    0    0 -0.35688854358E+02  0.48782847406E+02 -0.13653968720E+03  0.19063881784E+03  0.11851840430E+03 0.  0.
          5    1    4    4  502    0  0.47454874919E+02 -0.45776037451E+02 -0.24110357013E+03  0.25000086457E+03  0.47000000000E+01 0.  1.
         -5    1    4    4    0  502 -0.11766020561E+02 -0.30068099552E+01  0.11934008385E+02  0.17663258535E+02  0.47000000000E+01 0.  1.
          5    1    5    5  503    0 -0.43777687768E+01 -0.20297387834E+02 -0.10701843588E+03  0.10911546376E+03  0.47000000000E+01 0. -1.
         -5    1    5    5    0  503 -0.31311085582E+02  0.69080235240E+02 -0.29521251320E+02  0.81523354081E+02  0.47000000000E+01 0. -1.
<mgrwt>
<rscale>  0 0.27622153E+03</rscale>
<asrwt>0</asrwt>
<pdfrwt beam="1">  1        2 0.63385550E-01 0.27622153E+03</pdfrwt>
<pdfrwt beam="2">  1       -2 0.71225920E-02 0.27622153E+03</pdfrwt>
<totfact> 0.87090815E+03</totfact>
</mgrwt>
</event>
<event>
 9    1  0.2074770E-002  0.2746872E+03  0.7818608E-02  0.1098627E+00
         -2   -1    0    0    0  501 -0.00000000000E+00  0.00000000000E+00  0.96112508664E+01  0.96112508664E+01  0.00000000000E+00 0.  1.
          2   -1    0    0  501    0  0.00000000000E+00 -0.00000000000E+00 -0.19626238059E+04  0.19626238059E+04  0.00000000000E+00 0.  1.
         36    2    1    2    0    0  0.71054273576E-14  0.71054273576E-14 -0.19530125551E+04  0.19722350568E+04  0.27468723855E+03 0.  0.
         25    2    3    3    0    0 -0.13468359513E+02  0.24027826321E+02 -0.58886782631E+03  0.60184064157E+03  0.12119450415E+03 0.  0.
         25    2    3    3    0    0  0.13468359513E+02 -0.24027826321E+02 -0.13641447288E+04  0.13703944152E+04  0.12779389326E+03 0.  0.
          5    1    4    4  502    0  0.22404544373E+02  0.11374630786E+02 -0.22137603703E+02  0.33815814818E+02  0.47000000000E+01 0.  1.
         -5    1    4    4    0  502 -0.35872903885E+02  0.12653195535E+02 -0.56673022260E+03  0.56802482675E+03  0.47000000000E+01 0.  1.
          5    1    5    5  503    0  0.27309157298E+02 -0.66145181322E+02 -0.11141481098E+04  0.11164537947E+04  0.47000000000E+01 0.  1.
         -5    1    5    5    0  503 -0.13840797785E+02  0.42117355002E+02 -0.24999661897E+03  0.25394062057E+03  0.47000000000E+01 0.  1.
<mgrwt>
<rscale>  0 0.27468724E+03</rscale>
<asrwt>0</asrwt>
<pdfrwt beam="1">  1        2 0.30194209E+00 0.27468724E+03</pdfrwt>
<pdfrwt beam="2">  1       -2 0.14786541E-02 0.27468724E+03</pdfrwt>
<totfact> 0.93656532E+03</totfact>
</mgrwt>
</event>
<event>
 9    1  0.2074770E-002  0.2753001E+03  0.7818608E-02  0.1098284E+00
          2   -1    0    0  501    0  0.00000000000E+00  0.00000000000E+00  0.15448812441E+03  0.15448812441E+03  0.00000000000E+00 0.  1.
         -2   -1    0    0    0  501 -0.00000000000E+00 -0.00000000000E+00 -0.12264722853E+03  0.12264722853E+03  0.00000000000E+00 0.  1.
         36    2    1    2    0    0  0.53290705182E-14  0.00000000000E+00  0.31840895889E+02  0.27713535294E+03  0.27530012931E+03 0.  0.
         25    2    3    3    0    0 -0.15996108653E+02  0.30493641537E+02  0.75441770460E+02  0.13998487427E+03  0.11277662270E+03 0.  0.
         25    2    3    3    0    0  0.15996108653E+02 -0.30493641537E+02 -0.43600874571E+02  0.13715047867E+03  0.12539330074E+03 0.  0.
          5    1    4    4  502    0 -0.63448192028E+02  0.76252410257E+01  0.50121430581E+02  0.81351491540E+02  0.47000000000E+01 0. -1.
         -5    1    4    4    0  502  0.47452083375E+02  0.22868400511E+02  0.25320339879E+02  0.58633382728E+02  0.47000000000E+01 0. -1.
          5    1    5    5  503    0 -0.10222224562E+02  0.10409196450E+02 -0.76673183324E+02  0.78190231402E+02  0.47000000000E+01 0. -1.
         -5    1    5    5    0  503  0.26218333215E+02 -0.40902837987E+02  0.33072308752E+02  0.58960247271E+02  0.47000000000E+01 0. -1.
<mgrwt>
<rscale>  0 0.27530013E+03</rscale>
<asrwt>0</asrwt>
<pdfrwt beam="1">  1        2 0.23767404E-01 0.27530013E+03</pdfrwt>
<pdfrwt beam="2">  1       -2 0.18868804E-01 0.27530013E+03</pdfrwt>
<totfact> 0.52557526E+03</totfact>
</mgrwt>
</event>
<event>
 9    1  0.2074770E-002  0.2748572E+03  0.7818608E-02  0.1098531E+00
          1   -1    0    0  501    0  0.00000000000E+00  0.00000000000E+00  0.40314650752E+02  0.40314650752E+02  0.00000000000E+00 0. -1.
         -1   -1    0    0    0  501 -0.00000000000E+00 -0.00000000000E+00 -0.46848027020E+03  0.46848027020E+03  0.00000000000E+00 0. -1.
         36    2    1    2    0    0 -0.44408920985E-14  0.00000000000E+00 -0.42816561945E+03  0.50879492096E+03  0.27485718821E+03 0.  0.
         25    2    3    3    0    0 -0.13921101854E+01  0.29782313989E+02 -0.31912449235E+03  0.34178690652E+03  0.11869677188E+03 0.  0.
         25    2    3    3    0    0  0.13921101854E+01 -0.29782313989E+02 -0.10904112711E+03  0.16700801444E+03  0.12293406887E+03 0.  0.
          5    1    4    4  502    0 -0.46910022332E+02  0.38262083329E+02 -0.25751042441E+03  0.26457181614E+03  0.47000000000E+01 0. -1.
         -5    1    4    4    0  502  0.45517912146E+02 -0.84797693406E+01 -0.61614067932E+02  0.77215090374E+02  0.47000000000E+01 0. -1.
          5    1    5    5  503    0  0.60797605957E+01 -0.75135306524E+02 -0.43906836592E+02  0.87362337851E+02  0.47000000000E+01 0. -1.
         -5    1    5    5    0  503 -0.46876504103E+01  0.45352992535E+02 -0.65134290514E+02  0.79645676587E+02  0.47000000000E+01 0. -1.
<mgrwt>
<rscale>  0 0.27485719E+03</rscale>
<asrwt>0</asrwt>
<pdfrwt beam="1">  1        1 0.62022541E-02 0.27485719E+03</pdfrwt>
<pdfrwt beam="2">  1       -1 0.72073886E-01 0.27485719E+03</pdfrwt>
<totfact> 0.24890465E+03</totfact>
</mgrwt>
</event>
<event>
 9    1  0.2074770E-002  0.2824708E+03  0.7818608E-02  0.1094347E+00
         -1   -1    0    0    0  501 -0.00000000000E+00  0.00000000000E+00  0.47244917317E+02  0.47244917317E+02  0.00000000000E+00 0.  1.
          1   -1    0    0  501    0  0.00000000000E+00 -0.00000000000E+00 -0.42221348342E+03  0.42221348342E+03  0.00000000000E+00 0.  1.
         36    2    1    2    0    0  0.00000000000E+00 -0.71054273576E-14 -0.37496856610E+03  0.46945840073E+03  0.28247082054E+03 0.  0.
         25    2    3    3    0    0  0.16937446447E+02 -0.22585447275E+02 -0.28229369764E+03  0.31214794906E+03  0.13019074796E+03 0.  0.
         25    2    3    3    0    0 -0.16937446447E+02  0.22585447275E+02 -0.92674868466E+02  0.15731045168E+03  0.12393937002E+03 0.  0.
          5    1    4    4  502    0  0.50121571551E+02  0.10757624957E+02 -0.24914664181E+03  0.25440919314E+03  0.47000000000E+01 0. -1.
         -5    1    4    4    0  502 -0.33184125104E+02 -0.33343072232E+02 -0.33147055823E+02  0.57738755914E+02  0.47000000000E+01 0. -1.
          5    1    5    5  503    0  0.24579232416E+02  0.72495864872E+00  0.21994204613E+02  0.33324154420E+02  0.47000000000E+01 0. -1.
         -5    1    5    5    0  503 -0.41516678864E+02  0.21860488626E+02 -0.11466907308E+03  0.12398629726E+03  0.47000000000E+01 0. -1.
<mgrwt>
<rscale>  0 0.28247082E+03</rscale>
<asrwt>0</asrwt>
<pdfrwt beam="1">  1        1 0.64955921E-01 0.28247082E+03</pdfrwt>
<pdfrwt beam="2">  1       -1 0.72684487E-02 0.28247082E+03</pdfrwt>
<totfact> 0.56095403E+03</totfact>
</mgrwt>
</event>
<event>
 9    1  0.2074770E-002  0.2742030E+03  0.7818608E-02  0.1098898E+00
         -2   -1    0    0    0  501 -0.00000000000E+00  0.00000000000E+00  0.14668041952E+02  0.14668041952E+02  0.00000000000E+00 0. -1.
          2   -1    0    0  501    0  0.00000000000E+00 -0.00000000000E+00 -0.12814808927E+04  0.12814808927E+04  0.00000000000E+00 0. -1.
         36    2    1    2    0    0  0.00000000000E+00  0.00000000000E+00 -0.12668128507E+04  0.12961489346E+04  0.27420295764E+03 0.  0.
         25    2    3    3    0    0 -0.44587641077E+02 -0.41037349997E+02 -0.62163309240E+03  0.63557791918E+03  0.11772624152E+03 0.  0.
         25    2    3    3    0    0  0.44587641077E+02  0.41037349997E+02 -0.64517975832E+03  0.66057101545E+03  0.12816015012E+03 0.  0.
          5    1    4    4  502    0 -0.84029863079E+02 -0.16737080209E+02 -0.40967128620E+03  0.41856158505E+03  0.47000000000E+01 0.  1.
         -5    1    4    4    0  502  0.39442222003E+02 -0.24300269789E+02 -0.21196180620E+03  0.21701633413E+03  0.47000000000E+01 0.  1.
          5    1    5    5  503    0 -0.31851405285E+02  0.14485842530E+02 -0.58570051000E+02  0.68387809780E+02  0.47000000000E+01 0.  1.
         -5    1    5    5    0  503  0.76439046362E+02  0.26551507468E+02 -0.58660970732E+03  0.59218320567E+03  0.47000000000E+01 0.  1.
<mgrwt>
<rscale>  0 0.27420296E+03</rscale>
<asrwt>0</asrwt>
<pdfrwt beam="1">  1        2 0.19715090E+00 0.27420296E+03</pdfrwt>
<pdfrwt beam="2">  1       -2 0.22566220E-02 0.27420296E+03</pdfrwt>
<totfact> 0.11611449E+04</totfact>
</mgrwt>
</event>
<event>
 9    1  0.2074770E-002  0.2747555E+03  0.7818608E-02  0.1098588E+00
          2   -1    0    0  501    0  0.00000000000E+00  0.00000000000E+00  0.39172856507E+03  0.39172856507E+03  0.00000000000E+00 0.  1.
         -2   -1    0    0    0  501 -0.00000000000E+00 -0.00000000000E+00 -0.48177852944E+02  0.48177852944E+02  0.00000000000E+00 0.  1.
         36    2    1    2    0    0  0.00000000000E+00  0.00000000000E+00  0.34355071213E+03  0.43990641802E+03  0.27475546366E+03 0.  0.
         25    2    3    3    0    0 -0.37116518332E+02  0.37849363028E+02  0.14322291809E+03  0.19773051149E+03  0.12559594219E+03 0.  0.
         25    2    3    3    0    0  0.37116518332E+02 -0.37849363028E+02  0.20032779404E+03  0.24217590652E+03  0.12533050077E+03 0.  0.
          5    1    4    4  502    0 -0.59169070496E+02  0.59817396041E+00  0.14229220293E+03  0.15417683915E+03  0.47000000000E+01 0. -1.
         -5    1    4    4    0  502  0.22052552165E+02  0.37251189068E+02  0.93071516326E+00  0.43553672344E+02  0.47000000000E+01 0. -1.
          5    1    5    5  503    0 -0.17167678455E+02 -0.41024914691E+02  0.17744495073E+03  0.18299336968E+03  0.47000000000E+01 0. -1.
         -5    1    5    5    0  503  0.54284196786E+02  0.31755516629E+01  0.22882843308E+02  0.59182536841E+02  0.47000000000E+01 0. -1.
<mgrwt>
<rscale>  0 0.27475546E+03</rscale>
<asrwt>0</asrwt>
<pdfrwt beam="1">  1        2 0.60265931E-01 0.27475546E+03</pdfrwt>
<pdfrwt beam="2">  1       -2 0.74119776E-02 0.27475546E+03</pdfrwt>
<totfact> 0.86470997E+03</totfact>
</mgrwt>
</event>
<event>
 9    1  0.2074770E-002  0.2748114E+03  0.7818608E-02  0.1098557E+00
         -2   -1    0    0    0  501 -0.00000000000E+00  0.00000000000E+00  0.41325881614E+02  0.41325881614E+02  0.00000000000E+00 0.  1.
          2   -1    0    0  501    0  0.00000000000E+00 -0.00000000000E+00 -0.45686450483E+03  0.45686450483E+03  0.00000000000E+00 0.  1.
         36    2    1    2    0    0  0.00000000000E+00  0.00000000000E+00 -0.41553862321E+03  0.49819038644E+03  0.27481141490E+03 0.  0.
         25    2    3    3    0    0  0.19562509224E+02  0.52079754756E+02 -0.20554297889E+03  0.24722527689E+03  0.12560823515E+03 0.  0.
         25    2    3    3    0    0 -0.19562509224E+02 -0.52079754756E+02 -0.20999564432E+03  0.25096510955E+03  0.12565955179E+03 0.  0.
          5    1    4    4  502    0  0.52311364322E+02  0.34998099929E+02 -0.34003800074E+02  0.71691660989E+02  0.47000000000E+01 0. -1.
         -5    1    4    4    0  502 -0.32748855098E+02  0.17081654827E+02 -0.17153917881E+03  0.17553361590E+03  0.47000000000E+01 0. -1.
          5    1    5    5  503    0  0.41654705437E+02  0.64987781361E+01 -0.11997082358E+03  0.12724950732E+03  0.47000000000E+01 0. -1.
         -5    1    5    5    0  503 -0.61217214661E+02 -0.58578532892E+02 -0.90024820746E+02  0.12371560224E+03  0.47000000000E+01 0. -1.
<mgrwt>
<rscale>  0 0.27481141E+03</rscale>
<asrwt>0</asrwt>
<pdfrwt beam="1">  1        2 0.70286852E-01 0.27481141E+03</pdfrwt>
<pdfrwt beam="2">  1       -2 0.63578275E-02 0.27481141E+03</pdfrwt>
<totfact> 0.92658958E+03</totfact>
</mgrwt>
</event>
<event>
 9    1  0.2074770E-002  0.2762360E+03  0.7818608E-02  0.1097763E+00
          2   -1    0    0  501    0  0.00000000000E+00  0.00000000000E+00  0.23875083600E+04  0.23875083600E+04  0.00000000000E+00 0.  1.
         -2   -1    0    0    0  501 -0.00000000000E+00 -0.00000000000E+00 -0.79901623305E+01  0.79901623305E+01  0.00000000000E+00 0.  1.
         36    2    1    2    0    0  0.14210854715E-13  0.00000000000E+00  0.23795181977E+04  0.23954985223E+04  0.27623598145E+03 0.  0.
         25    2    3    3    0    0  0.42914728283E+02 -0.36679633105E+02  0.12911440773E+04  0.12984885724E+04  0.12582716297E+03 0.  0.
         25    2    3    3    0    0 -0.42914728283E+02  0.36679633105E+02  0.10883741203E+04  0.10970099499E+04  0.12524190572E+03 0.  0.
          5    1    4    4  502    0  0.74714115055E+02  0.13727837799E+02  0.61102992217E+03  0.61575182363E+03  0.47000000000E+01 0.  1.
         -5    1    4    4    0  502 -0.31799386772E+02 -0.50407470904E+02  0.68011415513E+03  0.68273674878E+03  0.47000000000E+01 0.  1.
          5    1    5    5  503    0 -0.70477480947E+02  0.60254041000E+02  0.92204778409E+03  0.92671021949E+03  0.47000000000E+01 0. -1.
         -5    1    5    5    0  503  0.27562752664E+02 -0.23574407895E+02  0.16632633626E+03  0.17029973041E+03  0.47000000000E+01 0. -1.
<mgrwt>
<rscale>  0 0.27623598E+03</rscale>
<asrwt>0</asrwt>
<pdfrwt beam="1">  1        2 0.36730841E+00 0.27623598E+03</pdfrwt>
<pdfrwt beam="2">  1       -2 0.12292576E-02 0.27623598E+03</pdfrwt>
<totfact> 0.72900041E+03</totfact>
</mgrwt>
</event>
<event>
 9    1  0.2074770E-002  0.2747304E+03  0.7818608E-02  0.1098602E+00
          2   -1    0    0  501    0  0.00000000000E+00  0.00000000000E+00  0.53407033992E+03  0.53407033992E+03  0.00000000000E+00 0.  1.
         -2   -1    0    0    0  501 -0.00000000000E+00 -0.00000000000E+00 -0.35330914652E+02  0.35330914652E+02  0.00000000000E+00 0.  1.
         36    2    1    2    0    0  0.14210854715E-13  0.00000000000E+00  0.49873942527E+03  0.56940125457E+03  0.27473036671E+03 0.  0.
         25    2    3    3    0    0  0.31841512739E+02 -0.17187839628E+02  0.26663551026E+03  0.30020764643E+03  0.13311961493E+03 0.  0.
         25    2    3    3    0    0 -0.31841512739E+02  0.17187839628E+02  0.23210391501E+03  0.26919360814E+03  0.13146736301E+03 0.  0.
          5    1    4    4  502    0 -0.43571107227E+02 -0.35523466438E+01  0.17606683763E+03  0.18147363959E+03  0.47000000000E+01 0.  1.
         -5    1    4    4    0  502  0.75412619966E+02 -0.13635492985E+02  0.90568672625E+02  0.11873400684E+03  0.47000000000E+01 0.  1.
          5    1    5    5  503    0 -0.67060067830E+02 -0.12434090938E+02  0.59931202215E+02  0.90914786002E+02  0.47000000000E+01 0. -1.
         -5    1    5    5    0  503  0.35218555090E+02  0.29621930567E+02  0.17217271279E+03  0.17827882214E+03  0.47000000000E+01 0. -1.
<mgrwt>
<rscale>  0 0.27473037E+03</rscale>
<asrwt>0</asrwt>
<pdfrwt beam="1">  1        2 0.82164662E-01 0.27473037E+03</pdfrwt>
<pdfrwt beam="2">  1       -2 0.54355257E-02 0.27473037E+03</pdfrwt>
<totfact> 0.98959006E+03</totfact>
</mgrwt>
</event>
<event>
 9    1  0.2074770E-002  0.2753282E+03  0.7818608E-02  0.1098268E+00
         -2   -1    0    0    0  501 -0.00000000000E+00  0.00000000000E+00  0.13204143018E+02  0.13204143018E+02  0.00000000000E+00 0.  1.
          2   -1    0    0  501    0  0.00000000000E+00 -0.00000000000E+00 -0.14352621312E+04  0.14352621312E+04  0.00000000000E+00 0.  1.
         36    2    1    2    0    0  0.00000000000E+00  0.00000000000E+00 -0.14220579881E+04  0.14484662742E+04  0.27532821467E+03 0.  0.
         25    2    3    3    0    0 -0.43661646443E+00  0.84861471052E+01 -0.10090891900E+04  0.10167163129E+04  0.12401154047E+03 0.  0.
         25    2    3    3    0    0  0.43661646443E+00 -0.84861471052E+01 -0.41296879816E+03  0.43174996131E+03  0.12566859400E+03 0.  0.
          5    1    4    4  502    0  0.10214420800E+02  0.43322530658E+02 -0.90898590811E+03  0.91008716461E+03  0.47000000000E+01 0. -1.
         -5    1    4    4    0  502 -0.10651037264E+02 -0.34836383552E+02 -0.10010328188E+03  0.10662914825E+03  0.47000000000E+01 0. -1.
          5    1    5    5  503    0  0.48154268391E+02  0.36083671372E+02 -0.20809290248E+03  0.21666935863E+03  0.47000000000E+01 0. -1.
         -5    1    5    5    0  503 -0.47717651927E+02 -0.44569818477E+02 -0.20487589567E+03  0.21508060269E+03  0.47000000000E+01 0. -1.
<mgrwt>
<rscale>  0 0.27532821E+03</rscale>
<asrwt>0</asrwt>
<pdfrwt beam="1">  1        2 0.22080942E+00 0.27532821E+03</pdfrwt>
<pdfrwt beam="2">  1       -2 0.20314079E-02 0.27532821E+03</pdfrwt>
<totfact> 0.11169664E+04</totfact>
</mgrwt>
</event>
<event>
 9    1  0.2074770E-002  0.2741612E+03  0.7818608E-02  0.1098921E+00
         -2   -1    0    0    0  501 -0.00000000000E+00  0.00000000000E+00  0.44570869460E+02  0.44570869460E+02  0.00000000000E+00 0.  1.
          2   -1    0    0  501    0  0.00000000000E+00 -0.00000000000E+00 -0.42160014831E+03  0.42160014831E+03  0.00000000000E+00 0.  1.
         36    2    1    2    0    0  0.00000000000E+00  0.00000000000E+00 -0.37702927885E+03  0.46617101777E+03  0.27416115826E+03 0.  0.
         25    2    3    3    0    0 -0.49541764652E+02  0.69177419698E+01 -0.23630874971E+03  0.27098188588E+03  0.12282962058E+03 0.  0.
         25    2    3    3    0    0  0.49541764652E+02 -0.69177419698E+01 -0.14072052914E+03  0.19518913188E+03  0.12567532886E+03 0.  0.
          5    1    4    4  502    0 -0.84069614582E+02 -0.21503488265E+02 -0.14161056377E+03  0.16614975737E+03  0.47000000000E+01 0. -1.
         -5    1    4    4    0  502  0.34527849931E+02  0.28421230235E+02 -0.94698185938E+02  0.10483212851E+03  0.47000000000E+01 0. -1.
          5    1    5    5  503    0 -0.90442377658E+01 -0.46894692210E+02 -0.10541084055E+03  0.11582074814E+03  0.47000000000E+01 0. -1.
         -5    1    5    5    0  503  0.58586002418E+02  0.39976950240E+02 -0.35309688594E+02  0.79368383746E+02  0.47000000000E+01 0. -1.
<mgrwt>
<rscale>  0 0.27416116E+03</rscale>
<asrwt>0</asrwt>
<pdfrwt beam="1">  1        2 0.64861560E-01 0.27416116E+03</pdfrwt>
<pdfrwt beam="2">  1       -2 0.68570570E-02 0.27416116E+03</pdfrwt>
<totfact> 0.90050674E+03</totfact>
</mgrwt>
</event>
<event>
 9    1  0.2074770E-002  0.2741331E+03  0.7818608E-02  0.1098937E+00
         -2   -1    0    0    0  501 -0.00000000000E+00  0.00000000000E+00  0.12952188146E+02  0.12952188146E+02  0.00000000000E+00 0. -1.
          2   -1    0    0  501    0  0.00000000000E+00 -0.00000000000E+00 -0.14505068760E+04  0.14505068760E+04  0.00000000000E+00 0. -1.
         36    2    1    2    0    0  0.00000000000E+00 -0.71054273576E-14 -0.14375546879E+04  0.14634590642E+04  0.27413309151E+03 0.  0.
         25    2    3    3    0    0  0.44425537649E+02 -0.38513612970E+02 -0.85190643759E+03  0.86277953245E+03  0.12323561347E+03 0.  0.
         25    2    3    3    0    0 -0.44425537649E+02  0.38513612970E+02 -0.58564825029E+03  0.60067953172E+03  0.11989620504E+03 0.  0.
          5    1    4    4  502    0 -0.20268137505E+02 -0.48905956806E+02 -0.18035839669E+03  0.18802614517E+03  0.47000000000E+01 0.  1.
         -5    1    4    4    0  502  0.64693675155E+02  0.10392343837E+02 -0.67154804090E+03  0.67475338729E+03  0.47000000000E+01 0.  1.
          5    1    5    5  503    0 -0.67885214093E+02  0.34719606855E+02 -0.19725085630E+03  0.21152740651E+03  0.47000000000E+01 0.  1.
         -5    1    5    5    0  503  0.23459676443E+02  0.37940061145E+01 -0.38839739398E+03  0.38915212521E+03  0.47000000000E+01 0.  1.
<mgrwt>
<rscale>  0 0.27413309E+03</rscale>
<asrwt>0</asrwt>
<pdfrwt beam="1">  1        2 0.22315485E+00 0.27413309E+03</pdfrwt>
<pdfrwt beam="2">  1       -2 0.19926448E-02 0.27413309E+03</pdfrwt>
<totfact> 0.11274234E+04</totfact>
</mgrwt>
</event>
<event>
 9    1  0.2074770E-002  0.2750983E+03  0.7818608E-02  0.1098397E+00
         -2   -1    0    0    0  501 -0.00000000000E+00  0.00000000000E+00  0.65086244497E+02  0.65086244497E+02  0.00000000000E+00 0.  1.
          2   -1    0    0  501    0  0.00000000000E+00 -0.00000000000E+00 -0.29068762573E+03  0.29068762573E+03  0.00000000000E+00 0.  1.
         36    2    1    2    0    0 -0.71054273576E-14 -0.71054273576E-14 -0.22560138123E+03  0.35577387022E+03  0.27509827975E+03 0.  0.
         25    2    3    3    0    0  0.46335889936E+02 -0.30604004155E+02 -0.13151379346E+03  0.18965660018E+03  0.12486043552E+03 0.  0.
         25    2    3    3    0    0 -0.46335889936E+02  0.30604004155E+02 -0.94087587774E+02  0.16611727004E+03  0.12513534059E+03 0.  0.
          5    1    4    4  502    0  0.15450858505E+02 -0.74641498130E+02 -0.10408343311E+03  0.12909505537E+03  0.47000000000E+01 0.  1.
         -5    1    4    4    0  502  0.30885031431E+02  0.44037493975E+02 -0.27430360340E+02  0.60561544816E+02  0.47000000000E+01 0.  1.
          5    1    5    5  503    0 -0.54097193358E+02  0.42274318847E+02  0.20527012220E+01  0.68847134621E+02  0.47000000000E+01 0. -1.
         -5    1    5    5    0  503  0.77613034220E+01 -0.11670314692E+02 -0.96140288996E+02  0.97270135417E+02  0.47000000000E+01 0. -1.
<mgrwt>
<rscale>  0 0.27509828E+03</rscale>
<asrwt>0</asrwt>
<pdfrwt beam="1">  1        2 0.44721174E-01 0.27509828E+03</pdfrwt>
<pdfrwt beam="2">  1       -2 0.10013268E-01 0.27509828E+03</pdfrwt>
<totfact> 0.74366365E+03</totfact>
</mgrwt>
</event>
<event>
 9    1  0.2074770E-002  0.2754120E+03  0.7818608E-02  0.1098222E+00
          2   -1    0    0  501    0  0.00000000000E+00  0.00000000000E+00  0.90646024177E+02  0.90646024177E+02  0.00000000000E+00 0.  1.
         -2   -1    0    0    0  501 -0.00000000000E+00 -0.00000000000E+00 -0.20919770937E+03  0.20919770937E+03  0.00000000000E+00 0.  1.
         36    2    1    2    0    0  0.00000000000E+00 -0.35527136788E-14 -0.11855168520E+03  0.29984373355E+03  0.27541198682E+03 0.  0.
         25    2    3    3    0    0  0.36268758368E+02 -0.36824148398E+01 -0.84733962766E+01  0.12978191001E+03  0.12426810817E+03 0.  0.
         25    2    3    3    0    0 -0.36268758368E+02  0.36824148398E+01 -0.11007828892E+03  0.17006182354E+03  0.12439779388E+03 0.  0.
          5    1    4    4  502    0  0.74089052857E+02 -0.25066647282E+02  0.15593684704E+02  0.79892287249E+02  0.47000000000E+01 0.  1.
         -5    1    4    4    0  502 -0.37820294489E+02  0.21384232442E+02 -0.24067080980E+02  0.49889622762E+02  0.47000000000E+01 0.  1.
          5    1    5    5  503    0  0.27817226799E+02 -0.39207466148E+02 -0.63737358090E+02  0.79972272225E+02  0.47000000000E+01 0. -1.
         -5    1    5    5    0  503 -0.64085985167E+02  0.42889880988E+02 -0.46340930831E+02  0.90089551316E+02  0.47000000000E+01 0. -1.
<mgrwt>
<rscale>  0 0.27541199E+03</rscale>
<asrwt>0</asrwt>
<pdfrwt beam="1">  1        2 0.13945542E-01 0.27541199E+03</pdfrwt>
<pdfrwt beam="2">  1       -2 0.32184263E-01 0.27541199E+03</pdfrwt>
<totfact> 0.38021377E+03</totfact>
</mgrwt>
</event>
<event>
 9    1  0.2074770E-002  0.2728809E+03  0.7818608E-02  0.1099642E+00
         -1   -1    0    0    0  501 -0.00000000000E+00  0.00000000000E+00  0.47891547104E+02  0.47891547104E+02  0.00000000000E+00 0.  1.
          1   -1    0    0  501    0  0.00000000000E+00 -0.00000000000E+00 -0.38871161113E+03  0.38871161113E+03  0.00000000000E+00 0.  1.
         36    2    1    2    0    0 -0.14210854715E-13 -0.35527136788E-14 -0.34082006403E+03  0.43660315824E+03  0.27288092960E+03 0.  0.
         25    2    3    3    0    0  0.24780335253E+02  0.98544674353E+01 -0.94131386127E+02  0.15847217306E+03  0.12466569791E+03 0.  0.
         25    2    3    3    0    0 -0.24780335253E+02 -0.98544674353E+01 -0.24668867790E+03  0.27813098518E+03  0.12565972134E+03 0.  0.
          5    1    4    4  502    0 -0.43642349111E+02 -0.24580088598E+02 -0.43736102790E+02  0.66661623732E+02  0.47000000000E+01 0. -1.
         -5    1    4    4    0  502  0.68422684364E+02  0.34434556033E+02 -0.50395283337E+02  0.91810549325E+02  0.47000000000E+01 0. -1.
          5    1    5    5  503    0  0.30790854095E+02 -0.20671144121E+02 -0.16195236421E+02  0.40740012002E+02  0.47000000000E+01 0.  1.
         -5    1    5    5    0  503 -0.55571189348E+02  0.10816676686E+02 -0.23049344148E+03  0.23739097318E+03  0.47000000000E+01 0.  1.
<mgrwt>
<rscale>  0 0.27288093E+03</rscale>
<asrwt>0</asrwt>
<pdfrwt beam="1">  1        1 0.59801783E-01 0.27288093E+03</pdfrwt>
<pdfrwt beam="2">  1       -1 0.73679307E-02 0.27288093E+03</pdfrwt>
<totfact> 0.61042205E+03</totfact>
</mgrwt>
</event>
<event>
 9    1  0.2074770E-002  0.2737429E+03  0.7818608E-02  0.1099156E+00
          1   -1    0    0  501    0  0.00000000000E+00  0.00000000000E+00  0.35292097034E+03  0.35292097034E+03  0.00000000000E+00 0.  1.
         -1   -1    0    0    0  501 -0.00000000000E+00 -0.00000000000E+00 -0.53082133910E+02  0.53082133910E+02  0.00000000000E+00 0.  1.
         36    2    1    2    0    0  0.00000000000E+00  0.00000000000E+00  0.29983883643E+03  0.40600310425E+03  0.27374293201E+03 0.  0.
         25    2    3    3    0    0 -0.74088032085E+01 -0.95464341414E+01  0.66603922905E+02  0.14260104778E+03  0.12551076254E+03 0.  0.
         25    2    3    3    0    0  0.74088032085E+01  0.95464341414E+01  0.23323491352E+03  0.26340205646E+03  0.12180350444E+03 0.  0.
          5    1    4    4  502    0 -0.56826770878E+02 -0.30409996887E+02  0.11653110226E+02  0.65665324008E+02  0.47000000000E+01 0.  1.
         -5    1    4    4    0  502  0.49417967670E+02  0.20863562745E+02  0.54950812679E+02  0.76935723777E+02  0.47000000000E+01 0.  1.
          5    1    5    5  503    0  0.44830935423E+02  0.29252050168E+02  0.44030599032E+02  0.69471424781E+02  0.47000000000E+01 0.  1.
         -5    1    5    5    0  503 -0.37422132215E+02 -0.19705616027E+02  0.18920431449E+03  0.19393063168E+03  0.47000000000E+01 0.  1.
<mgrwt>
<rscale>  0 0.27374293E+03</rscale>
<asrwt>0</asrwt>
<pdfrwt beam="1">  1        1 0.54295532E-01 0.27374293E+03</pdfrwt>
<pdfrwt beam="2">  1       -1 0.81664824E-02 0.27374293E+03</pdfrwt>
<totfact> 0.59012113E+03</totfact>
</mgrwt>
</event>
<event>
 9    1  0.2074770E-002  0.2746656E+03  0.7818608E-02  0.1098639E+00
         -2   -1    0    0    0  501 -0.00000000000E+00  0.00000000000E+00  0.22126471315E+02  0.22126471315E+02  0.00000000000E+00 0. -1.
          2   -1    0    0  501    0  0.00000000000E+00 -0.00000000000E+00 -0.85238628801E+03  0.85238628801E+03  0.00000000000E+00 0. -1.
         36    2    1    2    0    0 -0.35527136788E-14  0.00000000000E+00 -0.83025981669E+03  0.87451275932E+03  0.27466562035E+03 0.  0.
         25    2    3    3    0    0 -0.32906470887E+01 -0.39934075973E+02 -0.26662024819E+03  0.29577036078E+03  0.12160670534E+03 0.  0.
         25    2    3    3    0    0  0.32906470887E+01  0.39934075973E+02 -0.56363956850E+03  0.57874239855E+03  0.12509053487E+03 0.  0.
          5    1    4    4  502    0 -0.34153370169E+02 -0.64439495027E+02 -0.23154450006E+03  0.24280413242E+03  0.47000000000E+01 0.  1.
         -5    1    4    4    0  502  0.30862723080E+02  0.24505419055E+02 -0.35075748138E+02  0.52966228357E+02  0.47000000000E+01 0.  1.
          5    1    5    5  503    0  0.60880323326E+02  0.15206126913E+02 -0.19856687076E+03  0.20829914121E+03  0.47000000000E+01 0. -1.
         -5    1    5    5    0  503 -0.57589676237E+02  0.24727949059E+02 -0.36507269774E+03  0.37044325734E+03  0.47000000000E+01 0. -1.
<mgrwt>
<rscale>  0 0.27466562E+03</rscale>
<asrwt>0</asrwt>
<pdfrwt beam="1">  1        2 0.13113638E+00 0.27466562E+03</pdfrwt>
<pdfrwt beam="2">  1       -2 0.34040717E-02 0.27466562E+03</pdfrwt>
<totfact> 0.11411647E+04</totfact>
</mgrwt>
</event>
<event>
 9    1  0.2074770E-002  0.2749658E+03  0.7818608E-02  0.1098471E+00
         -1   -1    0    0    0  501 -0.00000000000E+00  0.00000000000E+00  0.95080635873E+02  0.95080635873E+02  0.00000000000E+00 0. -1.
          1   -1    0    0  501    0  0.00000000000E+00 -0.00000000000E+00 -0.19879494139E+03  0.19879494139E+03  0.00000000000E+00 0. -1.
         36    2    1    2    0    0 -0.35527136788E-14 -0.35527136788E-14 -0.10371430552E+03  0.29387557726E+03  0.27496581195E+03 0.  0.
         25    2    3    3    0    0  0.41301294819E+01 -0.11092063243E+02 -0.11242228270E+03  0.16720747278E+03  0.12320502208E+03 0.  0.
         25    2    3    3    0    0 -0.41301294819E+01  0.11092063243E+02  0.87079771864E+01  0.12666810449E+03  0.12581290868E+03 0.  0.
          5    1    4    4  502    0 -0.18913004829E+02 -0.62379558835E+02 -0.75119972722E+02  0.99569128820E+02  0.47000000000E+01 0. -1.
         -5    1    4    4    0  502  0.23043134311E+02  0.51287495592E+02 -0.37302309982E+02  0.67638343955E+02  0.47000000000E+01 0. -1.
          5    1    5    5  503    0  0.23431088563E+02  0.40634416253E+02 -0.40974245559E+02  0.62459190634E+02  0.47000000000E+01 0. -1.
         -5    1    5    5    0  503 -0.27561218045E+02 -0.29542353010E+02  0.49682222745E+02  0.64208913855E+02  0.47000000000E+01 0. -1.
<mgrwt>
<rscale>  0 0.27496581E+03</rscale>
<asrwt>0</asrwt>
<pdfrwt beam="1">  1        1 0.30583837E-01 0.27496581E+03</pdfrwt>
<pdfrwt beam="2">  1       -1 0.14627790E-01 0.27496581E+03</pdfrwt>
<totfact> 0.49112560E+03</totfact>
</mgrwt>
</event>
<event>
 9    1  0.2074770E-002  0.2751243E+03  0.7818608E-02  0.1098382E+00
         -2   -1    0    0    0  501 -0.00000000000E+00  0.00000000000E+00  0.59613254582E+02  0.59613254582E+02  0.00000000000E+00 0. -1.
          2   -1    0    0  501    0  0.00000000000E+00 -0.00000000000E+00 -0.31743517080E+03  0.31743517080E+03  0.00000000000E+00 0. -1.
         36    2    1    2    0    0  0.00000000000E+00  0.00000000000E+00 -0.25782191622E+03  0.37704842539E+03  0.27512428937E+03 0.  0.
         25    2    3    3    0    0 -0.19174932701E+02  0.70966633524E+01 -0.21292651634E+03  0.24674835605E+03  0.12300003731E+03 0.  0.
         25    2    3    3    0    0  0.19174932701E+02 -0.70966633524E+01 -0.44895399876E+02  0.13030006933E+03  0.12060045797E+03 0.  0.
          5    1    4    4  502    0 -0.23614722518E+01 -0.56806815460E+02 -0.80361221195E+02  0.98552558089E+02  0.47000000000E+01 0.  1.
         -5    1    4    4    0  502 -0.16813460449E+02  0.63903478812E+02 -0.13256529515E+03  0.14819579797E+03  0.47000000000E+01 0.  1.
          5    1    5    5  503    0 -0.48434603591E+02 -0.20537204924E+02 -0.24756077326E+02  0.58332160732E+02  0.47000000000E+01 0.  1.
         -5    1    5    5    0  503  0.67609536292E+02  0.13440541572E+02 -0.20139322550E+02  0.71967908599E+02  0.47000000000E+01 0.  1.
<mgrwt>
<rscale>  0 0.27512429E+03</rscale>
<asrwt>0</asrwt>
<pdfrwt beam="1">  1        2 0.48836179E-01 0.27512429E+03</pdfrwt>
<pdfrwt beam="2">  1       -2 0.91712702E-02 0.27512429E+03</pdfrwt>
<totfact> 0.77747397E+03</totfact>
</mgrwt>
</event>
<event>
 9    1  0.2074770E-002  0.2748685E+03  0.7818608E-02  0.1098525E+00
         -2   -1    0    0    0  501 -0.00000000000E+00  0.00000000000E+00  0.59990174569E+02  0.59990174569E+02  0.00000000000E+00 0. -1.
          2   -1    0    0  501    0  0.00000000000E+00 -0.00000000000E+00 -0.31485452959E+03  0.31485452959E+03  0.00000000000E+00 0. -1.
         36    2    1    2    0    0  0.71054273576E-14  0.71054273576E-14 -0.25486435502E+03  0.37484470416E+03  0.27486853726E+03 0.  0.
         25    2    3    3    0    0  0.20473729962E+02 -0.43389025445E+02 -0.97889412186E+02  0.16606964443E+03  0.12527972157E+03 0.  0.
         25    2    3    3    0    0 -0.20473729962E+02  0.43389025445E+02 -0.15697494283E+03  0.20877505972E+03  0.12901206043E+03 0.  0.
          5    1    4    4  502    0  0.33879336923E+02  0.21684441161E+02 -0.90383759027E+02  0.99042103949E+02  0.47000000000E+01 0.  1.
         -5    1    4    4    0  502 -0.13405606961E+02 -0.65073466607E+02 -0.75056531587E+01  0.67027540486E+02  0.47000000000E+01 0.  1.
          5    1    5    5  503    0 -0.43261663421E+02  0.68990288879E+02 -0.15372865475E+03  0.17402821832E+03  0.47000000000E+01 0.  1.
         -5    1    5    5    0  503  0.22787933459E+02 -0.25601263434E+02 -0.32462880823E+01  0.34746841397E+02  0.47000000000E+01 0.  1.
<mgrwt>
<rscale>  0 0.27486854E+03</rscale>
<asrwt>0</asrwt>
<pdfrwt beam="1">  1        2 0.48439158E-01 0.27486854E+03</pdfrwt>
<pdfrwt beam="2">  1       -2 0.92292577E-02 0.27486854E+03</pdfrwt>
<totfact> 0.77653818E+03</totfact>
</mgrwt>
</event>
<event>
 9    1  0.2074770E-002  0.2755475E+03  0.7818608E-02  0.1098146E+00
          1   -1    0    0  501    0  0.00000000000E+00  0.00000000000E+00  0.39521269464E+03  0.39521269464E+03  0.00000000000E+00 0. -1.
         -1   -1    0    0    0  501 -0.00000000000E+00 -0.00000000000E+00 -0.48028828261E+02  0.48028828261E+02  0.00000000000E+00 0. -1.
         36    2    1    2    0    0  0.00000000000E+00  0.17763568394E-14  0.34718386638E+03  0.44324152290E+03  0.27554747422E+03 0.  0.
         25    2    3    3    0    0  0.14419516752E+02 -0.31100003694E+01  0.85303997958E+02  0.15369260096E+03  0.12699231850E+03 0.  0.
         25    2    3    3    0    0 -0.14419516752E+02  0.31100003694E+01  0.26187986843E+03  0.28954892194E+03  0.12263734401E+03 0.  0.
          5    1    4    4  502    0  0.50951470839E+02  0.39663361982E+02  0.69700830320E+02  0.95129019818E+02  0.47000000000E+01 0. -1.
         -5    1    4    4    0  502 -0.36531954086E+02 -0.42773362352E+02  0.15603167638E+02  0.58563581145E+02  0.47000000000E+01 0. -1.
          5    1    5    5  503    0 -0.67776051413E+02 -0.62688152110E+01  0.16299827042E+03  0.17670149221E+03  0.47000000000E+01 0.  1.
         -5    1    5    5    0  503  0.53356534661E+02  0.93788155804E+01  0.98881598009E+02  0.11284742973E+03  0.47000000000E+01 0.  1.
<mgrwt>
<rscale>  0 0.27554747E+03</rscale>
<asrwt>0</asrwt>
<pdfrwt beam="1">  1        1 0.60801951E-01 0.27554747E+03</pdfrwt>
<pdfrwt beam="2">  1       -1 0.73890508E-02 0.27554747E+03</pdfrwt>
<totfact> 0.59518978E+03</totfact>
</mgrwt>
</event>
<event>
 9    1  0.2074770E-002  0.2774512E+03  0.7818608E-02  0.1097089E+00
         -1   -1    0    0    0  501 -0.00000000000E+00  0.00000000000E+00  0.13457101167E+03  0.13457101167E+03  0.00000000000E+00 0. -1.
          1   -1    0    0  501    0  0.00000000000E+00 -0.00000000000E+00 -0.14300848921E+03  0.14300848921E+03  0.00000000000E+00 0. -1.
         36    2    1    2    0    0  0.71054273576E-14  0.00000000000E+00 -0.84374775474E+01  0.27757950088E+03  0.27745123586E+03 0.  0.
         25    2    3    3    0    0 -0.41465076590E+02  0.26694422738E+02  0.30937546270E+02  0.13775653789E+03  0.12485105998E+03 0.  0.
         25    2    3    3    0    0  0.41465076590E+02 -0.26694422738E+02 -0.39375023817E+02  0.13982296300E+03  0.12477228738E+03 0.  0.
          5    1    4    4  502    0  0.26302709307E+02 -0.38324382166E+01  0.53513149472E+02  0.59935525909E+02  0.47000000000E+01 0. -1.
         -5    1    4    4    0  502 -0.67767785897E+02  0.30526860955E+02 -0.22575603202E+02  0.77821011977E+02  0.47000000000E+01 0. -1.
          5    1    5    5  503    0  0.24631493655E+02  0.37833818984E+02  0.20752124829E+02  0.49908406341E+02  0.47000000000E+01 0. -1.
         -5    1    5    5    0  503  0.16833582935E+02 -0.64528241722E+02 -0.60127148647E+02  0.89914556655E+02  0.47000000000E+01 0. -1.
<mgrwt>
<rscale>  0 0.27745124E+03</rscale>
<asrwt>0</asrwt>
<pdfrwt beam="1">  1        1 0.22001306E-01 0.27745124E+03</pdfrwt>
<pdfrwt beam="2">  1       -1 0.20703233E-01 0.27745124E+03</pdfrwt>
<totfact> 0.42731983E+03</totfact>
</mgrwt>
</event>
<event>
 9    1  0.2074770E-002  0.2748279E+03  0.7818608E-02  0.1098548E+00
          2   -1    0    0  501    0  0.00000000000E+00  0.00000000000E+00  0.36000473342E+03  0.36000473342E+03  0.00000000000E+00 0. -1.
         -2   -1    0    0    0  501 -0.00000000000E+00 -0.00000000000E+00 -0.52450966040E+02  0.52450966040E+02  0.00000000000E+00 0. -1.
         36    2    1    2    0    0 -0.71054273576E-14 -0.71054273576E-14  0.30755376738E+03  0.41245569946E+03  0.27482791741E+03 0.  0.
         25    2    3    3    0    0 -0.47795855770E+02 -0.11787631068E+02  0.19059144757E+03  0.23273860953E+03  0.12417233350E+03 0.  0.
         25    2    3    3    0    0  0.47795855770E+02  0.11787631068E+02  0.11696231981E+03  0.17971708993E+03  0.12725822599E+03 0.  0.
          5    1    4    4  502    0 -0.58395155952E+02 -0.50439662399E+02  0.17145538513E+03  0.18807762459E+03  0.47000000000E+01 0.  1.
         -5    1    4    4    0  502  0.10599300182E+02  0.38652031331E+02  0.19136062437E+02  0.44660984941E+02  0.47000000000E+01 0.  1.
          5    1    5    5  503    0  0.45090013322E+02 -0.53648032363E+02  0.68493688920E+02  0.98105535520E+02  0.47000000000E+01 0.  1.
         -5    1    5    5    0  503  0.27058424478E+01  0.65435663431E+02  0.48468630893E+02  0.81611554407E+02  0.47000000000E+01 0.  1.
<mgrwt>
<rscale>  0 0.27482792E+03</rscale>
<asrwt>0</asrwt>
<pdfrwt beam="1">  1        2 0.55385342E-01 0.27482792E+03</pdfrwt>
<pdfrwt beam="2">  1       -2 0.80693796E-02 0.27482792E+03</pdfrwt>
<totfact> 0.82995559E+03</totfact>
</mgrwt>
</event>
<event>
 9    1  0.2074770E-002  0.2749308E+03  0.7818608E-02  0.1098490E+00
          2   -1    0    0  501    0  0.00000000000E+00  0.00000000000E+00  0.24477783826E+04  0.24477783826E+04  0.00000000000E+00 0.  1.
         -2   -1    0    0    0  501 -0.00000000000E+00 -0.00000000000E+00 -0.77199564326E+01  0.77199564326E+01  0.00000000000E+00 0.  1.
         36    2    1    2    0    0  0.35527136788E-14  0.00000000000E+00  0.24400584261E+04  0.24554983390E+04  0.27493084563E+03 0.  0.
         25    2    3    3    0    0  0.17467969710E+02 -0.42582631144E+02  0.94008924663E+03  0.94944740574E+03  0.12475645956E+03 0.  0.
         25    2    3    3    0    0 -0.17467969710E+02  0.42582631144E+02  0.14999691795E+04  0.15060509333E+04  0.12713561129E+03 0.  0.
          5    1    4    4  502    0 -0.22482108318E+01 -0.50141885327E+02  0.13560363573E+03  0.14467100310E+03  0.47000000000E+01 0. -1.
         -5    1    4    4    0  502  0.19716180542E+02  0.75592541833E+01  0.80448561090E+03  0.80477640264E+03  0.47000000000E+01 0. -1.
          5    1    5    5  503    0 -0.53321020685E+02  0.65489523701E+02  0.72822090702E+03  0.73311649032E+03  0.47000000000E+01 0.  1.
         -5    1    5    5    0  503  0.35853050975E+02 -0.22906892557E+02  0.77174827248E+03  0.77293444293E+03  0.47000000000E+01 0.  1.
<mgrwt>
<rscale>  0 0.27493085E+03</rscale>
<asrwt>0</asrwt>
<pdfrwt beam="1">  1        2 0.37658067E+00 0.27493085E+03</pdfrwt>
<pdfrwt beam="2">  1       -2 0.11876876E-02 0.27493085E+03</pdfrwt>
<totfact> 0.71086317E+03</totfact>
</mgrwt>
</event>
<event>
 9    1  0.2074770E-002  0.2751804E+03  0.7818608E-02  0.1098351E+00
          2   -1    0    0  501    0  0.00000000000E+00  0.00000000000E+00  0.22097104753E+04  0.22097104753E+04  0.00000000000E+00 0.  1.
         -2   -1    0    0    0  501 -0.00000000000E+00 -0.00000000000E+00 -0.85672144694E+01  0.85672144694E+01  0.00000000000E+00 0.  1.
         36    2    1    2    0    0  0.35527136788E-14 -0.71054273576E-14  0.22011432609E+04  0.22182776898E+04  0.27518040306E+03 0.  0.
         25    2    3    3    0    0  0.10127881388E+00  0.92036432065E+01  0.59240386008E+03  0.60464354896E+03  0.12069287700E+03 0.  0.
         25    2    3    3    0    0 -0.10127881388E+00 -0.92036432065E+01  0.16087394008E+04  0.16136341409E+04  0.12525160098E+03 0.  0.
          5    1    4    4  502    0  0.25743771468E+02 -0.43303374915E+02  0.14844295347E+03  0.15682896570E+03  0.47000000000E+01 0. -1.
         -5    1    4    4    0  502 -0.25642492655E+02  0.52507018121E+02  0.44396090661E+03  0.44781458326E+03  0.47000000000E+01 0. -1.
          5    1    5    5  503    0 -0.36275942658E+02 -0.43457677307E+02  0.12646595748E+04  0.12659346128E+04  0.47000000000E+01 0. -1.
         -5    1    5    5    0  503  0.36174663844E+02  0.34254034101E+02  0.34407982603E+03  0.34769952810E+03  0.47000000000E+01 0. -1.
<mgrwt>
<rscale>  0 0.27518040E+03</rscale>
<asrwt>0</asrwt>
<pdfrwt beam="1">  1        2 0.33995500E+00 0.27518040E+03</pdfrwt>
<pdfrwt beam="2">  1       -2 0.13180348E-02 0.27518040E+03</pdfrwt>
<totfact> 0.82024627E+03</totfact>
</mgrwt>
</event>
<event>
 9    1  0.2074770E-002  0.2749575E+03  0.7818608E-02  0.1098475E+00
         -2   -1    0    0    0  501 -0.00000000000E+00  0.00000000000E+00  0.43145596935E+02  0.43145596935E+02  0.00000000000E+00 0.  1.
          2   -1    0    0  501    0  0.00000000000E+00 -0.00000000000E+00 -0.43806105904E+03  0.43806105904E+03  0.00000000000E+00 0.  1.
         36    2    1    2    0    0 -0.71054273576E-14  0.00000000000E+00 -0.39491546210E+03  0.48120665597E+03  0.27495749407E+03 0.  0.
         25    2    3    3    0    0 -0.40377608534E+02 -0.39426710924E+02 -0.19613316530E+03  0.23892836565E+03  0.12423255842E+03 0.  0.
         25    2    3    3    0    0  0.40377608534E+02  0.39426710924E+02 -0.19878229680E+03  0.24227829033E+03  0.12648933409E+03 0.  0.
          5    1    4    4  502    0  0.24458895438E+02 -0.32763775881E+02 -0.10999512123E+02  0.42600256372E+02  0.47000000000E+01 0. -1.
         -5    1    4    4    0  502 -0.64836503973E+02 -0.66629350430E+01 -0.18513365318E+03  0.19632810927E+03  0.47000000000E+01 0. -1.
          5    1    5    5  503    0  0.40880264864E+02 -0.24361931831E+01 -0.19574689608E+03  0.20004016701E+03  0.47000000000E+01 0.  1.
         -5    1    5    5    0  503 -0.50265632937E+00  0.41862904107E+02 -0.30354007163E+01  0.42238123315E+02  0.47000000000E+01 0.  1.
<mgrwt>
<rscale>  0 0.27495749E+03</rscale>
<asrwt>0</asrwt>
<pdfrwt beam="1">  1        2 0.67394008E-01 0.27495749E+03</pdfrwt>
<pdfrwt beam="2">  1       -2 0.66377842E-02 0.27495749E+03</pdfrwt>
<totfact> 0.90809424E+03</totfact>
</mgrwt>
</event>
<event>
 9    1  0.2074770E-002  0.2753194E+03  0.7818608E-02  0.1098273E+00
          1   -1    0    0  501    0  0.00000000000E+00  0.00000000000E+00  0.37206692932E+04  0.37206692932E+04  0.00000000000E+00 0.  1.
         -1   -1    0    0    0  501 -0.00000000000E+00 -0.00000000000E+00 -0.50932218580E+01  0.50932218580E+01  0.00000000000E+00 0.  1.
         36    2    1    2    0    0  0.35527136788E-14  0.71054273576E-14  0.37155760713E+04  0.37257625151E+04  0.27531940847E+03 0.  0.
         25    2    3    3    0    0 -0.68038405643E+01 -0.29405204604E+02  0.10698191475E+04  0.10768418634E+04  0.11901441978E+03 0.  0.
         25    2    3    3    0    0  0.68038405643E+01  0.29405204604E+02  0.26457569238E+04  0.26489206516E+04  0.12585690446E+03 0.  0.
          5    1    4    4  502    0  0.50306366552E+02 -0.27568359452E+02  0.34590619521E+03  0.35066213203E+03  0.47000000000E+01 0. -1.
         -5    1    4    4    0  502 -0.57110207116E+02 -0.18368451520E+01  0.72391295231E+03  0.72617973139E+03  0.47000000000E+01 0. -1.
          5    1    5    5  503    0 -0.14669689528E+02 -0.45316829714E+02  0.71992634033E+03  0.72151565495E+03  0.47000000000E+01 0. -1.
         -5    1    5    5    0  503  0.21473530093E+02  0.74722034319E+02  0.19258305835E+04  0.19274049967E+04  0.47000000000E+01 0. -1.
<mgrwt>
<rscale>  0 0.27531941E+03</rscale>
<asrwt>0</asrwt>
<pdfrwt beam="1">  1        1 0.57240849E+00 0.27531941E+03</pdfrwt>
<pdfrwt beam="2">  1       -1 0.78357557E-03 0.27531941E+03</pdfrwt>
<totfact> 0.56700915E+02</totfact>
</mgrwt>
</event>
<event>
 9    1  0.2074770E-002  0.2751394E+03  0.7818608E-02  0.1098374E+00
          2   -1    0    0  501    0  0.00000000000E+00  0.00000000000E+00  0.24172203030E+03  0.24172203030E+03  0.00000000000E+00 0. -1.
         -2   -1    0    0    0  501 -0.00000000000E+00 -0.00000000000E+00 -0.78294173863E+02  0.78294173863E+02  0.00000000000E+00 0. -1.
         36    2    1    2    0    0  0.00000000000E+00  0.00000000000E+00  0.16342785644E+03  0.32001620416E+03  0.27513943132E+03 0.  0.
         25    2    3    3    0    0 -0.46620348302E+02  0.32058173863E+01  0.44584055648E+02  0.14033161409E+03  0.12458527101E+03 0.  0.
         25    2    3    3    0    0  0.46620348302E+02 -0.32058173863E+01  0.11884380079E+03  0.17968459007E+03  0.12640794589E+03 0.  0.
          5    1    4    4  502    0 -0.92115429719E+01  0.18324284973E+02 -0.40728169692E+02  0.45842183087E+02  0.47000000000E+01 0.  1.
         -5    1    4    4    0  502 -0.37408805330E+02 -0.15118467587E+02  0.85312225340E+02  0.94489431000E+02  0.47000000000E+01 0.  1.
          5    1    5    5  503    0  0.30461564595E+02  0.60028980284E+02  0.75159497956E+02  0.10100705681E+03  0.47000000000E+01 0.  1.
         -5    1    5    5    0  503  0.16158783707E+02 -0.63234797670E+02  0.43684302833E+02  0.78677533269E+02  0.47000000000E+01 0.  1.
<mgrwt>
<rscale>  0 0.27513943E+03</rscale>
<asrwt>0</asrwt>
<pdfrwt beam="1">  1        2 0.37188004E-01 0.27513943E+03</pdfrwt>
<pdfrwt beam="2">  1       -2 0.12045258E-01 0.27513943E+03</pdfrwt>
<totfact> 0.67479903E+03</totfact>
</mgrwt>
</event>
<event>
 9    1  0.2074770E-002  0.2758446E+03  0.7818608E-02  0.1097980E+00
         -2   -1    0    0    0  501 -0.00000000000E+00  0.00000000000E+00  0.17533688273E+02  0.17533688273E+02  0.00000000000E+00 0. -1.
          2   -1    0    0  501    0  0.00000000000E+00 -0.00000000000E+00 -0.10849148547E+04  0.10849148547E+04  0.00000000000E+00 0. -1.
         36    2    1    2    0    0  0.00000000000E+00  0.71054273576E-14 -0.10673811664E+04  0.11024485429E+04  0.27584458570E+03 0.  0.
         25    2    3    3    0    0 -0.61849595657E+02 -0.10593243416E+02 -0.58041963439E+03  0.59628590124E+03  0.12137682951E+03 0.  0.
         25    2    3    3    0    0  0.61849595657E+02  0.10593243416E+02 -0.48696153200E+03  0.50616264170E+03  0.12301014964E+03 0.  0.
          5    1    4    4  502    0 -0.18115820159E+02 -0.53824071151E+02 -0.13381970413E+03  0.14544764277E+03  0.47000000000E+01 0. -1.
         -5    1    4    4    0  502 -0.43733775498E+02  0.43230827735E+02 -0.44659993027E+03  0.45083825847E+03  0.47000000000E+01 0. -1.
          5    1    5    5  503    0  0.83354926770E+01  0.48811090327E+01  0.45680765998E+01  0.11673173835E+02  0.47000000000E+01 0. -1.
         -5    1    5    5    0  503  0.53514102980E+02  0.57121343831E+01 -0.49152960860E+03  0.49448946786E+03  0.47000000000E+01 0. -1.
<mgrwt>
<rscale>  0 0.27584459E+03</rscale>
<asrwt>0</asrwt>
<pdfrwt beam="1">  1        2 0.16690995E+00 0.27584459E+03</pdfrwt>
<pdfrwt beam="2">  1       -2 0.26974910E-02 0.27584459E+03</pdfrwt>
<totfact> 0.11553664E+04</totfact>
</mgrwt>
</event>
<event>
 9    1  0.2074770E-002  0.2750709E+03  0.7818608E-02  0.1098412E+00
          2   -1    0    0  501    0  0.00000000000E+00  0.00000000000E+00  0.41661802795E+03  0.41661802795E+03  0.00000000000E+00 0. -1.
         -2   -1    0    0    0  501 -0.00000000000E+00 -0.00000000000E+00 -0.45403701621E+02  0.45403701621E+02  0.00000000000E+00 0. -1.
         36    2    1    2    0    0  0.00000000000E+00  0.00000000000E+00  0.37121432633E+03  0.46202172958E+03  0.27507090454E+03 0.  0.
         25    2    3    3    0    0  0.48079379611E+02  0.43787128216E+02  0.12360586267E+03  0.18777450938E+03  0.12550664423E+03 0.  0.
         25    2    3    3    0    0 -0.48079379611E+02 -0.43787128216E+02  0.24760846366E+03  0.27424722019E+03  0.98349617006E+02 0.  0.
          5    1    4    4  502    0  0.21965759820E+02 -0.15675718325E+02  0.11942529469E+03  0.12252637986E+03  0.47000000000E+01 0. -1.
         -5    1    4    4    0  502  0.26113619790E+02  0.59462846541E+02  0.41805679775E+01  0.65248129520E+02  0.47000000000E+01 0. -1.
          5    1    5    5  503    0 -0.90509522871E+01  0.24411323683E+02  0.13041429797E+03  0.13307070142E+03  0.47000000000E+01 0.  1.
         -5    1    5    5    0  503 -0.39028427324E+02 -0.68198451899E+02  0.11719416569E+03  0.14117651877E+03  0.47000000000E+01 0.  1.
<mgrwt>
<rscale>  0 0.27507090E+03</rscale>
<asrwt>0</asrwt>
<pdfrwt beam="1">  1        2 0.64095079E-01 0.27507090E+03</pdfrwt>
<pdfrwt beam="2">  1       -2 0.69851852E-02 0.27507090E+03</pdfrwt>
<totfact> 0.88662092E+03</totfact>
</mgrwt>
</event>
<event>
 9    1  0.2074770E-002  0.2662051E+03  0.7818608E-02  0.1103471E+00
          4   -1    0    0  501    0  0.00000000000E+00  0.00000000000E+00  0.16448696318E+02  0.16448696318E+02  0.00000000000E+00 0. -1.
         -4   -1    0    0    0  501 -0.00000000000E+00 -0.00000000000E+00 -0.10770634785E+04  0.10770634785E+04  0.00000000000E+00 0. -1.
         36    2    1    2    0    0  0.00000000000E+00 -0.71054273576E-14 -0.10606147821E+04  0.10935121748E+04  0.26620510943E+03 0.  0.
         25    2    3    3    0    0  0.46295317932E+01  0.38528711642E+02 -0.60954802611E+03  0.62408232859E+03  0.12815639876E+03 0.  0.
         25    2    3    3    0    0 -0.46295317932E+01 -0.38528711642E+02 -0.45106675604E+03  0.46942984619E+03  0.12408572805E+03 0.  0.
          5    1    4    4  502    0  0.20818426739E+02  0.50331690714E+02 -0.98775471636E+02  0.11289539308E+03  0.47000000000E+01 0.  1.
         -5    1    4    4    0  502 -0.16188894946E+02 -0.11802979072E+02 -0.51077255447E+03  0.51118693551E+03  0.47000000000E+01 0.  1.
          5    1    5    5  503    0 -0.17651074545E+02  0.10037510021E+02 -0.38834729974E+03  0.38890619339E+03  0.47000000000E+01 0. -1.
         -5    1    5    5    0  503  0.13021542752E+02 -0.48566221663E+02 -0.62719456297E+02  0.80523652801E+02  0.47000000000E+01 0. -1.
<mgrwt>
<rscale>  0 0.26620511E+03</rscale>
<asrwt>0</asrwt>
<pdfrwt beam="1">  1        4 0.25305680E-02 0.26620511E+03</pdfrwt>
<pdfrwt beam="2">  1       -4 0.16570212E+00 0.26620511E+03</pdfrwt>
<totfact> 0.31973309E+02</totfact>
</mgrwt>
</event>
<event>
 9    1  0.2074770E-002  0.2748178E+03  0.7818608E-02  0.1098553E+00
          1   -1    0    0  501    0  0.00000000000E+00  0.00000000000E+00  0.16096876102E+04  0.16096876102E+04  0.00000000000E+00 0. -1.
         -1   -1    0    0    0  501 -0.00000000000E+00 -0.00000000000E+00 -0.11729732120E+02  0.11729732120E+02  0.00000000000E+00 0. -1.
         36    2    1    2    0    0  0.00000000000E+00  0.14210854715E-13  0.15979578781E+04  0.16214173423E+04  0.27481779029E+03 0.  0.
         25    2    3    3    0    0  0.53777756455E+02  0.69123058328E+02  0.68516345668E+03  0.69586981415E+03  0.84355151497E+02 0.  0.
         25    2    3    3    0    0 -0.53777756455E+02 -0.69123058328E+02  0.91279442140E+03  0.92554752818E+03  0.12559668345E+03 0.  0.
          5    1    4    4  502    0  0.93545763641E+01 -0.14223295127E+02  0.24638856662E+03  0.24702069951E+03  0.47000000000E+01 0.  1.
         -5    1    4    4    0  502  0.44423180091E+02  0.83346353455E+02  0.43877489006E+03  0.44884911464E+03  0.47000000000E+01 0.  1.
          5    1    5    5  503    0  0.19558602992E+02 -0.28336123498E+02  0.61881133423E+03  0.61978627947E+03  0.47000000000E+01 0.  1.
         -5    1    5    5    0  503 -0.73336359446E+02 -0.40786934830E+02  0.29398308717E+03  0.30576124871E+03  0.47000000000E+01 0.  1.
<mgrwt>
<rscale>  0 0.27481779E+03</rscale>
<asrwt>0</asrwt>
<pdfrwt beam="1">  1        1 0.24764407E+00 0.27481779E+03</pdfrwt>
<pdfrwt beam="2">  1       -1 0.18045755E-02 0.27481779E+03</pdfrwt>
<totfact> 0.48279622E+03</totfact>
</mgrwt>
</event>
<event>
 9    1  0.2074770E-002  0.2724226E+03  0.7818608E-02  0.1099901E+00
         -2   -1    0    0    0  501 -0.00000000000E+00  0.00000000000E+00  0.97238677222E+02  0.97238677222E+02  0.00000000000E+00 0. -1.
          2   -1    0    0  501    0  0.00000000000E+00 -0.00000000000E+00 -0.19080387220E+03  0.19080387220E+03  0.00000000000E+00 0. -1.
         36    2    1    2    0    0  0.00000000000E+00  0.00000000000E+00 -0.93565194980E+02  0.28804254942E+03  0.27242258454E+03 0.  0.
         25    2    3    3    0    0 -0.41998092592E+02 -0.26569491431E+02 -0.31364847563E+02  0.14045699538E+03  0.12757208250E+03 0.  0.
         25    2    3    3    0    0  0.41998092592E+02  0.26569491431E+02 -0.62200347416E+02  0.14758555404E+03  0.12426920329E+03 0.  0.
          5    1    4    4  502    0 -0.28013182014E+02  0.29682900042E+02 -0.62268573365E+02  0.74600791888E+02  0.47000000000E+01 0.  1.
         -5    1    4    4    0  502 -0.13984910578E+02 -0.56252391474E+02  0.30903725801E+02  0.65856203495E+02  0.47000000000E+01 0.  1.
          5    1    5    5  503    0  0.77625676157E+02 -0.14448221786E+02 -0.40825174762E+02  0.89012817087E+02  0.47000000000E+01 0.  1.
         -5    1    5    5    0  503 -0.35627583564E+02  0.41017713217E+02 -0.21375172655E+02  0.58572736953E+02  0.47000000000E+01 0.  1.
<mgrwt>
<rscale>  0 0.27242258E+03</rscale>
<asrwt>0</asrwt>
<pdfrwt beam="1">  1        2 0.29354442E-01 0.27242258E+03</pdfrwt>
<pdfrwt beam="2">  1       -2 0.14959797E-01 0.27242258E+03</pdfrwt>
<totfact> 0.61279534E+03</totfact>
</mgrwt>
</event>
<event>
 9    1  0.2074770E-002  0.2758814E+03  0.7818608E-02  0.1097960E+00
         -3   -1    0    0    0  501 -0.00000000000E+00  0.00000000000E+00  0.23328662840E+03  0.23328662840E+03  0.00000000000E+00 0. -1.
          3   -1    0    0  501    0  0.00000000000E+00 -0.00000000000E+00 -0.81563340811E+02  0.81563340811E+02  0.00000000000E+00 0. -1.
         36    2    1    2    0    0  0.71054273576E-14 -0.14210854715E-13  0.15172328759E+03  0.31484996921E+03  0.27588140045E+03 0.  0.
         25    2    3    3    0    0 -0.51788226866E+02  0.38048079883E+02  0.38624531988E+02  0.13372884059E+03  0.11073333513E+03 0.  0.
         25    2    3    3    0    0  0.51788226866E+02 -0.38048079883E+02  0.11309875560E+03  0.18112112862E+03  0.12603117825E+03 0.  0.
          5    1    4    4  502    0 -0.36837749793E+02  0.76964811863E+02  0.19661445945E+02  0.87688451529E+02  0.47000000000E+01 0. -1.
         -5    1    4    4    0  502 -0.14950477073E+02 -0.38916731980E+02  0.18963086043E+02  0.46040389062E+02  0.47000000000E+01 0. -1.
          5    1    5    5  503    0 -0.38227979381E+02  0.62642076585E+01  0.18658658602E+02  0.43253372654E+02  0.47000000000E+01 0.  1.
         -5    1    5    5    0  503  0.90016206247E+02 -0.44312287541E+02  0.94440097003E+02  0.13786775597E+03  0.47000000000E+01 0.  1.
<mgrwt>
<rscale>  0 0.27588140E+03</rscale>
<asrwt>0</asrwt>
<pdfrwt beam="1">  1        3 0.12548206E-01 0.27588140E+03</pdfrwt>
<pdfrwt beam="2">  1       -3 0.35890250E-01 0.27588140E+03</pdfrwt>
<totfact> 0.98063782E+02</totfact>
</mgrwt>
</event>
<event>
 9    1  0.2074770E-002  0.2751596E+03  0.7818608E-02  0.1098362E+00
         -2   -1    0    0    0  501 -0.00000000000E+00  0.00000000000E+00  0.18845267088E+02  0.18845267088E+02  0.00000000000E+00 0. -1.
          2   -1    0    0  501    0  0.00000000000E+00 -0.00000000000E+00 -0.10044010930E+04  0.10044010930E+04  0.00000000000E+00 0. -1.
         36    2    1    2    0    0  0.71054273576E-14  0.71054273576E-14 -0.98555582593E+03  0.10232463601E+04  0.27515963993E+03 0.  0.
         25    2    3    3    0    0  0.39898520620E+02 -0.49254083972E+02 -0.44667148323E+03  0.46698136713E+03  0.12057498323E+03 0.  0.
         25    2    3    3    0    0 -0.39898520620E+02  0.49254083972E+02 -0.53888434269E+03  0.55626499297E+03  0.12254203714E+03 0.  0.
          5    1    4    4  502    0  0.21965032375E+01 -0.40386024142E+02 -0.35669835951E+02  0.54132086319E+02  0.47000000000E+01 0. -1.
         -5    1    4    4    0  502  0.37702017383E+02 -0.88680598307E+01 -0.41100164728E+03  0.41284928081E+03  0.47000000000E+01 0. -1.
          5    1    5    5  503    0 -0.40415558515E+02 -0.34886322360E+01 -0.45654325169E+03  0.45836603124E+03  0.47000000000E+01 0.  1.
         -5    1    5    5    0  503  0.51703789496E+00  0.52742716208E+02 -0.82341091000E+02  0.97898961733E+02  0.47000000000E+01 0.  1.
<mgrwt>
<rscale>  0 0.27515964E+03</rscale>
<asrwt>0</asrwt>
<pdfrwt beam="1">  1        2 0.15452327E+00 0.27515964E+03</pdfrwt>
<pdfrwt beam="2">  1       -2 0.28992714E-02 0.27515964E+03</pdfrwt>
<totfact> 0.11601946E+04</totfact>
</mgrwt>
</event>
<event>
 9    1  0.2074770E-002  0.2753141E+03  0.7818608E-02  0.1098276E+00
         -1   -1    0    0    0  501 -0.00000000000E+00  0.00000000000E+00  0.36493778826E+03  0.36493778826E+03  0.00000000000E+00 0.  1.
          1   -1    0    0  501    0  0.00000000000E+00 -0.00000000000E+00 -0.51925175548E+02  0.51925175548E+02  0.00000000000E+00 0.  1.
         36    2    1    2    0    0 -0.35527136788E-14 -0.14210854715E-13  0.31301261271E+03  0.41686296381E+03  0.27531406589E+03 0.  0.
         25    2    3    3    0    0  0.69510304426E+01 -0.42444235720E+02  0.91368814669E+02  0.15998488830E+03  0.12408494760E+03 0.  0.
         25    2    3    3    0    0 -0.69510304426E+01  0.42444235720E+02  0.22164379804E+03  0.25687807551E+03  0.12251751914E+03 0.  0.
          5    1    4    4  502    0 -0.36736326257E+02 -0.70169786084E+02  0.56826667916E+02  0.97594655244E+02  0.47000000000E+01 0.  1.
         -5    1    4    4    0  502  0.43687356699E+02  0.27725550363E+02  0.34542146753E+02  0.62390233055E+02  0.47000000000E+01 0.  1.
          5    1    5    5  503    0  0.91683888004E+01  0.80838028338E+02  0.10485373991E+03  0.13279775206E+03  0.47000000000E+01 0. -1.
         -5    1    5    5    0  503 -0.16119419243E+02 -0.38393792618E+02  0.11679005814E+03  0.12408032345E+03  0.47000000000E+01 0. -1.
<mgrwt>
<rscale>  0 0.27531407E+03</rscale>
<asrwt>0</asrwt>
<pdfrwt beam="1">  1        1 0.79884888E-02 0.27531407E+03</pdfrwt>
<pdfrwt beam="2">  1       -1 0.56144273E-01 0.27531407E+03</pdfrwt>
<totfact> 0.28675166E+03</totfact>
</mgrwt>
</event>
<event>
 9    1  0.2074770E-002  0.2755287E+03  0.7818608E-02  0.1098156E+00
         -2   -1    0    0    0  501 -0.00000000000E+00  0.00000000000E+00  0.39879657941E+02  0.39879657941E+02  0.00000000000E+00 0.  1.
          2   -1    0    0  501    0  0.00000000000E+00 -0.00000000000E+00 -0.47590733457E+03  0.47590733457E+03  0.00000000000E+00 0.  1.
         36    2    1    2    0    0  0.71054273576E-14 -0.35527136788E-14 -0.43602767663E+03  0.51578699251E+03  0.27552874053E+03 0.  0.
         25    2    3    3    0    0  0.39852181091E+02  0.25697189881E+02 -0.14091640056E+03  0.19307185848E+03  0.12316967438E+03 0.  0.
         25    2    3    3    0    0 -0.39852181091E+02 -0.25697189881E+02 -0.29511127607E+03  0.32271513402E+03  0.12167929388E+03 0.  0.
          5    1    4    4  502    0 -0.24609803413E+02  0.47033059610E+02 -0.25491130213E+02  0.59073165141E+02  0.47000000000E+01 0.  1.
         -5    1    4    4    0  502  0.64461984504E+02 -0.21335869728E+02 -0.11542527034E+03  0.13399869334E+03  0.47000000000E+01 0.  1.
          5    1    5    5  503    0 -0.73466497988E+02  0.28718198362E+01 -0.24476007311E+03  0.25560742764E+03  0.47000000000E+01 0. -1.
         -5    1    5    5    0  503  0.33614316897E+02 -0.28569009718E+02 -0.50351202954E+02  0.67107706381E+02  0.47000000000E+01 0. -1.
<mgrwt>
<rscale>  0 0.27552874E+03</rscale>
<asrwt>0</asrwt>
<pdfrwt beam="1">  1        2 0.73216517E-01 0.27552874E+03</pdfrwt>
<pdfrwt beam="2">  1       -2 0.61353317E-02 0.27552874E+03</pdfrwt>
<totfact> 0.93562080E+03</totfact>
</mgrwt>
</event>
<event>
 9    1  0.2074770E-002  0.2777519E+03  0.7818608E-02  0.1096923E+00
         -2   -1    0    0    0  501 -0.00000000000E+00  0.00000000000E+00  0.15936527823E+02  0.15936527823E+02  0.00000000000E+00 0. -1.
          2   -1    0    0  501    0  0.00000000000E+00 -0.00000000000E+00 -0.12102086998E+04  0.12102086998E+04  0.00000000000E+00 0. -1.
         36    2    1    2    0    0  0.71054273576E-14 -0.17763568394E-14 -0.11942721720E+04  0.12261452276E+04  0.27775186492E+03 0.  0.
         25    2    3    3    0    0  0.49954902604E+02  0.38663203253E+01 -0.77533637748E+03  0.78641870079E+03  0.12164470388E+03 0.  0.
         25    2    3    3    0    0 -0.49954902604E+02 -0.38663203253E+01 -0.41893579451E+03  0.43972652685E+03  0.12386193024E+03 0.  0.
          5    1    4    4  502    0  0.78535843860E+02 -0.27450029977E+02 -0.39473432829E+03  0.40343359162E+03  0.47000000000E+01 0.  1.
         -5    1    4    4    0  502 -0.28580941255E+02  0.31316350302E+02 -0.38060204918E+03  0.38298510917E+03  0.47000000000E+01 0.  1.
          5    1    5    5  503    0  0.40070113749E+02  0.11729018203E+02 -0.12367407303E+03  0.13061604122E+03  0.47000000000E+01 0.  1.
         -5    1    5    5    0  503 -0.90025016353E+02 -0.15595338528E+02 -0.29526172148E+03  0.30911048562E+03  0.47000000000E+01 0.  1.
<mgrwt>
<rscale>  0 0.27775186E+03</rscale>
<asrwt>0</asrwt>
<pdfrwt beam="1">  1        2 0.18618599E+00 0.27775186E+03</pdfrwt>
<pdfrwt beam="2">  1       -2 0.24517730E-02 0.27775186E+03</pdfrwt>
<totfact> 0.11267151E+04</totfact>
</mgrwt>
</event>
<event>
 9    1  0.2074770E-002  0.2748837E+03  0.7818608E-02  0.1098517E+00
         -1   -1    0    0    0  501 -0.00000000000E+00  0.00000000000E+00  0.76578447724E+02  0.76578447724E+02  0.00000000000E+00 0. -1.
          1   -1    0    0  501    0  0.00000000000E+00 -0.00000000000E+00 -0.24667863041E+03  0.24667863041E+03  0.00000000000E+00 0. -1.
         36    2    1    2    0    0 -0.35527136788E-14  0.00000000000E+00 -0.17010018269E+03  0.32325707813E+03  0.27488373254E+03 0.  0.
         25    2    3    3    0    0 -0.16304434927E+02  0.42923199669E+02 -0.53038414160E+02  0.14257190600E+03  0.12411865024E+03 0.  0.
         25    2    3    3    0    0  0.16304434927E+02 -0.42923199669E+02 -0.11706176853E+03  0.18068517213E+03  0.12975144743E+03 0.  0.
          5    1    4    4  502    0  0.19289208141E+02  0.17852849971E+02  0.35131887003E+02  0.44126378587E+02  0.47000000000E+01 0. -1.
         -5    1    4    4    0  502 -0.35593643068E+02  0.25070349698E+02 -0.88170301163E+02  0.98445527415E+02  0.47000000000E+01 0. -1.
          5    1    5    5  503    0  0.39903120360E+02  0.18067389222E+02  0.27144302798E+01  0.44137826176E+02  0.47000000000E+01 0. -1.
         -5    1    5    5    0  503 -0.23598685433E+02 -0.60990588890E+02 -0.11977619880E+03  0.13654734596E+03  0.47000000000E+01 0. -1.
<mgrwt>
<rscale>  0 0.27488373E+03</rscale>
<asrwt>0</asrwt>
<pdfrwt beam="1">  1        1 0.37950559E-01 0.27488373E+03</pdfrwt>
<pdfrwt beam="2">  1       -1 0.11781300E-01 0.27488373E+03</pdfrwt>
<totfact> 0.52605744E+03</totfact>
</mgrwt>
</event>
<event>
 9    1  0.2074770E-002  0.2757398E+03  0.7818608E-02  0.1098039E+00
          2   -1    0    0  501    0  0.00000000000E+00  0.00000000000E+00  0.13838996954E+04  0.13838996954E+04  0.00000000000E+00 0.  1.
         -2   -1    0    0    0  501 -0.00000000000E+00 -0.00000000000E+00 -0.13735179386E+02  0.13735179386E+02  0.00000000000E+00 0.  1.
         36    2    1    2    0    0  0.00000000000E+00  0.00000000000E+00  0.13701645160E+04  0.13976348748E+04  0.27573980901E+03 0.  0.
         25    2    3    3    0    0  0.38475476599E+02 -0.44882091283E+02  0.82728259225E+03  0.83874486668E+03  0.12490676329E+03 0.  0.
         25    2    3    3    0    0 -0.38475476599E+02  0.44882091283E+02  0.54288192375E+03  0.55889000810E+03  0.11892221660E+03 0.  0.
          5    1    4    4  502    0  0.21684527424E+02 -0.66087052086E+02  0.21866854853E+03  0.22951196331E+03  0.47000000000E+01 0.  1.
         -5    1    4    4    0  502  0.16790949175E+02  0.21204960802E+02  0.60861404372E+03  0.60923290337E+03  0.47000000000E+01 0.  1.
          5    1    5    5  503    0 -0.37819126313E+01  0.19020090032E+02  0.68546665579E+01  0.21098415618E+02  0.47000000000E+01 0. -1.
         -5    1    5    5    0  503 -0.34693563968E+02  0.25862001251E+02  0.53602725719E+03  0.53779159248E+03  0.47000000000E+01 0. -1.
<mgrwt>
<rscale>  0 0.27573981E+03</rscale>
<asrwt>0</asrwt>
<pdfrwt beam="1">  1        2 0.21290753E+00 0.27573981E+03</pdfrwt>
<pdfrwt beam="2">  1       -2 0.21131056E-02 0.27573981E+03</pdfrwt>
<totfact> 0.11237971E+04</totfact>
</mgrwt>
</event>
<event>
 9    1  0.2074770E-002  0.2750801E+03  0.7818608E-02  0.1098407E+00
         -2   -1    0    0    0  501 -0.00000000000E+00  0.00000000000E+00  0.14717535007E+02  0.14717535007E+02  0.00000000000E+00 0.  1.
          2   -1    0    0  501    0  0.00000000000E+00 -0.00000000000E+00 -0.12853556505E+04  0.12853556505E+04  0.00000000000E+00 0.  1.
         36    2    1    2    0    0  0.35527136788E-14 -0.35527136788E-14 -0.12706381155E+04  0.13000731856E+04  0.27508011040E+03 0.  0.
         25    2    3    3    0    0 -0.19614167723E+02  0.28797260328E+02 -0.36058709986E+03  0.38068160808E+03  0.11696765525E+03 0.  0.
         25    2    3    3    0    0  0.19614167723E+02 -0.28797260328E+02 -0.91005101568E+03  0.91939157747E+03  0.12599215768E+03 0.  0.
          5    1    4    4  502    0 -0.45232464249E+02  0.63464006117E+02 -0.24954987105E+03  0.26147826685E+03  0.47000000000E+01 0. -1.
         -5    1    4    4    0  502  0.25618296525E+02 -0.34666745789E+02 -0.11103722881E+03  0.11920334124E+03  0.47000000000E+01 0. -1.
          5    1    5    5  503    0 -0.27577550623E+02 -0.30618564583E+02 -0.10429198101E+03  0.11223602407E+03  0.47000000000E+01 0. -1.
         -5    1    5    5    0  503  0.47191718346E+02  0.18213042547E+01 -0.80575903467E+03  0.80715555340E+03  0.47000000000E+01 0. -1.
<mgrwt>
<rscale>  0 0.27508011E+03</rscale>
<asrwt>0</asrwt>
<pdfrwt beam="1">  1        2 0.19774702E+00 0.27508011E+03</pdfrwt>
<pdfrwt beam="2">  1       -2 0.22642362E-02 0.27508011E+03</pdfrwt>
<totfact> 0.11497657E+04</totfact>
</mgrwt>
</event>
<event>
 9    1  0.2074770E-002  0.2746944E+03  0.7818608E-02  0.1098623E+00
          2   -1    0    0  501    0  0.00000000000E+00  0.00000000000E+00  0.36920360943E+04  0.36920360943E+04  0.00000000000E+00 0.  1.
         -2   -1    0    0    0  501 -0.00000000000E+00 -0.00000000000E+00 -0.51094457016E+01  0.51094457016E+01  0.00000000000E+00 0.  1.
         36    2    1    2    0    0  0.71054273576E-14  0.00000000000E+00  0.36869266486E+04  0.36971455400E+04  0.27469443352E+03 0.  0.
         25    2    3    3    0    0  0.57623008210E+02 -0.29661553243E+02  0.14520307402E+04  0.14589188561E+04  0.12589971960E+03 0.  0.
         25    2    3    3    0    0 -0.57623008210E+02  0.29661553243E+02  0.22348959084E+04  0.22382266839E+04  0.10343475391E+03 0.  0.
          5    1    4    4  502    0  0.74965865927E+02 -0.19270719755E+02  0.14091150178E+04  0.14112471311E+04  0.47000000000E+01 0.  1.
         -5    1    4    4    0  502 -0.17342857717E+02 -0.10390833488E+02  0.42915722411E+02  0.47671724999E+02  0.47000000000E+01 0.  1.
          5    1    5    5  503    0 -0.41643911878E+02  0.92241050882E+01  0.29051935756E+03  0.29367139225E+03  0.47000000000E+01 0. -1.
         -5    1    5    5    0  503 -0.15979096332E+02  0.20437448155E+02  0.19443765508E+04  0.19445552916E+04  0.47000000000E+01 0. -1.
<mgrwt>
<rscale>  0 0.27469443E+03</rscale>
<asrwt>0</asrwt>
<pdfrwt beam="1">  1        2 0.56800342E+00 0.27469443E+03</pdfrwt>
<pdfrwt beam="2">  1       -2 0.78607152E-03 0.27469443E+03</pdfrwt>
<totfact> 0.22703380E+03</totfact>
</mgrwt>
</event>
<event>
 9    1  0.2074770E-002  0.2747892E+03  0.7818608E-02  0.1098569E+00
         -3   -1    0    0    0  501 -0.00000000000E+00  0.00000000000E+00  0.31808849553E+02  0.31808849553E+02  0.00000000000E+00 0.  1.
          3   -1    0    0  501    0  0.00000000000E+00 -0.00000000000E+00 -0.59345999404E+03  0.59345999404E+03  0.00000000000E+00 0.  1.
         36    2    1    2    0    0  0.00000000000E+00 -0.14210854715E-13 -0.56165114449E+03  0.62526884359E+03  0.27478922589E+03 0.  0.
         25    2    3    3    0    0 -0.12373608337E+02  0.63506468227E+02 -0.30559600081E+03  0.33267988792E+03  0.11445878921E+03 0.  0.
         25    2    3    3    0    0  0.12373608337E+02 -0.63506468227E+02 -0.25605514368E+03  0.29258895567E+03  0.12592808538E+03 0.  0.
          5    1    4    4  502    0 -0.27268156476E+02  0.13789769154E+02 -0.99522257712E+01  0.32478406499E+02  0.47000000000E+01 0.  1.
         -5    1    4    4    0  502  0.14894548139E+02  0.49716699073E+02 -0.29564377504E+03  0.30020148142E+03  0.47000000000E+01 0.  1.
          5    1    5    5  503    0  0.15760328562E+02  0.36636194703E+02 -0.57517336377E+02  0.70149359958E+02  0.47000000000E+01 0.  1.
         -5    1    5    5    0  503 -0.33867202248E+01 -0.10014266293E+03 -0.19853780730E+03  0.22243959571E+03  0.47000000000E+01 0.  1.
<mgrwt>
<rscale>  0 0.27478923E+03</rscale>
<asrwt>0</asrwt>
<pdfrwt beam="1">  1        3 0.91301535E-01 0.27478923E+03</pdfrwt>
<pdfrwt beam="2">  1       -3 0.48936693E-02 0.27478923E+03</pdfrwt>
<totfact> 0.66728582E+02</totfact>
</mgrwt>
</event>
<event>
 9    1  0.2074770E-002  0.2754123E+03  0.7818608E-02  0.1098221E+00
          1   -1    0    0  501    0  0.00000000000E+00  0.00000000000E+00  0.43709842831E+03  0.43709842831E+03  0.00000000000E+00 0.  1.
         -1   -1    0    0    0  501 -0.00000000000E+00 -0.00000000000E+00 -0.43383786481E+02  0.43383786481E+02  0.00000000000E+00 0.  1.
         36    2    1    2    0    0  0.71054273576E-14 -0.88817841970E-15  0.39371464183E+03  0.48048221479E+03  0.27541230826E+03 0.  0.
         25    2    3    3    0    0 -0.37444231265E+02  0.85472334533E+00  0.26426226133E+03  0.29760790174E+03  0.13165530527E+03 0.  0.
         25    2    3    3    0    0  0.37444231265E+02 -0.85472334533E+00  0.12945238050E+03  0.18287431305E+03  0.12362157801E+03 0.  0.
          5    1    4    4  502    0 -0.22083540600E+01  0.43158643157E+02  0.21237441110E+02  0.48380411446E+02  0.47000000000E+01 0. -1.
         -5    1    4    4    0  502 -0.35235877205E+02 -0.42303919811E+02  0.24302482022E+03  0.24922749029E+03  0.47000000000E+01 0. -1.
          5    1    5    5  503    0 -0.21364520020E+02 -0.29089983235E+01 -0.15095457411E+02  0.26737012200E+02  0.47000000000E+01 0. -1.
         -5    1    5    5    0  503  0.58808751285E+02  0.20542749782E+01  0.14454783791E+03  0.15613730085E+03  0.47000000000E+01 0. -1.
<mgrwt>
<rscale>  0 0.27541231E+03</rscale>
<asrwt>0</asrwt>
<pdfrwt beam="1">  1        1 0.67245909E-01 0.27541231E+03</pdfrwt>
<pdfrwt beam="2">  1       -1 0.66744290E-02 0.27541231E+03</pdfrwt>
<totfact> 0.60999876E+03</totfact>
</mgrwt>
</event>
<event>
 9    1  0.2074770E-002  0.2747917E+03  0.7818608E-02  0.1098568E+00
          1   -1    0    0  501    0  0.00000000000E+00  0.00000000000E+00  0.64399473751E+03  0.64399473751E+03  0.00000000000E+00 0. -1.
         -1   -1    0    0    0  501 -0.00000000000E+00 -0.00000000000E+00 -0.29313309195E+02  0.29313309195E+02  0.00000000000E+00 0. -1.
         36    2    1    2    0    0  0.71054273576E-14  0.00000000000E+00  0.61468142831E+03  0.67330804670E+03  0.27479168008E+03 0.  0.
         25    2    3    3    0    0  0.12055656049E+02  0.47853858939E+02  0.38391749178E+03  0.40723889091E+03  0.12655253106E+03 0.  0.
         25    2    3    3    0    0 -0.12055656049E+02 -0.47853858939E+02  0.23076393653E+03  0.26606915579E+03  0.12290431482E+03 0.  0.
          5    1    4    4  502    0  0.36855358881E+02  0.83652296170E+02  0.24282586920E+03  0.25950436775E+03  0.47000000000E+01 0. -1.
         -5    1    4    4    0  502 -0.24799702831E+02 -0.35798437231E+02  0.14109162259E+03  0.14773452316E+03  0.47000000000E+01 0. -1.
          5    1    5    5  503    0  0.30816892817E+02 -0.44086396545E+01  0.18983830751E+03  0.19243126041E+03  0.47000000000E+01 0. -1.
         -5    1    5    5    0  503 -0.42872548866E+02 -0.43445219284E+02  0.40925629022E+02  0.73637895378E+02  0.47000000000E+01 0. -1.
<mgrwt>
<rscale>  0 0.27479168E+03</rscale>
<asrwt>0</asrwt>
<pdfrwt beam="1">  1        1 0.99076103E-01 0.27479168E+03</pdfrwt>
<pdfrwt beam="2">  1       -1 0.45097404E-02 0.27479168E+03</pdfrwt>
<totfact> 0.65174897E+03</totfact>
</mgrwt>
</event>
<event>
 9    1  0.2074770E-002  0.2751916E+03  0.7818608E-02  0.1098345E+00
         -2   -1    0    0    0  501 -0.00000000000E+00  0.00000000000E+00  0.11845424038E+02  0.11845424038E+02  0.00000000000E+00 0.  1.
          2   -1    0    0  501    0  0.00000000000E+00 -0.00000000000E+00 -0.15983054027E+04  0.15983054027E+04  0.00000000000E+00 0.  1.
         36    2    1    2    0    0  0.00000000000E+00  0.35527136788E-14 -0.15864599786E+04  0.16101508267E+04  0.27519160770E+03 0.  0.
         25    2    3    3    0    0  0.24155033938E+02  0.23105221677E+02 -0.57600812200E+03  0.59093667303E+03  0.12768507348E+03 0.  0.
         25    2    3    3    0    0 -0.24155033938E+02 -0.23105221677E+02 -0.10104518566E+04  0.10192141537E+04  0.12910158617E+03 0.  0.
          5    1    4    4  502    0 -0.24007546588E+02 -0.17367689269E+02 -0.43987191468E+03  0.44089385372E+03  0.47000000000E+01 0. -1.
         -5    1    4    4    0  502  0.48162580526E+02  0.40472910946E+02 -0.13613620732E+03  0.15004281931E+03  0.47000000000E+01 0. -1.
          5    1    5    5  503    0  0.50110568636E+01 -0.54731423831E+02 -0.19602483737E+03  0.20363807677E+03  0.47000000000E+01 0.  1.
         -5    1    5    5    0  503 -0.29166090802E+02  0.31626202154E+02 -0.81442701927E+03  0.81557607692E+03  0.47000000000E+01 0.  1.
<mgrwt>
<rscale>  0 0.27519161E+03</rscale>
<asrwt>0</asrwt>
<pdfrwt beam="1">  1        2 0.24589317E+00 0.27519161E+03</pdfrwt>
<pdfrwt beam="2">  1       -2 0.18223727E-02 0.27519161E+03</pdfrwt>
<totfact> 0.10720342E+04</totfact>
</mgrwt>
</event>
<event>
 9    1  0.2074770E-002  0.2759341E+03  0.7818608E-02  0.1097931E+00
         -1   -1    0    0    0  501 -0.00000000000E+00  0.00000000000E+00  0.62380147912E+02  0.62380147912E+02  0.00000000000E+00 0. -1.
          1   -1    0    0  501    0  0.00000000000E+00 -0.00000000000E+00 -0.30514365662E+03  0.30514365662E+03  0.00000000000E+00 0. -1.
         36    2    1    2    0    0 -0.14210854715E-13  0.14210854715E-13 -0.24276350871E+03  0.36752380453E+03  0.27593409673E+03 0.  0.
         25    2    3    3    0    0  0.42583443071E+02 -0.68706999475E+02 -0.20527977245E+03  0.25617887261E+03  0.13020686771E+03 0.  0.
         25    2    3    3    0    0 -0.42583443071E+02  0.68706999475E+02 -0.37483736260E+02  0.11134493192E+03  0.66773213033E+02 0.  0.
          5    1    4    4  502    0  0.67682006681E+02  0.11612250829E+02 -0.97850340288E+02  0.11963476707E+03  0.47000000000E+01 0. -1.
         -5    1    4    4    0  502 -0.25098563610E+02 -0.80319250304E+02 -0.10742943216E+03  0.13654410554E+03  0.47000000000E+01 0. -1.
          5    1    5    5  503    0  0.15734303973E+02  0.12561429279E+02  0.26918934303E+01  0.20849319348E+02  0.47000000000E+01 0. -1.
         -5    1    5    5    0  503 -0.58317747044E+02  0.56145570196E+02 -0.40175629690E+02  0.90495612568E+02  0.47000000000E+01 0. -1.
<mgrwt>
<rscale>  0 0.27593410E+03</rscale>
<asrwt>0</asrwt>
<pdfrwt beam="1">  1        1 0.46945179E-01 0.27593410E+03</pdfrwt>
<pdfrwt beam="2">  1       -1 0.95969456E-02 0.27593410E+03</pdfrwt>
<totfact> 0.55363939E+03</totfact>
</mgrwt>
</event>
<event>
 9    1  0.2074770E-002  0.2746126E+03  0.7818608E-02  0.1098668E+00
         -2   -1    0    0    0  501 -0.00000000000E+00  0.00000000000E+00  0.17251577434E+02  0.17251577434E+02  0.00000000000E+00 0.  1.
          2   -1    0    0  501    0  0.00000000000E+00 -0.00000000000E+00 -0.10928290499E+04  0.10928290499E+04  0.00000000000E+00 0.  1.
         36    2    1    2    0    0 -0.71054273576E-14 -0.35527136788E-14 -0.10755774724E+04  0.11100806273E+04  0.27461263610E+03 0.  0.
         25    2    3    3    0    0 -0.53542569906E+02 -0.14162602199E+02 -0.59031990494E+03  0.60591998372E+03  0.12487614029E+03 0.  0.
         25    2    3    3    0    0  0.53542569906E+02  0.14162602199E+02 -0.48525756748E+03  0.50416064356E+03  0.12504263925E+03 0.  0.
          5    1    4    4  502    0  0.21589685122E+02 -0.22959850989E+02 -0.39695588203E+03  0.39823276051E+03  0.47000000000E+01 0.  1.
         -5    1    4    4    0  502 -0.75132255028E+02  0.87972487899E+01 -0.19336402291E+03  0.20768722322E+03  0.47000000000E+01 0.  1.
          5    1    5    5  503    0  0.40799646150E+02 -0.17230564508E+02 -0.45869661158E+03  0.46085374573E+03  0.47000000000E+01 0.  1.
         -5    1    5    5    0  503  0.12742923756E+02  0.31393166706E+02 -0.26560955897E+02  0.43306897833E+02  0.47000000000E+01 0.  1.
<mgrwt>
<rscale>  0 0.27461264E+03</rscale>
<asrwt>0</asrwt>
<pdfrwt beam="1">  1        2 0.16812753E+00 0.27461264E+03</pdfrwt>
<pdfrwt beam="2">  1       -2 0.26540890E-02 0.27461264E+03</pdfrwt>
<totfact> 0.11706825E+04</totfact>
</mgrwt>
</event>
<event>
 9    1  0.2074770E-002  0.2749874E+03  0.7818608E-02  0.1098459E+00
         -2   -1    0    0    0  501 -0.00000000000E+00  0.00000000000E+00  0.19781766907E+02  0.19781766907E+02  0.00000000000E+00 0. -1.
          2   -1    0    0  501    0  0.00000000000E+00 -0.00000000000E+00 -0.95565390556E+03  0.95565390556E+03  0.00000000000E+00 0. -1.
         36    2    1    2    0    0 -0.71054273576E-14  0.00000000000E+00 -0.93587213865E+03  0.97543567246E+03  0.27498743828E+03 0.  0.
         25    2    3    3    0    0 -0.41998860058E+02 -0.35439572696E+02 -0.43401710966E+03  0.45514835442E+03  0.12557589536E+03 0.  0.
         25    2    3    3    0    0  0.41998860058E+02  0.35439572696E+02 -0.50185502899E+03  0.52028731804E+03  0.12577979025E+03 0.  0.
          5    1    4    4  502    0  0.12945625788E+02 -0.36897665025E+02 -0.36100827220E+02  0.53426460086E+02  0.47000000000E+01 0. -1.
         -5    1    4    4    0  502 -0.54944485846E+02  0.14580923282E+01 -0.39791628244E+03  0.40172189433E+03  0.47000000000E+01 0. -1.
          5    1    5    5  503    0  0.79492933638E+02  0.29470057678E+02 -0.43544621526E+03  0.44364750329E+03  0.47000000000E+01 0.  1.
         -5    1    5    5    0  503 -0.37494073580E+02  0.59695150186E+01 -0.66408813736E+02  0.76639814751E+02  0.47000000000E+01 0.  1.
<mgrwt>
<rscale>  0 0.27498744E+03</rscale>
<asrwt>0</asrwt>
<pdfrwt beam="1">  1        2 0.14702371E+00 0.27498744E+03</pdfrwt>
<pdfrwt beam="2">  1       -2 0.30433481E-02 0.27498744E+03</pdfrwt>
<totfact> 0.11570139E+04</totfact>
</mgrwt>
</event>
<event>
 9    1  0.2074770E-002  0.2758706E+03  0.7818608E-02  0.1097966E+00
         -3   -1    0    0    0  501 -0.00000000000E+00  0.00000000000E+00  0.20801195002E+02  0.20801195002E+02  0.00000000000E+00 0. -1.
          3   -1    0    0  501    0  0.00000000000E+00 -0.00000000000E+00 -0.91466616502E+03  0.91466616502E+03  0.00000000000E+00 0. -1.
         36    2    1    2    0    0  0.14210854715E-13  0.00000000000E+00 -0.89386497002E+03  0.93546736002E+03  0.27587061649E+03 0.  0.
         25    2    3    3    0    0 -0.54590366725E+02 -0.16696883782E+02 -0.50938476331E+03  0.52649731548E+03  0.12028171949E+03 0.  0.
         25    2    3    3    0    0  0.54590366725E+02  0.16696883782E+02 -0.38448020670E+03  0.40897004454E+03  0.12717143515E+03 0.  0.
          5    1    4    4  502    0  0.21885631577E+02  0.29275651387E+02 -0.23654570560E+03  0.23939925954E+03  0.47000000000E+01 0.  1.
         -5    1    4    4    0  502 -0.76475998303E+02 -0.45972535169E+02 -0.27283905772E+03  0.28709805594E+03  0.47000000000E+01 0.  1.
          5    1    5    5  503    0  0.57243159059E+02  0.67148248149E+02 -0.23118799319E+03  0.24749877714E+03  0.47000000000E+01 0. -1.
         -5    1    5    5    0  503 -0.26527923334E+01 -0.50451364367E+02 -0.15329221351E+03  0.16147126741E+03  0.47000000000E+01 0. -1.
<mgrwt>
<rscale>  0 0.27587062E+03</rscale>
<asrwt>0</asrwt>
<pdfrwt beam="1">  1        3 0.14071788E+00 0.27587062E+03</pdfrwt>
<pdfrwt beam="2">  1       -3 0.32001838E-02 0.27587062E+03</pdfrwt>
<totfact> 0.47055906E+02</totfact>
</mgrwt>
</event>
<event>
 9    1  0.2074770E-002  0.2752673E+03  0.7818608E-02  0.1098302E+00
         -4   -1    0    0    0  501 -0.00000000000E+00  0.00000000000E+00  0.24244084269E+02  0.24244084269E+02  0.00000000000E+00 0.  1.
          4   -1    0    0  501    0  0.00000000000E+00 -0.00000000000E+00 -0.78134618365E+03  0.78134618365E+03  0.00000000000E+00 0.  1.
         36    2    1    2    0    0  0.00000000000E+00  0.00000000000E+00 -0.75710209938E+03  0.80559026792E+03  0.27526730805E+03 0.  0.
         25    2    3    3    0    0  0.59946353987E+02  0.13019480123E+02 -0.34801484887E+03  0.37465279908E+03  0.12444803174E+03 0.  0.
         25    2    3    3    0    0 -0.59946353987E+02 -0.13019480123E+02 -0.40908725051E+03  0.43093746884E+03  0.12079590764E+03 0.  0.
          5    1    4    4  502    0  0.91097837234E+02  0.37224899192E+02 -0.23316661858E+03  0.25312698609E+03  0.47000000000E+01 0.  1.
         -5    1    4    4    0  502 -0.31151483247E+02 -0.24205419069E+02 -0.11484823030E+03  0.12152581299E+03  0.47000000000E+01 0.  1.
          5    1    5    5  503    0 -0.97103295026E+02 -0.12148284894E+02 -0.30074992778E+03  0.31630561138E+03  0.47000000000E+01 0. -1.
         -5    1    5    5    0  503  0.37156941039E+02 -0.87119522827E+00 -0.10833732273E+03  0.11463185746E+03  0.47000000000E+01 0. -1.
<mgrwt>
<rscale>  0 0.27526731E+03</rscale>
<asrwt>0</asrwt>
<pdfrwt beam="1">  1        4 0.12020711E+00 0.27526731E+03</pdfrwt>
<pdfrwt beam="2">  1       -4 0.37298589E-02 0.27526731E+03</pdfrwt>
<totfact> 0.39415635E+02</totfact>
</mgrwt>
</event>
<event>
 9    1  0.2074770E-002  0.2730330E+03  0.7818608E-02  0.1099556E+00
         -4   -1    0    0    0  501 -0.00000000000E+00  0.00000000000E+00  0.23922721488E+03  0.23922721488E+03  0.00000000000E+00 0.  1.
          4   -1    0    0  501    0  0.00000000000E+00 -0.00000000000E+00 -0.77903992674E+02  0.77903992674E+02  0.00000000000E+00 0.  1.
         36    2    1    2    0    0  0.00000000000E+00  0.35527136788E-14  0.16132322220E+03  0.31713120755E+03  0.27303300310E+03 0.  0.
         25    2    3    3    0    0 -0.38574264631E+02  0.20360917852E+02  0.11626748478E+03  0.17762774932E+03  0.12700767081E+03 0.  0.
         25    2    3    3    0    0  0.38574264631E+02 -0.20360917852E+02  0.45055737427E+02  0.13950345823E+03  0.12461402215E+03 0.  0.
          5    1    4    4  502    0  0.46507449063E+02  0.13658538400E+01  0.35751088139E+02  0.58864579147E+02  0.47000000000E+01 0.  1.
         -5    1    4    4    0  502 -0.85081713694E+02  0.18995064012E+02  0.80516396638E+02  0.11876317017E+03  0.47000000000E+01 0.  1.
          5    1    5    5  503    0  0.25874547197E+02  0.46833600479E+02 -0.59819526881E+01  0.54043982870E+02  0.47000000000E+01 0.  1.
         -5    1    5    5    0  503  0.12699717435E+02 -0.67194518332E+02  0.51037690115E+02  0.85459475361E+02  0.47000000000E+01 0.  1.
<mgrwt>
<rscale>  0 0.27303300E+03</rscale>
<asrwt>0</asrwt>
<pdfrwt beam="1">  1        4 0.11985230E-01 0.27303300E+03</pdfrwt>
<pdfrwt beam="2">  1       -4 0.36804187E-01 0.27303300E+03</pdfrwt>
<totfact> 0.74758981E+02</totfact>
</mgrwt>
</event>
<event>
 9    1  0.2074770E-002  0.2752601E+03  0.7818608E-02  0.1098306E+00
         -2   -1    0    0    0  501 -0.00000000000E+00  0.00000000000E+00  0.85549599194E+02  0.85549599194E+02  0.00000000000E+00 0. -1.
          2   -1    0    0  501    0  0.00000000000E+00 -0.00000000000E+00 -0.22141572962E+03  0.22141572962E+03  0.00000000000E+00 0. -1.
         36    2    1    2    0    0  0.00000000000E+00  0.00000000000E+00 -0.13586613042E+03  0.30696532881E+03  0.27526007283E+03 0.  0.
         25    2    3    3    0    0  0.69587521005E+01  0.53186383460E+02 -0.10931361693E+03  0.17179616636E+03  0.12119092504E+03 0.  0.
         25    2    3    3    0    0 -0.69587521005E+01 -0.53186383460E+02 -0.26552513498E+02  0.13516916246E+03  0.12119591944E+03 0.  0.
          5    1    4    4  502    0  0.39777019044E+02  0.28376302380E+02  0.58312052170E+01  0.49431960664E+02  0.47000000000E+01 0.  1.
         -5    1    4    4    0  502 -0.32818266944E+02  0.24810081080E+02 -0.11514482214E+03  0.12236420569E+03  0.47000000000E+01 0.  1.
          5    1    5    5  503    0  0.79988087115E+00 -0.60984848632E+02 -0.68331136893E+02  0.91711645069E+02  0.47000000000E+01 0. -1.
         -5    1    5    5    0  503 -0.77586329717E+01  0.77984651719E+01  0.41778623395E+02  0.43457517387E+02  0.47000000000E+01 0. -1.
<mgrwt>
<rscale>  0 0.27526007E+03</rscale>
<asrwt>0</asrwt>
<pdfrwt beam="1">  1        2 0.34063959E-01 0.27526007E+03</pdfrwt>
<pdfrwt beam="2">  1       -2 0.13161477E-01 0.27526007E+03</pdfrwt>
<totfact> 0.64281522E+03</totfact>
</mgrwt>
</event>
<event>
 9    1  0.2074770E-002  0.2749171E+03  0.7818608E-02  0.1098498E+00
         -2   -1    0    0    0  501 -0.00000000000E+00  0.00000000000E+00  0.11108236389E+02  0.11108236389E+02  0.00000000000E+00 0.  1.
          2   -1    0    0  501    0  0.00000000000E+00 -0.00000000000E+00 -0.17009764202E+04  0.17009764202E+04  0.00000000000E+00 0.  1.
         36    2    1    2    0    0  0.14210854715E-13  0.00000000000E+00 -0.16898681838E+04  0.17120846566E+04  0.27491706507E+03 0.  0.
         25    2    3    3    0    0  0.52861410913E+02  0.41310546145E+02 -0.82919499498E+03  0.84000500598E+03  0.11637517085E+03 0.  0.
         25    2    3    3    0    0 -0.52861410913E+02 -0.41310546145E+02 -0.86067318880E+03  0.87207965058E+03  0.12354630322E+03 0.  0.
          5    1    4    4  502    0  0.42459974711E+02  0.42044945719E+02 -0.16234100656E+03  0.17305293793E+03  0.47000000000E+01 0.  1.
         -5    1    4    4    0  502  0.10401436202E+02 -0.73439957422E+00 -0.66685398841E+03  0.66695206805E+03  0.47000000000E+01 0.  1.
          5    1    5    5  503    0  0.29783936577E+02  0.17747494979E+02 -0.14193251699E+03  0.14618134572E+03  0.47000000000E+01 0.  1.
         -5    1    5    5    0  503 -0.82645347490E+02 -0.59058041124E+02 -0.71874067181E+03  0.72589830486E+03  0.47000000000E+01 0.  1.
<mgrwt>
<rscale>  0 0.27491707E+03</rscale>
<asrwt>0</asrwt>
<pdfrwt beam="1">  1        2 0.26168887E+00 0.27491707E+03</pdfrwt>
<pdfrwt beam="2">  1       -2 0.17089582E-02 0.27491707E+03</pdfrwt>
<totfact> 0.10397251E+04</totfact>
</mgrwt>
</event>
<event>
 9    1  0.2074770E-002  0.2742205E+03  0.7818608E-02  0.1098888E+00
         -2   -1    0    0    0  501 -0.00000000000E+00  0.00000000000E+00  0.31795182456E+02  0.31795182456E+02  0.00000000000E+00 0. -1.
          2   -1    0    0  501    0  0.00000000000E+00 -0.00000000000E+00 -0.59126005597E+03  0.59126005597E+03  0.00000000000E+00 0. -1.
         36    2    1    2    0    0  0.00000000000E+00  0.71054273576E-14 -0.55946487352E+03  0.62305523843E+03  0.27422050513E+03 0.  0.
         25    2    3    3    0    0  0.14387454537E+02  0.61093126453E+02 -0.19340099618E+03  0.23148569890E+03  0.11064499322E+03 0.  0.
         25    2    3    3    0    0 -0.14387454537E+02 -0.61093126453E+02 -0.36606387734E+03  0.39156953953E+03  0.12403456392E+03 0.  0.
          5    1    4    4  502    0  0.15183818384E+02  0.13736588726E+02  0.95151144657E+01  0.23062298537E+02  0.47000000000E+01 0. -1.
         -5    1    4    4    0  502 -0.79636384631E+00  0.47356537727E+02 -0.20291611064E+03  0.20842340036E+03  0.47000000000E+01 0. -1.
          5    1    5    5  503    0 -0.23254518223E+02 -0.15043946953E+02 -0.63757560600E+01  0.28806825980E+02  0.47000000000E+01 0. -1.
         -5    1    5    5    0  503  0.88670636859E+01 -0.46049179500E+02 -0.35968812128E+03  0.36276271355E+03  0.47000000000E+01 0. -1.
<mgrwt>
<rscale>  0 0.27422051E+03</rscale>
<asrwt>0</asrwt>
<pdfrwt beam="1">  1        2 0.90963090E-01 0.27422051E+03</pdfrwt>
<pdfrwt beam="2">  1       -2 0.48915663E-02 0.27422051E+03</pdfrwt>
<totfact> 0.10341262E+04</totfact>
</mgrwt>
</event>
<event>
 9    1  0.2074770E-002  0.2766310E+03  0.7818608E-02  0.1097543E+00
          1   -1    0    0  501    0  0.00000000000E+00  0.00000000000E+00  0.13412176072E+04  0.13412176072E+04  0.00000000000E+00 0.  1.
         -1   -1    0    0    0  501 -0.00000000000E+00 -0.00000000000E+00 -0.14264041659E+02  0.14264041659E+02  0.00000000000E+00 0.  1.
         36    2    1    2    0    0  0.00000000000E+00  0.00000000000E+00  0.13269535655E+04  0.13554816488E+04  0.27663104542E+03 0.  0.
         25    2    3    3    0    0 -0.57823821713E+02  0.13332729973E+02  0.74170317157E+03  0.75430491687E+03  0.12381824118E+03 0.  0.
         25    2    3    3    0    0  0.57823821713E+02 -0.13332729973E+02  0.58525039396E+03  0.60117673198E+03  0.12399227153E+03 0.  0.
          5    1    4    4  502    0 -0.45285916017E+02  0.62786968165E+02  0.30923804719E+03  0.31881542840E+03  0.47000000000E+01 0.  1.
         -5    1    4    4    0  502 -0.12537905696E+02 -0.49454238192E+02  0.43246512438E+03  0.43548948846E+03  0.47000000000E+01 0.  1.
          5    1    5    5  503    0  0.66880733090E+02 -0.59556044445E+02  0.40551329617E+03  0.41531082126E+03  0.47000000000E+01 0.  1.
         -5    1    5    5    0  503 -0.90569113774E+01  0.46223314472E+02  0.17973709779E+03  0.18586591072E+03  0.47000000000E+01 0.  1.
<mgrwt>
<rscale>  0 0.27663105E+03</rscale>
<asrwt>0</asrwt>
<pdfrwt beam="1">  1        1 0.20634107E+00 0.27663105E+03</pdfrwt>
<pdfrwt beam="2">  1       -1 0.21944690E-02 0.27663105E+03</pdfrwt>
<totfact> 0.54737450E+03</totfact>
</mgrwt>
</event>
<event>
 9    1  0.2074770E-002  0.2746098E+03  0.7818608E-02  0.1098670E+00
          2   -1    0    0  501    0  0.00000000000E+00  0.00000000000E+00  0.77442573753E+03  0.77442573753E+03  0.00000000000E+00 0.  1.
         -2   -1    0    0    0  501 -0.00000000000E+00 -0.00000000000E+00 -0.24344023603E+02  0.24344023603E+02  0.00000000000E+00 0.  1.
         36    2    1    2    0    0  0.00000000000E+00  0.14210854715E-13  0.75008171393E+03  0.79876976114E+03  0.27460982090E+03 0.  0.
         25    2    3    3    0    0 -0.27844527426E+02  0.35644775158E+02  0.27008765588E+03  0.30147494271E+03  0.12607113674E+03 0.  0.
         25    2    3    3    0    0  0.27844527426E+02 -0.35644775158E+02  0.47999405805E+03  0.49729481842E+03  0.12190969185E+03 0.  0.
          5    1    4    4  502    0 -0.30073779675E+02 -0.43034603110E+02  0.81428194927E+02  0.97000258855E+02  0.47000000000E+01 0.  1.
         -5    1    4    4    0  502  0.22292522488E+01  0.78679378268E+02  0.18865946096E+03  0.20447468386E+03  0.47000000000E+01 0.  1.
          5    1    5    5  503    0 -0.39039721447E+02  0.10405985893E+01  0.70516674231E+02  0.80745736981E+02  0.47000000000E+01 0. -1.
         -5    1    5    5    0  503  0.66884248873E+02 -0.36685373747E+02  0.40947738382E+03  0.41654908144E+03  0.47000000000E+01 0. -1.
<mgrwt>
<rscale>  0 0.27460982E+03</rscale>
<asrwt>0</asrwt>
<pdfrwt beam="1">  1        2 0.11914240E+00 0.27460982E+03</pdfrwt>
<pdfrwt beam="2">  1       -2 0.37452350E-02 0.27460982E+03</pdfrwt>
<totfact> 0.11183997E+04</totfact>
</mgrwt>
</event>
<event>
 9    1  0.2074770E-002  0.2744658E+03  0.7818608E-02  0.1098751E+00
          1   -1    0    0  501    0  0.00000000000E+00  0.00000000000E+00  0.36587339065E+03  0.36587339065E+03  0.00000000000E+00 0.  1.
         -1   -1    0    0    0  501 -0.00000000000E+00 -0.00000000000E+00 -0.51473741213E+02  0.51473741213E+02  0.00000000000E+00 0.  1.
         36    2    1    2    0    0 -0.17763568394E-14 -0.71054273576E-14  0.31439964943E+03  0.41734713186E+03  0.27446582466E+03 0.  0.
         25    2    3    3    0    0  0.33307456231E+01 -0.32237964851E+02  0.13428802636E+03  0.18166639561E+03  0.11797891771E+03 0.  0.
         25    2    3    3    0    0 -0.33307456231E+01  0.32237964851E+02  0.18011162307E+03  0.23568073625E+03  0.14850869480E+03 0.  0.
          5    1    4    4  502    0  0.13381211033E+02  0.24383351614E+01  0.14341222098E+03  0.14413243012E+03  0.47000000000E+01 0.  1.
         -5    1    4    4    0  502 -0.10050465410E+02 -0.34676300013E+02 -0.91241946154E+01  0.37533965483E+02  0.47000000000E+01 0.  1.
          5    1    5    5  503    0  0.60767748585E+02  0.28904801700E+02  0.32973547798E+02  0.75083631264E+02  0.47000000000E+01 0.  1.
         -5    1    5    5    0  503 -0.64098494208E+02  0.33331631510E+01  0.14713807527E+03  0.16059710499E+03  0.47000000000E+01 0.  1.
<mgrwt>
<rscale>  0 0.27446582E+03</rscale>
<asrwt>0</asrwt>
<pdfrwt beam="1">  1        1 0.56288212E-01 0.27446582E+03</pdfrwt>
<pdfrwt beam="2">  1       -1 0.79190373E-02 0.27446582E+03</pdfrwt>
<totfact> 0.59088450E+03</totfact>
</mgrwt>
</event>
<event>
 9    1  0.2074770E-002  0.2750343E+03  0.7818608E-02  0.1098432E+00
          1   -1    0    0  501    0  0.00000000000E+00  0.00000000000E+00  0.18310696906E+04  0.18310696906E+04  0.00000000000E+00 0.  1.
         -1   -1    0    0    0  501 -0.00000000000E+00 -0.00000000000E+00 -0.10327826139E+02  0.10327826139E+02  0.00000000000E+00 0.  1.
         36    2    1    2    0    0  0.00000000000E+00  0.00000000000E+00  0.18207418644E+04  0.18413975167E+04  0.27503432086E+03 0.  0.
         25    2    3    3    0    0 -0.55928687518E+02 -0.15913224420E+02  0.99688201079E+03  0.10062958225E+04  0.12440373862E+03 0.  0.
         25    2    3    3    0    0  0.55928687518E+02  0.15913224420E+02  0.82385985365E+03  0.83510169420E+03  0.12356590306E+03 0.  0.
          5    1    4    4  502    0 -0.11817327428E+02  0.34999673461E+02  0.97295495227E+02  0.10417835553E+03  0.47000000000E+01 0. -1.
         -5    1    4    4    0  502 -0.44111360091E+02 -0.50912897881E+02  0.89958651556E+03  0.90211746699E+03  0.47000000000E+01 0. -1.
          5    1    5    5  503    0  0.48461113296E+01  0.81655799690E+01  0.70888107073E+03  0.70896024144E+03  0.47000000000E+01 0. -1.
         -5    1    5    5    0  503  0.51082576189E+02  0.77476444510E+01  0.11497878292E+03  0.12614145277E+03  0.47000000000E+01 0. -1.
<mgrwt>
<rscale>  0 0.27503432E+03</rscale>
<asrwt>0</asrwt>
<pdfrwt beam="1">  1        1 0.28170277E+00 0.27503432E+03</pdfrwt>
<pdfrwt beam="2">  1       -1 0.15888978E-02 0.27503432E+03</pdfrwt>
<totfact> 0.41684779E+03</totfact>
</mgrwt>
</event>
<event>
 9    1  0.2074770E-002  0.2751632E+03  0.7818608E-02  0.1098360E+00
          2   -1    0    0  501    0  0.00000000000E+00  0.00000000000E+00  0.18387030601E+03  0.18387030601E+03  0.00000000000E+00 0.  1.
         -2   -1    0    0    0  501 -0.00000000000E+00 -0.00000000000E+00 -0.10294590069E+03  0.10294590069E+03  0.00000000000E+00 0.  1.
         36    2    1    2    0    0  0.17763568394E-14 -0.71054273576E-14  0.80924405313E+02  0.28681620670E+03  0.27516318259E+03 0.  0.
         25    2    3    3    0    0  0.21774313376E+01 -0.32973208885E+02  0.80040059064E+02  0.15604106796E+03  0.12980920662E+03 0.  0.
         25    2    3    3    0    0 -0.21774313376E+01  0.32973208885E+02  0.88434624871E+00  0.13077513875E+03  0.12652818316E+03 0.  0.
          5    1    4    4  502    0 -0.26359448693E+02 -0.39788075126E+02 -0.19791355260E+02  0.51881588263E+02  0.47000000000E+01 0.  1.
         -5    1    4    4    0  502  0.28536880031E+02  0.68148662401E+01  0.99831414324E+02  0.10415947969E+03  0.47000000000E+01 0.  1.
          5    1    5    5  503    0  0.10173223092E+02  0.76723014305E+02 -0.20670499707E+02  0.80245092998E+02  0.47000000000E+01 0. -1.
         -5    1    5    5    0  503 -0.12350654430E+02 -0.43749805419E+02  0.21554845956E+02  0.50530045747E+02  0.47000000000E+01 0. -1.
<mgrwt>
<rscale>  0 0.27516318E+03</rscale>
<asrwt>0</asrwt>
<pdfrwt beam="1">  1        2 0.28287739E-01 0.27516318E+03</pdfrwt>
<pdfrwt beam="2">  1       -2 0.15837831E-01 0.27516318E+03</pdfrwt>
<totfact> 0.58095233E+03</totfact>
</mgrwt>
</event>
<event>
 9    1  0.2074770E-002  0.2740820E+03  0.7818608E-02  0.1098966E+00
          1   -1    0    0  501    0  0.00000000000E+00  0.00000000000E+00  0.25180589201E+02  0.25180589201E+02  0.00000000000E+00 0. -1.
         -1   -1    0    0    0  501 -0.00000000000E+00 -0.00000000000E+00 -0.74582194906E+03  0.74582194906E+03  0.00000000000E+00 0. -1.
         36    2    1    2    0    0  0.00000000000E+00 -0.71054273576E-14 -0.72064135986E+03  0.77100253826E+03  0.27408200318E+03 0.  0.
         25    2    3    3    0    0 -0.11899612656E+02  0.13287190810E+02 -0.22616451815E+03  0.26052398198E+03  0.12807890418E+03 0.  0.
         25    2    3    3    0    0  0.11899612656E+02 -0.13287190810E+02 -0.49447684170E+03  0.51047855628E+03  0.12555022586E+03 0.  0.
          5    1    4    4  502    0 -0.15884810190E+02 -0.72134178918E+01  0.11812113990E+02  0.21586491826E+02  0.47000000000E+01 0.  1.
         -5    1    4    4    0  502  0.39851975339E+01  0.20500608701E+02 -0.23797663214E+03  0.23893749016E+03  0.47000000000E+01 0.  1.
          5    1    5    5  503    0  0.48569861026E+02  0.30665663323E+02 -0.35486663702E+03  0.35951611143E+03  0.47000000000E+01 0.  1.
         -5    1    5    5    0  503 -0.36670248370E+02 -0.43952854133E+02 -0.13961020468E+03  0.15096244484E+03  0.47000000000E+01 0.  1.
<mgrwt>
<rscale>  0 0.27408200E+03</rscale>
<asrwt>0</asrwt>
<pdfrwt beam="1">  1        1 0.38739369E-02 0.27408200E+03</pdfrwt>
<pdfrwt beam="2">  1       -1 0.11474183E+00 0.27408200E+03</pdfrwt>
<totfact> 0.17474943E+03</totfact>
</mgrwt>
</event>
<event>
 9    1  0.2074770E-002  0.2747770E+03  0.7818608E-02  0.1098576E+00
         -1   -1    0    0    0  501 -0.00000000000E+00  0.00000000000E+00  0.20962778949E+02  0.20962778949E+02  0.00000000000E+00 0. -1.
          1   -1    0    0  501    0  0.00000000000E+00 -0.00000000000E+00 -0.90043421338E+03  0.90043421338E+03  0.00000000000E+00 0. -1.
         36    2    1    2    0    0  0.35527136788E-14  0.00000000000E+00 -0.87947143444E+03  0.92139699233E+03  0.27477702504E+03 0.  0.
         25    2    3    3    0    0 -0.27745211110E+02  0.52380131413E+02 -0.50309653879E+03  0.52130414789E+03  0.12303825565E+03 0.  0.
         25    2    3    3    0    0  0.27745211110E+02 -0.52380131413E+02 -0.37637489564E+03  0.40009284444E+03  0.12207680861E+03 0.  0.
          5    1    4    4  502    0 -0.59473685610E+02  0.69537832891E+02 -0.26378968666E+03  0.27924848840E+03  0.47000000000E+01 0.  1.
         -5    1    4    4    0  502  0.31728474499E+02 -0.17157701478E+02 -0.23930685213E+03  0.24205565949E+03  0.47000000000E+01 0.  1.
          5    1    5    5  503    0  0.42393323275E+02 -0.79221186725E+02 -0.34291599925E+03  0.35452314850E+03  0.47000000000E+01 0.  1.
         -5    1    5    5    0  503 -0.14648112165E+02  0.26841055313E+02 -0.33458896392E+02  0.45569695940E+02  0.47000000000E+01 0.  1.
<mgrwt>
<rscale>  0 0.27477703E+03</rscale>
<asrwt>0</asrwt>
<pdfrwt beam="1">  1        1 0.13852831E+00 0.27477703E+03</pdfrwt>
<pdfrwt beam="2">  1       -1 0.32250435E-02 0.27477703E+03</pdfrwt>
<totfact> 0.64580712E+03</totfact>
</mgrwt>
</event>
<event>
 9    1  0.2074770E-002  0.2739753E+03  0.7818608E-02  0.1099026E+00
          2   -1    0    0  501    0  0.00000000000E+00  0.00000000000E+00  0.15222400183E+04  0.15222400183E+04  0.00000000000E+00 0.  1.
         -2   -1    0    0    0  501 -0.00000000000E+00 -0.00000000000E+00 -0.12327631569E+02  0.12327631569E+02  0.00000000000E+00 0.  1.
         36    2    1    2    0    0 -0.71054273576E-14  0.00000000000E+00  0.15099123868E+04  0.15345676499E+04  0.27397528432E+03 0.  0.
         25    2    3    3    0    0  0.56078110047E+02  0.20323263395E+02  0.95381410443E+03  0.96113003094E+03  0.10223405060E+03 0.  0.
         25    2    3    3    0    0 -0.56078110047E+02 -0.20323263395E+02  0.55609828234E+03  0.57343761897E+03  0.12660021234E+03 0.  0.
          5    1    4    4  502    0  0.19603935297E+01 -0.27489880757E+02  0.88869087285E+02  0.93162982787E+02  0.47000000000E+01 0. -1.
         -5    1    4    4    0  502  0.54117716518E+02  0.47813144153E+02  0.86494501714E+03  0.86796704815E+03  0.47000000000E+01 0. -1.
          5    1    5    5  503    0  0.16730277236E+02 -0.55482003551E+02  0.20236726512E+03  0.21055344900E+03  0.47000000000E+01 0. -1.
         -5    1    5    5    0  503 -0.72808387284E+02  0.35158740156E+02  0.35373101723E+03  0.36288416997E+03  0.47000000000E+01 0. -1.
<mgrwt>
<rscale>  0 0.27397528E+03</rscale>
<asrwt>0</asrwt>
<pdfrwt beam="1">  1        2 0.23419062E+00 0.27397528E+03</pdfrwt>
<pdfrwt beam="2">  1       -2 0.18965599E-02 0.27397528E+03</pdfrwt>
<totfact> 0.11096179E+04</totfact>
</mgrwt>
</event>
<event>
 9    1  0.2074770E-002  0.2748383E+03  0.7818608E-02  0.1098542E+00
         -2   -1    0    0    0  501 -0.00000000000E+00  0.00000000000E+00  0.40799816705E+03  0.40799816705E+03  0.00000000000E+00 0.  1.
          2   -1    0    0  501    0  0.00000000000E+00 -0.00000000000E+00 -0.46284564033E+02  0.46284564033E+02  0.00000000000E+00 0.  1.
         36    2    1    2    0    0  0.00000000000E+00  0.00000000000E+00  0.36171360301E+03  0.45428273108E+03  0.27483825999E+03 0.  0.
         25    2    3    3    0    0  0.45633424902E+02  0.27945233511E+02  0.17116910472E+03  0.21966932259E+03  0.12685583682E+03 0.  0.
         25    2    3    3    0    0 -0.45633424902E+02 -0.27945233511E+02  0.19054449830E+03  0.23461340849E+03  0.12598769807E+03 0.  0.
          5    1    4    4  502    0  0.32569291774E+02 -0.31409941237E+01 -0.10619472268E+02  0.34720135397E+02  0.47000000000E+01 0.  1.
         -5    1    4    4    0  502  0.13064133128E+02  0.31086227635E+02  0.18178857698E+03  0.18494918720E+03  0.47000000000E+01 0.  1.
          5    1    5    5  503    0 -0.64075034116E+02  0.30927479840E+02  0.74617028288E+02  0.10320809036E+03  0.47000000000E+01 0.  1.
         -5    1    5    5    0  503  0.18441609214E+02 -0.58872713351E+02  0.11592747001E+03  0.13140531812E+03  0.47000000000E+01 0.  1.
<mgrwt>
<rscale>  0 0.27483826E+03</rscale>
<asrwt>0</asrwt>
<pdfrwt beam="1">  1        2 0.71207024E-02 0.27483826E+03</pdfrwt>
<pdfrwt beam="2">  1       -2 0.62768946E-01 0.27483826E+03</pdfrwt>
<totfact> 0.23707050E+03</totfact>
</mgrwt>
</event>
<event>
 9    1  0.2074770E-002  0.2745346E+03  0.7818608E-02  0.1098712E+00
         -1   -1    0    0    0  501 -0.00000000000E+00  0.00000000000E+00  0.34012570845E+02  0.34012570845E+02  0.00000000000E+00 0.  1.
          1   -1    0    0  501    0  0.00000000000E+00 -0.00000000000E+00 -0.55398090049E+03  0.55398090049E+03  0.00000000000E+00 0.  1.
         36    2    1    2    0    0 -0.35527136788E-14  0.00000000000E+00 -0.51996832965E+03  0.58799347133E+03  0.27453462167E+03 0.  0.
         25    2    3    3    0    0  0.19600411636E+02  0.67728746757E+02 -0.25078880998E+03  0.28473182333E+03  0.11491659901E+03 0.  0.
         25    2    3    3    0    0 -0.19600411636E+02 -0.67728746757E+02 -0.26917951966E+03  0.30326164801E+03  0.12057634127E+03 0.  0.
          5    1    4    4  502    0  0.39922865005E+02  0.36708872391E+02 -0.32787950404E+02  0.63549320642E+02  0.47000000000E+01 0.  1.
         -5    1    4    4    0  502 -0.20322453369E+02  0.31019874365E+02 -0.21800085958E+03  0.22118250268E+03  0.47000000000E+01 0.  1.
          5    1    5    5  503    0  0.39053478027E+02 -0.62274224314E+02 -0.19482791434E+03  0.20828648388E+03  0.47000000000E+01 0.  1.
         -5    1    5    5    0  503 -0.58653889663E+02 -0.54545224429E+01 -0.74351605324E+02  0.94975164132E+02  0.47000000000E+01 0.  1.
<mgrwt>
<rscale>  0 0.27453462E+03</rscale>
<asrwt>0</asrwt>
<pdfrwt beam="1">  1        1 0.85227823E-01 0.27453462E+03</pdfrwt>
<pdfrwt beam="2">  1       -1 0.52327037E-02 0.27453462E+03</pdfrwt>
<totfact> 0.64292661E+03</totfact>
</mgrwt>
</event>
<event>
 9    1  0.2074770E-002  0.2789197E+03  0.7818608E-02  0.1096280E+00
         -1   -1    0    0    0  501 -0.00000000000E+00  0.00000000000E+00  0.49421497419E+03  0.49421497419E+03  0.00000000000E+00 0.  1.
          1   -1    0    0  501    0  0.00000000000E+00 -0.00000000000E+00 -0.39353417464E+02  0.39353417464E+02  0.00000000000E+00 0.  1.
         36    2    1    2    0    0  0.35527136788E-14  0.00000000000E+00  0.45486155673E+03  0.53356839165E+03  0.27891968877E+03 0.  0.
         25    2    3    3    0    0 -0.26207124158E+01 -0.15106760939E+02  0.39136534981E+03  0.41128370434E+03  0.12550843025E+03 0.  0.
         25    2    3    3    0    0  0.26207124158E+01  0.15106760939E+02  0.63496206912E+02  0.12228468731E+03  0.10337646782E+03 0.  0.
          5    1    4    4  502    0  0.13986432252E+02  0.55798275943E+01  0.38263983076E+03  0.38296486111E+03  0.47000000000E+01 0. -1.
         -5    1    4    4    0  502 -0.16607144668E+02 -0.20686588534E+02  0.87255190541E+01  0.28318843231E+02  0.47000000000E+01 0. -1.
          5    1    5    5  503    0  0.49370567906E+02 -0.89371617261E+01  0.40769313613E+02  0.64819385739E+02  0.47000000000E+01 0. -1.
         -5    1    5    5    0  503 -0.46749855491E+02  0.24043922666E+02  0.22726893299E+02  0.57465301570E+02  0.47000000000E+01 0. -1.
<mgrwt>
<rscale>  0 0.27891969E+03</rscale>
<asrwt>0</asrwt>
<pdfrwt beam="1">  1        1 0.60543723E-02 0.27891969E+03</pdfrwt>
<pdfrwt beam="2">  1       -1 0.76033069E-01 0.27891969E+03</pdfrwt>
<totfact> 0.23092749E+03</totfact>
</mgrwt>
</event>
<event>
 9    1  0.2074770E-002  0.2740007E+03  0.7818608E-02  0.1099011E+00
          1   -1    0    0  501    0  0.00000000000E+00  0.00000000000E+00  0.39895723926E+02  0.39895723926E+02  0.00000000000E+00 0. -1.
         -1   -1    0    0    0  501 -0.00000000000E+00 -0.00000000000E+00 -0.47045397988E+03  0.47045397988E+03  0.00000000000E+00 0. -1.
         36    2    1    2    0    0  0.00000000000E+00  0.17763568394E-14 -0.43055825595E+03  0.51034970380E+03  0.27400074526E+03 0.  0.
         25    2    3    3    0    0  0.38324361277E+02  0.19753423968E+00 -0.13640716259E+03  0.18707551414E+03  0.12215374861E+03 0.  0.
         25    2    3    3    0    0 -0.38324361277E+02 -0.19753423968E+00 -0.29415109336E+03  0.32327418966E+03  0.12850112952E+03 0.  0.
          5    1    4    4  502    0  0.12091837338E+01 -0.37654125546E+02 -0.12760420546E+03  0.13313233471E+03  0.47000000000E+01 0. -1.
         -5    1    4    4    0  502  0.37115177543E+02  0.37851659786E+02 -0.88029571350E+01  0.53943179429E+02  0.47000000000E+01 0. -1.
          5    1    5    5  503    0 -0.84633869263E+02 -0.78864398532E+01 -0.21336507376E+03  0.22972120595E+03  0.47000000000E+01 0. -1.
         -5    1    5    5    0  503  0.46309507986E+02  0.76889056136E+01 -0.80786019596E+02  0.93552983713E+02  0.47000000000E+01 0. -1.
<mgrwt>
<rscale>  0 0.27400075E+03</rscale>
<asrwt>0</asrwt>
<pdfrwt beam="1">  1        1 0.61378039E-02 0.27400075E+03</pdfrwt>
<pdfrwt beam="2">  1       -1 0.72377533E-01 0.27400075E+03</pdfrwt>
<totfact> 0.25035748E+03</totfact>
</mgrwt>
</event>
<event>
 9    1  0.2074770E-002  0.2743643E+03  0.7818608E-02  0.1098807E+00
         -1   -1    0    0    0  501 -0.00000000000E+00  0.00000000000E+00  0.21920446480E+03  0.21920446480E+03  0.00000000000E+00 0.  1.
          1   -1    0    0  501    0  0.00000000000E+00 -0.00000000000E+00 -0.85851085528E+02  0.85851085528E+02  0.00000000000E+00 0.  1.
         36    2    1    2    0    0  0.71054273576E-14 -0.35527136788E-14  0.13335337928E+03  0.30505555033E+03  0.27436429255E+03 0.  0.
         25    2    3    3    0    0  0.47551399830E+02 -0.10775014228E+02  0.60202313365E+02  0.14950020776E+03  0.12786225803E+03 0.  0.
         25    2    3    3    0    0 -0.47551399830E+02  0.10775014228E+02  0.73151065912E+02  0.15555534257E+03  0.12833218459E+03 0.  0.
          5    1    4    4  502    0 -0.13195396228E+02  0.44554107149E+02 -0.13558784940E+01  0.46723819963E+02  0.47000000000E+01 0. -1.
         -5    1    4    4    0  502  0.60746796057E+02 -0.55329121377E+02  0.61558191859E+02  0.10277638780E+03  0.47000000000E+01 0. -1.
          5    1    5    5  503    0  0.34067277283E+02  0.36226205931E+02  0.15378315491E+02  0.52263753835E+02  0.47000000000E+01 0.  1.
         -5    1    5    5    0  503 -0.81618677113E+02 -0.25451191703E+02  0.57772750421E+02  0.10329158874E+03  0.47000000000E+01 0.  1.
<mgrwt>
<rscale>  0 0.27436429E+03</rscale>
<asrwt>0</asrwt>
<pdfrwt beam="1">  1        1 0.13207859E-01 0.27436429E+03</pdfrwt>
<pdfrwt beam="2">  1       -1 0.33723764E-01 0.27436429E+03</pdfrwt>
<totfact> 0.36637912E+03</totfact>
</mgrwt>
</event>
<event>
 9    1  0.2074770E-002  0.2747706E+03  0.7818608E-02  0.1098580E+00
         -2   -1    0    0    0  501 -0.00000000000E+00  0.00000000000E+00  0.76595931859E+02  0.76595931859E+02  0.00000000000E+00 0. -1.
          2   -1    0    0  501    0  0.00000000000E+00 -0.00000000000E+00 -0.24641937711E+03  0.24641937711E+03  0.00000000000E+00 0. -1.
         36    2    1    2    0    0 -0.88817841970E-15 -0.35527136788E-14 -0.16982344525E+03  0.32301530897E+03  0.27477060846E+03 0.  0.
         25    2    3    3    0    0 -0.52214220266E+01  0.28059194079E+02 -0.29344548398E+02  0.13279089527E+03  0.12632393964E+03 0.  0.
         25    2    3    3    0    0  0.52214220266E+01 -0.28059194079E+02 -0.14047889685E+03  0.19022441370E+03  0.12504569359E+03 0.  0.
          5    1    4    4  502    0 -0.28336244685E+02  0.29256094230E+02 -0.72674676355E+02  0.83441958245E+02  0.47000000000E+01 0.  1.
         -5    1    4    4    0  502  0.23114822659E+02 -0.11969001515E+01  0.43330127958E+02  0.49348937024E+02  0.47000000000E+01 0.  1.
          5    1    5    5  503    0 -0.10454005424E+01 -0.63369526892E+02 -0.23461049036E+02  0.67744377056E+02  0.47000000000E+01 0. -1.
         -5    1    5    5    0  503  0.62668225690E+01  0.35310332813E+02 -0.11701784782E+03  0.12248003664E+03  0.47000000000E+01 0. -1.
<mgrwt>
<rscale>  0 0.27477061E+03</rscale>
<asrwt>0</asrwt>
<pdfrwt beam="1">  1        2 0.37910673E-01 0.27477061E+03</pdfrwt>
<pdfrwt beam="2">  1       -2 0.11783990E-01 0.27477061E+03</pdfrwt>
<totfact> 0.68466276E+03</totfact>
</mgrwt>
</event>
<event>
 9    1  0.2074770E-002  0.2745028E+03  0.7818608E-02  0.1098730E+00
         -1   -1    0    0    0  501 -0.00000000000E+00  0.00000000000E+00  0.19244855875E+02  0.19244855875E+02  0.00000000000E+00 0. -1.
          1   -1    0    0  501    0  0.00000000000E+00 -0.00000000000E+00 -0.97885595284E+03  0.97885595284E+03  0.00000000000E+00 0. -1.
         36    2    1    2    0    0  0.71054273576E-14  0.00000000000E+00 -0.95961109696E+03  0.99810080872E+03  0.27450276308E+03 0.  0.
         25    2    3    3    0    0 -0.46991753618E+02 -0.39898229245E+02 -0.42294096168E+03  0.44476834294E+03  0.12304360289E+03 0.  0.
         25    2    3    3    0    0  0.46991753618E+02  0.39898229245E+02 -0.53667013529E+03  0.55333246578E+03  0.11984110300E+03 0.  0.
          5    1    4    4  502    0  0.25477693797E+02  0.27577011111E+02 -0.13712352490E+03  0.14224821793E+03  0.47000000000E+01 0.  1.
         -5    1    4    4    0  502 -0.72469447415E+02 -0.67475240356E+02 -0.28581743677E+03  0.30252012501E+03  0.47000000000E+01 0.  1.
          5    1    5    5  503    0 -0.16684172098E+02  0.55633672297E+02 -0.36265517872E+03  0.36730686863E+03  0.47000000000E+01 0.  1.
         -5    1    5    5    0  503  0.63675925716E+02 -0.15735443051E+02 -0.17401495656E+03  0.18602559714E+03  0.47000000000E+01 0.  1.
<mgrwt>
<rscale>  0 0.27450276E+03</rscale>
<asrwt>0</asrwt>
<pdfrwt beam="1">  1        1 0.15059324E+00 0.27450276E+03</pdfrwt>
<pdfrwt beam="2">  1       -1 0.29607468E-02 0.27450276E+03</pdfrwt>
<totfact> 0.63759729E+03</totfact>
</mgrwt>
</event>
<event>
 9    1  0.2074770E-002  0.2752801E+03  0.7818608E-02  0.1098295E+00
         -3   -1    0    0    0  501 -0.00000000000E+00  0.00000000000E+00  0.13199076083E+02  0.13199076083E+02  0.00000000000E+00 0.  1.
          3   -1    0    0  501    0  0.00000000000E+00 -0.00000000000E+00 -0.14353113598E+04  0.14353113598E+04  0.00000000000E+00 0.  1.
         36    2    1    2    0    0  0.35527136788E-14  0.00000000000E+00 -0.14221122837E+04  0.14485104359E+04  0.27528010346E+03 0.  0.
         25    2    3    3    0    0  0.27485855054E+02 -0.50255139584E+02 -0.57946900703E+03  0.59559933938E+03  0.12519261833E+03 0.  0.
         25    2    3    3    0    0 -0.27485855054E+02  0.50255139584E+02 -0.84264327668E+03  0.85291109650E+03  0.11886376866E+03 0.  0.
          5    1    4    4  502    0  0.67580474934E+01  0.14039487937E+02 -0.44255872005E+03  0.44285786559E+03  0.47000000000E+01 0.  1.
         -5    1    4    4    0  502  0.20727807561E+02 -0.64294627521E+02 -0.13691028698E+03  0.15274147379E+03  0.47000000000E+01 0.  1.
          5    1    5    5  503    0 -0.42865640239E+02  0.72571718516E+02 -0.37171231926E+03  0.38117745963E+03  0.47000000000E+01 0.  1.
         -5    1    5    5    0  503  0.15379785185E+02 -0.22316578932E+02 -0.47093095743E+03  0.47173363687E+03  0.47000000000E+01 0.  1.
<mgrwt>
<rscale>  0 0.27528010E+03</rscale>
<asrwt>0</asrwt>
<pdfrwt beam="1">  1        3 0.22081714E+00 0.27528010E+03</pdfrwt>
<pdfrwt beam="2">  1       -3 0.20306270E-02 0.27528010E+03</pdfrwt>
<totfact> 0.28484297E+02</totfact>
</mgrwt>
</event>
<event>
 9    1  0.2074770E-002  0.2752542E+03  0.7818608E-02  0.1098310E+00
          2   -1    0    0  501    0  0.00000000000E+00  0.00000000000E+00  0.18364910842E+04  0.18364910842E+04  0.00000000000E+00 0.  1.
         -2   -1    0    0    0  501 -0.00000000000E+00 -0.00000000000E+00 -0.10313810566E+02  0.10313810566E+02  0.00000000000E+00 0.  1.
         36    2    1    2    0    0  0.17763568394E-14 -0.71054273576E-14  0.18261772737E+04  0.18468048948E+04  0.27525421813E+03 0.  0.
         25    2    3    3    0    0 -0.68323881257E+00 -0.42453685109E+02  0.10486680394E+04  0.10573178443E+04  0.12811551378E+03 0.  0.
         25    2    3    3    0    0  0.68323881257E+00  0.42453685109E+02  0.77750923425E+03  0.78948705046E+03  0.13025517765E+03 0.  0.
          5    1    4    4  502    0  0.13820965839E+02  0.33606259043E+02  0.65818567271E+03  0.65920472504E+03  0.47000000000E+01 0.  1.
         -5    1    4    4    0  502 -0.14504204652E+02 -0.76059944151E+02  0.39048236671E+03  0.39811311931E+03  0.47000000000E+01 0.  1.
          5    1    5    5  503    0 -0.45025458873E+02 -0.20744552751E+02  0.45182221554E+03  0.45455806326E+03  0.47000000000E+01 0. -1.
         -5    1    5    5    0  503  0.45708697685E+02  0.63198237860E+02  0.32568701871E+03  0.33492898720E+03  0.47000000000E+01 0. -1.
<mgrwt>
<rscale>  0 0.27525422E+03</rscale>
<asrwt>0</asrwt>
<pdfrwt beam="1">  1        2 0.28253683E+00 0.27525422E+03</pdfrwt>
<pdfrwt beam="2">  1       -2 0.15867415E-02 0.27525422E+03</pdfrwt>
<totfact> 0.98386295E+03</totfact>
</mgrwt>
</event>
<event>
 9    1  0.2074770E-002  0.2753431E+03  0.7818608E-02  0.1098260E+00
         -2   -1    0    0    0  501 -0.00000000000E+00  0.00000000000E+00  0.20654999574E+02  0.20654999574E+02  0.00000000000E+00 0.  1.
          2   -1    0    0  501    0  0.00000000000E+00 -0.00000000000E+00 -0.91762061236E+03  0.91762061236E+03  0.00000000000E+00 0.  1.
         36    2    1    2    0    0  0.00000000000E+00 -0.71054273576E-14 -0.89696561279E+03  0.93827561194E+03  0.27534308313E+03 0.  0.
         25    2    3    3    0    0 -0.47792545017E+01 -0.44341765744E+02 -0.36829500317E+03  0.39384418512E+03  0.13222329343E+03 0.  0.
         25    2    3    3    0    0  0.47792545017E+01  0.44341765744E+02 -0.52867060962E+03  0.54443142682E+03  0.12216354437E+03 0.  0.
          5    1    4    4  502    0 -0.41178643813E+02  0.29742145356E+02 -0.89156807815E+02  0.10271953221E+03  0.47000000000E+01 0. -1.
         -5    1    4    4    0  502  0.36399389311E+02 -0.74083911100E+02 -0.27913819536E+03  0.29112465291E+03  0.47000000000E+01 0. -1.
          5    1    5    5  503    0  0.58903910785E+02  0.43116662320E+02 -0.35497535624E+03  0.36243387095E+03  0.47000000000E+01 0.  1.
         -5    1    5    5    0  503 -0.54124656284E+02  0.12251034241E+01 -0.17369525338E+03  0.18199755587E+03  0.47000000000E+01 0.  1.
<mgrwt>
<rscale>  0 0.27534308E+03</rscale>
<asrwt>0</asrwt>
<pdfrwt beam="1">  1        2 0.14117243E+00 0.27534308E+03</pdfrwt>
<pdfrwt beam="2">  1       -2 0.31776917E-02 0.27534308E+03</pdfrwt>
<totfact> 0.11467400E+04</totfact>
</mgrwt>
</event>
<event>
 9    1  0.2074770E-002  0.2726295E+03  0.7818608E-02  0.1099784E+00
         -1   -1    0    0    0  501 -0.00000000000E+00  0.00000000000E+00  0.30236125556E+02  0.30236125556E+02  0.00000000000E+00 0.  1.
          1   -1    0    0  501    0  0.00000000000E+00 -0.00000000000E+00 -0.61455350192E+03  0.61455350192E+03  0.00000000000E+00 0.  1.
         36    2    1    2    0    0 -0.35527136788E-14 -0.17763568394E-14 -0.58431737636E+03  0.64478962747E+03  0.27262954238E+03 0.  0.
         25    2    3    3    0    0 -0.24075026934E+02 -0.72443584039E+01 -0.21222168727E+03  0.24564878011E+03  0.12113294751E+03 0.  0.
         25    2    3    3    0    0  0.24075026934E+02  0.72443584039E+01 -0.37209568909E+03  0.39914084736E+03  0.14221858718E+03 0.  0.
          5    1    4    4  502    0  0.96015889638E+00  0.54718617918E+02 -0.75184074056E+02  0.93111675120E+02  0.47000000000E+01 0. -1.
         -5    1    4    4    0  502 -0.25035185830E+02 -0.61962976322E+02 -0.13703761321E+03  0.15253710499E+03  0.47000000000E+01 0. -1.
          5    1    5    5  503    0 -0.46893320177E+02 -0.12624244441E+02 -0.54831940400E+02  0.73396094671E+02  0.47000000000E+01 0. -1.
         -5    1    5    5    0  503  0.70968347111E+02  0.19868602845E+02 -0.31726374869E+03  0.32574475269E+03  0.47000000000E+01 0. -1.
<mgrwt>
<rscale>  0 0.27262954E+03</rscale>
<asrwt>0</asrwt>
<pdfrwt beam="1">  1        1 0.94546689E-01 0.27262954E+03</pdfrwt>
<pdfrwt beam="2">  1       -1 0.46517118E-02 0.27262954E+03</pdfrwt>
<totfact> 0.66449589E+03</totfact>
</mgrwt>
</event>
<event>
 9    1  0.2074770E-002  0.2771206E+03  0.7818608E-02  0.1097272E+00
          2   -1    0    0  501    0  0.00000000000E+00  0.00000000000E+00  0.43689707800E+03  0.43689707800E+03  0.00000000000E+00 0.  1.
         -2   -1    0    0    0  501 -0.00000000000E+00 -0.00000000000E+00 -0.43943893226E+02  0.43943893226E+02  0.00000000000E+00 0.  1.
         36    2    1    2    0    0  0.71054273576E-14  0.71054273576E-14  0.39295318478E+03  0.48084097123E+03  0.27712061307E+03 0.  0.
         25    2    3    3    0    0  0.35958957509E+02 -0.33205360332E+02  0.23838024277E+03  0.27366134094E+03  0.12517885925E+03 0.  0.
         25    2    3    3    0    0 -0.35958957509E+02  0.33205360332E+02  0.15457294201E+03  0.20717963029E+03  0.12897659565E+03 0.  0.
          5    1    4    4  502    0 -0.38485293876E+02  0.14600035747E+02  0.11117513063E+03  0.11864349354E+03  0.47000000000E+01 0.  1.
         -5    1    4    4    0  502  0.74444251385E+02 -0.47805396079E+02  0.12720511214E+03  0.15501784740E+03  0.47000000000E+01 0.  1.
          5    1    5    5  503    0  0.16938333195E+02  0.59176701548E+02  0.28621030765E+02  0.68044415932E+02  0.47000000000E+01 0.  1.
         -5    1    5    5    0  503 -0.52897290704E+02 -0.25971341216E+02  0.12595191124E+03  0.13913521436E+03  0.47000000000E+01 0.  1.
<mgrwt>
<rscale>  0 0.27712061E+03</rscale>
<asrwt>0</asrwt>
<pdfrwt beam="1">  1        2 0.67214932E-01 0.27712061E+03</pdfrwt>
<pdfrwt beam="2">  1       -2 0.67605993E-02 0.27712061E+03</pdfrwt>
<totfact> 0.88558848E+03</totfact>
</mgrwt>
</event>
<event>
 9    1  0.2074770E-002  0.2747934E+03  0.7818608E-02  0.1098567E+00
         -2   -1    0    0    0  501 -0.00000000000E+00  0.00000000000E+00  0.76152432608E+02  0.76152432608E+02  0.00000000000E+00 0. -1.
          2   -1    0    0  501    0  0.00000000000E+00 -0.00000000000E+00 -0.24789565063E+03  0.24789565063E+03  0.00000000000E+00 0. -1.
         36    2    1    2    0    0  0.00000000000E+00 -0.71054273576E-14 -0.17174321802E+03  0.32404808324E+03  0.27479342662E+03 0.  0.
         25    2    3    3    0    0 -0.11873983273E+02  0.52644386953E+02 -0.10387396362E+03  0.17177415442E+03  0.12571450534E+03 0.  0.
         25    2    3    3    0    0  0.11873983273E+02 -0.52644386953E+02 -0.67869254401E+02  0.15227392881E+03  0.12517464099E+03 0.  0.
          5    1    4    4  502    0 -0.63747535654E+02  0.45813653972E+02 -0.37497420856E+02  0.87125115570E+02  0.47000000000E+01 0.  1.
         -5    1    4    4    0  502  0.51873552381E+02  0.68307329806E+01 -0.66376542761E+02  0.84649038852E+02  0.47000000000E+01 0.  1.
          5    1    5    5  503    0  0.61677880561E+02 -0.46078835532E+02 -0.66434930473E+02  0.10179936160E+03  0.47000000000E+01 0.  1.
         -5    1    5    5    0  503 -0.49803897288E+02 -0.65655514202E+01 -0.14343239280E+01  0.50474567216E+02  0.47000000000E+01 0.  1.
<mgrwt>
<rscale>  0 0.27479343E+03</rscale>
<asrwt>0</asrwt>
<pdfrwt beam="1">  1        2 0.38137793E-01 0.27479343E+03</pdfrwt>
<pdfrwt beam="2">  1       -2 0.11715759E-01 0.27479343E+03</pdfrwt>
<totfact> 0.68665281E+03</totfact>
</mgrwt>
</event>
<event>
 9    1  0.2074770E-002  0.2797193E+03  0.7818608E-02  0.1095842E+00
          2   -1    0    0  501    0  0.00000000000E+00  0.00000000000E+00  0.14976075731E+04  0.14976075731E+04  0.00000000000E+00 0.  1.
         -2   -1    0    0    0  501 -0.00000000000E+00 -0.00000000000E+00 -0.13061311705E+02  0.13061311705E+02  0.00000000000E+00 0.  1.
         36    2    1    2    0    0  0.00000000000E+00  0.00000000000E+00  0.14845462614E+04  0.15106688848E+04  0.27971928302E+03 0.  0.
         25    2    3    3    0    0  0.52990914259E+02  0.25119702066E+02  0.75428333038E+03  0.76679344151E+03  0.12485913276E+03 0.  0.
         25    2    3    3    0    0 -0.52990914259E+02 -0.25119702066E+02  0.73026293099E+03  0.74387544326E+03  0.12894840166E+03 0.  0.
          5    1    4    4  502    0  0.36190325629E+02  0.54597742322E+02  0.18199740195E+03  0.19348332603E+03  0.47000000000E+01 0. -1.
         -5    1    4    4    0  502  0.16800588630E+02 -0.29478040256E+02  0.57228592843E+03  0.57331011548E+03  0.47000000000E+01 0. -1.
          5    1    5    5  503    0 -0.71184901289E+02 -0.58040084117E+02  0.35561062260E+03  0.36731042245E+03  0.47000000000E+01 0. -1.
         -5    1    5    5    0  503  0.18193987030E+02  0.32920382051E+02  0.37465230838E+03  0.37656502081E+03  0.47000000000E+01 0. -1.
<mgrwt>
<rscale>  0 0.27971928E+03</rscale>
<asrwt>0</asrwt>
<pdfrwt beam="1">  1        2 0.23040103E+00 0.27971928E+03</pdfrwt>
<pdfrwt beam="2">  1       -2 0.20094337E-02 0.27971928E+03</pdfrwt>
<totfact> 0.10510049E+04</totfact>
</mgrwt>
</event>
<event>
 9    1  0.2074770E-002  0.2750044E+03  0.7818608E-02  0.1098449E+00
         -3   -1    0    0    0  501 -0.00000000000E+00  0.00000000000E+00  0.67058959433E+02  0.67058959433E+02  0.00000000000E+00 0.  1.
          3   -1    0    0  501    0  0.00000000000E+00 -0.00000000000E+00 -0.28194380555E+03  0.28194380555E+03  0.00000000000E+00 0.  1.
         36    2    1    2    0    0  0.00000000000E+00  0.00000000000E+00 -0.21488484612E+03  0.34900276499E+03  0.27500442338E+03 0.  0.
         25    2    3    3    0    0  0.11917014999E+01 -0.27627740699E+02 -0.82120660592E+02  0.15340442735E+03  0.12658753187E+03 0.  0.
         25    2    3    3    0    0 -0.11917014999E+01  0.27627740699E+02 -0.13276418553E+03  0.19559833764E+03  0.14095271732E+03 0.  0.
          5    1    4    4  502    0 -0.34305933114E+02 -0.63669218442E+02 -0.24315595132E+02  0.76446089439E+02  0.47000000000E+01 0. -1.
         -5    1    4    4    0  502  0.35497634614E+02  0.36041477743E+02 -0.57805065459E+02  0.76958337910E+02  0.47000000000E+01 0. -1.
          5    1    5    5  503    0 -0.43128803334E+02  0.70914212134E+02 -0.79521376591E+02  0.11504198579E+03  0.47000000000E+01 0. -1.
         -5    1    5    5    0  503  0.41937101834E+02 -0.43286471435E+02 -0.53242808938E+02  0.80556351848E+02  0.47000000000E+01 0. -1.
<mgrwt>
<rscale>  0 0.27500442E+03</rscale>
<asrwt>0</asrwt>
<pdfrwt beam="1">  1        3 0.43375970E-01 0.27500442E+03</pdfrwt>
<pdfrwt beam="2">  1       -3 0.10316763E-01 0.27500442E+03</pdfrwt>
<totfact> 0.94427588E+02</totfact>
</mgrwt>
</event>
<event>
 9    1  0.2074770E-002  0.2724402E+03  0.7818608E-02  0.1099891E+00
         -2   -1    0    0    0  501 -0.00000000000E+00  0.00000000000E+00  0.18981016461E+02  0.18981016461E+02  0.00000000000E+00 0. -1.
          2   -1    0    0  501    0  0.00000000000E+00 -0.00000000000E+00 -0.97760403548E+03  0.97760403548E+03  0.00000000000E+00 0. -1.
         36    2    1    2    0    0  0.00000000000E+00  0.00000000000E+00 -0.95862301902E+03  0.99658505194E+03  0.27244021942E+03 0.  0.
         25    2    3    3    0    0  0.36750812423E+02  0.99293618163E+01 -0.62098424900E+03  0.63484693320E+03  0.12633280113E+03 0.  0.
         25    2    3    3    0    0 -0.36750812423E+02 -0.99293618163E+01 -0.33763877001E+03  0.36173811874E+03  0.12411814168E+03 0.  0.
          5    1    4    4  502    0 -0.23252487569E+02  0.43656795861E+02 -0.40684543614E+03  0.40986814089E+03  0.47000000000E+01 0. -1.
         -5    1    4    4    0  502  0.60003299991E+02 -0.33727434045E+02 -0.21413881286E+03  0.22497879231E+03  0.47000000000E+01 0. -1.
          5    1    5    5  503    0 -0.25016927432E+02  0.54618136160E+02 -0.20521913189E+03  0.21388307448E+03  0.47000000000E+01 0. -1.
         -5    1    5    5    0  503 -0.11733884991E+02 -0.64547497977E+02 -0.13241963813E+03  0.14785504426E+03  0.47000000000E+01 0. -1.
<mgrwt>
<rscale>  0 0.27244022E+03</rscale>
<asrwt>0</asrwt>
<pdfrwt beam="1">  1        2 0.15040064E+00 0.27244022E+03</pdfrwt>
<pdfrwt beam="2">  1       -2 0.29201559E-02 0.27244022E+03</pdfrwt>
<totfact> 0.11919068E+04</totfact>
</mgrwt>
</event>
<event>
 9    1  0.2074770E-002  0.2743401E+03  0.7818608E-02  0.1098821E+00
         -2   -1    0    0    0  501 -0.00000000000E+00  0.00000000000E+00  0.39736914001E+02  0.39736914001E+02  0.00000000000E+00 0.  1.
          2   -1    0    0  501    0  0.00000000000E+00 -0.00000000000E+00 -0.47350499970E+03  0.47350499970E+03  0.00000000000E+00 0.  1.
         36    2    1    2    0    0  0.00000000000E+00  0.00000000000E+00 -0.43376808570E+03  0.51324191370E+03  0.27434013525E+03 0.  0.
         25    2    3    3    0    0  0.34335411432E+02 -0.14000639043E+02 -0.26017762046E+03  0.29227274154E+03  0.12789066773E+03 0.  0.
         25    2    3    3    0    0 -0.34335411432E+02  0.14000639043E+02 -0.17359046524E+03  0.22096917215E+03  0.13160086264E+03 0.  0.
          5    1    4    4  502    0 -0.29210087722E+02  0.39882065232E+02 -0.10105828001E+03  0.11259961949E+03  0.47000000000E+01 0. -1.
         -5    1    4    4    0  502  0.63545499154E+02 -0.53882704275E+02 -0.15911934045E+03  0.17967312205E+03  0.47000000000E+01 0. -1.
          5    1    5    5  503    0  0.48485482369E+02 -0.99761576037E+01 -0.53276382109E+02  0.72875432155E+02  0.47000000000E+01 0. -1.
         -5    1    5    5    0  503 -0.82820893801E+02  0.23976796647E+02 -0.12031408313E+03  0.14809374000E+03  0.47000000000E+01 0. -1.
<mgrwt>
<rscale>  0 0.27434014E+03</rscale>
<asrwt>0</asrwt>
<pdfrwt beam="1">  1        2 0.72846920E-01 0.27434014E+03</pdfrwt>
<pdfrwt beam="2">  1       -2 0.61133716E-02 0.27434014E+03</pdfrwt>
<totfact> 0.94592683E+03</totfact>
</mgrwt>
</event>
<event>
 9    1  0.2074770E-002  0.2753047E+03  0.7818608E-02  0.1098281E+00
         -2   -1    0    0    0  501 -0.00000000000E+00  0.00000000000E+00  0.11785326389E+02  0.11785326389E+02  0.00000000000E+00 0.  1.
          2   -1    0    0  501    0  0.00000000000E+00 -0.00000000000E+00 -0.16077759656E+04  0.16077759656E+04  0.00000000000E+00 0.  1.
         36    2    1    2    0    0  0.00000000000E+00 -0.71054273576E-14 -0.15959906392E+04  0.16195612920E+04  0.27530466407E+03 0.  0.
         25    2    3    3    0    0  0.25738614511E+02  0.40118215627E+02 -0.60108055850E+03  0.61557130897E+03  0.12392841125E+03 0.  0.
         25    2    3    3    0    0 -0.25738614511E+02 -0.40118215627E+02 -0.99491008068E+03  0.10039899830E+04  0.12600741964E+03 0.  0.
          5    1    4    4  502    0  0.47112711070E+02  0.25735760572E+02 -0.98242975767E+02  0.11205226104E+03  0.47000000000E+01 0.  1.
         -5    1    4    4    0  502 -0.21374096559E+02  0.14382455055E+02 -0.50283758274E+03  0.50351904793E+03  0.47000000000E+01 0.  1.
          5    1    5    5  503    0 -0.61293563669E+02  0.13606427833E+02 -0.33023025103E+03  0.33617873895E+03  0.47000000000E+01 0.  1.
         -5    1    5    5    0  503  0.35554949158E+02 -0.53724643460E+02 -0.66467982965E+03  0.66781124404E+03  0.47000000000E+01 0.  1.
<mgrwt>
<rscale>  0 0.27530466E+03</rscale>
<asrwt>0</asrwt>
<pdfrwt beam="1">  1        2 0.24735028E+00 0.27530466E+03</pdfrwt>
<pdfrwt beam="2">  1       -2 0.18131262E-02 0.27530466E+03</pdfrwt>
<totfact> 0.10676699E+04</totfact>
</mgrwt>
</event>
<event>
 9    1  0.2074770E-002  0.2804267E+03  0.7818608E-02  0.1095456E+00
          2   -1    0    0  501    0  0.00000000000E+00  0.00000000000E+00  0.31184926113E+03  0.31184926113E+03  0.00000000000E+00 0. -1.
         -2   -1    0    0    0  501 -0.00000000000E+00 -0.00000000000E+00 -0.63042596896E+02  0.63042596896E+02  0.00000000000E+00 0. -1.
         36    2    1    2    0    0 -0.35527136788E-14  0.35527136788E-14  0.24880666424E+03  0.37489185803E+03  0.28042672670E+03 0.  0.
         25    2    3    3    0    0  0.30550823762E+02 -0.15848249470E+02  0.41544994875E+02  0.13291393296E+03  0.12147266002E+03 0.  0.
         25    2    3    3    0    0 -0.30550823762E+02  0.15848249470E+02  0.20726166936E+03  0.24197792507E+03  0.12004747723E+03 0.  0.
          5    1    4    4  502    0  0.21266508457E+02 -0.65792975708E+02  0.37196606293E+01  0.69403932956E+02  0.47000000000E+01 0. -1.
         -5    1    4    4    0  502  0.92843153043E+01  0.49944726239E+02  0.37825334246E+02  0.63510000004E+02  0.47000000000E+01 0. -1.
          5    1    5    5  503    0  0.26243687456E+02 -0.67388485079E+00  0.16963352809E+03  0.17171723590E+03  0.47000000000E+01 0. -1.
         -5    1    5    5    0  503 -0.56794511218E+02  0.16522134321E+02  0.37628141268E+02  0.70260689167E+02  0.47000000000E+01 0. -1.
<mgrwt>
<rscale>  0 0.28042673E+03</rscale>
<asrwt>0</asrwt>
<pdfrwt beam="1">  1        2 0.47976808E-01 0.28042673E+03</pdfrwt>
<pdfrwt beam="2">  1       -2 0.96988613E-02 0.28042673E+03</pdfrwt>
<totfact> 0.72587145E+03</totfact>
</mgrwt>
</event>
<event>
 9    1  0.2074770E-002  0.2723661E+03  0.7818608E-02  0.1099933E+00
         -1   -1    0    0    0  501 -0.00000000000E+00  0.00000000000E+00  0.26027628336E+02  0.26027628336E+02  0.00000000000E+00 0.  1.
          1   -1    0    0  501    0  0.00000000000E+00 -0.00000000000E+00 -0.71254380149E+03  0.71254380149E+03  0.00000000000E+00 0.  1.
         36    2    1    2    0    0  0.53290705182E-14  0.00000000000E+00 -0.68651617315E+03  0.73857142982E+03  0.27236611565E+03 0.  0.
         25    2    3    3    0    0 -0.15240887047E+02  0.21588364542E+02 -0.34410757957E+03  0.37354990936E+03  0.14293763096E+03 0.  0.
         25    2    3    3    0    0  0.15240887047E+02 -0.21588364542E+02 -0.34240859358E+03  0.36502152046E+03  0.12368800799E+03 0.  0.
          5    1    4    4  502    0 -0.28079005550E+02  0.66896889362E+02 -0.30058982415E+03  0.30925710459E+03  0.47000000000E+01 0.  1.
         -5    1    4    4    0  502  0.12838118503E+02 -0.45308524821E+02 -0.43517755420E+02  0.64292804768E+02  0.47000000000E+01 0.  1.
          5    1    5    5  503    0  0.42639449334E+02  0.40060910752E+02 -0.16821646579E+03  0.17816247801E+03  0.47000000000E+01 0.  1.
         -5    1    5    5    0  503 -0.27398562287E+02 -0.61649275293E+02 -0.17419212780E+03  0.18685904245E+03  0.47000000000E+01 0.  1.
<mgrwt>
<rscale>  0 0.27236612E+03</rscale>
<asrwt>0</asrwt>
<pdfrwt beam="1">  1        1 0.10962213E+00 0.27236612E+03</pdfrwt>
<pdfrwt beam="2">  1       -1 0.40042504E-02 0.27236612E+03</pdfrwt>
<totfact> 0.67220332E+03</totfact>
</mgrwt>
</event>
<event>
 9    1  0.2074770E-002  0.2727777E+03  0.7818608E-02  0.1099700E+00
          2   -1    0    0  501    0  0.00000000000E+00  0.00000000000E+00  0.59994080142E+03  0.59994080142E+03  0.00000000000E+00 0.  1.
         -2   -1    0    0    0  501 -0.00000000000E+00 -0.00000000000E+00 -0.31006250570E+02  0.31006250570E+02  0.00000000000E+00 0.  1.
         36    2    1    2    0    0  0.00000000000E+00  0.35527136788E-14  0.56893455085E+03  0.63094705199E+03  0.27277767369E+03 0.  0.
         25    2    3    3    0    0  0.92456849524E+01  0.12469519293E+02  0.17591534854E+03  0.21828509524E+03  0.12830121336E+03 0.  0.
         25    2    3    3    0    0 -0.92456849524E+01 -0.12469519293E+02  0.39301920231E+03  0.41266195675E+03  0.12483919884E+03 0.  0.
          5    1    4    4  502    0 -0.12975270275E+02  0.42662129952E+02  0.17482948774E+03  0.18048782439E+03  0.47000000000E+01 0. -1.
         -5    1    4    4    0  502  0.22220955228E+02 -0.30192610659E+02  0.10858608033E+01  0.37797270845E+02  0.47000000000E+01 0. -1.
          5    1    5    5  503    0  0.22869977679E+02 -0.34110163934E+01  0.62256625380E+01  0.24403274082E+02  0.47000000000E+01 0. -1.
         -5    1    5    5    0  503 -0.32115662632E+02 -0.90585028997E+01  0.38679353977E+03  0.38825868267E+03  0.47000000000E+01 0. -1.
<mgrwt>
<rscale>  0 0.27277767E+03</rscale>
<asrwt>0</asrwt>
<pdfrwt beam="1">  1        2 0.92298576E-01 0.27277767E+03</pdfrwt>
<pdfrwt beam="2">  1       -2 0.47701928E-02 0.27277767E+03</pdfrwt>
<totfact> 0.10560910E+04</totfact>
</mgrwt>
</event>
<event>
 9    1  0.2074770E-002  0.2753608E+03  0.7818608E-02  0.1098250E+00
          2   -1    0    0  501    0  0.00000000000E+00  0.00000000000E+00  0.54608979580E+03  0.54608979580E+03  0.00000000000E+00 0. -1.
         -2   -1    0    0    0  501 -0.00000000000E+00 -0.00000000000E+00 -0.34712051287E+02  0.34712051287E+02  0.00000000000E+00 0. -1.
         36    2    1    2    0    0  0.00000000000E+00  0.00000000000E+00  0.51137774451E+03  0.58080184709E+03  0.27536083236E+03 0.  0.
         25    2    3    3    0    0 -0.37591233684E+02 -0.10174173205E+02  0.32772707335E+03  0.34975431346E+03  0.11578614136E+03 0.  0.
         25    2    3    3    0    0  0.37591233684E+02  0.10174173205E+02  0.18365067117E+03  0.23104753362E+03  0.13468028484E+03 0.  0.
          5    1    4    4  502    0 -0.69709192758E+02  0.17648510638E+02  0.14283272461E+03  0.15998161989E+03  0.47000000000E+01 0.  1.
         -5    1    4    4    0  502  0.32117959073E+02 -0.27822683843E+02  0.18489434874E+03  0.18977269358E+03  0.47000000000E+01 0.  1.
          5    1    5    5  503    0  0.42089448780E+02  0.40595736350E+02  0.16380898041E+02  0.60909435468E+02  0.47000000000E+01 0. -1.
         -5    1    5    5    0  503 -0.44982150957E+01 -0.30421563145E+02  0.16726977312E+03  0.17013809816E+03  0.47000000000E+01 0. -1.
<mgrwt>
<rscale>  0 0.27536083E+03</rscale>
<asrwt>0</asrwt>
<pdfrwt beam="1">  1        2 0.84013809E-01 0.27536083E+03</pdfrwt>
<pdfrwt beam="2">  1       -2 0.53403160E-02 0.27536083E+03</pdfrwt>
<totfact> 0.99136448E+03</totfact>
</mgrwt>
</event>
<event>
 9    1  0.2074770E-002  0.2747425E+03  0.7818608E-02  0.1098596E+00
          4   -1    0    0  501    0  0.00000000000E+00  0.00000000000E+00  0.15610326149E+03  0.15610326149E+03  0.00000000000E+00 0.  1.
         -4   -1    0    0    0  501 -0.00000000000E+00 -0.00000000000E+00 -0.12088701747E+03  0.12088701747E+03  0.00000000000E+00 0.  1.
         36    2    1    2    0    0 -0.71054273576E-14 -0.71054273576E-14  0.35216244019E+02  0.27699027896E+03  0.27474248087E+03 0.  0.
         25    2    3    3    0    0  0.37352852904E+02  0.34518885514E+02  0.33931995637E+02  0.14097941237E+03  0.12703159177E+03 0.  0.
         25    2    3    3    0    0 -0.37352852904E+02 -0.34518885514E+02  0.12842483821E+01  0.13601086659E+03  0.12613689968E+03 0.  0.
          5    1    4    4  502    0 -0.14024539903E+02  0.71528324587E+02  0.13494574221E+02  0.74277738732E+02  0.47000000000E+01 0. -1.
         -5    1    4    4    0  502  0.51377392806E+02 -0.37009439074E+02  0.20437421416E+02  0.66701673639E+02  0.47000000000E+01 0. -1.
          5    1    5    5  503    0 -0.74324537645E+02 -0.23413520802E+02  0.34039999452E+02  0.85165376857E+02  0.47000000000E+01 0.  1.
         -5    1    5    5    0  503  0.36971684742E+02 -0.11105364712E+02 -0.32755751070E+02  0.50845489733E+02  0.47000000000E+01 0.  1.
<mgrwt>
<rscale>  0 0.27474248E+03</rscale>
<asrwt>0</asrwt>
<pdfrwt beam="1">  1        4 0.24015886E-01 0.27474248E+03</pdfrwt>
<pdfrwt beam="2">  1       -4 0.18598003E-01 0.27474248E+03</pdfrwt>
<totfact> 0.77855855E+02</totfact>
</mgrwt>
</event>
<event>
 9    1  0.2074770E-002  0.2748232E+03  0.7818608E-02  0.1098550E+00
          2   -1    0    0  501    0  0.00000000000E+00  0.00000000000E+00  0.10867290071E+03  0.10867290071E+03  0.00000000000E+00 0. -1.
         -2   -1    0    0    0  501 -0.00000000000E+00 -0.00000000000E+00 -0.17375026461E+03  0.17375026461E+03  0.00000000000E+00 0. -1.
         36    2    1    2    0    0  0.00000000000E+00  0.00000000000E+00 -0.65077363897E+02  0.28242316532E+03  0.27482318137E+03 0.  0.
         25    2    3    3    0    0  0.36896464354E+02 -0.41992106388E+02 -0.36392661829E+02  0.14293632508E+03  0.12641867390E+03 0.  0.
         25    2    3    3    0    0 -0.36896464354E+02  0.41992106388E+02 -0.28684702068E+02  0.13948684024E+03  0.12453545835E+03 0.  0.
          5    1    4    4  502    0  0.30235275299E+02 -0.12763094403E+02 -0.81833950406E+02  0.88294699106E+02  0.47000000000E+01 0.  1.
         -5    1    4    4    0  502  0.66611890546E+01 -0.29229011985E+02  0.45441288577E+02  0.54641625971E+02  0.47000000000E+01 0.  1.
          5    1    5    5  503    0 -0.62595502177E+02  0.38110378465E+02 -0.62603074109E+02  0.96497837941E+02  0.47000000000E+01 0. -1.
         -5    1    5    5    0  503  0.25699037823E+02  0.38817279231E+01  0.33918372041E+02  0.42989002298E+02  0.47000000000E+01 0. -1.
<mgrwt>
<rscale>  0 0.27482318E+03</rscale>
<asrwt>0</asrwt>
<pdfrwt beam="1">  1        2 0.16718908E-01 0.27482318E+03</pdfrwt>
<pdfrwt beam="2">  1       -2 0.26730810E-01 0.27482318E+03</pdfrwt>
<totfact> 0.42927367E+03</totfact>
</mgrwt>
</event>
<event>
 9    1  0.2074770E-002  0.2746038E+03  0.7818608E-02  0.1098673E+00
         -1   -1    0    0    0  501 -0.00000000000E+00  0.00000000000E+00  0.11546136727E+03  0.11546136727E+03  0.00000000000E+00 0. -1.
          1   -1    0    0  501    0  0.00000000000E+00 -0.00000000000E+00 -0.16327379766E+03  0.16327379766E+03  0.00000000000E+00 0. -1.
         36    2    1    2    0    0  0.00000000000E+00  0.35527136788E-14 -0.47812430395E+02  0.27873516493E+03  0.27460383040E+03 0.  0.
         25    2    3    3    0    0  0.19379873067E+02  0.30248301951E+02 -0.62693681031E+02  0.14780736564E+03  0.12894177153E+03 0.  0.
         25    2    3    3    0    0 -0.19379873067E+02 -0.30248301951E+02  0.14881250636E+02  0.13092779929E+03  0.12502038936E+03 0.  0.
          5    1    4    4  502    0  0.36929772578E+02 -0.25066825316E+02 -0.75834974404E+02  0.88120299460E+02  0.47000000000E+01 0. -1.
         -5    1    4    4    0  502 -0.17549899511E+02  0.55315127267E+02  0.13141293374E+02  0.59687066178E+02  0.47000000000E+01 0. -1.
          5    1    5    5  503    0 -0.40471437310E+02 -0.22107619989E+02  0.62612452363E+02  0.77904385566E+02  0.47000000000E+01 0.  1.
         -5    1    5    5    0  503  0.21091564242E+02 -0.81406819619E+01 -0.47731201727E+02  0.53023413727E+02  0.47000000000E+01 0.  1.
<mgrwt>
<rscale>  0 0.27460383E+03</rscale>
<asrwt>0</asrwt>
<pdfrwt beam="1">  1        1 0.25119046E-01 0.27460383E+03</pdfrwt>
<pdfrwt beam="2">  1       -1 0.17763287E-01 0.27460383E+03</pdfrwt>
<totfact> 0.46221572E+03</totfact>
</mgrwt>
</event>
<event>
 9    1  0.2074770E-002  0.2754152E+03  0.7818608E-02  0.1098220E+00
          2   -1    0    0  501    0  0.00000000000E+00  0.00000000000E+00  0.18694294585E+03  0.18694294585E+03  0.00000000000E+00 0. -1.
         -2   -1    0    0    0  501 -0.00000000000E+00 -0.00000000000E+00 -0.10143938449E+03  0.10143938449E+03  0.00000000000E+00 0. -1.
         36    2    1    2    0    0  0.00000000000E+00  0.00000000000E+00  0.85503561366E+02  0.28838233034E+03  0.27541515834E+03 0.  0.
         25    2    3    3    0    0 -0.13177536353E+02  0.25226989555E+02 -0.31535839328E+01  0.12656638163E+03  0.12328444915E+03 0.  0.
         25    2    3    3    0    0  0.13177536353E+02 -0.25226989555E+02  0.88657145299E+02  0.16181594871E+03  0.13234146507E+03 0.  0.
          5    1    4    4  502    0 -0.46868301956E+02 -0.21318060793E+01 -0.45660193561E+02  0.65636313131E+02  0.47000000000E+01 0.  1.
         -5    1    4    4    0  502  0.33690765603E+02  0.27358795634E+02  0.42506609628E+02  0.60930068501E+02  0.47000000000E+01 0.  1.
          5    1    5    5  503    0  0.31103486160E+02 -0.29947125340E+02  0.11859150864E+03  0.12629446975E+03  0.47000000000E+01 0. -1.
         -5    1    5    5    0  503 -0.17925949807E+02  0.47201357846E+01 -0.29934363346E+02  0.35521478956E+02  0.47000000000E+01 0. -1.
<mgrwt>
<rscale>  0 0.27541516E+03</rscale>
<asrwt>0</asrwt>
<pdfrwt beam="1">  1        2 0.28760453E-01 0.27541516E+03</pdfrwt>
<pdfrwt beam="2">  1       -2 0.15606059E-01 0.27541516E+03</pdfrwt>
<totfact> 0.58459327E+03</totfact>
</mgrwt>
</event>
<event>
 9    1  0.2074770E-002  0.2747563E+03  0.7818608E-02  0.1098588E+00
          2   -1    0    0  501    0  0.00000000000E+00  0.00000000000E+00  0.51579762046E+03  0.51579762046E+03  0.00000000000E+00 0. -1.
         -2   -1    0    0    0  501 -0.00000000000E+00 -0.00000000000E+00 -0.36589461599E+02  0.36589461599E+02  0.00000000000E+00 0. -1.
         36    2    1    2    0    0  0.00000000000E+00 -0.88817841970E-15  0.47920815886E+03  0.55238708206E+03  0.27475630822E+03 0.  0.
         25    2    3    3    0    0 -0.51803370688E+02  0.59892418600E+01  0.23950490820E+03  0.27740612029E+03  0.12989262601E+03 0.  0.
         25    2    3    3    0    0  0.51803370688E+02 -0.59892418600E+01  0.23970325066E+03  0.27498096177E+03  0.12424741738E+03 0.  0.
          5    1    4    4  502    0  0.34772657048E+02 -0.28516141623E+02  0.60400772567E+02  0.75449660953E+02  0.47000000000E+01 0.  1.
         -5    1    4    4    0  502 -0.86576027736E+02  0.34505383483E+02  0.17910413563E+03  0.20195645934E+03  0.47000000000E+01 0.  1.
          5    1    5    5  503    0  0.71338572253E+02  0.10914862694E+01  0.24310985259E+03  0.25340653831E+03  0.47000000000E+01 0.  1.
         -5    1    5    5    0  503 -0.19535201565E+02 -0.70807281295E+01 -0.34066019223E+01  0.21574423461E+02  0.47000000000E+01 0.  1.
<mgrwt>
<rscale>  0 0.27475631E+03</rscale>
<asrwt>0</asrwt>
<pdfrwt beam="1">  1        2 0.79353475E-01 0.27475631E+03</pdfrwt>
<pdfrwt beam="2">  1       -2 0.56291483E-02 0.27475631E+03</pdfrwt>
<totfact> 0.97566942E+03</totfact>
</mgrwt>
</event>
<event>
 9    1  0.2074770E-002  0.2757509E+03  0.7818608E-02  0.1098033E+00
         -1   -1    0    0    0  501 -0.00000000000E+00  0.00000000000E+00  0.24018170777E+02  0.24018170777E+02  0.00000000000E+00 0. -1.
          1   -1    0    0  501    0  0.00000000000E+00 -0.00000000000E+00 -0.79146909375E+03  0.79146909375E+03  0.00000000000E+00 0. -1.
         36    2    1    2    0    0  0.00000000000E+00  0.00000000000E+00 -0.76745092297E+03  0.81548726453E+03  0.27575090106E+03 0.  0.
         25    2    3    3    0    0  0.42465187258E+02 -0.22139051515E+02 -0.47549264173E+03  0.49445042206E+03  0.12686424950E+03 0.  0.
         25    2    3    3    0    0 -0.42465187258E+02  0.22139051515E+02 -0.29195828124E+03  0.32103684247E+03  0.12462578588E+03 0.  0.
          5    1    4    4  502    0  0.53276684965E+02 -0.56021122529E+02 -0.16944590470E+03  0.18630828202E+03  0.47000000000E+01 0. -1.
         -5    1    4    4    0  502 -0.10811497708E+02  0.33882071014E+02 -0.30604673703E+03  0.30814214004E+03  0.47000000000E+01 0. -1.
          5    1    5    5  503    0  0.33961278814E+02  0.37986371993E+02 -0.15622135290E+03  0.16438836339E+03  0.47000000000E+01 0. -1.
         -5    1    5    5    0  503 -0.76426466071E+02 -0.15847320478E+02 -0.13573692834E+03  0.15664847908E+03  0.47000000000E+01 0. -1.
<mgrwt>
<rscale>  0 0.27575090E+03</rscale>
<asrwt>0</asrwt>
<pdfrwt beam="1">  1        1 0.12176448E+00 0.27575090E+03</pdfrwt>
<pdfrwt beam="2">  1       -1 0.36951030E-02 0.27575090E+03</pdfrwt>
<totfact> 0.64724649E+03</totfact>
</mgrwt>
</event>
<event>
 9    1  0.2074770E-002  0.2751833E+03  0.7818608E-02  0.1098349E+00
         -2   -1    0    0    0  501 -0.00000000000E+00  0.00000000000E+00  0.41375062547E+03  0.41375062547E+03  0.00000000000E+00 0. -1.
          2   -1    0    0  501    0  0.00000000000E+00 -0.00000000000E+00 -0.45755730790E+02  0.45755730790E+02  0.00000000000E+00 0. -1.
         36    2    1    2    0    0  0.17763568394E-14  0.35527136788E-14  0.36799489468E+03  0.45950635626E+03  0.27518330061E+03 0.  0.
         25    2    3    3    0    0 -0.12033980328E+02 -0.28450651144E+02  0.28298653917E+03  0.31145125174E+03  0.12635760613E+03 0.  0.
         25    2    3    3    0    0  0.12033980328E+02  0.28450651144E+02  0.85008355516E+02  0.14805510453E+03  0.11721619869E+03 0.  0.
          5    1    4    4  502    0 -0.12784650035E+01 -0.22144543261E+02 -0.49488936829E+01  0.23207688762E+02  0.47000000000E+01 0.  1.
         -5    1    4    4    0  502 -0.10755515325E+02 -0.63061078828E+01  0.28793543285E+03  0.28824356298E+03  0.47000000000E+01 0.  1.
          5    1    5    5  503    0 -0.48884523631E+02  0.34198605868E+02  0.42630115781E+02  0.73475561008E+02  0.47000000000E+01 0. -1.
         -5    1    5    5    0  503  0.60918503959E+02 -0.57479547239E+01  0.42378239735E+02  0.74579543517E+02  0.47000000000E+01 0. -1.
<mgrwt>
<rscale>  0 0.27518330E+03</rscale>
<asrwt>0</asrwt>
<pdfrwt beam="1">  1        2 0.70393435E-02 0.27518330E+03</pdfrwt>
<pdfrwt beam="2">  1       -2 0.63653940E-01 0.27518330E+03</pdfrwt>
<totfact> 0.23365566E+03</totfact>
</mgrwt>
</event>
<event>
 9    1  0.2074770E-002  0.2743767E+03  0.7818608E-02  0.1098800E+00
          1   -1    0    0  501    0  0.00000000000E+00  0.00000000000E+00  0.22642280650E+03  0.22642280650E+03  0.00000000000E+00 0.  1.
         -1   -1    0    0    0  501 -0.00000000000E+00 -0.00000000000E+00 -0.83121704111E+02  0.83121704111E+02  0.00000000000E+00 0.  1.
         36    2    1    2    0    0  0.71054273576E-14 -0.71054273576E-14  0.14330110239E+03  0.30954451061E+03  0.27437674483E+03 0.  0.
         25    2    3    3    0    0 -0.55455669539E+01  0.27498125821E+02  0.12580646160E+03  0.18045736854E+03  0.12629606425E+03 0.  0.
         25    2    3    3    0    0  0.55455669539E+01 -0.27498125821E+02  0.17494640794E+02  0.12908714207E+03  0.12478191998E+03 0.  0.
          5    1    4    4  502    0 -0.61983484309E+02  0.10011883744E+01  0.86782925369E+02  0.10675355189E+03  0.47000000000E+01 0. -1.
         -5    1    4    4    0  502  0.56437917355E+02  0.26496937447E+02  0.39023536226E+02  0.73703816652E+02  0.47000000000E+01 0. -1.
          5    1    5    5  503    0  0.10683080785E+02  0.46069858038E+02  0.26874394593E+02  0.54597464405E+02  0.47000000000E+01 0. -1.
         -5    1    5    5    0  503 -0.51375138307E+01 -0.73567983859E+02 -0.93797537998E+01  0.74489677666E+02  0.47000000000E+01 0. -1.
<mgrwt>
<rscale>  0 0.27437674E+03</rscale>
<asrwt>0</asrwt>
<pdfrwt beam="1">  1        1 0.34834278E-01 0.27437674E+03</pdfrwt>
<pdfrwt beam="2">  1       -1 0.12787955E-01 0.27437674E+03</pdfrwt>
<totfact> 0.51528025E+03</totfact>
</mgrwt>
</event>
<event>
 9    1  0.2074770E-002  0.2755220E+03  0.7818608E-02  0.1098160E+00
          2   -1    0    0  501    0  0.00000000000E+00  0.00000000000E+00  0.87941183733E+03  0.87941183733E+03  0.00000000000E+00 0. -1.
         -2   -1    0    0    0  501 -0.00000000000E+00 -0.00000000000E+00 -0.21580432340E+02  0.21580432340E+02  0.00000000000E+00 0. -1.
         36    2    1    2    0    0  0.00000000000E+00  0.00000000000E+00  0.85783140499E+03  0.90099226967E+03  0.27552196032E+03 0.  0.
         25    2    3    3    0    0  0.17579081282E+02  0.50559788220E+02  0.40924499995E+03  0.43143744441E+03  0.12566416422E+03 0.  0.
         25    2    3    3    0    0 -0.17579081282E+02 -0.50559788220E+02  0.44858640504E+03  0.46955482526E+03  0.12801037011E+03 0.  0.
          5    1    4    4  502    0  0.32435894315E+02 -0.10690865070E+02  0.26428685234E+02  0.43439005964E+02  0.47000000000E+01 0.  1.
         -5    1    4    4    0  502 -0.14856813033E+02  0.61250653290E+02  0.38281631472E+03  0.38799843845E+03  0.47000000000E+01 0.  1.
          5    1    5    5  503    0  0.24600343705E+02  0.34938875123E+02  0.12514109616E+03  0.13231887943E+03  0.47000000000E+01 0.  1.
         -5    1    5    5    0  503 -0.42179424986E+02 -0.85498663343E+02  0.32344530887E+03  0.33723594583E+03  0.47000000000E+01 0.  1.
<mgrwt>
<rscale>  0 0.27552196E+03</rscale>
<asrwt>0</asrwt>
<pdfrwt beam="1">  1        2 0.13529410E+00 0.27552196E+03</pdfrwt>
<pdfrwt beam="2">  1       -2 0.33200672E-02 0.27552196E+03</pdfrwt>
<totfact> 0.11370392E+04</totfact>
</mgrwt>
</event>
<event>
 9    1  0.2074770E-002  0.2758473E+03  0.7818608E-02  0.1097979E+00
          2   -1    0    0  501    0  0.00000000000E+00  0.00000000000E+00  0.19393107371E+03  0.19393107371E+03  0.00000000000E+00 0.  1.
         -2   -1    0    0    0  501 -0.00000000000E+00 -0.00000000000E+00 -0.98091191645E+02  0.98091191645E+02  0.00000000000E+00 0.  1.
         36    2    1    2    0    0  0.00000000000E+00  0.00000000000E+00  0.95839882061E+02  0.29202226535E+03  0.27584727743E+03 0.  0.
         25    2    3    3    0    0  0.37588525922E+02 -0.22314764584E+02  0.95159441595E+02  0.16571204220E+03  0.12843019741E+03 0.  0.
         25    2    3    3    0    0 -0.37588525922E+02  0.22314764584E+02  0.68044046652E+00  0.12631022315E+03  0.11850301039E+03 0.  0.
          5    1    4    4  502    0  0.75737248056E+02 -0.26654667504E+02  0.22693438585E+02  0.83568440201E+02  0.47000000000E+01 0.  1.
         -5    1    4    4    0  502 -0.38148722134E+02  0.43399029195E+01  0.72466003010E+02  0.82143602003E+02  0.47000000000E+01 0.  1.
          5    1    5    5  503    0 -0.70374423760E+02 -0.10423892294E+02 -0.21857616200E+02  0.74572531377E+02  0.47000000000E+01 0.  1.
         -5    1    5    5    0  503  0.32785897838E+02  0.32738656879E+02  0.22538056667E+02  0.51737691769E+02  0.47000000000E+01 0.  1.
<mgrwt>
<rscale>  0 0.27584728E+03</rscale>
<asrwt>0</asrwt>
<pdfrwt beam="1">  1        2 0.29835550E-01 0.27584728E+03</pdfrwt>
<pdfrwt beam="2">  1       -2 0.15090953E-01 0.27584728E+03</pdfrwt>
<totfact> 0.59359920E+03</totfact>
</mgrwt>
</event>
<event>
 9    1  0.2074770E-002  0.2750968E+03  0.7818608E-02  0.1098398E+00
          2   -1    0    0  501    0  0.00000000000E+00  0.00000000000E+00  0.76114641252E+02  0.76114641252E+02  0.00000000000E+00 0.  1.
         -2   -1    0    0    0  501 -0.00000000000E+00 -0.00000000000E+00 -0.24856666029E+03  0.24856666029E+03  0.00000000000E+00 0.  1.
         36    2    1    2    0    0  0.00000000000E+00  0.00000000000E+00 -0.17245201903E+03  0.32468130154E+03  0.27509679878E+03 0.  0.
         25    2    3    3    0    0 -0.30727390439E+02  0.47116825807E+02 -0.10912729015E+03  0.17412590744E+03  0.12347833166E+03 0.  0.
         25    2    3    3    0    0  0.30727390439E+02 -0.47116825807E+02 -0.63324728882E+02  0.15055539410E+03  0.12446982609E+03 0.  0.
          5    1    4    4  502    0 -0.14799992740E+02  0.16570517969E+02  0.26044204613E+02  0.34554485162E+02  0.47000000000E+01 0. -1.
         -5    1    4    4    0  502 -0.15927397699E+02  0.30546307838E+02 -0.13517149476E+03  0.13957142228E+03  0.47000000000E+01 0. -1.
          5    1    5    5  503    0 -0.13600541473E+01  0.30107353431E+02 -0.59319734992E+02  0.66702499484E+02  0.47000000000E+01 0.  1.
         -5    1    5    5    0  503  0.32087444586E+02 -0.77224179238E+02 -0.40049938898E+01  0.83852894614E+02  0.47000000000E+01 0.  1.
<mgrwt>
<rscale>  0 0.27509680E+03</rscale>
<asrwt>0</asrwt>
<pdfrwt beam="1">  1        2 0.11709945E-01 0.27509680E+03</pdfrwt>
<pdfrwt beam="2">  1       -2 0.38241025E-01 0.27509680E+03</pdfrwt>
<totfact> 0.34042199E+03</totfact>
</mgrwt>
</event>
<event>
 9    1  0.2074770E-002  0.2748386E+03  0.7818608E-02  0.1098542E+00
          1   -1    0    0  501    0  0.00000000000E+00  0.00000000000E+00  0.64131450644E+02  0.64131450644E+02  0.00000000000E+00 0.  1.
         -1   -1    0    0    0  501 -0.00000000000E+00 -0.00000000000E+00 -0.29445873842E+03  0.29445873842E+03  0.00000000000E+00 0.  1.
         36    2    1    2    0    0  0.00000000000E+00 -0.35527136788E-14 -0.23032728777E+03  0.35859018906E+03  0.27483861482E+03 0.  0.
         25    2    3    3    0    0  0.45543667554E+01 -0.14711875132E+02 -0.44411441525E+02  0.13580826260E+03  0.12741399658E+03 0.  0.
         25    2    3    3    0    0 -0.45543667554E+01  0.14711875132E+02 -0.18591584625E+03  0.22278192646E+03  0.12177809058E+03 0.  0.
          5    1    4    4  502    0 -0.56579787853E+02 -0.31001748578E+02 -0.26324879524E+02  0.69838886663E+02  0.47000000000E+01 0. -1.
         -5    1    4    4    0  502  0.61134154608E+02  0.16289873446E+02 -0.18086562001E+02  0.65969375937E+02  0.47000000000E+01 0. -1.
          5    1    5    5  503    0  0.48493960542E+02 -0.25466997164E+02 -0.69606490545E+02  0.88698284536E+02  0.47000000000E+01 0. -1.
         -5    1    5    5    0  503 -0.53048327297E+02  0.40178872297E+02 -0.11630935570E+03  0.13408364192E+03  0.47000000000E+01 0. -1.
<mgrwt>
<rscale>  0 0.27483861E+03</rscale>
<asrwt>0</asrwt>
<pdfrwt beam="1">  1        1 0.98663770E-02 0.27483861E+03</pdfrwt>
<pdfrwt beam="2">  1       -1 0.45301344E-01 0.27483861E+03</pdfrwt>
<totfact> 0.32073328E+03</totfact>
</mgrwt>
</event>
<event>
 9    1  0.2074770E-002  0.2747154E+03  0.7818608E-02  0.1098611E+00
         -1   -1    0    0    0  501 -0.00000000000E+00  0.00000000000E+00  0.23969852179E+03  0.23969852179E+03  0.00000000000E+00 0. -1.
          1   -1    0    0  501    0  0.00000000000E+00 -0.00000000000E+00 -0.78711938496E+02  0.78711938496E+02  0.00000000000E+00 0. -1.
         36    2    1    2    0    0  0.00000000000E+00  0.17763568394E-14  0.16098658329E+03  0.31841046028E+03  0.27471538220E+03 0.  0.
         25    2    3    3    0    0 -0.22872456630E+02 -0.14144326848E+02  0.14183973293E+03  0.19115722899E+03  0.12529710732E+03 0.  0.
         25    2    3    3    0    0  0.22872456630E+02  0.14144326848E+02  0.19146850360E+02  0.12725323129E+03  0.12289658963E+03 0.  0.
          5    1    4    4  502    0 -0.21590969971E+02 -0.82815762807E+01 -0.18902169856E+02  0.30234690593E+02  0.47000000000E+01 0. -1.
         -5    1    4    4    0  502 -0.12814866585E+01 -0.58627505676E+01  0.16074190279E+03  0.16092253840E+03  0.47000000000E+01 0. -1.
          5    1    5    5  503    0  0.48222945078E+02  0.56591396172E+02  0.13952224973E+01  0.74512248648E+02  0.47000000000E+01 0.  1.
         -5    1    5    5    0  503 -0.25350488448E+02 -0.42447069324E+02  0.17751627863E+02  0.52740982647E+02  0.47000000000E+01 0.  1.
<mgrwt>
<rscale>  0 0.27471538E+03</rscale>
<asrwt>0</asrwt>
<pdfrwt beam="1">  1        1 0.12109529E-01 0.27471538E+03</pdfrwt>
<pdfrwt beam="2">  1       -1 0.36876695E-01 0.27471538E+03</pdfrwt>
<totfact> 0.35189265E+03</totfact>
</mgrwt>
</event>
<event>
 9    1  0.2074770E-002  0.2752689E+03  0.7818608E-02  0.1098301E+00
         -1   -1    0    0    0  501 -0.00000000000E+00  0.00000000000E+00  0.48844069888E+02  0.48844069888E+02  0.00000000000E+00 0.  1.
          1   -1    0    0  501    0  0.00000000000E+00 -0.00000000000E+00 -0.38783101638E+03  0.38783101638E+03  0.00000000000E+00 0.  1.
         36    2    1    2    0    0  0.00000000000E+00  0.00000000000E+00 -0.33898694649E+03  0.43667508627E+03  0.27526892501E+03 0.  0.
         25    2    3    3    0    0  0.50080279536E+02  0.19772985788E+02 -0.15929107808E+03  0.21072085502E+03  0.12700640070E+03 0.  0.
         25    2    3    3    0    0 -0.50080279536E+02 -0.19772985788E+02 -0.17969586841E+03  0.22595423125E+03  0.12595913674E+03 0.  0.
          5    1    4    4  502    0 -0.35969816095E+02 -0.13532489859E+02 -0.80377263889E+02  0.89216312981E+02  0.47000000000E+01 0.  1.
         -5    1    4    4    0  502  0.86050095631E+02  0.33305475646E+02 -0.78913814189E+02  0.12150454204E+03  0.47000000000E+01 0.  1.
          5    1    5    5  503    0 -0.81263552321E+02 -0.10629220882E+02 -0.17432113339E+03  0.19268288149E+03  0.47000000000E+01 0. -1.
         -5    1    5    5    0  503  0.31183272785E+02 -0.91437649053E+01 -0.53747350249E+01  0.33271349760E+02  0.47000000000E+01 0. -1.
<mgrwt>
<rscale>  0 0.27526893E+03</rscale>
<asrwt>0</asrwt>
<pdfrwt beam="1">  1        1 0.59666312E-01 0.27526893E+03</pdfrwt>
<pdfrwt beam="2">  1       -1 0.75144721E-02 0.27526893E+03</pdfrwt>
<totfact> 0.59428168E+03</totfact>
</mgrwt>
</event>
<event>
 9    1  0.2074770E-002  0.2747859E+03  0.7818608E-02  0.1098571E+00
          2   -1    0    0  501    0  0.00000000000E+00  0.00000000000E+00  0.46509768330E+03  0.46509768330E+03  0.00000000000E+00 0. -1.
         -2   -1    0    0    0  501 -0.00000000000E+00 -0.00000000000E+00 -0.40586790418E+02  0.40586790418E+02  0.00000000000E+00 0. -1.
         36    2    1    2    0    0  0.35527136788E-14  0.00000000000E+00  0.42451089288E+03  0.50568447372E+03  0.27478589626E+03 0.  0.
         25    2    3    3    0    0 -0.88048376310E+01  0.26505305966E+02  0.12413717596E+03  0.17890224967E+03  0.12576136160E+03 0.  0.
         25    2    3    3    0    0  0.88048376310E+01 -0.26505305966E+02  0.30037371693E+03  0.32678222405E+03  0.12562720933E+03 0.  0.
          5    1    4    4  502    0  0.35635835247E+02  0.50947038499E+02  0.10932684749E+03  0.12585691506E+03  0.47000000000E+01 0.  1.
         -5    1    4    4    0  502 -0.44440672878E+02 -0.24441732533E+02  0.14810328468E+02  0.53045334614E+02  0.47000000000E+01 0.  1.
          5    1    5    5  503    0  0.23126908373E+02  0.28848733434E+02  0.23577474873E+02  0.44103181665E+02  0.47000000000E+01 0.  1.
         -5    1    5    5    0  503 -0.14322070742E+02 -0.55354039400E+02  0.27679624205E+03  0.28267904238E+03  0.47000000000E+01 0.  1.
<mgrwt>
<rscale>  0 0.27478590E+03</rscale>
<asrwt>0</asrwt>
<pdfrwt beam="1">  1        2 0.71553486E-01 0.27478590E+03</pdfrwt>
<pdfrwt beam="2">  1       -2 0.62441219E-02 0.27478590E+03</pdfrwt>
<totfact> 0.93406416E+03</totfact>
</mgrwt>
</event>
<event>
 9    1  0.2074770E-002  0.2759931E+03  0.7818608E-02  0.1097898E+00
          2   -1    0    0  501    0  0.00000000000E+00  0.00000000000E+00  0.23330502047E+02  0.23330502047E+02  0.00000000000E+00 0.  1.
         -2   -1    0    0    0  501 -0.00000000000E+00 -0.00000000000E+00 -0.81622963207E+03  0.81622963207E+03  0.00000000000E+00 0.  1.
         36    2    1    2    0    0  0.00000000000E+00 -0.35527136788E-14 -0.79289913002E+03  0.83956013411E+03  0.27599309485E+03 0.  0.
         25    2    3    3    0    0  0.42424873269E+02  0.66651369145E+01 -0.32914463969E+03  0.35628473853E+03  0.12945395764E+03 0.  0.
         25    2    3    3    0    0 -0.42424873269E+02 -0.66651369145E+01 -0.46375449032E+03  0.48327539558E+03  0.12900615007E+03 0.  0.
          5    1    4    4  502    0  0.43525132315E+02 -0.19293657287E+02 -0.31074263344E+02  0.57047192718E+02  0.47000000000E+01 0.  1.
         -5    1    4    4    0  502 -0.11002590467E+01  0.25958794202E+02 -0.29807037635E+03  0.29923754581E+03  0.47000000000E+01 0.  1.
          5    1    5    5  503    0  0.12459907588E+02  0.46234080871E+02 -0.92696688141E+02  0.10443948259E+03  0.47000000000E+01 0. -1.
         -5    1    5    5    0  503 -0.54884780857E+02 -0.52899217786E+02 -0.37105780218E+03  0.37883591299E+03  0.47000000000E+01 0. -1.
<mgrwt>
<rscale>  0 0.27599309E+03</rscale>
<asrwt>0</asrwt>
<pdfrwt beam="1">  1        2 0.35893089E-02 0.27599309E+03</pdfrwt>
<pdfrwt beam="2">  1       -2 0.12557376E+00 0.27599309E+03</pdfrwt>
<totfact> 0.12191544E+03</totfact>
</mgrwt>
</event>
<event>
 9    1  0.2074770E-002  0.2753900E+03  0.7818608E-02  0.1098234E+00
         -2   -1    0    0    0  501 -0.00000000000E+00  0.00000000000E+00  0.94581922286E+01  0.94581922286E+01  0.00000000000E+00 0. -1.
          2   -1    0    0  501    0  0.00000000000E+00 -0.00000000000E+00 -0.20046016563E+04  0.20046016563E+04  0.00000000000E+00 0. -1.
         36    2    1    2    0    0  0.35527136788E-14  0.00000000000E+00 -0.19951434640E+04  0.20140598485E+04  0.27538996210E+03 0.  0.
         25    2    3    3    0    0 -0.79186735466E+01  0.34892463872E+01 -0.58623158433E+03  0.59959417828E+03  0.12558195703E+03 0.  0.
         25    2    3    3    0    0  0.79186735466E+01 -0.34892463872E+01 -0.14089118797E+04  0.14144656702E+04  0.12492224462E+03 0.  0.
          5    1    4    4  502    0  0.22565442580E+02  0.47939147643E+02 -0.13453577537E+03  0.14466971324E+03  0.47000000000E+01 0.  1.
         -5    1    4    4    0  502 -0.30484116126E+02 -0.44449901255E+02 -0.45169580897E+03  0.45492446504E+03  0.47000000000E+01 0.  1.
          5    1    5    5  503    0  0.52540856268E+02  0.19430462099E+02 -0.11030671979E+04  0.11044987177E+04  0.47000000000E+01 0. -1.
         -5    1    5    5    0  503 -0.44622182721E+02 -0.22919708487E+02 -0.30584468182E+03  0.30996695248E+03  0.47000000000E+01 0. -1.
<mgrwt>
<rscale>  0 0.27538996E+03</rscale>
<asrwt>0</asrwt>
<pdfrwt beam="1">  1        2 0.30840031E+00 0.27538996E+03</pdfrwt>
<pdfrwt beam="2">  1       -2 0.14551062E-02 0.27538996E+03</pdfrwt>
<totfact> 0.91131628E+03</totfact>
</mgrwt>
</event>
<event>
 9    1  0.2074770E-002  0.2780281E+03  0.7818608E-02  0.1096771E+00
         -1   -1    0    0    0  501 -0.00000000000E+00  0.00000000000E+00  0.47054969828E+03  0.47054969828E+03  0.00000000000E+00 0. -1.
          1   -1    0    0  501    0  0.00000000000E+00 -0.00000000000E+00 -0.41068780535E+02  0.41068780535E+02  0.00000000000E+00 0. -1.
         36    2    1    2    0    0  0.00000000000E+00 -0.71054273576E-14  0.42948091775E+03  0.51161847882E+03  0.27802807261E+03 0.  0.
         25    2    3    3    0    0  0.44318954664E+02  0.29670944849E+02  0.28478095389E+03  0.31856685435E+03  0.13243909649E+03 0.  0.
         25    2    3    3    0    0 -0.44318954664E+02 -0.29670944849E+02  0.14469996386E+03  0.19305162447E+03  0.11613059657E+03 0.  0.
          5    1    4    4  502    0  0.56935747218E+02  0.75681035330E+02  0.18716698789E+03  0.20981627624E+03  0.47000000000E+01 0. -1.
         -5    1    4    4    0  502 -0.12616792554E+02 -0.46010090481E+02  0.97613965998E+02  0.10875057811E+03  0.47000000000E+01 0. -1.
          5    1    5    5  503    0 -0.56842890861E+02  0.31023255626E+02  0.84096079899E+02  0.10624404588E+03  0.47000000000E+01 0. -1.
         -5    1    5    5    0  503  0.12523936197E+02 -0.60694200475E+02  0.60603883959E+02  0.86807578587E+02  0.47000000000E+01 0. -1.
<mgrwt>
<rscale>  0 0.27802807E+03</rscale>
<asrwt>0</asrwt>
<pdfrwt beam="1">  1        1 0.63182742E-02 0.27802807E+03</pdfrwt>
<pdfrwt beam="2">  1       -1 0.72392258E-01 0.27802807E+03</pdfrwt>
<totfact> 0.24056111E+03</totfact>
</mgrwt>
</event>
<event>
 9    1  0.2074770E-002  0.2746938E+03  0.7818608E-02  0.1098623E+00
         -1   -1    0    0    0  501 -0.00000000000E+00  0.00000000000E+00  0.54640741580E+03  0.54640741580E+03  0.00000000000E+00 0. -1.
          1   -1    0    0  501    0  0.00000000000E+00 -0.00000000000E+00 -0.34524012114E+02  0.34524012114E+02  0.00000000000E+00 0. -1.
         36    2    1    2    0    0  0.00000000000E+00 -0.17763568394E-14  0.51188340368E+03  0.58093142791E+03  0.27469383861E+03 0.  0.
         25    2    3    3    0    0  0.17863760924E+02 -0.96869848867E+01  0.36095620051E+03  0.38466655550E+03  0.13140026103E+03 0.  0.
         25    2    3    3    0    0 -0.17863760924E+02  0.96869848867E+01  0.15092720317E+03  0.19626487241E+03  0.12380600897E+03 0.  0.
          5    1    4    4  502    0  0.62991080997E+02 -0.88917923238E+01  0.92255823467E+02  0.11216134459E+03  0.47000000000E+01 0. -1.
         -5    1    4    4    0  502 -0.45127320073E+02 -0.79519256283E+00  0.26870037705E+03  0.27250521091E+03  0.47000000000E+01 0. -1.
          5    1    5    5  503    0 -0.54107261646E+02  0.28042989922E+02  0.14172593277E+03  0.15434485759E+03  0.47000000000E+01 0.  1.
         -5    1    5    5    0  503  0.36243500722E+02 -0.18356005035E+02  0.92012703995E+01  0.41920014819E+02  0.47000000000E+01 0.  1.
<mgrwt>
<rscale>  0 0.27469384E+03</rscale>
<asrwt>0</asrwt>
<pdfrwt beam="1">  1        1 0.53113869E-02 0.27469384E+03</pdfrwt>
<pdfrwt beam="2">  1       -1 0.84062673E-01 0.27469384E+03</pdfrwt>
<totfact> 0.22458717E+03</totfact>
</mgrwt>
</event>
<event>
 9    1  0.2074770E-002  0.2752045E+03  0.7818608E-02  0.1098337E+00
          2   -1    0    0  501    0  0.00000000000E+00  0.00000000000E+00  0.14999081519E+02  0.14999081519E+02  0.00000000000E+00 0. -1.
         -2   -1    0    0    0  501 -0.00000000000E+00 -0.00000000000E+00 -0.12623690382E+04  0.12623690382E+04  0.00000000000E+00 0. -1.
         36    2    1    2    0    0  0.00000000000E+00  0.00000000000E+00 -0.12473699567E+04  0.12773681198E+04  0.27520447752E+03 0.  0.
         25    2    3    3    0    0 -0.36450213507E+02 -0.79554854288E+01 -0.44970260903E+03  0.46854260808E+03  0.12612625107E+03 0.  0.
         25    2    3    3    0    0  0.36450213507E+02  0.79554854288E+01 -0.79766734769E+03  0.80882551168E+03  0.12858305857E+03 0.  0.
          5    1    4    4  502    0 -0.19551367532E+02 -0.58487181229E+02 -0.12499841151E+03  0.13946217846E+03  0.47000000000E+01 0.  1.
         -5    1    4    4    0  502 -0.16898845976E+02  0.50531695800E+02 -0.32470419752E+03  0.32908042962E+03  0.47000000000E+01 0.  1.
          5    1    5    5  503    0  0.10363640700E+02 -0.53362875161E+02 -0.53583200871E+03  0.53860285281E+03  0.47000000000E+01 0. -1.
         -5    1    5    5    0  503  0.26086572808E+02  0.61318360590E+02 -0.26183533899E+03  0.27022265887E+03  0.47000000000E+01 0. -1.
<mgrwt>
<rscale>  0 0.27520448E+03</rscale>
<asrwt>0</asrwt>
<pdfrwt beam="1">  1        2 0.23075513E-02 0.27520448E+03</pdfrwt>
<pdfrwt beam="2">  1       -2 0.19421059E+00 0.27520448E+03</pdfrwt>
<totfact> 0.70564093E+02</totfact>
</mgrwt>
</event>
<event>
 9    1  0.2074770E-002  0.2742327E+03  0.7818608E-02  0.1098881E+00
          1   -1    0    0  501    0  0.00000000000E+00  0.00000000000E+00  0.31545595758E+03  0.31545595758E+03  0.00000000000E+00 0. -1.
         -1   -1    0    0    0  501 -0.00000000000E+00 -0.00000000000E+00 -0.59599096160E+02  0.59599096160E+02  0.00000000000E+00 0. -1.
         36    2    1    2    0    0 -0.71054273576E-14  0.71054273576E-14  0.25585686142E+03  0.37505505374E+03  0.27423267457E+03 0.  0.
         25    2    3    3    0    0  0.54875750364E+02  0.19028323328E+02  0.14662253953E+03  0.19618150183E+03  0.11668584960E+03 0.  0.
         25    2    3    3    0    0 -0.54875750364E+02 -0.19028323328E+02  0.10923432189E+03  0.17887355191E+03  0.12919050053E+03 0.  0.
          5    1    4    4  502    0  0.85551733317E+01 -0.42242610715E+02  0.92332522870E+02  0.10200497013E+03  0.47000000000E+01 0.  1.
         -5    1    4    4    0  502  0.46320577032E+02  0.61270934043E+02  0.54290016659E+02  0.94176531705E+02  0.47000000000E+01 0.  1.
          5    1    5    5  503    0 -0.49034729784E+02 -0.83390965752E+01  0.13827987987E+03  0.14702843410E+03  0.47000000000E+01 0. -1.
         -5    1    5    5    0  503 -0.58410205799E+01 -0.10689226753E+02 -0.29045557980E+02  0.31845117811E+02  0.47000000000E+01 0. -1.
<mgrwt>
<rscale>  0 0.27423267E+03</rscale>
<asrwt>0</asrwt>
<pdfrwt beam="1">  1        1 0.48531685E-01 0.27423267E+03</pdfrwt>
<pdfrwt beam="2">  1       -1 0.91690919E-02 0.27423267E+03</pdfrwt>
<totfact> 0.56946334E+03</totfact>
</mgrwt>
</event>
<event>
 9    1  0.2074770E-002  0.2766744E+03  0.7818608E-02  0.1097519E+00
          2   -1    0    0  501    0  0.00000000000E+00  0.00000000000E+00  0.38529113186E+03  0.38529113186E+03  0.00000000000E+00 0. -1.
         -2   -1    0    0    0  501 -0.00000000000E+00 -0.00000000000E+00 -0.49669395390E+02  0.49669395390E+02  0.00000000000E+00 0. -1.
         36    2    1    2    0    0  0.71054273576E-14  0.35527136788E-14  0.33562173647E+03  0.43496052725E+03  0.27667437589E+03 0.  0.
         25    2    3    3    0    0  0.47275518403E+02  0.31272171033E+02  0.15610390093E+03  0.20930996081E+03  0.12739430319E+03 0.  0.
         25    2    3    3    0    0 -0.47275518403E+02 -0.31272171033E+02  0.17951783553E+03  0.22565056644E+03  0.12441302801E+03 0.  0.
          5    1    4    4  502    0 -0.18535324991E+02 -0.35927623167E+02  0.24579118908E+02  0.47545509412E+02  0.47000000000E+01 0.  1.
         -5    1    4    4    0  502  0.65810843394E+02  0.67199794200E+02  0.13152478203E+03  0.16176445140E+03  0.47000000000E+01 0.  1.
          5    1    5    5  503    0  0.36098851303E+02 -0.20075218378E+02  0.10589164885E+03  0.11375971499E+03  0.47000000000E+01 0.  1.
         -5    1    5    5    0  503 -0.83374369706E+02 -0.11196952656E+02  0.73626186684E+02  0.11189085145E+03  0.47000000000E+01 0.  1.
<mgrwt>
<rscale>  0 0.27667438E+03</rscale>
<asrwt>0</asrwt>
<pdfrwt beam="1">  1        2 0.59275557E-01 0.27667438E+03</pdfrwt>
<pdfrwt beam="2">  1       -2 0.76414457E-02 0.27667438E+03</pdfrwt>
<totfact> 0.83982363E+03</totfact>
</mgrwt>
</event>
<event>
 9    1  0.2074770E-002  0.2754733E+03  0.7818608E-02  0.1098187E+00
          2   -1    0    0  501    0  0.00000000000E+00  0.00000000000E+00  0.42470932789E+03  0.42470932789E+03  0.00000000000E+00 0. -1.
         -2   -1    0    0    0  501 -0.00000000000E+00 -0.00000000000E+00 -0.44669092053E+02  0.44669092053E+02  0.00000000000E+00 0. -1.
         36    2    1    2    0    0  0.00000000000E+00  0.00000000000E+00  0.38004023584E+03  0.46937841995E+03  0.27547326595E+03 0.  0.
         25    2    3    3    0    0  0.17967687219E+02 -0.48969841935E+02  0.22767657865E+03  0.26514671107E+03  0.12548016068E+03 0.  0.
         25    2    3    3    0    0 -0.17967687219E+02  0.48969841935E+02  0.15236365719E+03  0.20423170888E+03  0.12559866112E+03 0.  0.
          5    1    4    4  502    0  0.27030400207E+01 -0.16455766932E+02  0.22826020439E+03  0.22891681808E+03  0.47000000000E+01 0. -1.
         -5    1    4    4    0  502  0.15264647198E+02 -0.32514075003E+02 -0.58362574043E+00  0.36229892994E+02  0.47000000000E+01 0. -1.
          5    1    5    5  503    0  0.41271498260E+02  0.60133495932E+02  0.63913694277E+02  0.97089774013E+02  0.47000000000E+01 0.  1.
         -5    1    5    5    0  503 -0.59239185478E+02 -0.11163653998E+02  0.88449962917E+02  0.10714193487E+03  0.47000000000E+01 0.  1.
<mgrwt>
<rscale>  0 0.27547327E+03</rscale>
<asrwt>0</asrwt>
<pdfrwt beam="1">  1        2 0.65339894E-01 0.27547327E+03</pdfrwt>
<pdfrwt beam="2">  1       -2 0.68721683E-02 0.27547327E+03</pdfrwt>
<totfact> 0.89043208E+03</totfact>
</mgrwt>
</event>
<event>
 9    1  0.2074770E-002  0.2732324E+03  0.7818608E-02  0.1099444E+00
         -4   -1    0    0    0  501 -0.00000000000E+00  0.00000000000E+00  0.13256813824E+04  0.13256813824E+04  0.00000000000E+00 0.  1.
          4   -1    0    0  501    0  0.00000000000E+00 -0.00000000000E+00 -0.14078784004E+02  0.14078784004E+02  0.00000000000E+00 0.  1.
         36    2    1    2    0    0  0.14210854715E-13  0.00000000000E+00  0.13116025983E+04  0.13397601664E+04  0.27323236880E+03 0.  0.
         25    2    3    3    0    0 -0.34596274132E+02 -0.24618441601E+02  0.49733785300E+03  0.51466799287E+03  0.12544015711E+03 0.  0.
         25    2    3    3    0    0  0.34596274132E+02  0.24618441601E+02  0.81426474535E+03  0.82509217348E+03  0.12628162718E+03 0.  0.
          5    1    4    4  502    0  0.45875269878E+02 -0.21524529038E+01  0.22812906470E+03  0.23275337505E+03  0.47000000000E+01 0. -1.
         -5    1    4    4    0  502 -0.80471544010E+02 -0.22465988697E+02  0.26920878830E+03  0.28191461782E+03  0.47000000000E+01 0. -1.
          5    1    5    5  503    0  0.15586384017E+02  0.45800034686E+02  0.11028396919E+03  0.12052063062E+03  0.47000000000E+01 0.  1.
         -5    1    5    5    0  503  0.19009890115E+02 -0.21181593085E+02  0.70398077616E+03  0.70457154286E+03  0.47000000000E+01 0.  1.
<mgrwt>
<rscale>  0 0.27323237E+03</rscale>
<asrwt>0</asrwt>
<pdfrwt beam="1">  1        4 0.21659678E-02 0.27323237E+03</pdfrwt>
<pdfrwt beam="2">  1       -4 0.20395088E+00 0.27323237E+03</pdfrwt>
<totfact> 0.22813212E+02</totfact>
</mgrwt>
</event>
<event>
 9    1  0.2074770E-002  0.2751220E+03  0.7818608E-02  0.1098383E+00
         -2   -1    0    0    0  501 -0.00000000000E+00  0.00000000000E+00  0.44613254966E+02  0.44613254966E+02  0.00000000000E+00 0.  1.
          2   -1    0    0  501    0  0.00000000000E+00 -0.00000000000E+00 -0.42415720369E+03  0.42415720369E+03  0.00000000000E+00 0.  1.
         36    2    1    2    0    0 -0.35527136788E-14 -0.14210854715E-13 -0.37954394873E+03  0.46877045866E+03  0.27512203455E+03 0.  0.
         25    2    3    3    0    0 -0.86469154857E+01 -0.42462378270E+02 -0.19009102185E+03  0.23093992510E+03  0.12377733920E+03 0.  0.
         25    2    3    3    0    0  0.86469154857E+01  0.42462378270E+02 -0.18945292688E+03  0.23783053356E+03  0.13708803185E+03 0.  0.
          5    1    4    4  502    0 -0.19006973727E+02  0.40312138581E+02 -0.44988887179E+02  0.63501366417E+02  0.47000000000E+01 0. -1.
         -5    1    4    4    0  502  0.10360058242E+02 -0.82774516851E+02 -0.14510213467E+03  0.16743855868E+03  0.47000000000E+01 0. -1.
          5    1    5    5  503    0  0.16013830388E+02  0.88537795356E+02 -0.15626648360E+03  0.18037928891E+03  0.47000000000E+01 0. -1.
         -5    1    5    5    0  503 -0.73669149019E+01 -0.46075417086E+02 -0.33186443276E+02  0.57451244653E+02  0.47000000000E+01 0. -1.
<mgrwt>
<rscale>  0 0.27512203E+03</rscale>
<asrwt>0</asrwt>
<pdfrwt beam="1">  1        2 0.65254952E-01 0.27512203E+03</pdfrwt>
<pdfrwt beam="2">  1       -2 0.68635780E-02 0.27512203E+03</pdfrwt>
<totfact> 0.89338238E+03</totfact>
</mgrwt>
</event>
<event>
 9    1  0.2074770E-002  0.2768025E+03  0.7818608E-02  0.1097448E+00
          1   -1    0    0  501    0  0.00000000000E+00  0.00000000000E+00  0.60664481398E+03  0.60664481398E+03  0.00000000000E+00 0.  1.
         -1   -1    0    0    0  501 -0.00000000000E+00 -0.00000000000E+00 -0.31575154011E+02  0.31575154011E+02  0.00000000000E+00 0.  1.
         36    2    1    2    0    0 -0.71054273576E-14  0.00000000000E+00  0.57506965997E+03  0.63821996799E+03  0.27680248143E+03 0.  0.
         25    2    3    3    0    0 -0.30925706028E+02 -0.36622027820E+02  0.34646949186E+03  0.37386771637E+03  0.13205449002E+03 0.  0.
         25    2    3    3    0    0  0.30925706028E+02  0.36622027820E+02  0.22860016811E+03  0.26435225163E+03  0.12380025794E+03 0.  0.
          5    1    4    4  502    0  0.44149946223E+02 -0.55237537935E+01  0.21209258432E+03  0.21676042981E+03  0.47000000000E+01 0.  1.
         -5    1    4    4    0  502 -0.75075652251E+02 -0.31098274026E+02  0.13437690754E+03  0.15710728656E+03  0.47000000000E+01 0.  1.
          5    1    5    5  503    0 -0.96775738792E+01  0.75493120422E+02  0.13628144589E+03  0.15616526234E+03  0.47000000000E+01 0. -1.
         -5    1    5    5    0  503  0.40603279908E+02 -0.38871092602E+02  0.92318722216E+02  0.10818698929E+03  0.47000000000E+01 0. -1.
<mgrwt>
<rscale>  0 0.27680248E+03</rscale>
<asrwt>0</asrwt>
<pdfrwt beam="1">  1        1 0.93329963E-01 0.27680248E+03</pdfrwt>
<pdfrwt beam="2">  1       -1 0.48577165E-02 0.27680248E+03</pdfrwt>
<totfact> 0.63443797E+03</totfact>
</mgrwt>
</event>
<event>
 9    1  0.2074770E-002  0.2743152E+03  0.7818608E-02  0.1098835E+00
          1   -1    0    0  501    0  0.00000000000E+00  0.00000000000E+00  0.10924353094E+03  0.10924353094E+03  0.00000000000E+00 0.  1.
         -1   -1    0    0    0  501 -0.00000000000E+00 -0.00000000000E+00 -0.17220426258E+03  0.17220426258E+03  0.00000000000E+00 0.  1.
         36    2    1    2    0    0 -0.21316282073E-13 -0.17763568394E-14 -0.62960731642E+02  0.28144779352E+03  0.27431515953E+03 0.  0.
         25    2    3    3    0    0  0.60622114103E+02  0.11606892741E+02 -0.37693815521E+02  0.13978047981E+03  0.11961604462E+03 0.  0.
         25    2    3    3    0    0 -0.60622114103E+02 -0.11606892741E+02 -0.25266916120E+02  0.14166731371E+03  0.12498579938E+03 0.  0.
          5    1    4    4  502    0 -0.15605172454E+02  0.89639880613E+01  0.31571311561E+02  0.36643037578E+02  0.47000000000E+01 0.  1.
         -5    1    4    4    0  502  0.76227286557E+02  0.26429046796E+01 -0.69265127082E+02  0.10313744223E+03  0.47000000000E+01 0.  1.
          5    1    5    5  503    0 -0.48746999515E+02 -0.45955548679E+02  0.31437059278E+02  0.74152283256E+02  0.47000000000E+01 0. -1.
         -5    1    5    5    0  503 -0.11875114588E+02  0.34348655938E+02 -0.56703975398E+02  0.67515030453E+02  0.47000000000E+01 0. -1.
<mgrwt>
<rscale>  0 0.27431516E+03</rscale>
<asrwt>0</asrwt>
<pdfrwt beam="1">  1        1 0.16806697E-01 0.27431516E+03</pdfrwt>
<pdfrwt beam="2">  1       -1 0.26492963E-01 0.27431516E+03</pdfrwt>
<totfact> 0.40253626E+03</totfact>
</mgrwt>
</event>
<event>
 9    1  0.2074770E-002  0.2739688E+03  0.7818608E-02  0.1099029E+00
         -2   -1    0    0    0  501 -0.00000000000E+00  0.00000000000E+00  0.77743946490E+02  0.77743946490E+02  0.00000000000E+00 0. -1.
          2   -1    0    0  501    0  0.00000000000E+00 -0.00000000000E+00 -0.24136574162E+03  0.24136574162E+03  0.00000000000E+00 0. -1.
         36    2    1    2    0    0  0.00000000000E+00  0.00000000000E+00 -0.16362179513E+03  0.31910968811E+03  0.27396879604E+03 0.  0.
         25    2    3    3    0    0  0.44062103289E+02  0.38975036407E+02 -0.10588478298E+03  0.17502576052E+03  0.12634044154E+03 0.  0.
         25    2    3    3    0    0 -0.44062103289E+02 -0.38975036407E+02 -0.57737012151E+02  0.14408392759E+03  0.11817822646E+03 0.  0.
          5    1    4    4  502    0  0.93992172399E+01  0.74752652157E+02 -0.99032369021E+02  0.12452230484E+03  0.47000000000E+01 0.  1.
         -5    1    4    4    0  502  0.34662886049E+02 -0.35777615751E+02 -0.68524139582E+01  0.50503455675E+02  0.47000000000E+01 0.  1.
          5    1    5    5  503    0  0.39085466858E+02 -0.96669184249E+01 -0.33346097746E+02  0.52489763442E+02  0.47000000000E+01 0.  1.
         -5    1    5    5    0  503 -0.83147570147E+02 -0.29308117982E+02 -0.24390914405E+02  0.91594164151E+02  0.47000000000E+01 0.  1.
<mgrwt>
<rscale>  0 0.27396880E+03</rscale>
<asrwt>0</asrwt>
<pdfrwt beam="1">  1        2 0.37133191E-01 0.27396880E+03</pdfrwt>
<pdfrwt beam="2">  1       -2 0.11960607E-01 0.27396880E+03</pdfrwt>
<totfact> 0.68350876E+03</totfact>
</mgrwt>
</event>
<event>
 9    1  0.2074770E-002  0.2749623E+03  0.7818608E-02  0.1098473E+00
         -2   -1    0    0    0  501 -0.00000000000E+00  0.00000000000E+00  0.34203045160E+02  0.34203045160E+02  0.00000000000E+00 0. -1.
          2   -1    0    0  501    0  0.00000000000E+00 -0.00000000000E+00 -0.55261369209E+03  0.55261369209E+03  0.00000000000E+00 0. -1.
         36    2    1    2    0    0  0.00000000000E+00  0.35527136788E-14 -0.51841064693E+03  0.58681673725E+03  0.27496233245E+03 0.  0.
         25    2    3    3    0    0  0.54032436471E+02  0.67511275419E+01 -0.29398976517E+03  0.32447423060E+03  0.12604944422E+03 0.  0.
         25    2    3    3    0    0 -0.54032436471E+02 -0.67511275419E+01 -0.22442088176E+03  0.26234250664E+03  0.12447400013E+03 0.  0.
          5    1    4    4  502    0  0.72376601496E+02  0.26758670839E+02 -0.90050153019E+02  0.11868242906E+03  0.47000000000E+01 0.  1.
         -5    1    4    4    0  502 -0.18344165025E+02 -0.20007543297E+02 -0.20393961215E+03  0.20579180154E+03  0.47000000000E+01 0.  1.
          5    1    5    5  503    0 -0.14408518241E+02 -0.49090100258E+02 -0.18516100886E+03  0.19215653136E+03  0.47000000000E+01 0.  1.
         -5    1    5    5    0  503 -0.39623918230E+02  0.42338972716E+02 -0.39259872897E+02  0.70185975283E+02  0.47000000000E+01 0.  1.
<mgrwt>
<rscale>  0 0.27496233E+03</rscale>
<asrwt>0</asrwt>
<pdfrwt beam="1">  1        2 0.85017491E-01 0.27496233E+03</pdfrwt>
<pdfrwt beam="2">  1       -2 0.52620070E-02 0.27496233E+03</pdfrwt>
<totfact> 0.10002678E+04</totfact>
</mgrwt>
</event>
<event>
 9    1  0.2074770E-002  0.2768150E+03  0.7818608E-02  0.1097441E+00
          1   -1    0    0  501    0  0.00000000000E+00  0.00000000000E+00  0.50026060874E+02  0.50026060874E+02  0.00000000000E+00 0.  1.
         -1   -1    0    0    0  501 -0.00000000000E+00 -0.00000000000E+00 -0.38293317942E+03  0.38293317942E+03  0.00000000000E+00 0.  1.
         36    2    1    2    0    0 -0.35527136788E-14  0.00000000000E+00 -0.33290711855E+03  0.43295924030E+03  0.27681501798E+03 0.  0.
         25    2    3    3    0    0  0.13303087028E+02  0.48836406793E+01 -0.24943918302E+03  0.28129866623E+03  0.12926024727E+03 0.  0.
         25    2    3    3    0    0 -0.13303087028E+02 -0.48836406793E+01 -0.83467935527E+02  0.15166057407E+03  0.12583008939E+03 0.  0.
          5    1    4    4  502    0  0.29082239282E+02  0.22471114605E+02 -0.70513798767E+01  0.37716569190E+02  0.47000000000E+01 0.  1.
         -5    1    4    4    0  502 -0.15779152255E+02 -0.17587473926E+02 -0.24238780314E+03  0.24358209704E+03  0.47000000000E+01 0.  1.
          5    1    5    5  503    0  0.48329625891E+02 -0.23109842092E+02 -0.11379719262E+02  0.54967313476E+02  0.47000000000E+01 0.  1.
         -5    1    5    5    0  503 -0.61632712919E+02  0.18226201413E+02 -0.72088216265E+02  0.96693260592E+02  0.47000000000E+01 0.  1.
<mgrwt>
<rscale>  0 0.27681502E+03</rscale>
<asrwt>0</asrwt>
<pdfrwt beam="1">  1        1 0.76963172E-02 0.27681502E+03</pdfrwt>
<pdfrwt beam="2">  1       -1 0.58912796E-01 0.27681502E+03</pdfrwt>
<totfact> 0.27526926E+03</totfact>
</mgrwt>
</event>
<event>
 9    1  0.2074770E-002  0.2740493E+03  0.7818608E-02  0.1098984E+00
         -1   -1    0    0    0  501 -0.00000000000E+00  0.00000000000E+00  0.17924407951E+03  0.17924407951E+03  0.00000000000E+00 0. -1.
          1   -1    0    0  501    0  0.00000000000E+00 -0.00000000000E+00 -0.10474967338E+03  0.10474967338E+03  0.00000000000E+00 0. -1.
         36    2    1    2    0    0  0.00000000000E+00  0.00000000000E+00  0.74494406131E+02  0.28399375288E+03  0.27404932974E+03 0.  0.
         25    2    3    3    0    0 -0.37560386893E+02  0.85304353925E+01  0.82066052335E+02  0.15276818481E+03  0.12296231273E+03 0.  0.
         25    2    3    3    0    0  0.37560386893E+02 -0.85304353925E+01 -0.75716462036E+01  0.13122556807E+03  0.12521688743E+03 0.  0.
          5    1    4    4  502    0  0.13177893592E+02 -0.38910981807E+02 -0.45955040018E+01  0.41604447379E+02  0.47000000000E+01 0.  1.
         -5    1    4    4    0  502 -0.50738280485E+02  0.47441417199E+02  0.86661556337E+02  0.11116373743E+03  0.47000000000E+01 0.  1.
          5    1    5    5  503    0 -0.16937102013E+02  0.16081338811E+02 -0.51590032056E+02  0.56825137836E+02  0.47000000000E+01 0. -1.
         -5    1    5    5    0  503  0.54497488907E+02 -0.24611774203E+02  0.44018385852E+02  0.74400430238E+02  0.47000000000E+01 0. -1.
<mgrwt>
<rscale>  0 0.27404933E+03</rscale>
<asrwt>0</asrwt>
<pdfrwt beam="1">  1        1 0.16115334E-01 0.27404933E+03</pdfrwt>
<pdfrwt beam="2">  1       -1 0.27576012E-01 0.27404933E+03</pdfrwt>
<totfact> 0.39754098E+03</totfact>
</mgrwt>
</event>
<event>
 9    1  0.2074770E-002  0.2738189E+03  0.7818608E-02  0.1099114E+00
          2   -1    0    0  501    0  0.00000000000E+00  0.00000000000E+00  0.76805353267E+03  0.76805353267E+03  0.00000000000E+00 0.  1.
         -2   -1    0    0    0  501 -0.00000000000E+00 -0.00000000000E+00 -0.24404798613E+02  0.24404798613E+02  0.00000000000E+00 0.  1.
         36    2    1    2    0    0  0.35527136788E-14  0.00000000000E+00  0.74364873406E+03  0.79245833129E+03  0.27381885829E+03 0.  0.
         25    2    3    3    0    0 -0.40748136944E+01  0.56132885539E+02  0.37794946911E+03  0.40346751455E+03  0.12950957166E+03 0.  0.
         25    2    3    3    0    0  0.40748136944E+01 -0.56132885539E+02  0.36569926495E+03  0.38899081674E+03  0.12004331791E+03 0.  0.
          5    1    4    4  502    0 -0.39996609741E+02 -0.77009071820E+01  0.38741341131E+02  0.56409345634E+02  0.47000000000E+01 0. -1.
         -5    1    4    4    0  502  0.35921796046E+02  0.63833792721E+02  0.33920812798E+03  0.34705816891E+03  0.47000000000E+01 0. -1.
          5    1    5    5  503    0  0.18203622225E+02 -0.44695855599E+02  0.40298392259E+02  0.63048725510E+02  0.47000000000E+01 0.  1.
         -5    1    5    5    0  503 -0.14128808531E+02 -0.11437029940E+02  0.32540087269E+03  0.32594209123E+03  0.47000000000E+01 0.  1.
<mgrwt>
<rscale>  0 0.27381886E+03</rscale>
<asrwt>0</asrwt>
<pdfrwt beam="1">  1        2 0.11816206E+00 0.27381886E+03</pdfrwt>
<pdfrwt beam="2">  1       -2 0.37545850E-02 0.27381886E+03</pdfrwt>
<totfact> 0.11257219E+04</totfact>
</mgrwt>
</event>
<event>
 9    1  0.2074770E-002  0.2757427E+03  0.7818608E-02  0.1098037E+00
         -2   -1    0    0    0  501 -0.00000000000E+00  0.00000000000E+00  0.22702114066E+03  0.22702114066E+03  0.00000000000E+00 0.  1.
          2   -1    0    0  501    0  0.00000000000E+00 -0.00000000000E+00 -0.83730157797E+02  0.83730157797E+02  0.00000000000E+00 0.  1.
         36    2    1    2    0    0  0.00000000000E+00  0.00000000000E+00  0.14329098287E+03  0.31075129846E+03  0.27574274918E+03 0.  0.
         25    2    3    3    0    0 -0.34648112749E+02 -0.41035146838E+02  0.47206085942E+02  0.14386281444E+03  0.12483477013E+03 0.  0.
         25    2    3    3    0    0  0.34648112749E+02  0.41035146838E+02  0.96084896923E+02  0.16688848402E+03  0.12543956190E+03 0.  0.
          5    1    4    4  502    0  0.37453096838E+01 -0.68014699050E+02 -0.10774610461E+02  0.69124589417E+02  0.47000000000E+01 0.  1.
         -5    1    4    4    0  502 -0.38393422433E+02  0.26979552212E+02  0.57980696403E+02  0.74738225019E+02  0.47000000000E+01 0.  1.
          5    1    5    5  503    0 -0.24877133227E+02  0.40709933169E+02 -0.63114368879E+01  0.48353848366E+02  0.47000000000E+01 0. -1.
         -5    1    5    5    0  503  0.59525245976E+02  0.32521366954E+00  0.10239633381E+03  0.11853463566E+03  0.47000000000E+01 0. -1.
<mgrwt>
<rscale>  0 0.27574275E+03</rscale>
<asrwt>0</asrwt>
<pdfrwt beam="1">  1        2 0.12881563E-01 0.27574275E+03</pdfrwt>
<pdfrwt beam="2">  1       -2 0.34926329E-01 0.27574275E+03</pdfrwt>
<totfact> 0.35953818E+03</totfact>
</mgrwt>
</event>
<event>
 9    1  0.2074770E-002  0.2746866E+03  0.7818608E-02  0.1098627E+00
         -1   -1    0    0    0  501 -0.00000000000E+00  0.00000000000E+00  0.17961580075E+02  0.17961580075E+02  0.00000000000E+00 0. -1.
          1   -1    0    0  501    0  0.00000000000E+00 -0.00000000000E+00 -0.10501963187E+04  0.10501963187E+04  0.00000000000E+00 0. -1.
         36    2    1    2    0    0  0.35527136788E-14  0.00000000000E+00 -0.10322347386E+04  0.10681578987E+04  0.27468662343E+03 0.  0.
         25    2    3    3    0    0 -0.13532044294E+02  0.41361518986E+02 -0.33354021275E+03  0.36036956921E+03  0.12931844964E+03 0.  0.
         25    2    3    3    0    0  0.13532044294E+02 -0.41361518986E+02 -0.69869452585E+03  0.70778832954E+03  0.10438576292E+03 0.  0.
          5    1    4    4  502    0  0.21459110297E+02  0.22017448071E+01 -0.29307680061E+03  0.29390719989E+03  0.47000000000E+01 0. -1.
         -5    1    4    4    0  502 -0.34991154591E+02  0.39159774179E+02 -0.40463412141E+02  0.66462369319E+02  0.47000000000E+01 0. -1.
          5    1    5    5  503    0  0.17145398138E+02 -0.49280927370E+02 -0.14789465931E+03  0.15689963267E+03  0.47000000000E+01 0.  1.
         -5    1    5    5    0  503 -0.36133538437E+01  0.79194083847E+01 -0.55079986654E+03  0.55088869686E+03  0.47000000000E+01 0.  1.
<mgrwt>
<rscale>  0 0.27468662E+03</rscale>
<asrwt>0</asrwt>
<pdfrwt beam="1">  1        1 0.16156867E+00 0.27468662E+03</pdfrwt>
<pdfrwt beam="2">  1       -1 0.27633200E-02 0.27468662E+03</pdfrwt>
<totfact> 0.62463278E+03</totfact>
</mgrwt>
</event>
<event>
 9    1  0.2074770E-002  0.2742731E+03  0.7818608E-02  0.1098859E+00
          2   -1    0    0  501    0  0.00000000000E+00  0.00000000000E+00  0.26837885992E+04  0.26837885992E+04  0.00000000000E+00 0. -1.
         -2   -1    0    0    0  501 -0.00000000000E+00 -0.00000000000E+00 -0.70074205998E+01  0.70074205998E+01  0.00000000000E+00 0. -1.
         36    2    1    2    0    0  0.00000000000E+00  0.00000000000E+00  0.26767811786E+04  0.26907960198E+04  0.27427311582E+03 0.  0.
         25    2    3    3    0    0  0.28439093360E+02 -0.39804959724E+02  0.13240314423E+04  0.13308522148E+04  0.12536004334E+03 0.  0.
         25    2    3    3    0    0 -0.28439093360E+02  0.39804959724E+02  0.13527497363E+04  0.13599438050E+04  0.13085139270E+03 0.  0.
          5    1    4    4  502    0  0.49629544007E+02  0.28485578400E+02  0.40767414575E+03  0.41169748472E+03  0.47000000000E+01 0.  1.
         -5    1    4    4    0  502 -0.21190450647E+02 -0.68290538123E+02  0.91635729657E+03  0.91915473005E+03  0.47000000000E+01 0.  1.
          5    1    5    5  503    0  0.31649725593E+02  0.22649115492E+02  0.10522195018E+04  0.10529495038E+04  0.47000000000E+01 0. -1.
         -5    1    5    5    0  503 -0.60088818953E+02  0.17155844231E+02  0.30053023445E+03  0.30699430121E+03  0.47000000000E+01 0. -1.
<mgrwt>
<rscale>  0 0.27427312E+03</rscale>
<asrwt>0</asrwt>
<pdfrwt beam="1">  1        2 0.41288973E+00 0.27427312E+03</pdfrwt>
<pdfrwt beam="2">  1       -2 0.10780669E-02 0.27427312E+03</pdfrwt>
<totfact> 0.60607777E+03</totfact>
</mgrwt>
</event>
<event>
 9    1  0.2074770E-002  0.2753493E+03  0.7818608E-02  0.1098257E+00
          1   -1    0    0  501    0  0.00000000000E+00  0.00000000000E+00  0.36891150993E+03  0.36891150993E+03  0.00000000000E+00 0. -1.
         -1   -1    0    0    0  501 -0.00000000000E+00 -0.00000000000E+00 -0.51379013566E+02  0.51379013566E+02  0.00000000000E+00 0. -1.
         36    2    1    2    0    0 -0.35527136788E-14  0.71054273576E-14  0.31753249636E+03  0.42029052349E+03  0.27534930160E+03 0.  0.
         25    2    3    3    0    0  0.31201806382E+02 -0.46595671463E+02  0.11642630685E+03  0.17905644886E+03  0.12394118617E+03 0.  0.
         25    2    3    3    0    0 -0.31201806382E+02  0.46595671463E+02  0.20110618951E+03  0.24123407463E+03  0.12085309258E+03 0.  0.
          5    1    4    4  502    0 -0.26851102764E+02 -0.61623207054E+02  0.92227770465E+02  0.11422107079E+03  0.47000000000E+01 0. -1.
         -5    1    4    4    0  502  0.58052909146E+02  0.15027535591E+02  0.24198536389E+02  0.64835378071E+02  0.47000000000E+01 0. -1.
          5    1    5    5  503    0  0.19922930963E+02  0.41999383042E+02  0.17926221236E+03  0.18525091669E+03  0.47000000000E+01 0.  1.
         -5    1    5    5    0  503 -0.51124737344E+02  0.45962884205E+01  0.21843977149E+02  0.55983157945E+02  0.47000000000E+01 0.  1.
<mgrwt>
<rscale>  0 0.27534930E+03</rscale>
<asrwt>0</asrwt>
<pdfrwt beam="1">  1        1 0.56755615E-01 0.27534930E+03</pdfrwt>
<pdfrwt beam="2">  1       -1 0.79044638E-02 0.27534930E+03</pdfrwt>
<totfact> 0.58640355E+03</totfact>
</mgrwt>
</event>
<event>
 9    1  0.2074770E-002  0.2748178E+03  0.7818608E-02  0.1098553E+00
          4   -1    0    0  501    0  0.00000000000E+00  0.00000000000E+00  0.10048398675E+03  0.10048398675E+03  0.00000000000E+00 0. -1.
         -4   -1    0    0    0  501 -0.00000000000E+00 -0.00000000000E+00 -0.18790265327E+03  0.18790265327E+03  0.00000000000E+00 0. -1.
         36    2    1    2    0    0  0.00000000000E+00  0.00000000000E+00 -0.87418666521E+02  0.28838664002E+03  0.27481781398E+03 0.  0.
         25    2    3    3    0    0 -0.54080415586E+02 -0.18535552474E+02 -0.60658909232E+02  0.15458940498E+03  0.13019263730E+03 0.  0.
         25    2    3    3    0    0  0.54080415586E+02  0.18535552474E+02 -0.26759757290E+02  0.13379723504E+03  0.11797185019E+03 0.  0.
          5    1    4    4  502    0 -0.88661886879E+02  0.50477824505E+01 -0.67852317631E+02  0.11185900635E+03  0.47000000000E+01 0.  1.
         -5    1    4    4    0  502  0.34581471293E+02 -0.23583334924E+02  0.71934083996E+01  0.42730398633E+02  0.47000000000E+01 0.  1.
          5    1    5    5  503    0  0.52619037871E+02  0.68691318763E+01 -0.70441178635E+02  0.88317596020E+02  0.47000000000E+01 0. -1.
         -5    1    5    5    0  503  0.14613777158E+01  0.11666420597E+02  0.43681421346E+02  0.45479639017E+02  0.47000000000E+01 0. -1.
<mgrwt>
<rscale>  0 0.27481781E+03</rscale>
<asrwt>0</asrwt>
<pdfrwt beam="1">  1        4 0.15459075E-01 0.27481781E+03</pdfrwt>
<pdfrwt beam="2">  1       -4 0.28908101E-01 0.27481781E+03</pdfrwt>
<totfact> 0.76463207E+02</totfact>
</mgrwt>
</event>
<event>
 9    1  0.2074770E-002  0.2767501E+03  0.7818608E-02  0.1097477E+00
          2   -1    0    0  501    0  0.00000000000E+00  0.00000000000E+00  0.98132131969E+03  0.98132131969E+03  0.00000000000E+00 0.  1.
         -2   -1    0    0    0  501 -0.00000000000E+00 -0.00000000000E+00 -0.19512119567E+02  0.19512119567E+02  0.00000000000E+00 0.  1.
         36    2    1    2    0    0  0.71054273576E-14  0.00000000000E+00  0.96180920013E+03  0.10008334393E+04  0.27675013224E+03 0.  0.
         25    2    3    3    0    0 -0.42049516590E+02  0.16231020673E+02  0.62989388299E+03  0.64461045136E+03  0.12932409789E+03 0.  0.
         25    2    3    3    0    0  0.42049516590E+02 -0.16231020673E+02  0.33191531714E+03  0.35622298790E+03  0.12122471482E+03 0.  0.
          5    1    4    4  502    0 -0.31156239713E+02  0.41794272573E+02  0.60423369422E+03  0.60649643010E+03  0.47000000000E+01 0. -1.
         -5    1    4    4    0  502 -0.10893276877E+02 -0.25563251899E+02  0.25660188770E+02  0.38114021259E+02  0.47000000000E+01 0. -1.
          5    1    5    5  503    0 -0.40486151844E+02 -0.18930048279E+02  0.90748974475E+02  0.10126668548E+03  0.47000000000E+01 0. -1.
         -5    1    5    5    0  503  0.82535668434E+02  0.26990276055E+01  0.24116634266E+03  0.25495630243E+03  0.47000000000E+01 0. -1.
<mgrwt>
<rscale>  0 0.27675013E+03</rscale>
<asrwt>0</asrwt>
<pdfrwt beam="1">  1        2 0.15097247E+00 0.27675013E+03</pdfrwt>
<pdfrwt beam="2">  1       -2 0.30018653E-02 0.27675013E+03</pdfrwt>
<totfact> 0.11384958E+04</totfact>
</mgrwt>
</event>
<event>
 9    1  0.2074770E-002  0.2755271E+03  0.7818608E-02  0.1098157E+00
         -1   -1    0    0    0  501 -0.00000000000E+00  0.00000000000E+00  0.63329976159E+02  0.63329976159E+02  0.00000000000E+00 0. -1.
          1   -1    0    0  501    0  0.00000000000E+00 -0.00000000000E+00 -0.29968097239E+03  0.29968097239E+03  0.00000000000E+00 0. -1.
         36    2    1    2    0    0  0.35527136788E-14  0.00000000000E+00 -0.23635099623E+03  0.36301094855E+03  0.27552705012E+03 0.  0.
         25    2    3    3    0    0 -0.25362914516E+02  0.35222550620E+02 -0.15818805816E+03  0.21061868913E+03  0.13210929174E+03 0.  0.
         25    2    3    3    0    0  0.25362914516E+02 -0.35222550620E+02 -0.78162938076E+02  0.15239225942E+03  0.12341009009E+03 0.  0.
          5    1    4    4  502    0 -0.25020520524E+02 -0.42579014635E+02 -0.10537026060E+03  0.11646450427E+03  0.47000000000E+01 0. -1.
         -5    1    4    4    0  502 -0.34239399241E+00  0.77801565255E+02 -0.52817797553E+02  0.94154184867E+02  0.47000000000E+01 0. -1.
          5    1    5    5  503    0 -0.20274522518E+02  0.24539923105E+02  0.12491645232E+02  0.34516594414E+02  0.47000000000E+01 0.  1.
         -5    1    5    5    0  503  0.45637437034E+02 -0.59762473725E+02 -0.90654583308E+02  0.11787566500E+03  0.47000000000E+01 0.  1.
<mgrwt>
<rscale>  0 0.27552705E+03</rscale>
<asrwt>0</asrwt>
<pdfrwt beam="1">  1        1 0.46104765E-01 0.27552705E+03</pdfrwt>
<pdfrwt beam="2">  1       -1 0.97430732E-02 0.27552705E+03</pdfrwt>
<totfact> 0.55328869E+03</totfact>
</mgrwt>
</event>
<event>
 9    1  0.2074770E-002  0.2751981E+03  0.7818608E-02  0.1098341E+00
         -2   -1    0    0    0  501 -0.00000000000E+00  0.00000000000E+00  0.12047703207E+02  0.12047703207E+02  0.00000000000E+00 0. -1.
          2   -1    0    0  501    0  0.00000000000E+00 -0.00000000000E+00 -0.15715438471E+04  0.15715438471E+04  0.00000000000E+00 0. -1.
         36    2    1    2    0    0  0.00000000000E+00 -0.71054273576E-14 -0.15594961439E+04  0.15835915503E+04  0.27519806573E+03 0.  0.
         25    2    3    3    0    0 -0.40855660702E+02 -0.38224058998E+02 -0.75649803076E+03  0.76855546050E+03  0.12352312179E+03 0.  0.
         25    2    3    3    0    0  0.40855660702E+02  0.38224058998E+02 -0.80299811309E+03  0.81503608977E+03  0.12785771115E+03 0.  0.
          5    1    4    4  502    0  0.11536844439E+02  0.24410717448E+02 -0.47375183787E+02  0.54730977927E+02  0.47000000000E+01 0.  1.
         -5    1    4    4    0  502 -0.52392505142E+02 -0.62634776446E+02 -0.70912284697E+03  0.71382448257E+03  0.47000000000E+01 0.  1.
          5    1    5    5  503    0 -0.10201867670E+01  0.78680109686E+02 -0.53245345764E+03  0.53825679280E+03  0.47000000000E+01 0.  1.
         -5    1    5    5    0  503  0.41875847469E+02 -0.40456050688E+02 -0.27054465545E+03  0.27677929697E+03  0.47000000000E+01 0.  1.
<mgrwt>
<rscale>  0 0.27519807E+03</rscale>
<asrwt>0</asrwt>
<pdfrwt beam="1">  1        2 0.24177614E+00 0.27519807E+03</pdfrwt>
<pdfrwt beam="2">  1       -2 0.18534915E-02 0.27519807E+03</pdfrwt>
<totfact> 0.10804666E+04</totfact>
</mgrwt>
</event>
<event>
 9    1  0.2074770E-002  0.2758982E+03  0.7818608E-02  0.1097951E+00
          1   -1    0    0  501    0  0.00000000000E+00  0.00000000000E+00  0.63078394251E+03  0.63078394251E+03  0.00000000000E+00 0. -1.
         -1   -1    0    0    0  501 -0.00000000000E+00 -0.00000000000E+00 -0.30168742983E+02  0.30168742983E+02  0.00000000000E+00 0. -1.
         36    2    1    2    0    0 -0.71054273576E-14  0.00000000000E+00  0.60061519953E+03  0.66095268550E+03  0.27589823225E+03 0.  0.
         25    2    3    3    0    0 -0.58539963020E+02 -0.39809173246E+02  0.36357224644E+03  0.37997629354E+03  0.84767374211E+02 0.  0.
         25    2    3    3    0    0  0.58539963020E+02  0.39809173246E+02  0.23704295309E+03  0.28097639195E+03  0.13321664190E+03 0.  0.
          5    1    4    4  502    0 -0.79083291759E+00 -0.96204636026E+01  0.15944012719E+00  0.10737511713E+02  0.47000000000E+01 0.  1.
         -5    1    4    4    0  502 -0.57749130102E+02 -0.30188709643E+02  0.36341280631E+03  0.36923878183E+03  0.47000000000E+01 0.  1.
          5    1    5    5  503    0  0.86404856665E+02 -0.13377661042E+02  0.16729171205E+03  0.18882099457E+03  0.47000000000E+01 0. -1.
         -5    1    5    5    0  503 -0.27864893646E+02  0.53186834288E+02  0.69751241040E+02  0.92155397379E+02  0.47000000000E+01 0. -1.
<mgrwt>
<rscale>  0 0.27589823E+03</rscale>
<asrwt>0</asrwt>
<pdfrwt beam="1">  1        1 0.97043674E-01 0.27589823E+03</pdfrwt>
<pdfrwt beam="2">  1       -1 0.46413455E-02 0.27589823E+03</pdfrwt>
<totfact> 0.64298055E+03</totfact>
</mgrwt>
</event>
<event>
 9    1  0.2074770E-002  0.2739973E+03  0.7818608E-02  0.1099013E+00
          2   -1    0    0  501    0  0.00000000000E+00  0.00000000000E+00  0.14560514336E+03  0.14560514336E+03  0.00000000000E+00 0. -1.
         -2   -1    0    0    0  501 -0.00000000000E+00 -0.00000000000E+00 -0.12890084480E+03  0.12890084480E+03  0.00000000000E+00 0. -1.
         36    2    1    2    0    0  0.21316282073E-13  0.00000000000E+00  0.16704298557E+02  0.27450598816E+03  0.27399726996E+03 0.  0.
         25    2    3    3    0    0 -0.62790133566E+02 -0.61224403366E+01  0.19867213623E+02  0.13504734112E+03  0.11774121206E+03 0.  0.
         25    2    3    3    0    0  0.62790133566E+02  0.61224403366E+01 -0.31629150661E+01  0.13945864704E+03  0.12433271916E+03 0.  0.
          5    1    4    4  502    0 -0.33310565911E+02  0.21381620825E+02  0.63803271328E+02  0.75231076974E+02  0.47000000000E+01 0.  1.
         -5    1    4    4    0  502 -0.29479567654E+02 -0.27504061161E+02 -0.43936057706E+02  0.59816264144E+02  0.47000000000E+01 0.  1.
          5    1    5    5  503    0 -0.12515193864E+02  0.28893453896E+02 -0.41101746727E+02  0.51989473353E+02  0.47000000000E+01 0. -1.
         -5    1    5    5    0  503  0.75305327429E+02 -0.22771013559E+02  0.37938831661E+02  0.87469173687E+02  0.47000000000E+01 0. -1.
<mgrwt>
<rscale>  0 0.27399727E+03</rscale>
<asrwt>0</asrwt>
<pdfrwt beam="1">  1        2 0.22400791E-01 0.27399727E+03</pdfrwt>
<pdfrwt beam="2">  1       -2 0.19830899E-01 0.27399727E+03</pdfrwt>
<totfact> 0.51612867E+03</totfact>
</mgrwt>
</event>
<event>
 9    1  0.2074770E-002  0.2757848E+03  0.7818608E-02  0.1098014E+00
         -3   -1    0    0    0  501 -0.00000000000E+00  0.00000000000E+00  0.53511159589E+03  0.53511159589E+03  0.00000000000E+00 0. -1.
          3   -1    0    0  501    0  0.00000000000E+00 -0.00000000000E+00 -0.35533357107E+02  0.35533357107E+02  0.00000000000E+00 0. -1.
         36    2    1    2    0    0 -0.35527136788E-14  0.14210854715E-13  0.49957823879E+03  0.57064495300E+03  0.27578478152E+03 0.  0.
         25    2    3    3    0    0  0.12071835307E+02 -0.51820754975E+02  0.18018785392E+03  0.22381622218E+03  0.12163436503E+03 0.  0.
         25    2    3    3    0    0 -0.12071835307E+02  0.51820754975E+02  0.31939038486E+03  0.34682873082E+03  0.12429332534E+03 0.  0.
          5    1    4    4  502    0 -0.13225390297E+02  0.19069792384E+02 -0.46988759016E+01  0.24139953704E+02  0.47000000000E+01 0. -1.
         -5    1    4    4    0  502  0.25297225604E+02 -0.70890547359E+02  0.18488672982E+03  0.19967626848E+03  0.47000000000E+01 0. -1.
          5    1    5    5  503    0  0.14464633480E+00  0.66100196570E+02  0.68919323552E+02  0.95609727894E+02  0.47000000000E+01 0.  1.
         -5    1    5    5    0  503 -0.12216481642E+02 -0.14279441594E+02  0.25047106131E+03  0.25121900293E+03  0.47000000000E+01 0.  1.
<mgrwt>
<rscale>  0 0.27578478E+03</rscale>
<asrwt>0</asrwt>
<pdfrwt beam="1">  1        3 0.54666707E-02 0.27578478E+03</pdfrwt>
<pdfrwt beam="2">  1       -3 0.82324855E-01 0.27578478E+03</pdfrwt>
<totfact> 0.70299084E+02</totfact>
</mgrwt>
</event>
<event>
 9    1  0.2074770E-002  0.2757193E+03  0.7818608E-02  0.1098050E+00
          2   -1    0    0  501    0  0.00000000000E+00  0.00000000000E+00  0.15323891118E+04  0.15323891118E+04  0.00000000000E+00 0. -1.
         -2   -1    0    0    0  501 -0.00000000000E+00 -0.00000000000E+00 -0.12402387564E+02  0.12402387564E+02  0.00000000000E+00 0. -1.
         36    2    1    2    0    0  0.71054273576E-14  0.00000000000E+00  0.15199867242E+04  0.15447914994E+04  0.27571930410E+03 0.  0.
         25    2    3    3    0    0  0.28592003829E+02 -0.69007162865E+01  0.11134742163E+04  0.11207315280E+04  0.12389190830E+03 0.  0.
         25    2    3    3    0    0 -0.28592003829E+02  0.69007162865E+01  0.40651250792E+03  0.42405997134E+03  0.11708679528E+03 0.  0.
          5    1    4    4  502    0 -0.35766791698E+02  0.29757199330E+02  0.27198154094E+03  0.27597246767E+03  0.47000000000E+01 0.  1.
         -5    1    4    4    0  502  0.64358795527E+02 -0.36657915617E+02  0.84149267538E+03  0.84475906035E+03  0.47000000000E+01 0.  1.
          5    1    5    5  503    0 -0.60997060714E+02  0.37281569281E+02  0.30239007883E+03  0.31076101204E+03  0.47000000000E+01 0. -1.
         -5    1    5    5    0  503  0.32405056885E+02 -0.30380852994E+02  0.10412242908E+03  0.11329895930E+03  0.47000000000E+01 0. -1.
<mgrwt>
<rscale>  0 0.27571930E+03</rscale>
<asrwt>0</asrwt>
<pdfrwt beam="1">  1        2 0.23575202E+00 0.27571930E+03</pdfrwt>
<pdfrwt beam="2">  1       -2 0.19080608E-02 0.27571930E+03</pdfrwt>
<totfact> 0.10863149E+04</totfact>
</mgrwt>
</event>
<event>
 9    1  0.2074770E-002  0.2748659E+03  0.7818608E-02  0.1098527E+00
         -1   -1    0    0    0  501 -0.00000000000E+00  0.00000000000E+00  0.44298383978E+03  0.44298383978E+03  0.00000000000E+00 0. -1.
          1   -1    0    0  501    0  0.00000000000E+00 -0.00000000000E+00 -0.42637698028E+02  0.42637698028E+02  0.00000000000E+00 0. -1.
         36    2    1    2    0    0  0.35527136788E-14 -0.71054273576E-14  0.40034614175E+03  0.48562153781E+03  0.27486586686E+03 0.  0.
         25    2    3    3    0    0  0.29859721057E+02 -0.27178381256E+02  0.13308433054E+03  0.18788020152E+03  0.12632206355E+03 0.  0.
         25    2    3    3    0    0 -0.29859721057E+02  0.27178381256E+02  0.26726181121E+03  0.29774133628E+03  0.12486296589E+03 0.  0.
          5    1    4    4  502    0  0.25954179932E+01 -0.75417961341E+02  0.63017440434E+02  0.98427094269E+02  0.47000000000E+01 0.  1.
         -5    1    4    4    0  502  0.27264303063E+02  0.48239580086E+02  0.70066890106E+02  0.89453107255E+02  0.47000000000E+01 0.  1.
          5    1    5    5  503    0  0.27215250768E+02  0.31558061972E+02  0.21823191394E+03  0.22222474977E+03  0.47000000000E+01 0.  1.
         -5    1    5    5    0  503 -0.57074971824E+02 -0.43796807159E+01  0.49029897276E+02  0.75516586514E+02  0.47000000000E+01 0.  1.
<mgrwt>
<rscale>  0 0.27486587E+03</rscale>
<asrwt>0</asrwt>
<pdfrwt beam="1">  1        1 0.65596462E-02 0.27486587E+03</pdfrwt>
<pdfrwt beam="2">  1       -1 0.68151357E-01 0.27486587E+03</pdfrwt>
<totfact> 0.25775466E+03</totfact>
</mgrwt>
</event>
<event>
 9    1  0.2074770E-002  0.2758850E+03  0.7818608E-02  0.1097958E+00
         -2   -1    0    0    0  501 -0.00000000000E+00  0.00000000000E+00  0.29906463483E+03  0.29906463483E+03  0.00000000000E+00 0.  1.
          2   -1    0    0  501    0  0.00000000000E+00 -0.00000000000E+00 -0.63625473457E+02  0.63625473457E+02  0.00000000000E+00 0.  1.
         36    2    1    2    0    0 -0.71054273576E-14 -0.14210854715E-13  0.23543916137E+03  0.36269010829E+03  0.27588496867E+03 0.  0.
         25    2    3    3    0    0  0.17730328625E+02  0.40917050188E+02  0.97690022680E+02  0.16980887718E+03  0.13154141815E+03 0.  0.
         25    2    3    3    0    0 -0.17730328625E+02 -0.40917050188E+02  0.13774913869E+03  0.19288123111E+03  0.12743537403E+03 0.  0.
          5    1    4    4  502    0 -0.15141946369E+01  0.11169329355E+02  0.12452077616E+03  0.12511818572E+03  0.47000000000E+01 0. -1.
         -5    1    4    4    0  502  0.19244523262E+02  0.29747720834E+02 -0.26830753480E+02  0.44690691455E+02  0.47000000000E+01 0. -1.
          5    1    5    5  503    0  0.29922532281E+02 -0.10315375936E+02 -0.10849617296E+02  0.33787114619E+02  0.47000000000E+01 0. -1.
         -5    1    5    5    0  503 -0.47652860906E+02 -0.30601674252E+02  0.14859875599E+03  0.15909411649E+03  0.47000000000E+01 0. -1.
<mgrwt>
<rscale>  0 0.27588497E+03</rscale>
<asrwt>0</asrwt>
<pdfrwt beam="1">  1        2 0.97885345E-02 0.27588497E+03</pdfrwt>
<pdfrwt beam="2">  1       -2 0.46009943E-01 0.27588497E+03</pdfrwt>
<totfact> 0.29730900E+03</totfact>
</mgrwt>
</event>
<event>
 9    1  0.2074770E-002  0.2750865E+03  0.7818608E-02  0.1098403E+00
          1   -1    0    0  501    0  0.00000000000E+00  0.00000000000E+00  0.14070635642E+04  0.14070635642E+04  0.00000000000E+00 0. -1.
         -1   -1    0    0    0  501 -0.00000000000E+00 -0.00000000000E+00 -0.13445121672E+02  0.13445121672E+02  0.00000000000E+00 0. -1.
         36    2    1    2    0    0 -0.14210854715E-13  0.00000000000E+00  0.13936184426E+04  0.14205086859E+04  0.27508646511E+03 0.  0.
         25    2    3    3    0    0 -0.47805622016E+02 -0.33395740238E+02  0.90904155734E+03  0.91988765403E+03  0.12820331547E+03 0.  0.
         25    2    3    3    0    0  0.47805622016E+02  0.33395740238E+02  0.48457688524E+03  0.50062103189E+03  0.11138225580E+03 0.  0.
          5    1    4    4  502    0 -0.79744644925E+02 -0.54786661419E+02  0.52182342834E+03  0.53073775731E+03  0.47000000000E+01 0. -1.
         -5    1    4    4    0  502  0.31939022909E+02  0.21390921181E+02  0.38721812900E+03  0.38914989672E+03  0.47000000000E+01 0. -1.
          5    1    5    5  503    0 -0.35045068360E+02  0.54094927705E-01  0.16635370688E+03  0.17007000187E+03  0.47000000000E+01 0. -1.
         -5    1    5    5    0  503  0.82850690376E+02  0.33341645310E+02  0.31822317835E+03  0.33055103002E+03  0.47000000000E+01 0. -1.
<mgrwt>
<rscale>  0 0.27508647E+03</rscale>
<asrwt>0</asrwt>
<pdfrwt beam="1">  1        1 0.21647120E+00 0.27508647E+03</pdfrwt>
<pdfrwt beam="2">  1       -1 0.20684814E-02 0.27508647E+03</pdfrwt>
<totfact> 0.53880924E+03</totfact>
</mgrwt>
</event>
<event>
 9    1  0.2074770E-002  0.2748967E+03  0.7818608E-02  0.1098509E+00
          3   -1    0    0  501    0  0.00000000000E+00  0.00000000000E+00  0.41446676074E+03  0.41446676074E+03  0.00000000000E+00 0. -1.
         -3   -1    0    0    0  501 -0.00000000000E+00 -0.00000000000E+00 -0.45581561499E+02  0.45581561499E+02  0.00000000000E+00 0. -1.
         36    2    1    2    0    0  0.00000000000E+00 -0.35527136788E-14  0.36888519925E+03  0.46004832224E+03  0.27489665072E+03 0.  0.
         25    2    3    3    0    0 -0.34024933919E+02  0.37414151224E+00  0.10218789884E+03  0.16327683474E+03  0.12271561426E+03 0.  0.
         25    2    3    3    0    0  0.34024933919E+02 -0.37414151224E+00  0.26669730041E+03  0.29677148751E+03  0.12565042635E+03 0.  0.
          5    1    4    4  502    0 -0.65094279477E+02  0.29069108874E+02  0.96907573113E+02  0.12039703501E+03  0.47000000000E+01 0. -1.
         -5    1    4    4    0  502  0.31069345558E+02 -0.28694967362E+02  0.52803257247E+01  0.42879799732E+02  0.47000000000E+01 0. -1.
          5    1    5    5  503    0  0.51697603579E+02 -0.17634294726E+02  0.38024014781E+02  0.66719759190E+02  0.47000000000E+01 0. -1.
         -5    1    5    5    0  503 -0.17672669660E+02  0.17260153214E+02  0.22867328563E+03  0.23005172832E+03  0.47000000000E+01 0. -1.
<mgrwt>
<rscale>  0 0.27489665E+03</rscale>
<asrwt>0</asrwt>
<pdfrwt beam="1">  1        3 0.63764115E-01 0.27489665E+03</pdfrwt>
<pdfrwt beam="2">  1       -3 0.70125482E-02 0.27489665E+03</pdfrwt>
<totfact> 0.81552230E+02</totfact>
</mgrwt>
</event>
<event>
 9    1  0.2074770E-002  0.2752803E+03  0.7818608E-02  0.1098295E+00
          2   -1    0    0  501    0  0.00000000000E+00  0.00000000000E+00  0.46945249204E+03  0.46945249204E+03  0.00000000000E+00 0.  1.
         -2   -1    0    0    0  501 -0.00000000000E+00 -0.00000000000E+00 -0.40355112751E+02  0.40355112751E+02  0.00000000000E+00 0.  1.
         36    2    1    2    0    0  0.00000000000E+00 -0.71054273576E-14  0.42909737929E+03  0.50980760479E+03  0.27528028079E+03 0.  0.
         25    2    3    3    0    0 -0.52714644309E+02  0.17155929922E+02  0.25143166922E+03  0.28833548936E+03  0.12979333758E+03 0.  0.
         25    2    3    3    0    0  0.52714644309E+02 -0.17155929922E+02  0.17766571007E+03  0.22147211543E+03  0.12004846406E+03 0.  0.
          5    1    4    4  502    0 -0.44838312388E+02  0.68563944089E+02  0.19439340513E+03  0.21100325742E+03  0.47000000000E+01 0.  1.
         -5    1    4    4    0  502 -0.78763319204E+01 -0.51408014168E+02  0.57038264092E+02  0.77332231934E+02  0.47000000000E+01 0.  1.
          5    1    5    5  503    0  0.24062890910E+01 -0.44977253775E+02  0.15151938977E+03  0.15814221151E+03  0.47000000000E+01 0. -1.
         -5    1    5    5    0  503  0.50308355218E+02  0.27821323853E+02  0.26146320297E+02  0.63329903922E+02  0.47000000000E+01 0. -1.
<mgrwt>
<rscale>  0 0.27528028E+03</rscale>
<asrwt>0</asrwt>
<pdfrwt beam="1">  1        2 0.72223457E-01 0.27528028E+03</pdfrwt>
<pdfrwt beam="2">  1       -2 0.62084792E-02 0.27528028E+03</pdfrwt>
<totfact> 0.93271671E+03</totfact>
</mgrwt>
</event>
<event>
 9    1  0.2074770E-002  0.2753887E+03  0.7818608E-02  0.1098235E+00
         -1   -1    0    0    0  501 -0.00000000000E+00  0.00000000000E+00  0.95645499671E+02  0.95645499671E+02  0.00000000000E+00 0. -1.
          1   -1    0    0  501    0  0.00000000000E+00 -0.00000000000E+00 -0.19822919366E+03  0.19822919366E+03  0.00000000000E+00 0. -1.
         36    2    1    2    0    0  0.00000000000E+00  0.00000000000E+00 -0.10258369399E+03  0.29387469333E+03  0.27538867280E+03 0.  0.
         25    2    3    3    0    0  0.42067737427E+01 -0.60696592916E+02 -0.10879910193E+03  0.17517609340E+03  0.12307577251E+03 0.  0.
         25    2    3    3    0    0 -0.42067737427E+01  0.60696592916E+02  0.62154079465E+01  0.11869859993E+03  0.10172980386E+03 0.  0.
          5    1    4    4  502    0  0.21502514248E+01  0.14788214702E+02  0.20238748695E+02  0.25593198784E+02  0.47000000000E+01 0. -1.
         -5    1    4    4    0  502  0.20565223179E+01 -0.75484807619E+02 -0.12903785063E+03  0.14958289461E+03  0.47000000000E+01 0. -1.
          5    1    5    5  503    0  0.43609928821E+02  0.45385782781E+02 -0.13515865865E+02  0.64548151023E+02  0.47000000000E+01 0.  1.
         -5    1    5    5    0  503 -0.47816702564E+02  0.15310810136E+02  0.19731273811E+02  0.54150448911E+02  0.47000000000E+01 0.  1.
<mgrwt>
<rscale>  0 0.27538867E+03</rscale>
<asrwt>0</asrwt>
<pdfrwt beam="1">  1        1 0.30496799E-01 0.27538867E+03</pdfrwt>
<pdfrwt beam="2">  1       -1 0.14714692E-01 0.27538867E+03</pdfrwt>
<totfact> 0.48831455E+03</totfact>
</mgrwt>
</event>
<event>
 9    1  0.2074770E-002  0.2747397E+03  0.7818608E-02  0.1098597E+00
         -3   -1    0    0    0  501 -0.00000000000E+00  0.00000000000E+00  0.64117940494E+02  0.64117940494E+02  0.00000000000E+00 0.  1.
          3   -1    0    0  501    0  0.00000000000E+00 -0.00000000000E+00 -0.29430875016E+03  0.29430875016E+03  0.00000000000E+00 0.  1.
         36    2    1    2    0    0  0.00000000000E+00  0.71054273576E-14 -0.23019080967E+03  0.35842669066E+03  0.27473966535E+03 0.  0.
         25    2    3    3    0    0 -0.11069577675E+02  0.53486272804E+02 -0.16514045337E+03  0.20797805204E+03  0.11401834880E+03 0.  0.
         25    2    3    3    0    0  0.11069577675E+02 -0.53486272804E+02 -0.65050356295E+02  0.15044863861E+03  0.12417699899E+03 0.  0.
          5    1    4    4  502    0  0.11177684917E+02 -0.30809637761E+02 -0.77469632555E+02  0.84248491899E+02  0.47000000000E+01 0.  1.
         -5    1    4    4    0  502 -0.22247262592E+02  0.84295910565E+02 -0.87670820819E+02  0.12372956015E+03  0.47000000000E+01 0.  1.
          5    1    5    5  503    0 -0.20764561618E+02 -0.81476525815E+02 -0.67210476120E+02  0.10774474177E+03  0.47000000000E+01 0. -1.
         -5    1    5    5    0  503  0.31834139293E+02  0.27990253011E+02  0.21601198250E+01  0.42703896846E+02  0.47000000000E+01 0. -1.
<mgrwt>
<rscale>  0 0.27473967E+03</rscale>
<asrwt>0</asrwt>
<pdfrwt beam="1">  1        3 0.45278269E-01 0.27473967E+03</pdfrwt>
<pdfrwt beam="2">  1       -3 0.98642985E-02 0.27473967E+03</pdfrwt>
<totfact> 0.93484684E+02</totfact>
</mgrwt>
</event>
<event>
 9    1  0.2074770E-002  0.2742172E+03  0.7818608E-02  0.1098890E+00
         -2   -1    0    0    0  501 -0.00000000000E+00  0.00000000000E+00  0.59268659587E+02  0.59268659587E+02  0.00000000000E+00 0. -1.
          2   -1    0    0  501    0  0.00000000000E+00 -0.00000000000E+00 -0.31717880904E+03  0.31717880904E+03  0.00000000000E+00 0. -1.
         36    2    1    2    0    0 -0.35527136788E-14  0.71054273576E-14 -0.25791014945E+03  0.37644746863E+03  0.27421716111E+03 0.  0.
         25    2    3    3    0    0  0.31816928319E+02 -0.43870607172E+02 -0.15453343054E+03  0.20644200183E+03  0.12570112117E+03 0.  0.
         25    2    3    3    0    0 -0.31816928319E+02  0.43870607172E+02 -0.10337671891E+03  0.17000546680E+03  0.12360487704E+03 0.  0.
          5    1    4    4  502    0  0.25854986225E+02 -0.54403274225E+02 -0.98956231403E+01  0.61222625854E+02  0.47000000000E+01 0.  1.
         -5    1    4    4    0  502  0.59619420940E+01  0.10532667053E+02 -0.14463780740E+03  0.14521937598E+03  0.47000000000E+01 0.  1.
          5    1    5    5  503    0  0.33188703601E+02  0.58938562419E+02 -0.46708894462E+02  0.82335016904E+02  0.47000000000E+01 0. -1.
         -5    1    5    5    0  503 -0.65005631920E+02 -0.15067955248E+02 -0.56667824450E+02  0.87670449894E+02  0.47000000000E+01 0. -1.
<mgrwt>
<rscale>  0 0.27421716E+03</rscale>
<asrwt>0</asrwt>
<pdfrwt beam="1">  1        2 0.48796739E-01 0.27421716E+03</pdfrwt>
<pdfrwt beam="2">  1       -2 0.91182555E-02 0.27421716E+03</pdfrwt>
<totfact> 0.78520209E+03</totfact>
</mgrwt>
</event>
<event>
 9    1  0.2074770E-002  0.2747525E+03  0.7818608E-02  0.1098590E+00
         -2   -1    0    0    0  501 -0.00000000000E+00  0.00000000000E+00  0.90615648700E+02  0.90615648700E+02  0.00000000000E+00 0.  1.
          2   -1    0    0  501    0  0.00000000000E+00 -0.00000000000E+00 -0.20826676194E+03  0.20826676194E+03  0.00000000000E+00 0.  1.
         36    2    1    2    0    0 -0.26645352591E-14  0.00000000000E+00 -0.11765111324E+03  0.29888241064E+03  0.27475245394E+03 0.  0.
         25    2    3    3    0    0 -0.44059048672E+01  0.80741419269E+01 -0.41529573623E+02  0.13897216351E+03  0.13230250556E+03 0.  0.
         25    2    3    3    0    0  0.44059048672E+01 -0.80741419269E+01 -0.76121539620E+02  0.15991024714E+03  0.14032888006E+03 0.  0.
          5    1    4    4  502    0 -0.41889974950E+02 -0.41158698790E+02  0.81554492299E+01  0.59476128316E+02  0.47000000000E+01 0.  1.
         -5    1    4    4    0  502  0.37484070083E+02  0.49232840717E+02 -0.49685022853E+02  0.79496035190E+02  0.47000000000E+01 0.  1.
          5    1    5    5  503    0 -0.31079905774E+01 -0.14233420141E+02  0.40237835613E+02  0.43051402639E+02  0.47000000000E+01 0.  1.
         -5    1    5    5    0  503  0.75138954446E+01  0.61592782137E+01 -0.11635937523E+03  0.11685884450E+03  0.47000000000E+01 0.  1.
<mgrwt>
<rscale>  0 0.27475245E+03</rscale>
<asrwt>0</asrwt>
<pdfrwt beam="1">  1        2 0.32041040E-01 0.27475245E+03</pdfrwt>
<pdfrwt beam="2">  1       -2 0.13940869E-01 0.27475245E+03</pdfrwt>
<totfact> 0.62544836E+03</totfact>
</mgrwt>
</event>
<event>
 9    1  0.2074770E-002  0.2753778E+03  0.7818608E-02  0.1098241E+00
          2   -1    0    0  501    0  0.00000000000E+00  0.00000000000E+00  0.11629596513E+04  0.11629596513E+04  0.00000000000E+00 0.  1.
         -2   -1    0    0    0  501 -0.00000000000E+00 -0.00000000000E+00 -0.16301715794E+02  0.16301715794E+02  0.00000000000E+00 0.  1.
         36    2    1    2    0    0  0.00000000000E+00  0.71054273576E-14  0.11466579355E+04  0.11792613671E+04  0.27537783291E+03 0.  0.
         25    2    3    3    0    0  0.11267190403E+02 -0.48152614944E+02  0.46471769891E+03  0.48393975882E+03  0.12565638297E+03 0.  0.
         25    2    3    3    0    0 -0.11267190403E+02  0.48152614944E+02  0.68194023656E+03  0.69532160824E+03  0.12642795869E+03 0.  0.
          5    1    4    4  502    0  0.36721146473E+02 -0.25909776600E+02  0.48359846992E+02  0.66185526536E+02  0.47000000000E+01 0.  1.
         -5    1    4    4    0  502 -0.25453956070E+02 -0.22242838344E+02  0.41635785191E+03  0.41775423228E+03  0.47000000000E+01 0.  1.
          5    1    5    5  503    0  0.98995095147E+01  0.38683486670E+02  0.56021500771E+02  0.68955862537E+02  0.47000000000E+01 0. -1.
         -5    1    5    5    0  503 -0.21166699918E+02  0.94691282741E+01  0.62591873579E+03  0.62636574571E+03  0.47000000000E+01 0. -1.
<mgrwt>
<rscale>  0 0.27537783E+03</rscale>
<asrwt>0</asrwt>
<pdfrwt beam="1">  1        2 0.17891680E+00 0.27537783E+03</pdfrwt>
<pdfrwt beam="2">  1       -2 0.25079572E-02 0.27537783E+03</pdfrwt>
<totfact> 0.11590890E+04</totfact>
</mgrwt>
</event>
<event>
 9    1  0.2074770E-002  0.2749338E+03  0.7818608E-02  0.1098489E+00
          1   -1    0    0  501    0  0.00000000000E+00  0.00000000000E+00  0.14439577445E+03  0.14439577445E+03  0.00000000000E+00 0.  1.
         -1   -1    0    0    0  501 -0.00000000000E+00 -0.00000000000E+00 -0.13087054653E+03  0.13087054653E+03  0.00000000000E+00 0.  1.
         36    2    1    2    0    0  0.00000000000E+00  0.00000000000E+00  0.13525227915E+02  0.27526632098E+03  0.27493383872E+03 0.  0.
         25    2    3    3    0    0 -0.18662844012E+02  0.36001902620E+02 -0.32116216358E+02  0.13508193984E+03  0.12478477624E+03 0.  0.
         25    2    3    3    0    0  0.18662844012E+02 -0.36001902620E+02  0.45641444273E+02  0.14018438114E+03  0.12619065156E+03 0.  0.
          5    1    4    4  502    0 -0.58271718905E+01 -0.42112960009E+02 -0.35678575112E+02  0.55700162073E+02  0.47000000000E+01 0. -1.
         -5    1    4    4    0  502 -0.12835672122E+02  0.78114862628E+02  0.35623587539E+01  0.79381777771E+02  0.47000000000E+01 0. -1.
          5    1    5    5  503    0  0.51744479617E+02 -0.26246245269E+02 -0.23500104555E+02  0.62775006775E+02  0.47000000000E+01 0.  1.
         -5    1    5    5    0  503 -0.33081635604E+02 -0.97556573505E+01  0.69141548829E+02  0.77409374361E+02  0.47000000000E+01 0.  1.
<mgrwt>
<rscale>  0 0.27493384E+03</rscale>
<asrwt>0</asrwt>
<pdfrwt beam="1">  1        1 0.22214735E-01 0.27493384E+03</pdfrwt>
<pdfrwt beam="2">  1       -1 0.20133930E-01 0.27493384E+03</pdfrwt>
<totfact> 0.44155836E+03</totfact>
</mgrwt>
</event>
<event>
 9    1  0.2074770E-002  0.2748716E+03  0.7818608E-02  0.1098523E+00
          1   -1    0    0  501    0  0.00000000000E+00  0.00000000000E+00  0.39842443028E+02  0.39842443028E+02  0.00000000000E+00 0. -1.
         -1   -1    0    0    0  501 -0.00000000000E+00 -0.00000000000E+00 -0.47408231297E+03  0.47408231297E+03  0.00000000000E+00 0. -1.
         36    2    1    2    0    0 -0.71054273576E-14  0.00000000000E+00 -0.43423986995E+03  0.51392475600E+03  0.27487158853E+03 0.  0.
         25    2    3    3    0    0 -0.41365176696E+02  0.20813428222E+02 -0.24462069428E+03  0.27980580818E+03  0.12770172116E+03 0.  0.
         25    2    3    3    0    0  0.41365176696E+02 -0.20813428222E+02 -0.18961917567E+03  0.23411894782E+03  0.12927479766E+03 0.  0.
          5    1    4    4  502    0 -0.56833625951E+02  0.86381714463E+01 -0.25180768624E+03  0.25832901481E+03  0.47000000000E+01 0. -1.
         -5    1    4    4    0  502  0.15468449256E+02  0.12175256776E+02  0.71869919625E+01  0.21476793368E+02  0.47000000000E+01 0. -1.
          5    1    5    5  503    0  0.74530429433E+02  0.17431019089E+02 -0.68744727500E+02  0.10298812017E+03  0.47000000000E+01 0. -1.
         -5    1    5    5    0  503 -0.33165252738E+02 -0.38244447311E+02 -0.12087444817E+03  0.13113082765E+03  0.47000000000E+01 0. -1.
<mgrwt>
<rscale>  0 0.27487159E+03</rscale>
<asrwt>0</asrwt>
<pdfrwt beam="1">  1        1 0.61296068E-02 0.27487159E+03</pdfrwt>
<pdfrwt beam="2">  1       -1 0.72935738E-01 0.27487159E+03</pdfrwt>
<totfact> 0.24697737E+03</totfact>
</mgrwt>
</event>
<event>
 9    1  0.2074770E-002  0.2756202E+03  0.7818608E-02  0.1098105E+00
          4   -1    0    0  501    0  0.00000000000E+00  0.00000000000E+00  0.32819372899E+03  0.32819372899E+03  0.00000000000E+00 0. -1.
         -4   -1    0    0    0  501 -0.00000000000E+00 -0.00000000000E+00 -0.57867131538E+02  0.57867131538E+02  0.00000000000E+00 0. -1.
         36    2    1    2    0    0  0.00000000000E+00  0.00000000000E+00  0.27032659745E+03  0.38606086053E+03  0.27562024371E+03 0.  0.
         25    2    3    3    0    0 -0.40873105897E+02  0.23220077684E+02  0.15261087766E+03  0.20390732269E+03  0.12680036859E+03 0.  0.
         25    2    3    3    0    0  0.40873105897E+02 -0.23220077684E+02  0.11771571979E+03  0.18215353784E+03  0.13081719255E+03 0.  0.
          5    1    4    4  502    0 -0.54939274917E+02 -0.26659358784E+02  0.13621026453E+03  0.14934648139E+03  0.47000000000E+01 0.  1.
         -5    1    4    4    0  502  0.14066169020E+02  0.49879436468E+02  0.16400613131E+02  0.54560841309E+02  0.47000000000E+01 0.  1.
          5    1    5    5  503    0  0.42612469861E+02  0.24091619097E+02 -0.60606647751E+01  0.49548464718E+02  0.47000000000E+01 0. -1.
         -5    1    5    5    0  503 -0.17393639642E+01 -0.47311696781E+02  0.12377638457E+03  0.13260507312E+03  0.47000000000E+01 0. -1.
<mgrwt>
<rscale>  0 0.27562024E+03</rscale>
<asrwt>0</asrwt>
<pdfrwt beam="1">  1        4 0.50491342E-01 0.27562024E+03</pdfrwt>
<pdfrwt beam="2">  1       -4 0.89026358E-02 0.27562024E+03</pdfrwt>
<totfact> 0.65814085E+02</totfact>
</mgrwt>
</event>
<event>
 9    1  0.2074770E-002  0.2749966E+03  0.7818608E-02  0.1098453E+00
         -3   -1    0    0    0  501 -0.00000000000E+00  0.00000000000E+00  0.29611985809E+03  0.29611985809E+03  0.00000000000E+00 0.  1.
          3   -1    0    0  501    0  0.00000000000E+00 -0.00000000000E+00 -0.63845048987E+02  0.63845048987E+02  0.00000000000E+00 0.  1.
         36    2    1    2    0    0  0.00000000000E+00  0.00000000000E+00  0.23227480911E+03  0.35996490708E+03  0.27499663159E+03 0.  0.
         25    2    3    3    0    0 -0.46859402889E+02 -0.95405902056E+01  0.13039469637E+03  0.19165265686E+03  0.13206489896E+03 0.  0.
         25    2    3    3    0    0  0.46859402889E+02  0.95405902056E+01  0.10188011273E+03  0.16831225022E+03  0.12515042830E+03 0.  0.
          5    1    4    4  502    0  0.22856645013E+02  0.44987554885E+02  0.59476828093E+02  0.78140190656E+02  0.47000000000E+01 0. -1.
         -5    1    4    4    0  502 -0.69716047902E+02 -0.54528145091E+02  0.70917868279E+02  0.11351246620E+03  0.47000000000E+01 0. -1.
          5    1    5    5  503    0  0.65938154821E+02  0.27348013212E+02  0.11747883525E+03  0.13754679502E+03  0.47000000000E+01 0.  1.
         -5    1    5    5    0  503 -0.19078751933E+02 -0.17807423007E+02 -0.15598722519E+02  0.30765455200E+02  0.47000000000E+01 0.  1.
<mgrwt>
<rscale>  0 0.27499663E+03</rscale>
<asrwt>0</asrwt>
<pdfrwt beam="1">  1        3 0.98223154E-02 0.27499663E+03</pdfrwt>
<pdfrwt beam="2">  1       -3 0.45556901E-01 0.27499663E+03</pdfrwt>
<totfact> 0.92980211E+02</totfact>
</mgrwt>
</event>
<event>
 9    1  0.2074770E-002  0.2754512E+03  0.7818608E-02  0.1098200E+00
         -2   -1    0    0    0  501 -0.00000000000E+00  0.00000000000E+00  0.43882769249E+02  0.43882769249E+02  0.00000000000E+00 0.  1.
          2   -1    0    0  501    0  0.00000000000E+00 -0.00000000000E+00 -0.43225033569E+03  0.43225033569E+03  0.00000000000E+00 0.  1.
         36    2    1    2    0    0 -0.71054273576E-14  0.71054273576E-14 -0.38836756644E+03  0.47613310493E+03  0.27545120612E+03 0.  0.
         25    2    3    3    0    0 -0.31826900990E+02  0.39983118286E+02 -0.13466740948E+03  0.18913132085E+03  0.12257138319E+03 0.  0.
         25    2    3    3    0    0  0.31826900990E+02 -0.39983118286E+02 -0.25370015696E+03  0.28700178408E+03  0.12407519113E+03 0.  0.
          5    1    4    4  502    0  0.15067987524E+02  0.72613088042E+02 -0.88273153465E+02  0.11538606686E+03  0.47000000000E+01 0. -1.
         -5    1    4    4    0  502 -0.46894888513E+02 -0.32629969756E+02 -0.46394256016E+02  0.73745253991E+02  0.47000000000E+01 0. -1.
          5    1    5    5  503    0 -0.46617441370E+02 -0.95067941451E+01 -0.68617892262E+02  0.83630557294E+02  0.47000000000E+01 0. -1.
         -5    1    5    5    0  503  0.78444342360E+02 -0.30476324141E+02 -0.18508226469E+03  0.20337122679E+03  0.47000000000E+01 0. -1.
<mgrwt>
<rscale>  0 0.27545121E+03</rscale>
<asrwt>0</asrwt>
<pdfrwt beam="1">  1        2 0.66500055E-01 0.27545121E+03</pdfrwt>
<pdfrwt beam="2">  1       -2 0.67511949E-02 0.27545121E+03</pdfrwt>
<totfact> 0.89775432E+03</totfact>
</mgrwt>
</event>
<event>
 9    1  0.2074770E-002  0.2745926E+03  0.7818608E-02  0.1098680E+00
         -1   -1    0    0    0  501 -0.00000000000E+00  0.00000000000E+00  0.26419509821E+02  0.26419509821E+02  0.00000000000E+00 0.  1.
          1   -1    0    0  501    0  0.00000000000E+00 -0.00000000000E+00 -0.71349837937E+03  0.71349837937E+03  0.00000000000E+00 0.  1.
         36    2    1    2    0    0 -0.71054273576E-14  0.71054273576E-14 -0.68707886955E+03  0.73991788919E+03  0.27459262511E+03 0.  0.
         25    2    3    3    0    0  0.11659226469E+02  0.56682295346E+02 -0.40842878193E+03  0.43118701803E+03  0.12553626743E+03 0.  0.
         25    2    3    3    0    0 -0.11659226469E+02 -0.56682295346E+02 -0.27865008761E+03  0.30873087116E+03  0.11966645023E+03 0.  0.
          5    1    4    4  502    0  0.48233831292E+02  0.15094713274E+02 -0.61073562182E+02  0.79412989161E+02  0.47000000000E+01 0. -1.
         -5    1    4    4    0  502 -0.36574604822E+02  0.41587582073E+02 -0.34735521975E+03  0.35177402887E+03  0.47000000000E+01 0. -1.
          5    1    5    5  503    0  0.50762369170E+02 -0.47457490611E+02 -0.14601593669E+03  0.16177693070E+03  0.47000000000E+01 0. -1.
         -5    1    5    5    0  503 -0.62421595639E+02 -0.92248047351E+01 -0.13263415092E+03  0.14695394045E+03  0.47000000000E+01 0. -1.
<mgrwt>
<rscale>  0 0.27459263E+03</rscale>
<asrwt>0</asrwt>
<pdfrwt beam="1">  1        1 0.10976897E+00 0.27459263E+03</pdfrwt>
<pdfrwt beam="2">  1       -1 0.40645403E-02 0.27459263E+03</pdfrwt>
<totfact> 0.65628220E+03</totfact>
</mgrwt>
</event>
<event>
 9    1  0.2074770E-002  0.2733740E+03  0.7818608E-02  0.1099364E+00
         -2   -1    0    0    0  501 -0.00000000000E+00  0.00000000000E+00  0.12989361451E+03  0.12989361451E+03  0.00000000000E+00 0. -1.
          2   -1    0    0  501    0  0.00000000000E+00 -0.00000000000E+00 -0.14383562628E+03  0.14383562628E+03  0.00000000000E+00 0. -1.
         36    2    1    2    0    0 -0.71054273576E-14  0.00000000000E+00 -0.13942011774E+02  0.27372924079E+03  0.27337395189E+03 0.  0.
         25    2    3    3    0    0 -0.32031458147E+02 -0.34770670305E+01  0.36092909649E+02  0.13634205749E+03  0.12746903235E+03 0.  0.
         25    2    3    3    0    0  0.32031458147E+02  0.34770670305E+01 -0.50034921423E+02  0.13738718330E+03  0.12382907763E+03 0.  0.
          5    1    4    4  502    0 -0.52691271136E+02  0.20332354518E+02  0.69828036291E+02  0.89932304243E+02  0.47000000000E+01 0.  1.
         -5    1    4    4    0  502  0.20659812989E+02 -0.23809421549E+02 -0.33735126642E+02  0.46409753250E+02  0.47000000000E+01 0.  1.
          5    1    5    5  503    0 -0.31881534321E+02 -0.33786894716E+02  0.21317489789E+01  0.46739927674E+02  0.47000000000E+01 0. -1.
         -5    1    5    5    0  503  0.63912992468E+02  0.37263961747E+02 -0.52166670402E+02  0.90647255624E+02  0.47000000000E+01 0. -1.
<mgrwt>
<rscale>  0 0.27337395E+03</rscale>
<asrwt>0</asrwt>
<pdfrwt beam="1">  1        2 0.22128558E-01 0.27337395E+03</pdfrwt>
<pdfrwt beam="2">  1       -2 0.19983633E-01 0.27337395E+03</pdfrwt>
<totfact> 0.51645674E+03</totfact>
</mgrwt>
</event>
<event>
 9    1  0.2074770E-002  0.2815801E+03  0.7818608E-02  0.1094829E+00
         -1   -1    0    0    0  501 -0.00000000000E+00  0.00000000000E+00  0.84391395715E+03  0.84391395715E+03  0.00000000000E+00 0.  1.
          1   -1    0    0  501    0  0.00000000000E+00 -0.00000000000E+00 -0.23487989182E+02  0.23487989182E+02  0.00000000000E+00 0.  1.
         36    2    1    2    0    0  0.00000000000E+00  0.00000000000E+00  0.82042596797E+03  0.86740194633E+03  0.28158012640E+03 0.  0.
         25    2    3    3    0    0  0.39602337257E+02  0.79325509437E+02  0.48851624991E+03  0.51195807693E+03  0.12486818869E+03 0.  0.
         25    2    3    3    0    0 -0.39602337257E+02 -0.79325509437E+02  0.33190971806E+03  0.35544386940E+03  0.91188824916E+02 0.  0.
          5    1    4    4  502    0  0.78183876783E+02  0.64819546752E+02  0.25036209331E+03  0.27021761600E+03  0.47000000000E+01 0.  1.
         -5    1    4    4    0  502 -0.38581539526E+02  0.14505962685E+02  0.23815415660E+03  0.24174046093E+03  0.47000000000E+01 0.  1.
          5    1    5    5  503    0 -0.45774980693E+02 -0.73821015008E+02  0.15084790817E+03  0.17413234195E+03  0.47000000000E+01 0.  1.
         -5    1    5    5    0  503  0.61726434362E+01 -0.55044944284E+01  0.18106180989E+03  0.18131152745E+03  0.47000000000E+01 0.  1.
<mgrwt>
<rscale>  0 0.28158013E+03</rscale>
<asrwt>0</asrwt>
<pdfrwt beam="1">  1        1 0.36135374E-02 0.28158013E+03</pdfrwt>
<pdfrwt beam="2">  1       -1 0.12983289E+00 0.28158013E+03</pdfrwt>
<totfact> 0.14324786E+03</totfact>
</mgrwt>
</event>
<event>
 9    1  0.2074770E-002  0.2748957E+03  0.7818608E-02  0.1098510E+00
          3   -1    0    0  501    0  0.00000000000E+00  0.00000000000E+00  0.19234390944E+03  0.19234390944E+03  0.00000000000E+00 0. -1.
         -3   -1    0    0    0  501 -0.00000000000E+00 -0.00000000000E+00 -0.98219467476E+02  0.98219467476E+02  0.00000000000E+00 0. -1.
         36    2    1    2    0    0  0.14210854715E-13 -0.35527136788E-14  0.94124441969E+02  0.29056337692E+03  0.27489573556E+03 0.  0.
         25    2    3    3    0    0 -0.60804455740E+02 -0.41674180924E+00  0.27739406095E+02  0.13789870454E+03  0.12062015814E+03 0.  0.
         25    2    3    3    0    0  0.60804455740E+02  0.41674180924E+00  0.66385035874E+02  0.15266467238E+03  0.12329709524E+03 0.  0.
          5    1    4    4  502    0  0.26795839761E+02 -0.23279480872E+02  0.30742259723E+02  0.47192454811E+02  0.47000000000E+01 0.  1.
         -5    1    4    4    0  502 -0.87600295501E+02  0.22862739063E+02 -0.30028536284E+01  0.90706249725E+02  0.47000000000E+01 0.  1.
          5    1    5    5  503    0  0.78887851892E+02  0.22750632179E+02  0.84867434631E+02  0.11817553005E+03  0.47000000000E+01 0. -1.
         -5    1    5    5    0  503 -0.18083396152E+02 -0.22333890370E+02 -0.18482398757E+02  0.34489142338E+02  0.47000000000E+01 0. -1.
<mgrwt>
<rscale>  0 0.27489574E+03</rscale>
<asrwt>0</asrwt>
<pdfrwt beam="1">  1        3 0.29591371E-01 0.27489574E+03</pdfrwt>
<pdfrwt beam="2">  1       -3 0.15110687E-01 0.27489574E+03</pdfrwt>
<totfact> 0.10267056E+03</totfact>
</mgrwt>
</event>
<event>
 9    1  0.2074770E-002  0.2733492E+03  0.7818608E-02  0.1099378E+00
         -1   -1    0    0    0  501 -0.00000000000E+00  0.00000000000E+00  0.77096525116E+01  0.77096525116E+01  0.00000000000E+00 0. -1.
          1   -1    0    0  501    0  0.00000000000E+00 -0.00000000000E+00 -0.24229290365E+04  0.24229290365E+04  0.00000000000E+00 0. -1.
         36    2    1    2    0    0 -0.71054273576E-14  0.00000000000E+00 -0.24152193840E+04  0.24306386890E+04  0.27334916083E+03 0.  0.
         25    2    3    3    0    0 -0.31228113976E+02 -0.24062847632E+02 -0.10864047531E+04  0.10952766742E+04  0.13342222351E+03 0.  0.
         25    2    3    3    0    0  0.31228113976E+02  0.24062847632E+02 -0.13288146309E+04  0.13353620148E+04  0.12605225753E+03 0.  0.
          5    1    4    4  502    0 -0.80178548187E+02  0.75259871735E+01 -0.62365880100E+03  0.62885422010E+03  0.47000000000E+01 0.  1.
         -5    1    4    4    0  502  0.48950434210E+02 -0.31588834805E+02 -0.46274595209E+03  0.46642245408E+03  0.47000000000E+01 0.  1.
          5    1    5    5  503    0  0.45918927491E+02  0.23299662496E+02 -0.13100044989E+04  0.13110245228E+04  0.47000000000E+01 0.  1.
         -5    1    5    5    0  503 -0.14690813515E+02  0.76318513599E+00 -0.18810131937E+02  0.24337491999E+02  0.47000000000E+01 0.  1.
<mgrwt>
<rscale>  0 0.27334916E+03</rscale>
<asrwt>0</asrwt>
<pdfrwt beam="1">  1        1 0.37275945E+00 0.27334916E+03</pdfrwt>
<pdfrwt beam="2">  1       -1 0.11860968E-02 0.27334916E+03</pdfrwt>
<totfact> 0.26199980E+03</totfact>
</mgrwt>
</event>
<event>
 9    1  0.2074770E-002  0.2748298E+03  0.7818608E-02  0.1098547E+00
          2   -1    0    0  501    0  0.00000000000E+00  0.00000000000E+00  0.29964993357E+04  0.29964993357E+04  0.00000000000E+00 0. -1.
         -2   -1    0    0    0  501 -0.00000000000E+00 -0.00000000000E+00 -0.63016361550E+01  0.63016361550E+01  0.00000000000E+00 0. -1.
         36    2    1    2    0    0  0.00000000000E+00  0.88817841970E-15  0.29901976995E+04  0.30028009718E+04  0.27482975496E+03 0.  0.
         25    2    3    3    0    0  0.36891315013E+02  0.14420481666E+01  0.19481657085E+04  0.19526607161E+04  0.12716601598E+03 0.  0.
         25    2    3    3    0    0 -0.36891315013E+02 -0.14420481666E+01  0.10420319910E+04  0.10501402557E+04  0.12490331407E+03 0.  0.
          5    1    4    4  502    0  0.83969178581E+02 -0.60696166075E+01  0.12922404276E+04  0.12949884463E+04  0.47000000000E+01 0.  1.
         -5    1    4    4    0  502 -0.47077863568E+02  0.75116647741E+01  0.65592528092E+03  0.65767226983E+03  0.47000000000E+01 0.  1.
          5    1    5    5  503    0 -0.17393164350E+02  0.59453834751E+02  0.64253870266E+03  0.64553493712E+03  0.47000000000E+01 0. -1.
         -5    1    5    5    0  503 -0.19498150662E+02 -0.60895882918E+02  0.39949328832E+03  0.40460531861E+03  0.47000000000E+01 0. -1.
<mgrwt>
<rscale>  0 0.27482975E+03</rscale>
<asrwt>0</asrwt>
<pdfrwt beam="1">  1        2 0.46099876E+00 0.27482975E+03</pdfrwt>
<pdfrwt beam="2">  1       -2 0.96948488E-03 0.27482975E+03</pdfrwt>
<totfact> 0.46694443E+03</totfact>
</mgrwt>
</event>
<event>
 9    1  0.2074770E-002  0.2745086E+03  0.7818608E-02  0.1098727E+00
         -2   -1    0    0    0  501 -0.00000000000E+00  0.00000000000E+00  0.15033971853E+03  0.15033971853E+03  0.00000000000E+00 0.  1.
          2   -1    0    0  501    0  0.00000000000E+00 -0.00000000000E+00 -0.12530778209E+03  0.12530778209E+03  0.00000000000E+00 0.  1.
         36    2    1    2    0    0  0.00000000000E+00  0.71054273576E-14  0.25031936440E+02  0.27564750062E+03  0.27450855498E+03 0.  0.
         25    2    3    3    0    0  0.36510656247E+02 -0.26124497921E+02 -0.33286708067E+02  0.13531051101E+03  0.12322910389E+03 0.  0.
         25    2    3    3    0    0 -0.36510656247E+02  0.26124497921E+02  0.58318644507E+02  0.14033698961E+03  0.11949012070E+03 0.  0.
          5    1    4    4  502    0  0.76888728382E+02 -0.30183630421E+02 -0.19222072657E+00  0.82734847836E+02  0.47000000000E+01 0.  1.
         -5    1    4    4    0  502 -0.40378072135E+02  0.40591324999E+01 -0.33094487340E+02  0.52575663176E+02  0.47000000000E+01 0.  1.
          5    1    5    5  503    0 -0.19457538644E+02  0.73259628084E+02  0.44936928816E+02  0.88243903407E+02  0.47000000000E+01 0. -1.
         -5    1    5    5    0  503 -0.17053117603E+02 -0.47135130164E+02  0.13381715691E+02  0.52093086205E+02  0.47000000000E+01 0. -1.
<mgrwt>
<rscale>  0 0.27450855E+03</rscale>
<asrwt>0</asrwt>
<pdfrwt beam="1">  1        2 0.19278120E-01 0.27450855E+03</pdfrwt>
<pdfrwt beam="2">  1       -2 0.23129187E-01 0.27450855E+03</pdfrwt>
<totfact> 0.46964035E+03</totfact>
</mgrwt>
</event>
<event>
 9    1  0.2074770E-002  0.2781377E+03  0.7818608E-02  0.1096710E+00
         -2   -1    0    0    0  501 -0.00000000000E+00  0.00000000000E+00  0.61921107311E+02  0.61921107311E+02  0.00000000000E+00 0. -1.
          2   -1    0    0  501    0  0.00000000000E+00 -0.00000000000E+00 -0.31233527950E+03  0.31233527950E+03  0.00000000000E+00 0. -1.
         36    2    1    2    0    0  0.00000000000E+00  0.14210854715E-13 -0.25041417219E+03  0.37425638682E+03  0.27813770948E+03 0.  0.
         25    2    3    3    0    0 -0.17556857755E+02 -0.45577499880E+02 -0.56920577245E+02  0.14517835112E+03  0.12430305616E+03 0.  0.
         25    2    3    3    0    0  0.17556857755E+02  0.45577499880E+02 -0.19349359495E+03  0.22907803569E+03  0.11247854641E+03 0.  0.
          5    1    4    4  502    0 -0.31428623005E+02 -0.50500463908E+02  0.22874216329E+02  0.63901290844E+02  0.47000000000E+01 0.  1.
         -5    1    4    4    0  502  0.13871765249E+02  0.49229640286E+01 -0.79794793574E+02  0.81277060279E+02  0.47000000000E+01 0.  1.
          5    1    5    5  503    0 -0.32008911549E+02  0.49403577906E+02 -0.50793076871E+02  0.77892943111E+02  0.47000000000E+01 0. -1.
         -5    1    5    5    0  503  0.49565769304E+02 -0.38260780263E+01 -0.14270051808E+03  0.15118509258E+03  0.47000000000E+01 0. -1.
<mgrwt>
<rscale>  0 0.27813771E+03</rscale>
<asrwt>0</asrwt>
<pdfrwt beam="1">  1        2 0.48051581E-01 0.27813771E+03</pdfrwt>
<pdfrwt beam="2">  1       -2 0.95263242E-02 0.27813771E+03</pdfrwt>
<totfact> 0.74533891E+03</totfact>
</mgrwt>
</event>
<event>
 9    1  0.2074770E-002  0.2746304E+03  0.7818608E-02  0.1098658E+00
         -1   -1    0    0    0  501 -0.00000000000E+00  0.00000000000E+00  0.50596380262E+02  0.50596380262E+02  0.00000000000E+00 0. -1.
          1   -1    0    0  501    0  0.00000000000E+00 -0.00000000000E+00 -0.37266424059E+03  0.37266424059E+03  0.00000000000E+00 0. -1.
         36    2    1    2    0    0  0.00000000000E+00  0.00000000000E+00 -0.32206786033E+03  0.42326062085E+03  0.27463038162E+03 0.  0.
         25    2    3    3    0    0 -0.54929564454E+02  0.27099469134E+02 -0.18949973607E+03  0.23487506168E+03  0.12451709261E+03 0.  0.
         25    2    3    3    0    0  0.54929564454E+02 -0.27099469134E+02 -0.13256812426E+03  0.18838555917E+03  0.11900913014E+03 0.  0.
          5    1    4    4  502    0  0.11892589201E+01  0.62920935540E+02 -0.51024029167E+02  0.81154174374E+02  0.47000000000E+01 0. -1.
         -5    1    4    4    0  502 -0.56118823374E+02 -0.35821466406E+02 -0.13847570690E+03  0.15372088731E+03  0.47000000000E+01 0. -1.
          5    1    5    5  503    0  0.29789190816E+02 -0.54694050830E+02 -0.13693739691E+03  0.15050839099E+03  0.47000000000E+01 0. -1.
         -5    1    5    5    0  503  0.25140373638E+02  0.27594581697E+02  0.43692726547E+01  0.37877168178E+02  0.47000000000E+01 0. -1.
<mgrwt>
<rscale>  0 0.27463038E+03</rscale>
<asrwt>0</asrwt>
<pdfrwt beam="1">  1        1 0.57332960E-01 0.27463038E+03</pdfrwt>
<pdfrwt beam="2">  1       -1 0.77840585E-02 0.27463038E+03</pdfrwt>
<totfact> 0.59256132E+03</totfact>
</mgrwt>
</event>
<event>
 9    1  0.2074770E-002  0.2730473E+03  0.7818608E-02  0.1099548E+00
          2   -1    0    0  501    0  0.00000000000E+00  0.00000000000E+00  0.25082450175E+03  0.25082450175E+03  0.00000000000E+00 0.  1.
         -2   -1    0    0    0  501 -0.00000000000E+00 -0.00000000000E+00 -0.74309748756E+02  0.74309748756E+02  0.00000000000E+00 0.  1.
         36    2    1    2    0    0  0.00000000000E+00 -0.35527136788E-14  0.17651475299E+03  0.32513425050E+03  0.27304729046E+03 0.  0.
         25    2    3    3    0    0  0.45071845144E+02 -0.82334334003E+01  0.46148649232E+02  0.14149971507E+03  0.12567104236E+03 0.  0.
         25    2    3    3    0    0 -0.45071845144E+02  0.82334334003E+01  0.13036610376E+03  0.18363453544E+03  0.12094238688E+03 0.  0.
          5    1    4    4  502    0 -0.31792478101E+01  0.48541927880E+02  0.45597495419E+02  0.66840466541E+02  0.47000000000E+01 0. -1.
         -5    1    4    4    0  502  0.48251092954E+02 -0.56775361280E+02  0.55115381248E+00  0.74659248525E+02  0.47000000000E+01 0. -1.
          5    1    5    5  503    0 -0.83658634851E+02  0.13045773609E+02  0.62747812083E+02  0.10549093475E+03  0.47000000000E+01 0. -1.
         -5    1    5    5    0  503  0.38586789707E+02 -0.48123402092E+01  0.67618291677E+02  0.78143600682E+02  0.47000000000E+01 0. -1.
<mgrwt>
<rscale>  0 0.27304729E+03</rscale>
<asrwt>0</asrwt>
<pdfrwt beam="1">  1        2 0.38588384E-01 0.27304729E+03</pdfrwt>
<pdfrwt beam="2">  1       -2 0.11432269E-01 0.27304729E+03</pdfrwt>
<totfact> 0.70507965E+03</totfact>
</mgrwt>
</event>
<event>
 9    1  0.2074770E-002  0.2738842E+03  0.7818608E-02  0.1099077E+00
          1   -1    0    0  501    0  0.00000000000E+00  0.00000000000E+00  0.37719788741E+03  0.37719788741E+03  0.00000000000E+00 0.  1.
         -1   -1    0    0    0  501 -0.00000000000E+00 -0.00000000000E+00 -0.49716986343E+02  0.49716986343E+02  0.00000000000E+00 0.  1.
         36    2    1    2    0    0  0.00000000000E+00  0.00000000000E+00  0.32748090106E+03  0.42691487375E+03  0.27388422530E+03 0.  0.
         25    2    3    3    0    0  0.13576445980E+02  0.53098508440E+02  0.15280390988E+03  0.20510576172E+03  0.12536174509E+03 0.  0.
         25    2    3    3    0    0 -0.13576445980E+02 -0.53098508440E+02  0.17467699119E+03  0.22180911203E+03  0.12523361947E+03 0.  0.
          5    1    4    4  502    0  0.31411202282E+02  0.52878768908E+02  0.16940772009E+03  0.18028836195E+03  0.47000000000E+01 0. -1.
         -5    1    4    4    0  502 -0.17834756302E+02  0.21973953206E+00 -0.16603810208E+02  0.24817399768E+02  0.47000000000E+01 0. -1.
          5    1    5    5  503    0  0.18005212038E+02 -0.16879703672E+01 -0.14203199059E+02  0.23470359350E+02  0.47000000000E+01 0.  1.
         -5    1    5    5    0  503 -0.31581658018E+02 -0.51410538073E+02  0.18888019025E+03  0.19833875268E+03  0.47000000000E+01 0.  1.
<mgrwt>
<rscale>  0 0.27388423E+03</rscale>
<asrwt>0</asrwt>
<pdfrwt beam="1">  1        1 0.58030442E-01 0.27388423E+03</pdfrwt>
<pdfrwt beam="2">  1       -1 0.76487674E-02 0.27388423E+03</pdfrwt>
<totfact> 0.59925881E+03</totfact>
</mgrwt>
</event>
<event>
 9    1  0.2074770E-002  0.2760062E+03  0.7818608E-02  0.1097890E+00
         -2   -1    0    0    0  501 -0.00000000000E+00  0.00000000000E+00  0.11996445877E+04  0.11996445877E+04  0.00000000000E+00 0. -1.
          2   -1    0    0  501    0  0.00000000000E+00 -0.00000000000E+00 -0.15875411847E+02  0.15875411847E+02  0.00000000000E+00 0. -1.
         36    2    1    2    0    0 -0.35527136788E-14  0.00000000000E+00  0.11837691758E+04  0.12155199995E+04  0.27600617311E+03 0.  0.
         25    2    3    3    0    0  0.28451993975E+02  0.42451454217E+02  0.69723061060E+03  0.71101249919E+03  0.12960172727E+03 0.  0.
         25    2    3    3    0    0 -0.28451993975E+02 -0.42451454217E+02  0.48653856521E+03  0.50450750032E+03  0.12327368136E+03 0.  0.
          5    1    4    4  502    0 -0.17894772712E+02 -0.39527005600E+02  0.17662101017E+03  0.18193316986E+03  0.47000000000E+01 0. -1.
         -5    1    4    4    0  502  0.46346766688E+02  0.81978459817E+02  0.52060960043E+03  0.52907932932E+03  0.47000000000E+01 0. -1.
          5    1    5    5  503    0  0.38254203089E+02 -0.40079419050E+02  0.12472206511E+03  0.13655558359E+03  0.47000000000E+01 0. -1.
         -5    1    5    5    0  503 -0.66706197064E+02 -0.23720351666E+01  0.36181650010E+03  0.36795191673E+03  0.47000000000E+01 0. -1.
<mgrwt>
<rscale>  0 0.27600617E+03</rscale>
<asrwt>0</asrwt>
<pdfrwt beam="1">  1        2 0.24423720E-02 0.27600617E+03</pdfrwt>
<pdfrwt beam="2">  1       -2 0.18456063E+00 0.27600617E+03</pdfrwt>
<totfact> 0.75413524E+02</totfact>
</mgrwt>
</event>
<event>
 9    1  0.2074770E-002  0.2764930E+03  0.7818608E-02  0.1097620E+00
         -2   -1    0    0    0  501 -0.00000000000E+00  0.00000000000E+00  0.97914006081E+01  0.97914006081E+01  0.00000000000E+00 0. -1.
          2   -1    0    0  501    0  0.00000000000E+00 -0.00000000000E+00 -0.19519258755E+04  0.19519258755E+04  0.00000000000E+00 0. -1.
         36    2    1    2    0    0  0.00000000000E+00 -0.71054273576E-14 -0.19421344749E+04  0.19617172761E+04  0.27649295257E+03 0.  0.
         25    2    3    3    0    0  0.32298671723E+02 -0.34210863341E+02 -0.74732998570E+03  0.75933106703E+03  0.12596814860E+03 0.  0.
         25    2    3    3    0    0 -0.32298671723E+02  0.34210863341E+02 -0.11948044892E+04  0.12023862091E+04  0.12633780522E+03 0.  0.
          5    1    4    4  502    0  0.42595616839E+02 -0.68404230204E+02 -0.30378870965E+03  0.31432975582E+03  0.47000000000E+01 0. -1.
         -5    1    4    4    0  502 -0.10296945116E+02  0.34193366863E+02 -0.44354127605E+03  0.44500131121E+03  0.47000000000E+01 0. -1.
          5    1    5    5  503    0 -0.29515653636E+01 -0.20436432574E+02 -0.93494303832E+03  0.93518283476E+03  0.47000000000E+01 0.  1.
         -5    1    5    5    0  503 -0.29347106360E+02  0.54647295915E+02 -0.25986145090E+03  0.26720337436E+03  0.47000000000E+01 0.  1.
<mgrwt>
<rscale>  0 0.27649295E+03</rscale>
<asrwt>0</asrwt>
<pdfrwt beam="1">  1        2 0.30029645E+00 0.27649295E+03</pdfrwt>
<pdfrwt beam="2">  1       -2 0.15063685E-02 0.27649295E+03</pdfrwt>
<totfact> 0.92340369E+03</totfact>
</mgrwt>
</event>
<event>
 9    1  0.2074770E-002  0.2748586E+03  0.7818608E-02  0.1098531E+00
         -3   -1    0    0    0  501 -0.00000000000E+00  0.00000000000E+00  0.39612641691E+02  0.39612641691E+02  0.00000000000E+00 0.  1.
          3   -1    0    0  501    0  0.00000000000E+00 -0.00000000000E+00 -0.47678760465E+03  0.47678760465E+03  0.00000000000E+00 0.  1.
         36    2    1    2    0    0 -0.35527136788E-14  0.71054273576E-14 -0.43717496295E+03  0.51640024634E+03  0.27485862945E+03 0.  0.
         25    2    3    3    0    0 -0.31589595388E+02  0.19905469686E+02 -0.28004548236E+03  0.30884051954E+03  0.12475120866E+03 0.  0.
         25    2    3    3    0    0  0.31589595388E+02 -0.19905469686E+02 -0.15712948060E+03  0.20755972679E+03  0.13037344919E+03 0.  0.
          5    1    4    4  502    0  0.30533351601E+02  0.26187057820E+02 -0.28255051176E+02  0.49381023422E+02  0.47000000000E+01 0.  1.
         -5    1    4    4    0  502 -0.62122946989E+02 -0.62815881348E+01 -0.25179043118E+03  0.25945949612E+03  0.47000000000E+01 0.  1.
          5    1    5    5  503    0  0.64815679408E+02 -0.55459085756E+02 -0.85769104970E+02  0.12105871244E+03  0.47000000000E+01 0. -1.
         -5    1    5    5    0  503 -0.33226084020E+02  0.35553616070E+02 -0.71360375626E+02  0.86501014355E+02  0.47000000000E+01 0. -1.
<mgrwt>
<rscale>  0 0.27485863E+03</rscale>
<asrwt>0</asrwt>
<pdfrwt beam="1">  1        3 0.73351933E-01 0.27485863E+03</pdfrwt>
<pdfrwt beam="2">  1       -3 0.60942531E-02 0.27485863E+03</pdfrwt>
<totfact> 0.75990171E+02</totfact>
</mgrwt>
</event>
<event>
 9    1  0.2074770E-002  0.2719096E+03  0.7818608E-02  0.1100192E+00
          2   -1    0    0  501    0  0.00000000000E+00  0.00000000000E+00  0.11379212445E+04  0.11379212445E+04  0.00000000000E+00 0.  1.
         -2   -1    0    0    0  501 -0.00000000000E+00 -0.00000000000E+00 -0.16243395020E+02  0.16243395020E+02  0.00000000000E+00 0.  1.
         36    2    1    2    0    0 -0.35527136788E-14 -0.71054273576E-14  0.11216778495E+04  0.11541646395E+04  0.27190957523E+03 0.  0.
         25    2    3    3    0    0 -0.22299279470E+02  0.34484251235E+02  0.69987482874E+03  0.71231284836E+03  0.12600950992E+03 0.  0.
         25    2    3    3    0    0  0.22299279470E+02 -0.34484251235E+02  0.42180302072E+03  0.44185179113E+03  0.12501518145E+03 0.  0.
          5    1    4    4  502    0  0.43610971043E+01 -0.45265809354E+02  0.31737817399E+03  0.32065403162E+03  0.47000000000E+01 0.  1.
         -5    1    4    4    0  502 -0.26660376574E+02  0.79750060588E+02  0.38249665474E+03  0.39165881674E+03  0.47000000000E+01 0.  1.
          5    1    5    5  503    0 -0.24534184680E+02  0.37788952656E+02  0.15040809319E+03  0.15708155735E+03  0.47000000000E+01 0. -1.
         -5    1    5    5    0  503  0.46833464150E+02 -0.72273203891E+02  0.27139492752E+03  0.28477023379E+03  0.47000000000E+01 0. -1.
<mgrwt>
<rscale>  0 0.27190958E+03</rscale>
<asrwt>0</asrwt>
<pdfrwt beam="1">  1        2 0.17506474E+00 0.27190958E+03</pdfrwt>
<pdfrwt beam="2">  1       -2 0.24989847E-02 0.27190958E+03</pdfrwt>
<totfact> 0.12042213E+04</totfact>
</mgrwt>
</event>
<event>
 9    1  0.2074770E-002  0.2742373E+03  0.7818608E-02  0.1098879E+00
          1   -1    0    0  501    0  0.00000000000E+00  0.00000000000E+00  0.89736438062E+03  0.89736438062E+03  0.00000000000E+00 0. -1.
         -1   -1    0    0    0  501 -0.00000000000E+00 -0.00000000000E+00 -0.20951945177E+02  0.20951945177E+02  0.00000000000E+00 0. -1.
         36    2    1    2    0    0  0.00000000000E+00  0.00000000000E+00  0.87641243544E+03  0.91831632580E+03  0.27423733740E+03 0.  0.
         25    2    3    3    0    0 -0.32523206049E+02 -0.10062257629E+02  0.37255949979E+03  0.39259916675E+03  0.11905678011E+03 0.  0.
         25    2    3    3    0    0  0.32523206049E+02  0.10062257629E+02  0.50385293565E+03  0.52571715905E+03  0.14612235485E+03 0.  0.
          5    1    4    4  502    0  0.30319423621E+02 -0.42918974633E+02  0.15965023497E+03  0.16814158723E+03  0.47000000000E+01 0. -1.
         -5    1    4    4    0  502 -0.62842629670E+02  0.32856717003E+02  0.21290926482E+03  0.22445757952E+03  0.47000000000E+01 0. -1.
          5    1    5    5  503    0  0.22497962857E+02  0.77678624516E+02  0.29443720975E+03  0.30537761465E+03  0.47000000000E+01 0. -1.
         -5    1    5    5    0  503  0.10025243192E+02 -0.67616366886E+02  0.20941572590E+03  0.22033954440E+03  0.47000000000E+01 0. -1.
<mgrwt>
<rscale>  0 0.27423734E+03</rscale>
<asrwt>0</asrwt>
<pdfrwt beam="1">  1        1 0.13805603E+00 0.27423734E+03</pdfrwt>
<pdfrwt beam="2">  1       -1 0.32233769E-02 0.27423734E+03</pdfrwt>
<totfact> 0.64987284E+03</totfact>
</mgrwt>
</event>
<event>
 9    1  0.2074770E-002  0.2762017E+03  0.7818608E-02  0.1097782E+00
         -2   -1    0    0    0  501 -0.00000000000E+00  0.00000000000E+00  0.69428077910E+02  0.69428077910E+02  0.00000000000E+00 0.  1.
          2   -1    0    0  501    0  0.00000000000E+00 -0.00000000000E+00 -0.27469936274E+03  0.27469936274E+03  0.00000000000E+00 0.  1.
         36    2    1    2    0    0  0.35527136788E-14  0.00000000000E+00 -0.20527128483E+03  0.34412744065E+03  0.27620172887E+03 0.  0.
         25    2    3    3    0    0  0.15242198311E+02 -0.50153158566E+02 -0.12998235438E+03  0.18904056124E+03  0.12685920314E+03 0.  0.
         25    2    3    3    0    0 -0.15242198311E+02  0.50153158566E+02 -0.75288930448E+02  0.15508687940E+03  0.12504340523E+03 0.  0.
          5    1    4    4  502    0  0.35449813574E+02 -0.87476120685E+02 -0.86979383791E+02  0.12843778329E+03  0.47000000000E+01 0.  1.
         -5    1    4    4    0  502 -0.20207615263E+02  0.37322962119E+02 -0.43002970586E+02  0.60602777950E+02  0.47000000000E+01 0.  1.
          5    1    5    5  503    0  0.12271525941E+01 -0.40985990121E+02 -0.12607496772E+02  0.43155489390E+02  0.47000000000E+01 0. -1.
         -5    1    5    5    0  503 -0.16469350905E+02  0.91139148687E+02 -0.62681433677E+02  0.11193139001E+03  0.47000000000E+01 0. -1.
<mgrwt>
<rscale>  0 0.27620173E+03</rscale>
<asrwt>0</asrwt>
<pdfrwt beam="1">  1        2 0.42261440E-01 0.27620173E+03</pdfrwt>
<pdfrwt beam="2">  1       -2 0.10681243E-01 0.27620173E+03</pdfrwt>
<totfact> 0.71313087E+03</totfact>
</mgrwt>
</event>
<event>
 9    1  0.2074770E-002  0.2750954E+03  0.7818608E-02  0.1098398E+00
         -2   -1    0    0    0  501 -0.00000000000E+00  0.00000000000E+00  0.21769584480E+03  0.21769584480E+03  0.00000000000E+00 0.  1.
          2   -1    0    0  501    0  0.00000000000E+00 -0.00000000000E+00 -0.86907385077E+02  0.86907385077E+02  0.00000000000E+00 0.  1.
         36    2    1    2    0    0 -0.71054273576E-14  0.17763568394E-14  0.13078845972E+03  0.30460322988E+03  0.27509544972E+03 0.  0.
         25    2    3    3    0    0 -0.45152910845E+02  0.55018386550E+01  0.66996071457E+02  0.14946918292E+03  0.12563242999E+03 0.  0.
         25    2    3    3    0    0  0.45152910845E+02 -0.55018386550E+01  0.63792388265E+02  0.15513404696E+03  0.13389566139E+03 0.  0.
          5    1    4    4  502    0  0.16772355479E+02  0.10818215488E+02 -0.28695037703E+02  0.35268128437E+02  0.47000000000E+01 0. -1.
         -5    1    4    4    0  502 -0.61925266324E+02 -0.53163768325E+01  0.95691109161E+02  0.11420105448E+03  0.47000000000E+01 0. -1.
          5    1    5    5  503    0 -0.14753572190E+02 -0.79080241013E+01 -0.35226302733E+02  0.39283420699E+02  0.47000000000E+01 0.  1.
         -5    1    5    5    0  503  0.59906483035E+02  0.24061854463E+01  0.99018690998E+02  0.11585062626E+03  0.47000000000E+01 0.  1.
<mgrwt>
<rscale>  0 0.27509545E+03</rscale>
<asrwt>0</asrwt>
<pdfrwt beam="1">  1        2 0.13370367E-01 0.27509545E+03</pdfrwt>
<pdfrwt beam="2">  1       -2 0.33491668E-01 0.27509545E+03</pdfrwt>
<totfact> 0.37158246E+03</totfact>
</mgrwt>
</event>
<event>
 9    1  0.2074770E-002  0.2773036E+03  0.7818608E-02  0.1097171E+00
          1   -1    0    0  501    0  0.00000000000E+00  0.00000000000E+00  0.11368861436E+04  0.11368861436E+04  0.00000000000E+00 0.  1.
         -1   -1    0    0    0  501 -0.00000000000E+00 -0.00000000000E+00 -0.16909631945E+02  0.16909631945E+02  0.00000000000E+00 0.  1.
         36    2    1    2    0    0  0.00000000000E+00 -0.35527136788E-14  0.11199765116E+04  0.11537957755E+04  0.27730363323E+03 0.  0.
         25    2    3    3    0    0 -0.40832128495E+02 -0.25870797662E+02  0.70673436127E+03  0.71951471787E+03  0.12606113972E+03 0.  0.
         25    2    3    3    0    0  0.40832128495E+02  0.25870797662E+02  0.41324215034E+03  0.43428105762E+03  0.12447650906E+03 0.  0.
          5    1    4    4  502    0 -0.50506781857E+02 -0.79196724251E+01  0.69204565570E+03  0.69394735809E+03  0.47000000000E+01 0.  1.
         -5    1    4    4    0  502  0.96746533621E+01 -0.17951125237E+02  0.14688705568E+02  0.25567359782E+02  0.47000000000E+01 0.  1.
          5    1    5    5  503    0 -0.11843213808E+02 -0.41747737385E+02  0.93011733282E+02  0.10274438096E+03  0.47000000000E+01 0.  1.
         -5    1    5    5    0  503  0.52675342303E+02  0.67618535048E+02  0.32023041705E+03  0.33153667667E+03  0.47000000000E+01 0.  1.
<mgrwt>
<rscale>  0 0.27730363E+03</rscale>
<asrwt>0</asrwt>
<pdfrwt beam="1">  1        1 0.17490550E+00 0.27730363E+03</pdfrwt>
<pdfrwt beam="2">  1       -1 0.26014827E-02 0.27730363E+03</pdfrwt>
<totfact> 0.59104580E+03</totfact>
</mgrwt>
</event>
<event>
 9    1  0.2074770E-002  0.2758662E+03  0.7818608E-02  0.1097968E+00
         -2   -1    0    0    0  501 -0.00000000000E+00  0.00000000000E+00  0.13224452504E+03  0.13224452504E+03  0.00000000000E+00 0.  1.
          2   -1    0    0  501    0  0.00000000000E+00 -0.00000000000E+00 -0.14386636455E+03  0.14386636455E+03  0.00000000000E+00 0.  1.
         36    2    1    2    0    0  0.00000000000E+00  0.35527136788E-14 -0.11621839513E+02  0.27611088959E+03  0.27586619255E+03 0.  0.
         25    2    3    3    0    0 -0.19615033483E+02 -0.97435046615E+01  0.53322153618E+02  0.13549405586E+03  0.12262015204E+03 0.  0.
         25    2    3    3    0    0  0.19615033483E+02  0.97435046615E+01 -0.64943993132E+02  0.14061683372E+03  0.12278308622E+03 0.  0.
          5    1    4    4  502    0 -0.14140375796E+02 -0.51125241322E+02  0.71974482603E+02  0.89532992097E+02  0.47000000000E+01 0.  1.
         -5    1    4    4    0  502 -0.54746576878E+01  0.41381736660E+02 -0.18652328985E+02  0.45961063765E+02  0.47000000000E+01 0.  1.
          5    1    5    5  503    0  0.35570182980E+02 -0.25536180258E+02 -0.85759498282E+02  0.96405995482E+02  0.47000000000E+01 0.  1.
         -5    1    5    5    0  503 -0.15955149496E+02  0.35279684919E+02  0.20815505150E+02  0.44210838243E+02  0.47000000000E+01 0.  1.
<mgrwt>
<rscale>  0 0.27586619E+03</rscale>
<asrwt>0</asrwt>
<pdfrwt beam="1">  1        2 0.22133287E-01 0.27586619E+03</pdfrwt>
<pdfrwt beam="2">  1       -2 0.20345312E-01 0.27586619E+03</pdfrwt>
<totfact> 0.50087294E+03</totfact>
</mgrwt>
</event>
<event>
 9    1  0.2074770E-002  0.2752086E+03  0.7818608E-02  0.1098335E+00
          2   -1    0    0  501    0  0.00000000000E+00  0.00000000000E+00  0.12653063784E+04  0.12653063784E+04  0.00000000000E+00 0. -1.
         -2   -1    0    0    0  501 -0.00000000000E+00 -0.00000000000E+00 -0.14964713478E+02  0.14964713478E+02  0.00000000000E+00 0. -1.
         36    2    1    2    0    0  0.00000000000E+00  0.00000000000E+00  0.12503416649E+04  0.12802710919E+04  0.27520862933E+03 0.  0.
         25    2    3    3    0    0  0.86563588392E+01  0.46166226202E+02  0.79534941877E+03  0.80517098564E+03  0.11624700076E+03 0.  0.
         25    2    3    3    0    0 -0.86563588392E+01 -0.46166226202E+02  0.45499224615E+03  0.47510010624E+03  0.12843641968E+03 0.  0.
          5    1    4    4  502    0  0.12998491982E+02  0.22984399457E+02  0.33370482402E+02  0.42812644253E+02  0.47000000000E+01 0. -1.
         -5    1    4    4    0  502 -0.43421331431E+01  0.23181826745E+02  0.76197893636E+03  0.76235834138E+03  0.47000000000E+01 0. -1.
          5    1    5    5  503    0  0.51398430215E+02 -0.26960748772E+02  0.11100977141E+03  0.12535525498E+03  0.47000000000E+01 0.  1.
         -5    1    5    5    0  503 -0.60054789054E+02 -0.19205477430E+02  0.34398247475E+03  0.34974485126E+03  0.47000000000E+01 0.  1.
<mgrwt>
<rscale>  0 0.27520863E+03</rscale>
<asrwt>0</asrwt>
<pdfrwt beam="1">  1        2 0.19466244E+00 0.27520863E+03</pdfrwt>
<pdfrwt beam="2">  1       -2 0.23022646E-02 0.27520863E+03</pdfrwt>
<totfact> 0.11510757E+04</totfact>
</mgrwt>
</event>
<event>
 9    1  0.2074770E-002  0.2753596E+03  0.7818608E-02  0.1098251E+00
          1   -1    0    0  501    0  0.00000000000E+00  0.00000000000E+00  0.19392555801E+02  0.19392555801E+02  0.00000000000E+00 0.  1.
         -1   -1    0    0    0  501 -0.00000000000E+00 -0.00000000000E+00 -0.97747468045E+03  0.97747468045E+03  0.00000000000E+00 0.  1.
         36    2    1    2    0    0 -0.35527136788E-14 -0.17763568394E-14 -0.95808212465E+03  0.99686723625E+03  0.27535963600E+03 0.  0.
         25    2    3    3    0    0 -0.17037935513E+02 -0.47157825020E+01 -0.27905617890E+03  0.30643652719E+03  0.12537330004E+03 0.  0.
         25    2    3    3    0    0  0.17037935513E+02  0.47157825020E+01 -0.67902594575E+03  0.69043070906E+03  0.12371660828E+03 0.  0.
          5    1    4    4  502    0 -0.13266270390E+02  0.17876565144E+02  0.34083026899E+01  0.23005913123E+02  0.47000000000E+01 0. -1.
         -5    1    4    4    0  502 -0.37716651235E+01 -0.22592347646E+02 -0.28246448159E+03  0.28343061407E+03  0.47000000000E+01 0. -1.
          5    1    5    5  503    0  0.26067876243E+02  0.13585822379E+02 -0.33707554025E+02  0.44971078927E+02  0.47000000000E+01 0. -1.
         -5    1    5    5    0  503 -0.90299407297E+01 -0.88700398775E+01 -0.64531839172E+03  0.64545963013E+03  0.47000000000E+01 0. -1.
<mgrwt>
<rscale>  0 0.27535964E+03</rscale>
<asrwt>0</asrwt>
<pdfrwt beam="1">  1        1 0.29834696E-02 0.27535964E+03</pdfrwt>
<pdfrwt beam="2">  1       -1 0.15038075E+00 0.27535964E+03</pdfrwt>
<totfact> 0.12897192E+03</totfact>
</mgrwt>
</event>
<event>
 9    1  0.2074770E-002  0.2766285E+03  0.7818608E-02  0.1097545E+00
          2   -1    0    0  501    0  0.00000000000E+00  0.00000000000E+00  0.46292310040E+03  0.46292310040E+03  0.00000000000E+00 0.  1.
         -2   -1    0    0    0  501 -0.00000000000E+00 -0.00000000000E+00 -0.41326165543E+02  0.41326165543E+02  0.00000000000E+00 0.  1.
         36    2    1    2    0    0 -0.71054273576E-14  0.71054273576E-14  0.42159693486E+03  0.50424926594E+03  0.27662853563E+03 0.  0.
         25    2    3    3    0    0 -0.23171926137E+02 -0.20105563449E+02  0.11989731045E+03  0.17525384970E+03  0.12408615934E+03 0.  0.
         25    2    3    3    0    0  0.23171926137E+02  0.20105563449E+02  0.30169962441E+03  0.32899541624E+03  0.12757017166E+03 0.  0.
          5    1    4    4  502    0 -0.13280187960E+02 -0.72683814960E+02  0.66432072490E+02  0.99471657293E+02  0.47000000000E+01 0.  1.
         -5    1    4    4    0  502 -0.98917381770E+01  0.52578251511E+02  0.53465237960E+02  0.75782192409E+02  0.47000000000E+01 0.  1.
          5    1    5    5  503    0 -0.11224967340E+02  0.67002555451E+02  0.20543675368E+03  0.21642941595E+03  0.47000000000E+01 0. -1.
         -5    1    5    5    0  503  0.34396893477E+02 -0.46896992002E+02  0.96262870731E+02  0.11256600029E+03  0.47000000000E+01 0. -1.
<mgrwt>
<rscale>  0 0.27662854E+03</rscale>
<asrwt>0</asrwt>
<pdfrwt beam="1">  1        2 0.71218935E-01 0.27662854E+03</pdfrwt>
<pdfrwt beam="2">  1       -2 0.63578719E-02 0.27662854E+03</pdfrwt>
<totfact> 0.91342662E+03</totfact>
</mgrwt>
</event>
<event>
 9    1  0.2074770E-002  0.2746159E+03  0.7818608E-02  0.1098666E+00
          1   -1    0    0  501    0  0.00000000000E+00  0.00000000000E+00  0.51575564401E+02  0.51575564401E+02  0.00000000000E+00 0. -1.
         -1   -1    0    0    0  501 -0.00000000000E+00 -0.00000000000E+00 -0.36555049049E+03  0.36555049049E+03  0.00000000000E+00 0. -1.
         36    2    1    2    0    0  0.00000000000E+00  0.00000000000E+00 -0.31397492609E+03  0.41712605489E+03  0.27461589804E+03 0.  0.
         25    2    3    3    0    0  0.27702839130E+02 -0.39654717030E+02 -0.11328067409E+03  0.17537692748E+03  0.12483834224E+03 0.  0.
         25    2    3    3    0    0 -0.27702839130E+02  0.39654717030E+02 -0.20069425200E+03  0.24174912741E+03  0.12579552431E+03 0.  0.
          5    1    4    4  502    0 -0.39262045432E+02  0.10087449217E+02 -0.90630316023E+01  0.41803030811E+02  0.47000000000E+01 0.  1.
         -5    1    4    4    0  502  0.66964884561E+02 -0.49742166247E+02 -0.10421764249E+03  0.13357389667E+03  0.47000000000E+01 0.  1.
          5    1    5    5  503    0 -0.34802717457E+02  0.61130875974E+02 -0.43444544042E+02  0.82811421596E+02  0.47000000000E+01 0.  1.
         -5    1    5    5    0  503  0.70998783268E+01 -0.21476158944E+02 -0.15724970796E+03  0.15893770581E+03  0.47000000000E+01 0.  1.
<mgrwt>
<rscale>  0 0.27461590E+03</rscale>
<asrwt>0</asrwt>
<pdfrwt beam="1">  1        1 0.79347023E-02 0.27461590E+03</pdfrwt>
<pdfrwt beam="2">  1       -1 0.56238536E-01 0.27461590E+03</pdfrwt>
<totfact> 0.28846132E+03</totfact>
</mgrwt>
</event>
<event>
 9    1  0.2074770E-002  0.2760905E+03  0.7818608E-02  0.1097844E+00
         -2   -1    0    0    0  501 -0.00000000000E+00  0.00000000000E+00  0.10289662528E+03  0.10289662528E+03  0.00000000000E+00 0. -1.
          2   -1    0    0  501    0  0.00000000000E+00 -0.00000000000E+00 -0.18520041307E+03  0.18520041307E+03  0.00000000000E+00 0. -1.
         36    2    1    2    0    0  0.00000000000E+00  0.00000000000E+00 -0.82303787787E+02  0.28809703835E+03  0.27609054678E+03 0.  0.
         25    2    3    3    0    0  0.44367269745E+02  0.18552073693E+02 -0.80673577546E+02  0.15415866084E+03  0.12224578739E+03 0.  0.
         25    2    3    3    0    0 -0.44367269745E+02 -0.18552073693E+02 -0.16302102415E+01  0.13393837751E+03  0.12499678925E+03 0.  0.
          5    1    4    4  502    0  0.42428596244E+02 -0.35792425679E+02 -0.82499092834E+02  0.99546340132E+02  0.47000000000E+01 0.  1.
         -5    1    4    4    0  502  0.19386735009E+01  0.54344499372E+02  0.18255152888E+01  0.54612320707E+02  0.47000000000E+01 0.  1.
          5    1    5    5  503    0 -0.72195434702E+02 -0.12324272589E+02  0.39750533381E+02  0.83464144342E+02  0.47000000000E+01 0. -1.
         -5    1    5    5    0  503  0.27828164957E+02 -0.62278011045E+01 -0.41380743623E+02  0.50474233172E+02  0.47000000000E+01 0. -1.
<mgrwt>
<rscale>  0 0.27609055E+03</rscale>
<asrwt>0</asrwt>
<pdfrwt beam="1">  1        2 0.28492371E-01 0.27609055E+03</pdfrwt>
<pdfrwt beam="2">  1       -2 0.15830250E-01 0.27609055E+03</pdfrwt>
<totfact> 0.57688155E+03</totfact>
</mgrwt>
</event>
<event>
 9    1  0.2074770E-002  0.2744004E+03  0.7818608E-02  0.1098787E+00
          2   -1    0    0  501    0  0.00000000000E+00  0.00000000000E+00  0.38273150546E+04  0.38273150546E+04  0.00000000000E+00 0. -1.
         -2   -1    0    0    0  501 -0.00000000000E+00 -0.00000000000E+00 -0.49183011920E+01  0.49183011920E+01  0.00000000000E+00 0. -1.
         36    2    1    2    0    0  0.00000000000E+00  0.00000000000E+00  0.38223967534E+04  0.38322333558E+04  0.27440035128E+03 0.  0.
         25    2    3    3    0    0  0.59740898903E+02  0.12086258430E+01  0.20280633306E+04  0.20327291614E+04  0.12400215701E+03 0.  0.
         25    2    3    3    0    0 -0.59740898903E+02 -0.12086258430E+01  0.17943334228E+04  0.17995041943E+04  0.12252541620E+03 0.  0.
          5    1    4    4  502    0  0.79490726678E+02 -0.39611687193E+02  0.15303571479E+04  0.15329393176E+04  0.47000000000E+01 0. -1.
         -5    1    4    4    0  502 -0.19749827775E+02  0.40820313036E+02  0.49770618271E+03  0.49978984379E+03  0.47000000000E+01 0. -1.
          5    1    5    5  503    0 -0.71451215543E+02  0.20466351453E+02  0.56168346688E+03  0.56659911288E+03  0.47000000000E+01 0.  1.
         -5    1    5    5    0  503  0.11710316641E+02 -0.21674977296E+02  0.12326499559E+04  0.12329050815E+04  0.47000000000E+01 0.  1.
<mgrwt>
<rscale>  0 0.27440035E+03</rscale>
<asrwt>0</asrwt>
<pdfrwt beam="1">  1        2 0.58881532E+00 0.27440035E+03</pdfrwt>
<pdfrwt beam="2">  1       -2 0.75666478E-03 0.27440035E+03</pdfrwt>
<totfact> 0.19224019E+03</totfact>
</mgrwt>
</event>
<event>
 9    1  0.2074770E-002  0.2756262E+03  0.7818608E-02  0.1098102E+00
          1   -1    0    0  501    0  0.00000000000E+00  0.00000000000E+00  0.47899750242E+03  0.47899750242E+03  0.00000000000E+00 0. -1.
         -1   -1    0    0    0  501 -0.00000000000E+00 -0.00000000000E+00 -0.39650415605E+02  0.39650415605E+02  0.00000000000E+00 0. -1.
         36    2    1    2    0    0 -0.71054273576E-14 -0.17763568394E-14  0.43934708682E+03  0.51864791803E+03  0.27562619647E+03 0.  0.
         25    2    3    3    0    0 -0.54848692519E+02 -0.12534716533E+02  0.17157994767E+03  0.21457285807E+03  0.11591520517E+03 0.  0.
         25    2    3    3    0    0  0.54848692519E+02  0.12534716533E+02  0.26776713915E+03  0.30407505996E+03  0.13265331918E+03 0.  0.
          5    1    4    4  502    0 -0.90765208354E+02 -0.44190596459E+01  0.11107407524E+03  0.14358757371E+03  0.47000000000E+01 0. -1.
         -5    1    4    4    0  502  0.35916515835E+02 -0.81156568876E+01  0.60505872432E+02  0.70985284356E+02  0.47000000000E+01 0. -1.
          5    1    5    5  503    0 -0.12566104041E+01  0.60541501691E+02  0.68681359051E+02  0.91684631088E+02  0.47000000000E+01 0. -1.
         -5    1    5    5    0  503  0.56105302923E+02 -0.48006785157E+02  0.19908578010E+03  0.21239042887E+03  0.47000000000E+01 0. -1.
<mgrwt>
<rscale>  0 0.27562620E+03</rscale>
<asrwt>0</asrwt>
<pdfrwt beam="1">  1        1 0.73691919E-01 0.27562620E+03</pdfrwt>
<pdfrwt beam="2">  1       -1 0.61000643E-02 0.27562620E+03</pdfrwt>
<totfact> 0.62010178E+03</totfact>
</mgrwt>
</event>
<event>
 9    1  0.2074770E-002  0.2754890E+03  0.7818608E-02  0.1098179E+00
         -2   -1    0    0    0  501 -0.00000000000E+00  0.00000000000E+00  0.47719613363E+02  0.47719613363E+02  0.00000000000E+00 0. -1.
          2   -1    0    0  501    0  0.00000000000E+00 -0.00000000000E+00 -0.39760481680E+03  0.39760481680E+03  0.00000000000E+00 0. -1.
         36    2    1    2    0    0 -0.71054273576E-14  0.71054273576E-14 -0.34988520344E+03  0.44532443017E+03  0.27548900616E+03 0.  0.
         25    2    3    3    0    0  0.19608056312E+02 -0.38195689646E+02 -0.99033443492E+02  0.16375228865E+03  0.12314139242E+03 0.  0.
         25    2    3    3    0    0 -0.19608056312E+02  0.38195689646E+02 -0.25085175995E+03  0.28157214152E+03  0.12046941035E+03 0.  0.
          5    1    4    4  502    0 -0.47821595861E+02 -0.63678618669E+01 -0.66434961214E+02  0.82238365542E+02  0.47000000000E+01 0.  1.
         -5    1    4    4    0  502  0.67429652174E+02 -0.31827827779E+02 -0.32598482278E+02  0.81513923107E+02  0.47000000000E+01 0.  1.
          5    1    5    5  503    0 -0.38062076286E+02  0.47187828751E+02 -0.47573257972E+02  0.77205684425E+02  0.47000000000E+01 0. -1.
         -5    1    5    5    0  503  0.18454019974E+02 -0.89921391044E+01 -0.20327850198E+03  0.20436645709E+03  0.47000000000E+01 0. -1.
<mgrwt>
<rscale>  0 0.27548901E+03</rscale>
<asrwt>0</asrwt>
<pdfrwt beam="1">  1        2 0.61169972E-01 0.27548901E+03</pdfrwt>
<pdfrwt beam="2">  1       -2 0.73414789E-02 0.27548901E+03</pdfrwt>
<totfact> 0.86366131E+03</totfact>
</mgrwt>
</event>
<event>
 9    1  0.2074770E-002  0.2752384E+03  0.7818608E-02  0.1098318E+00
         -1   -1    0    0    0  501 -0.00000000000E+00  0.00000000000E+00  0.42201431874E+02  0.42201431874E+02  0.00000000000E+00 0.  1.
          1   -1    0    0  501    0  0.00000000000E+00 -0.00000000000E+00 -0.44877736035E+03  0.44877736035E+03  0.00000000000E+00 0.  1.
         36    2    1    2    0    0 -0.35527136788E-14  0.00000000000E+00 -0.40657592848E+03  0.49097879222E+03  0.27523842173E+03 0.  0.
         25    2    3    3    0    0 -0.13424891939E+02  0.55990155176E+02 -0.22389475798E+03  0.26175215816E+03  0.12276076102E+03 0.  0.
         25    2    3    3    0    0  0.13424891939E+02 -0.55990155176E+02 -0.18268117049E+03  0.22922663407E+03  0.12592582941E+03 0.  0.
          5    1    4    4  502    0  0.76682828539E+01 -0.14853372320E+02  0.74093515694E+01  0.18878922689E+02  0.47000000000E+01 0. -1.
         -5    1    4    4    0  502 -0.21093174793E+02  0.70843527496E+02 -0.23130410955E+03  0.24287323547E+03  0.47000000000E+01 0. -1.
          5    1    5    5  503    0  0.37555885165E+02 -0.26090331750E+02 -0.18482707638E+03  0.19045810060E+03  0.47000000000E+01 0.  1.
         -5    1    5    5    0  503 -0.24130993226E+02 -0.29899823425E+02  0.21459058890E+01  0.38768533465E+02  0.47000000000E+01 0.  1.
<mgrwt>
<rscale>  0 0.27523842E+03</rscale>
<asrwt>0</asrwt>
<pdfrwt beam="1">  1        1 0.69042671E-01 0.27523842E+03</pdfrwt>
<pdfrwt beam="2">  1       -1 0.64925280E-02 0.27523842E+03</pdfrwt>
<totfact> 0.61460877E+03</totfact>
</mgrwt>
</event>
<event>
 9    1  0.2074770E-002  0.2750814E+03  0.7818608E-02  0.1098406E+00
          4   -1    0    0  501    0  0.00000000000E+00  0.00000000000E+00  0.38140775143E+02  0.38140775143E+02  0.00000000000E+00 0.  1.
         -4   -1    0    0    0  501 -0.00000000000E+00 -0.00000000000E+00 -0.49599002337E+03  0.49599002337E+03  0.00000000000E+00 0.  1.
         36    2    1    2    0    0  0.14210854715E-13 -0.35527136788E-14 -0.45784924823E+03  0.53413079851E+03  0.27508139853E+03 0.  0.
         25    2    3    3    0    0 -0.46786658674E+02 -0.12355966298E+02 -0.17095484813E+03  0.21692147550E+03  0.12444960869E+03 0.  0.
         25    2    3    3    0    0  0.46786658674E+02  0.12355966298E+02 -0.28689440010E+03  0.31720932301E+03  0.12637917733E+03 0.  0.
          5    1    4    4  502    0  0.35688650375E+02 -0.32487130354E+02 -0.63428882164E+02  0.79839880366E+02  0.47000000000E+01 0.  1.
         -5    1    4    4    0  502 -0.82475309049E+02  0.20131164056E+02 -0.10752596597E+03  0.13708159514E+03  0.47000000000E+01 0.  1.
          5    1    5    5  503    0 -0.38832996735E+02  0.73933663012E+01 -0.15331053602E+03  0.15839467780E+03  0.47000000000E+01 0.  1.
         -5    1    5    5    0  503  0.85619655409E+02  0.49625999969E+01 -0.13358386408E+03  0.15881464521E+03  0.47000000000E+01 0.  1.
<mgrwt>
<rscale>  0 0.27508140E+03</rscale>
<asrwt>0</asrwt>
<pdfrwt beam="1">  1        4 0.58678116E-02 0.27508140E+03</pdfrwt>
<pdfrwt beam="2">  1       -4 0.76306157E-01 0.27508140E+03</pdfrwt>
<totfact> 0.54416321E+02</totfact>
</mgrwt>
</event>
<event>
 9    1  0.2074770E-002  0.2788539E+03  0.7818608E-02  0.1096317E+00
          1   -1    0    0  501    0  0.00000000000E+00  0.00000000000E+00  0.15651850034E+04  0.15651850034E+04  0.00000000000E+00 0.  1.
         -1   -1    0    0    0  501 -0.00000000000E+00 -0.00000000000E+00 -0.12420178019E+02  0.12420178019E+02  0.00000000000E+00 0.  1.
         36    2    1    2    0    0  0.00000000000E+00 -0.35527136788E-14  0.15527648254E+04  0.15776051814E+04  0.27885391426E+03 0.  0.
         25    2    3    3    0    0  0.51752859493E+02 -0.18597355713E+02  0.92930114163E+03  0.93929646974E+03  0.12511205424E+03 0.  0.
         25    2    3    3    0    0 -0.51752859493E+02  0.18597355713E+02  0.62346368373E+03  0.63830871166E+03  0.12532687800E+03 0.  0.
          5    1    4    4  502    0  0.76287701784E+02 -0.19850754222E+02  0.88423744019E+03  0.88775661446E+03  0.47000000000E+01 0. -1.
         -5    1    4    4    0  502 -0.24534842292E+02  0.12533985093E+01  0.45063701444E+02  0.51539855277E+02  0.47000000000E+01 0. -1.
          5    1    5    5  503    0  0.56089316776E+01 -0.32818479414E+02  0.53814832559E+02  0.63455802800E+02  0.47000000000E+01 0. -1.
         -5    1    5    5    0  503 -0.57361791170E+02  0.51415835128E+02  0.56964885117E+03  0.57485290886E+03  0.47000000000E+01 0. -1.
<mgrwt>
<rscale>  0 0.27885391E+03</rscale>
<asrwt>0</asrwt>
<pdfrwt beam="1">  1        1 0.24079754E+00 0.27885391E+03</pdfrwt>
<pdfrwt beam="2">  1       -1 0.19107979E-02 0.27885391E+03</pdfrwt>
<totfact> 0.47509639E+03</totfact>
</mgrwt>
</event>
<event>
 9    1  0.2074770E-002  0.2745962E+03  0.7818608E-02  0.1098678E+00
         -2   -1    0    0    0  501 -0.00000000000E+00  0.00000000000E+00  0.48930557055E+02  0.48930557055E+02  0.00000000000E+00 0.  1.
          2   -1    0    0  501    0  0.00000000000E+00 -0.00000000000E+00 -0.38525566534E+03  0.38525566534E+03  0.00000000000E+00 0.  1.
         36    2    1    2    0    0 -0.14210854715E-13  0.00000000000E+00 -0.33632510829E+03  0.43418622240E+03  0.27459624407E+03 0.  0.
         25    2    3    3    0    0  0.36214380854E+02  0.10893262513E+02 -0.11090842441E+03  0.16994639739E+03  0.12308921492E+03 0.  0.
         25    2    3    3    0    0 -0.36214380854E+02 -0.10893262513E+02 -0.22541668387E+03  0.26423982501E+03  0.13258906140E+03 0.  0.
          5    1    4    4  502    0  0.24983682240E+02 -0.49278592347E+02 -0.17454640448E+02  0.58131906172E+02  0.47000000000E+01 0.  1.
         -5    1    4    4    0  502  0.11230698614E+02  0.60171854860E+02 -0.93453783964E+02  0.11181449122E+03  0.47000000000E+01 0.  1.
          5    1    5    5  503    0  0.28167518680E+02 -0.52207404818E+02 -0.78188920379E+02  0.98257923327E+02  0.47000000000E+01 0. -1.
         -5    1    5    5    0  503 -0.64381899534E+02  0.41314142305E+02 -0.14722776349E+03  0.16598190168E+03  0.47000000000E+01 0. -1.
<mgrwt>
<rscale>  0 0.27459624E+03</rscale>
<asrwt>0</asrwt>
<pdfrwt beam="1">  1        2 0.59270103E-01 0.27459624E+03</pdfrwt>
<pdfrwt beam="2">  1       -2 0.75277780E-02 0.27459624E+03</pdfrwt>
<totfact> 0.85948342E+03</totfact>
</mgrwt>
</event>
<event>
 9    1  0.2074770E-002  0.2745792E+03  0.7818608E-02  0.1098687E+00
          2   -1    0    0  501    0  0.00000000000E+00  0.00000000000E+00  0.16345539262E+04  0.16345539262E+04  0.00000000000E+00 0. -1.
         -2   -1    0    0    0  501 -0.00000000000E+00 -0.00000000000E+00 -0.11531240546E+02  0.11531240546E+02  0.00000000000E+00 0. -1.
         36    2    1    2    0    0  0.71054273576E-14  0.00000000000E+00  0.16230226856E+04  0.16460851667E+04  0.27457920175E+03 0.  0.
         25    2    3    3    0    0 -0.47247780421E+02 -0.35155421985E+02  0.87962468143E+03  0.89032586526E+03  0.12438773939E+03 0.  0.
         25    2    3    3    0    0  0.47247780421E+02  0.35155421985E+02  0.74339800418E+03  0.75575930145E+03  0.12273252485E+03 0.  0.
          5    1    4    4  502    0 -0.42812531094E+02  0.38953512796E+02  0.26969125798E+03  0.27587271269E+03  0.47000000000E+01 0.  1.
         -5    1    4    4    0  502 -0.44352493273E+01 -0.74108934781E+02  0.60993342346E+03  0.61445315257E+03  0.47000000000E+01 0.  1.
          5    1    5    5  503    0  0.82208475096E+02  0.16962197857E+02  0.33308749604E+03  0.34353357849E+03  0.47000000000E+01 0. -1.
         -5    1    5    5    0  503 -0.34960694675E+02  0.18193224129E+02  0.41031050814E+03  0.41222572295E+03  0.47000000000E+01 0. -1.
<mgrwt>
<rscale>  0 0.27457920E+03</rscale>
<asrwt>0</asrwt>
<pdfrwt beam="1">  1        2 0.25146965E+00 0.27457920E+03</pdfrwt>
<pdfrwt beam="2">  1       -2 0.17740383E-02 0.27457920E+03</pdfrwt>
<totfact> 0.10669435E+04</totfact>
</mgrwt>
</event>
<event>
 9    1  0.2074770E-002  0.2748304E+03  0.7818608E-02  0.1098546E+00
          2   -1    0    0  501    0  0.00000000000E+00  0.00000000000E+00  0.12878017580E+04  0.12878017580E+04  0.00000000000E+00 0.  1.
         -2   -1    0    0    0  501 -0.00000000000E+00 -0.00000000000E+00 -0.14662925996E+02  0.14662925996E+02  0.00000000000E+00 0.  1.
         36    2    1    2    0    0  0.00000000000E+00  0.35527136788E-14  0.12731388320E+04  0.13024646840E+04  0.27483043408E+03 0.  0.
         25    2    3    3    0    0  0.35458555854E+01  0.24713104352E+02  0.88432678456E+03  0.89348348113E+03  0.12512217442E+03 0.  0.
         25    2    3    3    0    0 -0.35458555854E+01 -0.24713104352E+02  0.38881204741E+03  0.40898120283E+03  0.12436842624E+03 0.  0.
          5    1    4    4  502    0 -0.96162915519E+00 -0.24482869645E+02  0.36535384494E+02  0.44240930786E+02  0.47000000000E+01 0.  1.
         -5    1    4    4    0  502  0.45074847406E+01  0.49195973998E+02  0.84779140007E+03  0.84924255034E+03  0.47000000000E+01 0.  1.
          5    1    5    5  503    0 -0.62983771249E+01 -0.14278922182E+02  0.39523608076E+03  0.39557199940E+03  0.47000000000E+01 0. -1.
         -5    1    5    5    0  503  0.27525215394E+01 -0.10434182170E+02 -0.64240333516E+01  0.13409203440E+02  0.47000000000E+01 0. -1.
<mgrwt>
<rscale>  0 0.27483043E+03</rscale>
<asrwt>0</asrwt>
<pdfrwt beam="1">  1        2 0.19812326E+00 0.27483043E+03</pdfrwt>
<pdfrwt beam="2">  1       -2 0.22558358E-02 0.27483043E+03</pdfrwt>
<totfact> 0.11524526E+04</totfact>
</mgrwt>
</event>
<event>
 9    1  0.2074770E-002  0.2752661E+03  0.7818608E-02  0.1098303E+00
         -2   -1    0    0    0  501 -0.00000000000E+00  0.00000000000E+00  0.17328430210E+02  0.17328430210E+02  0.00000000000E+00 0. -1.
          2   -1    0    0  501    0  0.00000000000E+00 -0.00000000000E+00 -0.10931662358E+04  0.10931662358E+04  0.00000000000E+00 0. -1.
         36    2    1    2    0    0 -0.71054273576E-14  0.00000000000E+00 -0.10758378056E+04  0.11104946660E+04  0.27526608817E+03 0.  0.
         25    2    3    3    0    0  0.26235134192E+02  0.39266473043E+02 -0.39542600442E+03  0.41704828033E+03  0.12384427714E+03 0.  0.
         25    2    3    3    0    0 -0.26235134192E+02 -0.39266473043E+02 -0.68041180116E+03  0.69344638567E+03  0.12520995357E+03 0.  0.
          5    1    4    4  502    0 -0.20936480917E+02 -0.23235945343E+02 -0.31044098423E+02  0.44317845571E+02  0.47000000000E+01 0.  1.
         -5    1    4    4    0  502  0.47171615109E+02  0.62502418386E+02 -0.36438190600E+03  0.37273043476E+03  0.47000000000E+01 0.  1.
          5    1    5    5  503    0 -0.56652074858E+02 -0.67501250839E+02 -0.53198098281E+03  0.53925108486E+03  0.47000000000E+01 0.  1.
         -5    1    5    5    0  503  0.30416940666E+02  0.28234777796E+02 -0.14843081836E+03  0.15419530082E+03  0.47000000000E+01 0.  1.
<mgrwt>
<rscale>  0 0.27526609E+03</rscale>
<asrwt>0</asrwt>
<pdfrwt beam="1">  1        2 0.16817943E+00 0.27526609E+03</pdfrwt>
<pdfrwt beam="2">  1       -2 0.26659122E-02 0.27526609E+03</pdfrwt>
<totfact> 0.11625441E+04</totfact>
</mgrwt>
</event>
<event>
 9    1  0.2074770E-002  0.2760664E+03  0.7818608E-02  0.1097857E+00
          1   -1    0    0  501    0  0.00000000000E+00  0.00000000000E+00  0.26297628138E+03  0.26297628138E+03  0.00000000000E+00 0.  1.
         -1   -1    0    0    0  501 -0.00000000000E+00 -0.00000000000E+00 -0.72452023280E+02  0.72452023280E+02  0.00000000000E+00 0.  1.
         36    2    1    2    0    0  0.35527136788E-14  0.00000000000E+00  0.19052425810E+03  0.33542830466E+03  0.27606639535E+03 0.  0.
         25    2    3    3    0    0  0.21029786352E+02 -0.12661970912E+02  0.48890060163E+02  0.14332354430E+03  0.13247197042E+03 0.  0.
         25    2    3    3    0    0 -0.21029786352E+02  0.12661970912E+02  0.14163419793E+03  0.19210476035E+03  0.12744181223E+03 0.  0.
          5    1    4    4  502    0 -0.15340672321E+02  0.18348875336E+02  0.81634956375E+02  0.85196088852E+02  0.47000000000E+01 0. -1.
         -5    1    4    4    0  502  0.36370458673E+02 -0.31010846247E+02 -0.32744896212E+02  0.58127455449E+02  0.47000000000E+01 0. -1.
          5    1    5    5  503    0  0.20597809339E+02  0.61551962872E+02  0.77982170481E+02  0.10156880818E+03  0.47000000000E+01 0.  1.
         -5    1    5    5    0  503 -0.41627595691E+02 -0.48889991960E+02  0.63652027452E+02  0.90535952171E+02  0.47000000000E+01 0.  1.
<mgrwt>
<rscale>  0 0.27606640E+03</rscale>
<asrwt>0</asrwt>
<pdfrwt beam="1">  1        1 0.40457889E-01 0.27606640E+03</pdfrwt>
<pdfrwt beam="2">  1       -1 0.11146465E-01 0.27606640E+03</pdfrwt>
<totfact> 0.52929035E+03</totfact>
</mgrwt>
</event>
<event>
 9    1  0.2074770E-002  0.2746286E+03  0.7818608E-02  0.1098659E+00
         -2   -1    0    0    0  501 -0.00000000000E+00  0.00000000000E+00  0.32613811172E+02  0.32613811172E+02  0.00000000000E+00 0.  1.
          2   -1    0    0  501    0  0.00000000000E+00 -0.00000000000E+00 -0.57813590761E+03  0.57813590761E+03  0.00000000000E+00 0.  1.
         36    2    1    2    0    0  0.00000000000E+00  0.00000000000E+00 -0.54552209644E+03  0.61074971878E+03  0.27462858790E+03 0.  0.
         25    2    3    3    0    0  0.47903401722E+02  0.35206745194E+02 -0.25514372041E+03  0.28994419326E+03  0.12423794242E+03 0.  0.
         25    2    3    3    0    0 -0.47903401722E+02 -0.35206745194E+02 -0.29037837603E+03  0.32080552552E+03  0.12272869728E+03 0.  0.
          5    1    4    4  502    0  0.63236995690E+02  0.36912543678E+02 -0.61806203139E+02  0.95935135645E+02  0.47000000000E+01 0.  1.
         -5    1    4    4    0  502 -0.15333593969E+02 -0.17057984836E+01 -0.19333751727E+03  0.19400905762E+03  0.47000000000E+01 0.  1.
          5    1    5    5  503    0 -0.82699065678E+02 -0.37039536607E+02 -0.14352269574E+03  0.16979963760E+03  0.47000000000E+01 0.  1.
         -5    1    5    5    0  503  0.34795663956E+02  0.18327914126E+01 -0.14685568029E+03  0.15100588792E+03  0.47000000000E+01 0.  1.
<mgrwt>
<rscale>  0 0.27462859E+03</rscale>
<asrwt>0</asrwt>
<pdfrwt beam="1">  1        2 0.88943980E-01 0.27462859E+03</pdfrwt>
<pdfrwt beam="2">  1       -2 0.50175097E-02 0.27462859E+03</pdfrwt>
<totfact> 0.10211293E+04</totfact>
</mgrwt>
</event>
<event>
 9    1  0.2074770E-002  0.2749973E+03  0.7818608E-02  0.1098453E+00
         -4   -1    0    0    0  501 -0.00000000000E+00  0.00000000000E+00  0.22769165499E+03  0.22769165499E+03  0.00000000000E+00 0.  1.
          4   -1    0    0  501    0  0.00000000000E+00 -0.00000000000E+00 -0.83032826267E+02  0.83032826267E+02  0.00000000000E+00 0.  1.
         36    2    1    2    0    0  0.26645352591E-14  0.00000000000E+00  0.14465882873E+03  0.31072448126E+03  0.27499732094E+03 0.  0.
         25    2    3    3    0    0 -0.25894088459E+01  0.38191556368E+02  0.11011286208E+03  0.17159451108E+03  0.12591478793E+03 0.  0.
         25    2    3    3    0    0  0.25894088459E+01 -0.38191556368E+02  0.34545966651E+02  0.13912997019E+03  0.12922238497E+03 0.  0.
          5    1    4    4  502    0 -0.10144320405E+02  0.17765920616E+02 -0.26144054112E+02  0.33528148431E+02  0.47000000000E+01 0. -1.
         -5    1    4    4    0  502  0.75549115588E+01  0.20425635753E+02  0.13625691619E+03  0.13806636264E+03  0.47000000000E+01 0. -1.
          5    1    5    5  503    0  0.61628105204E+02 -0.38820773119E+02  0.55878519379E+01  0.73201023667E+02  0.47000000000E+01 0.  1.
         -5    1    5    5    0  503 -0.59038696358E+02  0.62921675030E+00  0.28958114713E+02  0.65928946519E+02  0.47000000000E+01 0.  1.
<mgrwt>
<rscale>  0 0.27499732E+03</rscale>
<asrwt>0</asrwt>
<pdfrwt beam="1">  1        4 0.12774281E-01 0.27499732E+03</pdfrwt>
<pdfrwt beam="2">  1       -4 0.35029485E-01 0.27499732E+03</pdfrwt>
<totfact> 0.73817097E+02</totfact>
</mgrwt>
</event>
<event>
 9    1  0.2074770E-002  0.2749224E+03  0.7818608E-02  0.1098495E+00
         -2   -1    0    0    0  501 -0.00000000000E+00  0.00000000000E+00  0.75733031016E+02  0.75733031016E+02  0.00000000000E+00 0.  1.
          2   -1    0    0  501    0  0.00000000000E+00 -0.00000000000E+00 -0.24950242271E+03  0.24950242271E+03  0.00000000000E+00 0.  1.
         36    2    1    2    0    0  0.71054273576E-14  0.00000000000E+00 -0.17376939170E+03  0.32523545373E+03  0.27492235062E+03 0.  0.
         25    2    3    3    0    0  0.19262091036E+02  0.35198183837E+02 -0.73656494806E+02  0.15537445725E+03  0.13078991721E+03 0.  0.
         25    2    3    3    0    0 -0.19262091036E+02 -0.35198183837E+02 -0.10011289689E+03  0.16986099648E+03  0.13122585760E+03 0.  0.
          5    1    4    4  502    0  0.74443237860E+02  0.25504095668E+02 -0.30613176498E+02  0.84566607678E+02  0.47000000000E+01 0. -1.
         -5    1    4    4    0  502 -0.55181146825E+02  0.96940881687E+01 -0.43043318308E+02  0.70807849574E+02  0.47000000000E+01 0. -1.
          5    1    5    5  503    0 -0.44980410036E+01 -0.37378796935E+02  0.23915739890E+02  0.44849297070E+02  0.47000000000E+01 0.  1.
         -5    1    5    5    0  503 -0.14764050032E+02  0.21806130988E+01 -0.12402863678E+03  0.12501169941E+03  0.47000000000E+01 0.  1.
<mgrwt>
<rscale>  0 0.27492235E+03</rscale>
<asrwt>0</asrwt>
<pdfrwt beam="1">  1        2 0.38384988E-01 0.27492235E+03</pdfrwt>
<pdfrwt beam="2">  1       -2 0.11651236E-01 0.27492235E+03</pdfrwt>
<totfact> 0.68797830E+03</totfact>
</mgrwt>
</event>
<event>
 9    1  0.2074770E-002  0.2755162E+03  0.7818608E-02  0.1098163E+00
          2   -1    0    0  501    0  0.00000000000E+00  0.00000000000E+00  0.89576585099E+03  0.89576585099E+03  0.00000000000E+00 0.  1.
         -2   -1    0    0    0  501 -0.00000000000E+00 -0.00000000000E+00 -0.21185550894E+02  0.21185550894E+02  0.00000000000E+00 0.  1.
         36    2    1    2    0    0  0.00000000000E+00  0.00000000000E+00  0.87458030009E+03  0.91695140188E+03  0.27551619208E+03 0.  0.
         25    2    3    3    0    0 -0.53565514283E+02 -0.39657010284E+01  0.51771019053E+03  0.53484671348E+03  0.12309416898E+03 0.  0.
         25    2    3    3    0    0  0.53565514283E+02  0.39657010284E+01  0.35687010957E+03  0.38210468841E+03  0.12554969810E+03 0.  0.
          5    1    4    4  502    0 -0.45746423854E+02 -0.53338710357E+02  0.17765811111E+03  0.19110794793E+03  0.47000000000E+01 0. -1.
         -5    1    4    4    0  502 -0.78190904294E+01  0.49373009328E+02  0.34005207942E+03  0.34373876555E+03  0.47000000000E+01 0. -1.
          5    1    5    5  503    0  0.67935303151E+02 -0.33966014509E+02  0.12256251612E+03  0.14426557425E+03  0.47000000000E+01 0.  1.
         -5    1    5    5    0  503 -0.14369788868E+02  0.37931715538E+02  0.23430759344E+03  0.23783911415E+03  0.47000000000E+01 0.  1.
<mgrwt>
<rscale>  0 0.27551619E+03</rscale>
<asrwt>0</asrwt>
<pdfrwt beam="1">  1        2 0.13781010E+00 0.27551619E+03</pdfrwt>
<pdfrwt beam="2">  1       -2 0.32593162E-02 0.27551619E+03</pdfrwt>
<totfact> 0.11405251E+04</totfact>
</mgrwt>
</event>
<event>
 9    1  0.2074770E-002  0.2757463E+03  0.7818608E-02  0.1098035E+00
          2   -1    0    0  501    0  0.00000000000E+00  0.00000000000E+00  0.66780583883E+03  0.66780583883E+03  0.00000000000E+00 0.  1.
         -2   -1    0    0    0  501 -0.00000000000E+00 -0.00000000000E+00 -0.28464865368E+02  0.28464865368E+02  0.00000000000E+00 0.  1.
         36    2    1    2    0    0  0.53290705182E-14  0.00000000000E+00  0.63934097346E+03  0.69627070419E+03  0.27574628407E+03 0.  0.
         25    2    3    3    0    0  0.13400425827E+02 -0.36722401307E+02  0.42448729334E+03  0.44462550388E+03  0.12638936001E+03 0.  0.
         25    2    3    3    0    0 -0.13400425827E+02  0.36722401307E+02  0.21485368012E+03  0.25164520031E+03  0.12504038072E+03 0.  0.
          5    1    4    4  502    0  0.55884171766E+02  0.84659553199E+01  0.10699937369E+03  0.12110189521E+03  0.47000000000E+01 0.  1.
         -5    1    4    4    0  502 -0.42483745940E+02 -0.45188356627E+02  0.31748791965E+03  0.32352360867E+03  0.47000000000E+01 0.  1.
          5    1    5    5  503    0  0.25667587851E+01  0.77287805228E+02  0.17885533254E+03  0.19491360411E+03  0.47000000000E+01 0.  1.
         -5    1    5    5    0  503 -0.15967184612E+02 -0.40565403921E+02  0.35998347575E+02  0.56731596203E+02  0.47000000000E+01 0.  1.
<mgrwt>
<rscale>  0 0.27574628E+03</rscale>
<asrwt>0</asrwt>
<pdfrwt beam="1">  1        2 0.10273935E+00 0.27574628E+03</pdfrwt>
<pdfrwt beam="2">  1       -2 0.43792106E-02 0.27574628E+03</pdfrwt>
<totfact> 0.10598578E+04</totfact>
</mgrwt>
</event>
<event>
 9    1  0.2074770E-002  0.2748616E+03  0.7818608E-02  0.1098529E+00
         -1   -1    0    0    0  501 -0.00000000000E+00  0.00000000000E+00  0.30475116960E+02  0.30475116960E+02  0.00000000000E+00 0. -1.
          1   -1    0    0  501    0  0.00000000000E+00 -0.00000000000E+00 -0.61975867953E+03  0.61975867953E+03  0.00000000000E+00 0. -1.
         36    2    1    2    0    0  0.00000000000E+00  0.71054273576E-14 -0.58928356257E+03  0.65023379649E+03  0.27486155239E+03 0.  0.
         25    2    3    3    0    0  0.93113341202E+01  0.53517216551E+02 -0.36445467642E+03  0.38737022593E+03  0.11948927719E+03 0.  0.
         25    2    3    3    0    0 -0.93113341202E+01 -0.53517216551E+02 -0.22482888615E+03  0.26286357056E+03  0.12489369587E+03 0.  0.
          5    1    4    4  502    0  0.74226112835E+01  0.33803857107E+02 -0.36533185444E+03  0.36699761550E+03  0.47000000000E+01 0. -1.
         -5    1    4    4    0  502  0.18887228367E+01  0.19713359444E+02  0.87717802194E+00  0.20372610431E+02  0.47000000000E+01 0. -1.
          5    1    5    5  503    0  0.21974632727E+02 -0.37320428590E+02 -0.94564742758E+01  0.44578176044E+02  0.47000000000E+01 0.  1.
         -5    1    5    5    0  503 -0.31285966847E+02 -0.16196787960E+02 -0.21537241187E+03  0.21828539451E+03  0.47000000000E+01 0.  1.
<mgrwt>
<rscale>  0 0.27486155E+03</rscale>
<asrwt>0</asrwt>
<pdfrwt beam="1">  1        1 0.95347485E-01 0.27486155E+03</pdfrwt>
<pdfrwt beam="2">  1       -1 0.46884797E-02 0.27486155E+03</pdfrwt>
<totfact> 0.64916811E+03</totfact>
</mgrwt>
</event>
<event>
 9    1  0.2074770E-002  0.2792068E+03  0.7818608E-02  0.1096123E+00
          2   -1    0    0  501    0  0.00000000000E+00  0.00000000000E+00  0.12446494353E+04  0.12446494353E+04  0.00000000000E+00 0. -1.
         -2   -1    0    0    0  501 -0.00000000000E+00 -0.00000000000E+00 -0.15658317585E+02  0.15658317585E+02  0.00000000000E+00 0. -1.
         36    2    1    2    0    0  0.00000000000E+00  0.00000000000E+00  0.12289911177E+04  0.12603077529E+04  0.27920684905E+03 0.  0.
         25    2    3    3    0    0  0.20086232387E+02 -0.54140541527E+02  0.70168586026E+03  0.71500431953E+03  0.12463336424E+03 0.  0.
         25    2    3    3    0    0 -0.20086232387E+02  0.54140541527E+02  0.52730525747E+03  0.54530343338E+03  0.12637383007E+03 0.  0.
          5    1    4    4  502    0  0.18516827058E+02  0.37614504335E+02  0.15448590029E+03  0.16014277133E+03  0.47000000000E+01 0. -1.
         -5    1    4    4    0  502  0.15694053294E+01 -0.91755045862E+02  0.54719995998E+03  0.55486154820E+03  0.47000000000E+01 0. -1.
          5    1    5    5  503    0  0.65918481200E+01  0.36845147764E+02  0.33494467155E+02  0.50447861256E+02  0.47000000000E+01 0. -1.
         -5    1    5    5    0  503 -0.26678080507E+02  0.17295393763E+02  0.49381079032E+03  0.49485557212E+03  0.47000000000E+01 0. -1.
<mgrwt>
<rscale>  0 0.27920685E+03</rscale>
<asrwt>0</asrwt>
<pdfrwt beam="1">  1        2 0.19148445E+00 0.27920685E+03</pdfrwt>
<pdfrwt beam="2">  1       -2 0.24089729E-02 0.27920685E+03</pdfrwt>
<totfact> 0.11059999E+04</totfact>
</mgrwt>
</event>
<event>
 9    1  0.2074770E-002  0.2615891E+03  0.7818608E-02  0.1106192E+00
         -2   -1    0    0    0  501 -0.00000000000E+00  0.00000000000E+00  0.76365405558E+02  0.76365405558E+02  0.00000000000E+00 0. -1.
          2   -1    0    0  501    0  0.00000000000E+00 -0.00000000000E+00 -0.22401781085E+03  0.22401781085E+03  0.00000000000E+00 0. -1.
         36    2    1    2    0    0 -0.71054273576E-14  0.00000000000E+00 -0.14765240529E+03  0.30038321641E+03  0.26158907452E+03 0.  0.
         25    2    3    3    0    0  0.33098016948E+02 -0.14898999982E+02 -0.38225328503E+02  0.13122597248E+03  0.12017329648E+03 0.  0.
         25    2    3    3    0    0 -0.33098016948E+02  0.14898999982E+02 -0.10942707679E+03  0.16915724393E+03  0.12378379988E+03 0.  0.
          5    1    4    4  502    0  0.58334923965E+02  0.23530785286E+02 -0.53334807031E+02  0.82603588610E+02  0.47000000000E+01 0. -1.
         -5    1    4    4    0  502 -0.25236907017E+02 -0.38429785268E+02  0.15109478528E+02  0.48622383867E+02  0.47000000000E+01 0. -1.
          5    1    5    5  503    0 -0.17342046147E+02 -0.35360452967E+02 -0.10930249667E+03  0.11627654096E+03  0.47000000000E+01 0. -1.
         -5    1    5    5    0  503 -0.15755970801E+02  0.50259452949E+02 -0.12458011714E+00  0.52880702972E+02  0.47000000000E+01 0. -1.
<mgrwt>
<rscale>  0 0.26158907E+03</rscale>
<asrwt>0</asrwt>
<pdfrwt beam="1">  1        2 0.34464278E-01 0.26158907E+03</pdfrwt>
<pdfrwt beam="2">  1       -2 0.11748524E-01 0.26158907E+03</pdfrwt>
<totfact> 0.76136129E+03</totfact>
</mgrwt>
</event>
<event>
 9    1  0.2074770E-002  0.2782458E+03  0.7818608E-02  0.1096651E+00
          2   -1    0    0  501    0  0.00000000000E+00  0.00000000000E+00  0.32220371010E+03  0.32220371010E+03  0.00000000000E+00 0.  1.
         -2   -1    0    0    0  501 -0.00000000000E+00 -0.00000000000E+00 -0.60071260888E+02  0.60071260888E+02  0.00000000000E+00 0.  1.
         36    2    1    2    0    0  0.00000000000E+00  0.71054273576E-14  0.26213244921E+03  0.38227497098E+03  0.27824581311E+03 0.  0.
         25    2    3    3    0    0 -0.51450346435E+02  0.32266389302E+02  0.14843289109E+03  0.20286872310E+03  0.12423822933E+03 0.  0.
         25    2    3    3    0    0  0.51450346435E+02 -0.32266389302E+02  0.11369955812E+03  0.17940624789E+03  0.12478282829E+03 0.  0.
          5    1    4    4  502    0 -0.16357071633E+02 -0.21744111207E+02  0.13384054503E+03  0.13665921725E+03  0.47000000000E+01 0.  1.
         -5    1    4    4    0  502 -0.35093274801E+02  0.54010500510E+02  0.14592346057E+02  0.66209505851E+02  0.47000000000E+01 0.  1.
          5    1    5    5  503    0  0.75570134629E+02 -0.57203270838E+02  0.51345336356E+02  0.10789575065E+03  0.47000000000E+01 0.  1.
         -5    1    5    5    0  503 -0.24119788194E+02  0.24936881536E+02  0.62354221765E+02  0.71510497237E+02  0.47000000000E+01 0.  1.
<mgrwt>
<rscale>  0 0.27824581E+03</rscale>
<asrwt>0</asrwt>
<pdfrwt beam="1">  1        2 0.49569801E-01 0.27824581E+03</pdfrwt>
<pdfrwt beam="2">  1       -2 0.92417326E-02 0.27824581E+03</pdfrwt>
<totfact> 0.75622801E+03</totfact>
</mgrwt>
</event>
<event>
 9    1  0.2074770E-002  0.2748037E+03  0.7818608E-02  0.1098561E+00
         -2   -1    0    0    0  501 -0.00000000000E+00  0.00000000000E+00  0.35490445160E+02  0.35490445160E+02  0.00000000000E+00 0.  1.
          2   -1    0    0  501    0  0.00000000000E+00 -0.00000000000E+00 -0.53195369623E+03  0.53195369623E+03  0.00000000000E+00 0.  1.
         36    2    1    2    0    0  0.00000000000E+00  0.00000000000E+00 -0.49646325107E+03  0.56744414139E+03  0.27480373712E+03 0.  0.
         25    2    3    3    0    0  0.13118529805E+02 -0.17992284022E+02 -0.14827215296E+03  0.19464196595E+03  0.12411706352E+03 0.  0.
         25    2    3    3    0    0 -0.13118529805E+02  0.17992284022E+02 -0.34819109810E+03  0.37280217543E+03  0.13133393736E+03 0.  0.
          5    1    4    4  502    0  0.32645181051E+02 -0.44691783322E+02 -0.15408207409E+02  0.57641705370E+02  0.47000000000E+01 0.  1.
         -5    1    4    4    0  502 -0.19526651246E+02  0.26699499300E+02 -0.13286394555E+03  0.13700026058E+03  0.47000000000E+01 0.  1.
          5    1    5    5  503    0 -0.32966901724E+02  0.67614218712E+02 -0.15583717875E+03  0.17310637037E+03  0.47000000000E+01 0. -1.
         -5    1    5    5    0  503  0.19848371919E+02 -0.49621934690E+02 -0.19235391935E+03  0.19969580506E+03  0.47000000000E+01 0. -1.
<mgrwt>
<rscale>  0 0.27480374E+03</rscale>
<asrwt>0</asrwt>
<pdfrwt beam="1">  1        2 0.81839026E-01 0.27480374E+03</pdfrwt>
<pdfrwt beam="2">  1       -2 0.54600688E-02 0.27480374E+03</pdfrwt>
<totfact> 0.98724722E+03</totfact>
</mgrwt>
</event>
<event>
 9    1  0.2074770E-002  0.2750334E+03  0.7818608E-02  0.1098433E+00
          1   -1    0    0  501    0  0.00000000000E+00  0.00000000000E+00  0.11098771888E+04  0.11098771888E+04  0.00000000000E+00 0.  1.
         -1   -1    0    0    0  501 -0.00000000000E+00 -0.00000000000E+00 -0.17038675681E+02  0.17038675681E+02  0.00000000000E+00 0.  1.
         36    2    1    2    0    0 -0.35527136788E-14  0.35527136788E-14  0.10928385131E+04  0.11269158645E+04  0.27503336136E+03 0.  0.
         25    2    3    3    0    0  0.26907750964E+02 -0.13023534622E+02  0.79447446584E+03  0.80353079781E+03  0.11652650612E+03 0.  0.
         25    2    3    3    0    0 -0.26907750964E+02  0.13023534622E+02  0.29836404727E+03  0.32338506667E+03  0.12109152376E+03 0.  0.
          5    1    4    4  502    0  0.50575435235E+02  0.36500789416E+02  0.50520494168E+03  0.50906218223E+03  0.47000000000E+01 0. -1.
         -5    1    4    4    0  502 -0.23667684271E+02 -0.49524324039E+02  0.28926952416E+03  0.29446861557E+03  0.47000000000E+01 0. -1.
          5    1    5    5  503    0 -0.34320862098E+01 -0.29374938465E+02  0.25912833174E+03  0.26085292510E+03  0.47000000000E+01 0.  1.
         -5    1    5    5    0  503 -0.23475664754E+02  0.42398473087E+02  0.39235715535E+02  0.62532141570E+02  0.47000000000E+01 0.  1.
<mgrwt>
<rscale>  0 0.27503336E+03</rscale>
<asrwt>0</asrwt>
<pdfrwt beam="1">  1        1 0.17075028E+00 0.27503336E+03</pdfrwt>
<pdfrwt beam="2">  1       -1 0.26213356E-02 0.27503336E+03</pdfrwt>
<totfact> 0.61097911E+03</totfact>
</mgrwt>
</event>
<event>
 9    1  0.2074770E-002  0.2741523E+03  0.7818608E-02  0.1098926E+00
          2   -1    0    0  501    0  0.00000000000E+00  0.00000000000E+00  0.17384046764E+03  0.17384046764E+03  0.00000000000E+00 0. -1.
         -2   -1    0    0    0  501 -0.00000000000E+00 -0.00000000000E+00 -0.10808684999E+03  0.10808684999E+03  0.00000000000E+00 0. -1.
         36    2    1    2    0    0  0.00000000000E+00  0.00000000000E+00  0.65753617649E+02  0.28192731762E+03  0.27415228284E+03 0.  0.
         25    2    3    3    0    0 -0.53287596292E+02 -0.12814676207E+02  0.36245522638E+02  0.14231598826E+03  0.12623913323E+03 0.  0.
         25    2    3    3    0    0  0.53287596292E+02  0.12814676207E+02  0.29508095011E+02  0.13961132936E+03  0.12496724279E+03 0.  0.
          5    1    4    4  502    0 -0.14225570039E+02 -0.60000241690E+02  0.49801479050E+02  0.79401972024E+02  0.47000000000E+01 0. -1.
         -5    1    4    4    0  502 -0.39062026253E+02  0.47185565483E+02 -0.13555956411E+02  0.62914016238E+02  0.47000000000E+01 0. -1.
          5    1    5    5  503    0  0.49858465268E+02  0.41010542600E+02  0.66456941708E+02  0.92770395410E+02  0.47000000000E+01 0.  1.
         -5    1    5    5    0  503  0.34291310239E+01 -0.28195866393E+02 -0.36948846698E+02  0.46840933952E+02  0.47000000000E+01 0.  1.
<mgrwt>
<rscale>  0 0.27415228E+03</rscale>
<asrwt>0</asrwt>
<pdfrwt beam="1">  1        2 0.26744687E-01 0.27415228E+03</pdfrwt>
<pdfrwt beam="2">  1       -2 0.16628746E-01 0.27415228E+03</pdfrwt>
<totfact> 0.56984967E+03</totfact>
</mgrwt>
</event>
<event>
 9    1  0.2074770E-002  0.2752828E+03  0.7818608E-02  0.1098294E+00
          4   -1    0    0  501    0  0.00000000000E+00  0.00000000000E+00  0.72435756081E+02  0.72435756081E+02  0.00000000000E+00 0. -1.
         -4   -1    0    0    0  501 -0.00000000000E+00 -0.00000000000E+00 -0.26154420933E+03  0.26154420933E+03  0.00000000000E+00 0. -1.
         36    2    1    2    0    0  0.00000000000E+00  0.14210854715E-13 -0.18910845325E+03  0.33397996542E+03  0.27528278226E+03 0.  0.
         25    2    3    3    0    0  0.10880117243E+02  0.42654830816E+02 -0.15217885218E+03  0.19920666531E+03  0.12077698834E+03 0.  0.
         25    2    3    3    0    0 -0.10880117243E+02 -0.42654830816E+02 -0.36929601072E+02  0.13477330010E+03  0.12191076836E+03 0.  0.
          5    1    4    4  502    0  0.55961721925E+02  0.45405920966E+02 -0.51317143483E+02  0.88594306786E+02  0.47000000000E+01 0.  1.
         -5    1    4    4    0  502 -0.45081604682E+02 -0.27510901494E+01 -0.10086170870E+03  0.11061235853E+03  0.47000000000E+01 0.  1.
          5    1    5    5  503    0  0.58483698290E+01 -0.83408465811E+02 -0.33964981473E+02  0.90370822532E+02  0.47000000000E+01 0.  1.
         -5    1    5    5    0  503 -0.16728487072E+02  0.40753634994E+02 -0.29646195987E+01  0.44402477570E+02  0.47000000000E+01 0.  1.
<mgrwt>
<rscale>  0 0.27528278E+03</rscale>
<asrwt>0</asrwt>
<pdfrwt beam="1">  1        4 0.11143962E-01 0.27528278E+03</pdfrwt>
<pdfrwt beam="2">  1       -4 0.40237571E-01 0.27528278E+03</pdfrwt>
<totfact> 0.71125016E+02</totfact>
</mgrwt>
</event>
<event>
 9    1  0.2074770E-002  0.2749925E+03  0.7818608E-02  0.1098456E+00
          2   -1    0    0  501    0  0.00000000000E+00  0.00000000000E+00  0.88608458408E+03  0.88608458408E+03  0.00000000000E+00 0.  1.
         -2   -1    0    0    0  501 -0.00000000000E+00 -0.00000000000E+00 -0.21335677421E+02  0.21335677421E+02  0.00000000000E+00 0.  1.
         36    2    1    2    0    0  0.14210854715E-13 -0.71054273576E-14  0.86474890665E+03  0.90742026150E+03  0.27499247156E+03 0.  0.
         25    2    3    3    0    0  0.63949095521E+02 -0.20754585490E+02  0.43495121349E+03  0.45498992991E+03  0.11538214146E+03 0.  0.
         25    2    3    3    0    0 -0.63949095521E+02  0.20754585490E+02  0.42979769316E+03  0.45243033159E+03  0.12428559149E+03 0.  0.
          5    1    4    4  502    0  0.52179818724E+02 -0.37644644066E+02  0.97697424812E+02  0.11707574268E+03  0.47000000000E+01 0.  1.
         -5    1    4    4    0  502  0.11769276797E+02  0.16890058576E+02  0.33725378868E+03  0.33791418723E+03  0.47000000000E+01 0.  1.
          5    1    5    5  503    0 -0.16595107764E+02  0.70259892599E+02  0.23499642539E+03  0.24588058089E+03  0.47000000000E+01 0.  1.
         -5    1    5    5    0  503 -0.47353987757E+02 -0.49505307109E+02  0.19480126777E+03  0.20654975070E+03  0.47000000000E+01 0.  1.
<mgrwt>
<rscale>  0 0.27499247E+03</rscale>
<asrwt>0</asrwt>
<pdfrwt beam="1">  1        2 0.13632068E+00 0.27499247E+03</pdfrwt>
<pdfrwt beam="2">  1       -2 0.32824126E-02 0.27499247E+03</pdfrwt>
<totfact> 0.11449544E+04</totfact>
</mgrwt>
</event>
<event>
 9    1  0.2074770E-002  0.2750257E+03  0.7818608E-02  0.1098437E+00
         -2   -1    0    0    0  501 -0.00000000000E+00  0.00000000000E+00  0.50176518328E+02  0.50176518328E+02  0.00000000000E+00 0. -1.
          2   -1    0    0  501    0  0.00000000000E+00 -0.00000000000E+00 -0.37686531644E+03  0.37686531644E+03  0.00000000000E+00 0. -1.
         36    2    1    2    0    0  0.00000000000E+00  0.35527136788E-14 -0.32668879812E+03  0.42704183477E+03  0.27502574030E+03 0.  0.
         25    2    3    3    0    0  0.36828258945E+02 -0.77298979962E+01 -0.21588713840E+03  0.25347333494E+03  0.12737897400E+03 0.  0.
         25    2    3    3    0    0 -0.36828258945E+02  0.77298979962E+01 -0.11080165971E+03  0.17356849984E+03  0.12819104633E+03 0.  0.
          5    1    4    4  502    0  0.42271954672E+02 -0.55696789064E+02 -0.17992994547E+03  0.19309563884E+03  0.47000000000E+01 0. -1.
         -5    1    4    4    0  502 -0.54436957267E+01  0.47966891068E+02 -0.35957192934E+02  0.60377696094E+02  0.47000000000E+01 0. -1.
          5    1    5    5  503    0 -0.54385531538E+02 -0.18521640068E+01 -0.13272354943E+03  0.14352298466E+03  0.47000000000E+01 0.  1.
         -5    1    5    5    0  503  0.17557272593E+02  0.95820620030E+01  0.21921889719E+02  0.30045515173E+02  0.47000000000E+01 0.  1.
<mgrwt>
<rscale>  0 0.27502574E+03</rscale>
<asrwt>0</asrwt>
<pdfrwt beam="1">  1        2 0.57979280E-01 0.27502574E+03</pdfrwt>
<pdfrwt beam="2">  1       -2 0.77194643E-02 0.27502574E+03</pdfrwt>
<totfact> 0.84647424E+03</totfact>
</mgrwt>
</event>
<event>
 9    1  0.2074770E-002  0.2751577E+03  0.7818608E-02  0.1098364E+00
         -2   -1    0    0    0  501 -0.00000000000E+00  0.00000000000E+00  0.24464370776E+03  0.24464370776E+03  0.00000000000E+00 0. -1.
          2   -1    0    0  501    0  0.00000000000E+00 -0.00000000000E+00 -0.77369387889E+02  0.77369387889E+02  0.00000000000E+00 0. -1.
         36    2    1    2    0    0  0.00000000000E+00  0.71054273576E-14  0.16727431988E+03  0.32201309565E+03  0.27515765605E+03 0.  0.
         25    2    3    3    0    0  0.17954773738E+02  0.35602948113E+02  0.13672903377E+03  0.18872749312E+03  0.12382767934E+03 0.  0.
         25    2    3    3    0    0 -0.17954773738E+02 -0.35602948113E+02  0.30545286104E+02  0.13328560253E+03  0.12345887382E+03 0.  0.
          5    1    4    4  502    0 -0.27135342161E+02  0.68660020959E+02  0.76906084583E+02  0.10671064201E+03  0.47000000000E+01 0. -1.
         -5    1    4    4    0  502  0.45090115899E+02 -0.33057072846E+02  0.59822949189E+02  0.82016851114E+02  0.47000000000E+01 0. -1.
          5    1    5    5  503    0 -0.19606325222E+02 -0.13673671971E+02  0.77491873945E+02  0.81230892039E+02  0.47000000000E+01 0.  1.
         -5    1    5    5    0  503  0.16515514844E+01 -0.21929276142E+02 -0.46946587841E+02  0.52054710491E+02  0.47000000000E+01 0.  1.
<mgrwt>
<rscale>  0 0.27515766E+03</rscale>
<asrwt>0</asrwt>
<pdfrwt beam="1">  1        2 0.11902983E-01 0.27515766E+03</pdfrwt>
<pdfrwt beam="2">  1       -2 0.37637493E-01 0.27515766E+03</pdfrwt>
<totfact> 0.34389579E+03</totfact>
</mgrwt>
</event>
<event>
 9    1  0.2074770E-002  0.2759866E+03  0.7818608E-02  0.1097901E+00
          3   -1    0    0  501    0  0.00000000000E+00  0.00000000000E+00  0.20022686819E+03  0.20022686819E+03  0.00000000000E+00 0. -1.
         -3   -1    0    0    0  501 -0.00000000000E+00 -0.00000000000E+00 -0.95102860876E+02  0.95102860876E+02  0.00000000000E+00 0. -1.
         36    2    1    2    0    0  0.00000000000E+00  0.00000000000E+00  0.10512400732E+03  0.29532972907E+03  0.27598657931E+03 0.  0.
         25    2    3    3    0    0 -0.72860290132E+02 -0.17236929800E+02  0.58687668266E+02  0.14541296451E+03  0.10997706222E+03 0.  0.
         25    2    3    3    0    0  0.72860290132E+02  0.17236929800E+02  0.46436339050E+02  0.14991676455E+03  0.12129702833E+03 0.  0.
          5    1    4    4  502    0 -0.54914138207E+02  0.32995785014E+02  0.65129524511E+02  0.91478026688E+02  0.47000000000E+01 0. -1.
         -5    1    4    4    0  502 -0.17946151925E+02 -0.50232714814E+02 -0.64418562448E+01  0.53934937827E+02  0.47000000000E+01 0. -1.
          5    1    5    5  503    0  0.52547288221E+02  0.16413887838E+02 -0.35295867096E+02  0.65563110416E+02  0.47000000000E+01 0.  1.
         -5    1    5    5    0  503  0.20313001911E+02  0.82304196139E+00  0.81732206147E+02  0.84353654137E+02  0.47000000000E+01 0.  1.
<mgrwt>
<rscale>  0 0.27598658E+03</rscale>
<asrwt>0</asrwt>
<pdfrwt beam="1">  1        3 0.30804133E-01 0.27598658E+03</pdfrwt>
<pdfrwt beam="2">  1       -3 0.14631209E-01 0.27598658E+03</pdfrwt>
<totfact> 0.10073738E+03</totfact>
</mgrwt>
</event>
<event>
 9    1  0.2074770E-002  0.2790876E+03  0.7818608E-02  0.1096188E+00
          1   -1    0    0  501    0  0.00000000000E+00  0.00000000000E+00  0.10425544674E+04  0.10425544674E+04  0.00000000000E+00 0. -1.
         -1   -1    0    0    0  501 -0.00000000000E+00 -0.00000000000E+00 -0.18677654788E+02  0.18677654788E+02  0.00000000000E+00 0. -1.
         36    2    1    2    0    0  0.35527136788E-14  0.71054273576E-14  0.10238768126E+04  0.10612321222E+04  0.27908760230E+03 0.  0.
         25    2    3    3    0    0  0.13473831949E+02  0.22654549310E+02  0.60925383000E+03  0.62786065028E+03  0.14941216164E+03 0.  0.
         25    2    3    3    0    0 -0.13473831949E+02 -0.22654549310E+02  0.41462298258E+03  0.43337147187E+03  0.12330386126E+03 0.  0.
          5    1    4    4  502    0  0.77004036568E+01 -0.56096034737E+02  0.40252364514E+03  0.40651375896E+03  0.47000000000E+01 0.  1.
         -5    1    4    4    0  502  0.57734282917E+01  0.78750584047E+02  0.20673018487E+03  0.22134689132E+03  0.47000000000E+01 0.  1.
          5    1    5    5  503    0  0.27388705633E+02 -0.62513265762E+01  0.16753402643E+02  0.33045223261E+02  0.47000000000E+01 0. -1.
         -5    1    5    5    0  503 -0.40862537582E+02 -0.16403222734E+02  0.39786957993E+03  0.40032624861E+03  0.47000000000E+01 0. -1.
<mgrwt>
<rscale>  0 0.27908760E+03</rscale>
<asrwt>0</asrwt>
<pdfrwt beam="1">  1        1 0.16039295E+00 0.27908760E+03</pdfrwt>
<pdfrwt beam="2">  1       -1 0.28734862E-02 0.27908760E+03</pdfrwt>
<totfact> 0.59753043E+03</totfact>
</mgrwt>
</event>
<event>
 9    1  0.2074770E-002  0.2746898E+03  0.7818608E-02  0.1098625E+00
         -2   -1    0    0    0  501 -0.00000000000E+00  0.00000000000E+00  0.74178445634E+01  0.74178445634E+01  0.00000000000E+00 0. -1.
          2   -1    0    0  501    0  0.00000000000E+00 -0.00000000000E+00 -0.25430057932E+04  0.25430057932E+04  0.00000000000E+00 0. -1.
         36    2    1    2    0    0 -0.17763568394E-14  0.71054273576E-14 -0.25355879487E+04  0.25504236378E+04  0.27468980103E+03 0.  0.
         25    2    3    3    0    0 -0.12067807231E+02 -0.15845249850E+01 -0.18493784247E+04  0.18533672611E+04  0.12091941152E+03 0.  0.
         25    2    3    3    0    0  0.12067807231E+02  0.15845249850E+01 -0.68620952394E+03  0.69705637667E+03  0.12188494089E+03 0.  0.
          5    1    4    4  502    0 -0.37290718297E+02 -0.42339980272E+02 -0.51176206467E+03  0.51488423207E+03  0.47000000000E+01 0.  1.
         -5    1    4    4    0  502  0.25222911066E+02  0.40755455287E+02 -0.13376163600E+04  0.13384830290E+04  0.47000000000E+01 0.  1.
          5    1    5    5  503    0  0.77220096459E+01 -0.50350083140E+02 -0.52680283880E+03  0.52928072067E+03  0.47000000000E+01 0.  1.
         -5    1    5    5    0  503  0.43457975848E+01  0.51934608125E+02 -0.15940668514E+03  0.16777565599E+03  0.47000000000E+01 0.  1.
<mgrwt>
<rscale>  0 0.27468980E+03</rscale>
<asrwt>0</asrwt>
<pdfrwt beam="1">  1        2 0.39123211E+00 0.27468980E+03</pdfrwt>
<pdfrwt beam="2">  1       -2 0.11412056E-02 0.27468980E+03</pdfrwt>
<totfact> 0.66814365E+03</totfact>
</mgrwt>
</event>
<event>
 9    1  0.2074770E-002  0.2701784E+03  0.7818608E-02  0.1101178E+00
          2   -1    0    0  501    0  0.00000000000E+00  0.00000000000E+00  0.19043164955E+04  0.19043164955E+04  0.00000000000E+00 0. -1.
         -2   -1    0    0    0  501 -0.00000000000E+00 -0.00000000000E+00 -0.95830106937E+01  0.95830106937E+01  0.00000000000E+00 0. -1.
         36    2    1    2    0    0  0.00000000000E+00 -0.35527136788E-14  0.18947334848E+04  0.19138995062E+04  0.27017835102E+03 0.  0.
         25    2    3    3    0    0  0.46030070877E+02 -0.21311638917E+02  0.87476498148E+03  0.88513381135E+03  0.12520039059E+03 0.  0.
         25    2    3    3    0    0 -0.46030070877E+02  0.21311638917E+02  0.10199685033E+04  0.10287656948E+04  0.12429864729E+03 0.  0.
          5    1    4    4  502    0  0.46993264339E+02  0.11205686525E+02  0.81874699025E+03  0.82018452701E+03  0.47000000000E+01 0. -1.
         -5    1    4    4    0  502 -0.96319346236E+00 -0.32517325442E+02  0.56017991231E+02  0.64949284346E+02  0.47000000000E+01 0. -1.
          5    1    5    5  503    0  0.39578117120E+02  0.24513862842E+02  0.28644430261E+03  0.29024090911E+03  0.47000000000E+01 0.  1.
         -5    1    5    5    0  503 -0.85608187997E+02 -0.32022239246E+01  0.73352420069E+03  0.73852478569E+03  0.47000000000E+01 0.  1.
<mgrwt>
<rscale>  0 0.27017835E+03</rscale>
<asrwt>0</asrwt>
<pdfrwt beam="1">  1        2 0.29297147E+00 0.27017835E+03</pdfrwt>
<pdfrwt beam="2">  1       -2 0.14743109E-02 0.27017835E+03</pdfrwt>
<totfact> 0.10091041E+04</totfact>
</mgrwt>
</event>
<event>
 9    1  0.2074770E-002  0.2750048E+03  0.7818608E-02  0.1098449E+00
          2   -1    0    0  501    0  0.00000000000E+00  0.00000000000E+00  0.53995254050E+03  0.53995254050E+03  0.00000000000E+00 0. -1.
         -2   -1    0    0    0  501 -0.00000000000E+00 -0.00000000000E+00 -0.35015886160E+02  0.35015886160E+02  0.00000000000E+00 0. -1.
         36    2    1    2    0    0  0.00000000000E+00 -0.35527136788E-14  0.50493665434E+03  0.57496842666E+03  0.27500484861E+03 0.  0.
         25    2    3    3    0    0 -0.47737694120E+02  0.94018913078E+01  0.23207893838E+03  0.27030261597E+03  0.12975202334E+03 0.  0.
         25    2    3    3    0    0  0.47737694120E+02 -0.94018913078E+01  0.27285771596E+03  0.30466581069E+03  0.12650154167E+03 0.  0.
          5    1    4    4  502    0 -0.83205273595E+02  0.26939257139E+02  0.10294546341E+03  0.13516175334E+03  0.47000000000E+01 0. -1.
         -5    1    4    4    0  502  0.35467579475E+02 -0.17537365831E+02  0.12913347497E+03  0.13514086263E+03  0.47000000000E+01 0. -1.
          5    1    5    5  503    0  0.79244791958E+02 -0.42089134126E+02  0.18447737013E+03  0.20519557099E+03  0.47000000000E+01 0. -1.
         -5    1    5    5    0  503 -0.31507097838E+02  0.32687242818E+02  0.88380345828E+02  0.99470239699E+02  0.47000000000E+01 0. -1.
<mgrwt>
<rscale>  0 0.27500485E+03</rscale>
<asrwt>0</asrwt>
<pdfrwt beam="1">  1        2 0.83069616E-01 0.27500485E+03</pdfrwt>
<pdfrwt beam="2">  1       -2 0.53870598E-02 0.27500485E+03</pdfrwt>
<totfact> 0.99086344E+03</totfact>
</mgrwt>
</event>
<event>
 9    1  0.2074770E-002  0.2748256E+03  0.7818608E-02  0.1098549E+00
          1   -1    0    0  501    0  0.00000000000E+00  0.00000000000E+00  0.13033305774E+04  0.13033305774E+04  0.00000000000E+00 0. -1.
         -1   -1    0    0    0  501 -0.00000000000E+00 -0.00000000000E+00 -0.14487712786E+02  0.14487712786E+02  0.00000000000E+00 0. -1.
         36    2    1    2    0    0 -0.35527136788E-14  0.35527136788E-14  0.12888428647E+04  0.13178182902E+04  0.27482561068E+03 0.  0.
         25    2    3    3    0    0  0.49608444597E+01 -0.82774936168E+01  0.51016906068E+03  0.52654408280E+03  0.12993488285E+03 0.  0.
         25    2    3    3    0    0 -0.49608444597E+01  0.82774936168E+01  0.77867380398E+03  0.79127420743E+03  0.14031696783E+03 0.  0.
          5    1    4    4  502    0 -0.38752651342E+02 -0.44790942952E+02  0.37665864862E+03  0.38131591121E+03  0.47000000000E+01 0.  1.
         -5    1    4    4    0  502  0.43713495801E+02  0.36513449335E+02  0.13351041206E+03  0.14522817160E+03  0.47000000000E+01 0.  1.
          5    1    5    5  503    0  0.11876423099E+02  0.15984294318E+02  0.10749920799E+02  0.23112721338E+02  0.47000000000E+01 0.  1.
         -5    1    5    5    0  503 -0.16837267559E+02 -0.77068007010E+01  0.76792388318E+03  0.76816148609E+03  0.47000000000E+01 0.  1.
<mgrwt>
<rscale>  0 0.27482561E+03</rscale>
<asrwt>0</asrwt>
<pdfrwt beam="1">  1        1 0.20051230E+00 0.27482561E+03</pdfrwt>
<pdfrwt beam="2">  1       -1 0.22288799E-02 0.27482561E+03</pdfrwt>
<totfact> 0.56773044E+03</totfact>
</mgrwt>
</event>
<event>
 9    1  0.2074770E-002  0.2752091E+03  0.7818608E-02  0.1098335E+00
          3   -1    0    0  501    0  0.00000000000E+00  0.00000000000E+00  0.15164435066E+04  0.15164435066E+04  0.00000000000E+00 0. -1.
         -3   -1    0    0    0  501 -0.00000000000E+00 -0.00000000000E+00 -0.12486457622E+02  0.12486457622E+02  0.00000000000E+00 0. -1.
         36    2    1    2    0    0  0.35527136788E-14 -0.71054273576E-14  0.15039570489E+04  0.15289299642E+04  0.27520906657E+03 0.  0.
         25    2    3    3    0    0  0.93113618230E+01  0.67220325099E-03  0.91444540408E+03  0.92289474808E+03  0.12424820935E+03 0.  0.
         25    2    3    3    0    0 -0.93113618230E+01 -0.67220325100E-03  0.58951164485E+03  0.60603521610E+03  0.14024265498E+03 0.  0.
          5    1    4    4  502    0  0.51254835243E+02  0.39151232520E+02  0.57202773518E+03  0.57567151828E+03  0.47000000000E+01 0. -1.
         -5    1    4    4    0  502 -0.41943473420E+02 -0.39150560317E+02  0.34241766890E+03  0.34722322980E+03  0.47000000000E+01 0. -1.
          5    1    5    5  503    0 -0.29837339092E+02 -0.65253034822E+02  0.31201614468E+03  0.32019430023E+03  0.47000000000E+01 0. -1.
         -5    1    5    5    0  503  0.20525977269E+02  0.65252362619E+02  0.27749550017E+03  0.28584091587E+03  0.47000000000E+01 0. -1.
<mgrwt>
<rscale>  0 0.27520907E+03</rscale>
<asrwt>0</asrwt>
<pdfrwt beam="1">  1        3 0.23329886E+00 0.27520907E+03</pdfrwt>
<pdfrwt beam="2">  1       -3 0.19209947E-02 0.27520907E+03</pdfrwt>
<totfact> 0.26319361E+02</totfact>
</mgrwt>
</event>
<event>
 9    1  0.2074770E-002  0.2752779E+03  0.7818608E-02  0.1098296E+00
          1   -1    0    0  501    0  0.00000000000E+00  0.00000000000E+00  0.67085333837E+02  0.67085333837E+02  0.00000000000E+00 0. -1.
         -1   -1    0    0    0  501 -0.00000000000E+00 -0.00000000000E+00 -0.28239371255E+03  0.28239371255E+03  0.00000000000E+00 0. -1.
         36    2    1    2    0    0  0.00000000000E+00 -0.71054273576E-14 -0.21530837871E+03  0.34947904638E+03  0.27527787037E+03 0.  0.
         25    2    3    3    0    0  0.57847182931E+01  0.37972697438E+02 -0.15120467396E+03  0.20189187408E+03  0.12814868971E+03 0.  0.
         25    2    3    3    0    0 -0.57847182931E+01 -0.37972697438E+02 -0.64103704748E+02  0.14758717230E+03  0.12726861259E+03 0.  0.
          5    1    4    4  502    0  0.51628360120E+02 -0.21319373290E+02 -0.84775839580E+02  0.10163186618E+03  0.47000000000E+01 0.  1.
         -5    1    4    4    0  502 -0.45843641827E+02  0.59292070728E+02 -0.66428834380E+02  0.10026000790E+03  0.47000000000E+01 0.  1.
          5    1    5    5  503    0  0.48122808719E+02 -0.56850141242E+02 -0.27252620262E+02  0.79451485759E+02  0.47000000000E+01 0.  1.
         -5    1    5    5    0  503 -0.53907527012E+02  0.18877443804E+02 -0.36851084486E+02  0.68135686545E+02  0.47000000000E+01 0.  1.
<mgrwt>
<rscale>  0 0.27527787E+03</rscale>
<asrwt>0</asrwt>
<pdfrwt beam="1">  1        1 0.10320820E-01 0.27527787E+03</pdfrwt>
<pdfrwt beam="2">  1       -1 0.43445187E-01 0.27527787E+03</pdfrwt>
<totfact> 0.32563869E+03</totfact>
</mgrwt>
</event>
<event>
 9    1  0.2074770E-002  0.2752934E+03  0.7818608E-02  0.1098288E+00
          1   -1    0    0  501    0  0.00000000000E+00  0.00000000000E+00  0.92711301087E+03  0.92711301087E+03  0.00000000000E+00 0.  1.
         -1   -1    0    0    0  501 -0.00000000000E+00 -0.00000000000E+00 -0.20436141174E+02  0.20436141174E+02  0.00000000000E+00 0.  1.
         36    2    1    2    0    0 -0.10658141036E-13  0.00000000000E+00  0.90667686969E+03  0.94754915204E+03  0.27529338804E+03 0.  0.
         25    2    3    3    0    0  0.12483095003E+02 -0.49277841043E+02  0.55254407721E+03  0.56878189544E+03  0.12499501608E+03 0.  0.
         25    2    3    3    0    0 -0.12483095003E+02  0.49277841043E+02  0.35413279248E+03  0.37876725659E+03  0.12438033076E+03 0.  0.
          5    1    4    4  502    0 -0.24524061020E+02  0.33773583392E+02  0.22145196421E+03  0.22539997107E+03  0.47000000000E+01 0. -1.
         -5    1    4    4    0  502  0.37007156023E+02 -0.83051424435E+02  0.33109211300E+03  0.34338192437E+03  0.47000000000E+01 0. -1.
          5    1    5    5  503    0  0.55935107928E+02  0.24245598076E+02  0.17219231743E+03  0.18272621461E+03  0.47000000000E+01 0.  1.
         -5    1    5    5    0  503 -0.68418202931E+02  0.25032242967E+02  0.18194047505E+03  0.19604104198E+03  0.47000000000E+01 0.  1.
<mgrwt>
<rscale>  0 0.27529339E+03</rscale>
<asrwt>0</asrwt>
<pdfrwt beam="1">  1        1 0.14263274E+00 0.27529339E+03</pdfrwt>
<pdfrwt beam="2">  1       -1 0.31440224E-02 0.27529339E+03</pdfrwt>
<totfact> 0.63920640E+03</totfact>
</mgrwt>
</event>
<event>
 9    1  0.2074770E-002  0.2757804E+03  0.7818608E-02  0.1098016E+00
          1   -1    0    0  501    0  0.00000000000E+00  0.00000000000E+00  0.52554151516E+02  0.52554151516E+02  0.00000000000E+00 0.  1.
         -1   -1    0    0    0  501 -0.00000000000E+00 -0.00000000000E+00 -0.36179274797E+03  0.36179274797E+03  0.00000000000E+00 0.  1.
         36    2    1    2    0    0  0.53290705182E-14 -0.14210854715E-13 -0.30923859645E+03  0.41434689948E+03  0.27578042638E+03 0.  0.
         25    2    3    3    0    0  0.73240349479E+01 -0.57486016294E+02 -0.17122970100E+03  0.22007443052E+03  0.12551836879E+03 0.  0.
         25    2    3    3    0    0 -0.73240349479E+01  0.57486016294E+02 -0.13800889545E+03  0.19427246897E+03  0.12384285776E+03 0.  0.
          5    1    4    4  502    0 -0.46850357102E+01 -0.82277712192E+02 -0.51875111345E+02  0.97491992801E+02  0.47000000000E+01 0.  1.
         -5    1    4    4    0  502  0.12009070658E+02  0.24791695898E+02 -0.11935458966E+03  0.12258243772E+03  0.47000000000E+01 0.  1.
          5    1    5    5  503    0 -0.40506493481E+02  0.83182591492E+02 -0.10893897843E+03  0.14300318375E+03  0.47000000000E+01 0. -1.
         -5    1    5    5    0  503  0.33182458534E+02 -0.25696575198E+02 -0.29069917021E+02  0.51269285219E+02  0.47000000000E+01 0. -1.
<mgrwt>
<rscale>  0 0.27578043E+03</rscale>
<asrwt>0</asrwt>
<pdfrwt beam="1">  1        1 0.80852536E-02 0.27578043E+03</pdfrwt>
<pdfrwt beam="2">  1       -1 0.55660426E-01 0.27578043E+03</pdfrwt>
<totfact> 0.28676728E+03</totfact>
</mgrwt>
</event>
<event>
 9    1  0.2074770E-002  0.2763766E+03  0.7818608E-02  0.1097685E+00
          2   -1    0    0  501    0  0.00000000000E+00  0.00000000000E+00  0.64821681321E+03  0.64821681321E+03  0.00000000000E+00 0. -1.
         -2   -1    0    0    0  501 -0.00000000000E+00 -0.00000000000E+00 -0.29459281932E+02  0.29459281932E+02  0.00000000000E+00 0. -1.
         36    2    1    2    0    0  0.71054273576E-14  0.00000000000E+00  0.61875753128E+03  0.67767609515E+03  0.27637656814E+03 0.  0.
         25    2    3    3    0    0 -0.20740028294E+02  0.48597461087E+02  0.23820340552E+03  0.27472215062E+03  0.12625187382E+03 0.  0.
         25    2    3    3    0    0  0.20740028294E+02 -0.48597461087E+02  0.38055412576E+03  0.40295394452E+03  0.12148488291E+03 0.  0.
          5    1    4    4  502    0  0.48841102743E+02  0.20764190769E+02  0.54270460724E+02  0.76052467696E+02  0.47000000000E+01 0.  1.
         -5    1    4    4    0  502 -0.69581131037E+02  0.27833270318E+02  0.18393294480E+03  0.19866968293E+03  0.47000000000E+01 0.  1.
          5    1    5    5  503    0  0.42742444136E+02 -0.81310067440E+02  0.28516533788E+03  0.29963244738E+03  0.47000000000E+01 0.  1.
         -5    1    5    5    0  503 -0.22002415842E+02  0.32712606354E+02  0.95388787885E+02  0.10332149714E+03  0.47000000000E+01 0.  1.
<mgrwt>
<rscale>  0 0.27637657E+03</rscale>
<asrwt>0</asrwt>
<pdfrwt beam="1">  1        2 0.99725653E-01 0.27637657E+03</pdfrwt>
<pdfrwt beam="2">  1       -2 0.45321977E-02 0.27637657E+03</pdfrwt>
<totfact> 0.10426560E+04</totfact>
</mgrwt>
</event>
<event>
 9    1  0.2074770E-002  0.2744244E+03  0.7818608E-02  0.1098774E+00
         -2   -1    0    0    0  501 -0.00000000000E+00  0.00000000000E+00  0.63427765635E+02  0.63427765635E+02  0.00000000000E+00 0.  1.
          2   -1    0    0  501    0  0.00000000000E+00 -0.00000000000E+00 -0.29682883538E+03  0.29682883538E+03  0.00000000000E+00 0.  1.
         36    2    1    2    0    0  0.71054273576E-14  0.00000000000E+00 -0.23340106975E+03  0.36025660102E+03  0.27442441440E+03 0.  0.
         25    2    3    3    0    0  0.25043218280E+02 -0.33667290284E+02 -0.62637549514E+02  0.14542067184E+03  0.12435055276E+03 0.  0.
         25    2    3    3    0    0 -0.25043218280E+02  0.33667290284E+02 -0.17076352023E+03  0.21483592918E+03  0.12342466288E+03 0.  0.
          5    1    4    4  502    0 -0.76637023456E+01  0.31067429348E+02 -0.65108054076E+02  0.72698460819E+02  0.47000000000E+01 0.  1.
         -5    1    4    4    0  502  0.32706920626E+02 -0.64734719632E+02  0.24705045623E+01  0.72722211019E+02  0.47000000000E+01 0.  1.
          5    1    5    5  503    0 -0.39763120931E+02  0.49151651121E+02 -0.26150766513E+02  0.68578008015E+02  0.47000000000E+01 0. -1.
         -5    1    5    5    0  503  0.14719902650E+02 -0.15484360837E+02 -0.14461275372E+03  0.14625792117E+03  0.47000000000E+01 0. -1.
<mgrwt>
<rscale>  0 0.27442441E+03</rscale>
<asrwt>0</asrwt>
<pdfrwt beam="1">  1        2 0.45665975E-01 0.27442441E+03</pdfrwt>
<pdfrwt beam="2">  1       -2 0.97581177E-02 0.27442441E+03</pdfrwt>
<totfact> 0.75748173E+03</totfact>
</mgrwt>
</event>
<event>
 9    1  0.2074770E-002  0.2744566E+03  0.7818608E-02  0.1098756E+00
          2   -1    0    0  501    0  0.00000000000E+00  0.00000000000E+00  0.99225436433E+03  0.99225436433E+03  0.00000000000E+00 0. -1.
         -2   -1    0    0    0  501 -0.00000000000E+00 -0.00000000000E+00 -0.18978611385E+02  0.18978611385E+02  0.00000000000E+00 0. -1.
         36    2    1    2    0    0  0.00000000000E+00  0.71054273576E-14  0.97327575294E+03  0.10112329757E+04  0.27445662663E+03 0.  0.
         25    2    3    3    0    0 -0.12918123001E+02  0.38593418164E+02  0.63767275830E+03  0.65061107490E+03  0.12252303569E+03 0.  0.
         25    2    3    3    0    0  0.12918123001E+02 -0.38593418164E+02  0.33560299464E+03  0.36062190081E+03  0.12554861810E+03 0.  0.
          5    1    4    4  502    0  0.43111559956E+02  0.27607745411E+02  0.13126409559E+03  0.14097214973E+03  0.47000000000E+01 0.  1.
         -5    1    4    4    0  502 -0.56029682957E+02  0.10985672753E+02  0.50640866271E+03  0.50963892517E+03  0.47000000000E+01 0.  1.
          5    1    5    5  503    0  0.27855403670E+02  0.32652432937E+02  0.21798377319E+03  0.22221863167E+03  0.47000000000E+01 0.  1.
         -5    1    5    5    0  503 -0.14937280668E+02 -0.71245851101E+02  0.11761922145E+03  0.13840326914E+03  0.47000000000E+01 0.  1.
<mgrwt>
<rscale>  0 0.27445663E+03</rscale>
<asrwt>0</asrwt>
<pdfrwt beam="1">  1        2 0.15265448E+00 0.27445663E+03</pdfrwt>
<pdfrwt beam="2">  1       -2 0.29197871E-02 0.27445663E+03</pdfrwt>
<totfact> 0.11678575E+04</totfact>
</mgrwt>
</event>
<event>
 9    1  0.2074770E-002  0.2755670E+03  0.7818608E-02  0.1098135E+00
          2   -1    0    0  501    0  0.00000000000E+00  0.00000000000E+00  0.31933406462E+03  0.31933406462E+03  0.00000000000E+00 0. -1.
         -2   -1    0    0    0  501 -0.00000000000E+00 -0.00000000000E+00 -0.59449615093E+02  0.59449615093E+02  0.00000000000E+00 0. -1.
         36    2    1    2    0    0  0.35527136788E-14  0.71054273576E-14  0.25988444952E+03  0.37878367971E+03  0.27556695903E+03 0.  0.
         25    2    3    3    0    0  0.22676337921E+02  0.32128180071E+02  0.18145299786E+03  0.22473666645E+03  0.12662915367E+03 0.  0.
         25    2    3    3    0    0 -0.22676337921E+02 -0.32128180071E+02  0.78431451658E+02  0.15404701326E+03  0.12661971974E+03 0.  0.
          5    1    4    4  502    0  0.10018632580E+02 -0.56588065597E+01 -0.17674003882E+02  0.21606839280E+02  0.47000000000E+01 0. -1.
         -5    1    4    4    0  502  0.12657705341E+02  0.37786986631E+02  0.19912700175E+03  0.20312982717E+03  0.47000000000E+01 0. -1.
          5    1    5    5  503    0  0.46987938951E+02 -0.40519958060E+02  0.38628481389E+02  0.73239217517E+02  0.47000000000E+01 0.  1.
         -5    1    5    5    0  503 -0.69664276872E+02  0.83917779887E+01  0.39802970269E+02  0.80807795739E+02  0.47000000000E+01 0.  1.
<mgrwt>
<rscale>  0 0.27556696E+03</rscale>
<asrwt>0</asrwt>
<pdfrwt beam="1">  1        2 0.49128316E-01 0.27556696E+03</pdfrwt>
<pdfrwt beam="2">  1       -2 0.91460949E-02 0.27556696E+03</pdfrwt>
<totfact> 0.77590662E+03</totfact>
</mgrwt>
</event>
<event>
 9    1  0.2074770E-002  0.2749053E+03  0.7818608E-02  0.1098505E+00
          1   -1    0    0  501    0  0.00000000000E+00  0.00000000000E+00  0.29364546032E+02  0.29364546032E+02  0.00000000000E+00 0.  1.
         -1   -1    0    0    0  501 -0.00000000000E+00 -0.00000000000E+00 -0.64340285618E+03  0.64340285618E+03  0.00000000000E+00 0.  1.
         36    2    1    2    0    0  0.35527136788E-14  0.71054273576E-14 -0.61403831015E+03  0.67276740221E+03  0.27490531306E+03 0.  0.
         25    2    3    3    0    0 -0.29256030425E+02  0.26457194125E+02 -0.36980379283E+03  0.39264123100E+03  0.12592216903E+03 0.  0.
         25    2    3    3    0    0  0.29256030425E+02 -0.26457194125E+02 -0.24423451732E+03  0.28012617121E+03  0.13139358398E+03 0.  0.
          5    1    4    4  502    0  0.51594665952E+01  0.59328080896E+02 -0.31177242341E+03  0.31744381436E+03  0.47000000000E+01 0.  1.
         -5    1    4    4    0  502 -0.34415497020E+02 -0.32870886771E+02 -0.58031369423E+02  0.75197416640E+02  0.47000000000E+01 0.  1.
          5    1    5    5  503    0 -0.82193081539E+01 -0.49291200838E+02 -0.24223307524E+02  0.55731841293E+02  0.47000000000E+01 0.  1.
         -5    1    5    5    0  503  0.37475338579E+02  0.22834006712E+02 -0.22001120979E+03  0.22439432992E+03  0.47000000000E+01 0.  1.
<mgrwt>
<rscale>  0 0.27490531E+03</rscale>
<asrwt>0</asrwt>
<pdfrwt beam="1">  1        1 0.45176225E-02 0.27490531E+03</pdfrwt>
<pdfrwt beam="2">  1       -1 0.98985055E-01 0.27490531E+03</pdfrwt>
<totfact> 0.19753070E+03</totfact>
</mgrwt>
</event>
<event>
 9    1  0.2074770E-002  0.2764083E+03  0.7818608E-02  0.1097667E+00
         -1   -1    0    0    0  501 -0.00000000000E+00  0.00000000000E+00  0.19883523664E+03  0.19883523664E+03  0.00000000000E+00 0.  1.
          1   -1    0    0  501    0  0.00000000000E+00 -0.00000000000E+00 -0.96061388301E+02  0.96061388301E+02  0.00000000000E+00 0.  1.
         36    2    1    2    0    0 -0.71054273576E-14  0.71054273576E-14  0.10277384834E+03  0.29489662494E+03  0.27640831301E+03 0.  0.
         25    2    3    3    0    0 -0.19397912087E+02  0.55362160459E+02  0.77550150784E+02  0.15838062979E+03  0.12501659971E+03 0.  0.
         25    2    3    3    0    0  0.19397912087E+02 -0.55362160459E+02  0.25223697559E+02  0.13651599515E+03  0.12066123739E+03 0.  0.
          5    1    4    4  502    0  0.34223150047E+02  0.18913486241E+02 -0.17606143808E+02  0.43139428146E+02  0.47000000000E+01 0.  1.
         -5    1    4    4    0  502 -0.53621062134E+02  0.36448674218E+02  0.95156294593E+02  0.11524120165E+03  0.47000000000E+01 0.  1.
          5    1    5    5  503    0  0.33827637818E+01 -0.69548186253E+02  0.62235486764E+02  0.93507962841E+02  0.47000000000E+01 0.  1.
         -5    1    5    5    0  503  0.16015148305E+02  0.14186025794E+02 -0.37011789205E+02  0.43008032311E+02  0.47000000000E+01 0.  1.
<mgrwt>
<rscale>  0 0.27640831E+03</rscale>
<asrwt>0</asrwt>
<pdfrwt beam="1">  1        1 0.14778675E-01 0.27640831E+03</pdfrwt>
<pdfrwt beam="2">  1       -1 0.30590036E-01 0.27640831E+03</pdfrwt>
<totfact> 0.37361527E+03</totfact>
</mgrwt>
</event>
<event>
 9    1  0.2074770E-002  0.2778109E+03  0.7818608E-02  0.1096891E+00
         -1   -1    0    0    0  501 -0.00000000000E+00  0.00000000000E+00  0.33054054359E+02  0.33054054359E+02  0.00000000000E+00 0.  1.
          1   -1    0    0  501    0  0.00000000000E+00 -0.00000000000E+00 -0.58373234589E+03  0.58373234589E+03  0.00000000000E+00 0.  1.
         36    2    1    2    0    0 -0.17763568394E-14  0.00000000000E+00 -0.55067829153E+03  0.61678640025E+03  0.27781087590E+03 0.  0.
         25    2    3    3    0    0 -0.88348835164E+01  0.64369837552E+02 -0.25036802157E+03  0.28481165316E+03  0.11921409478E+03 0.  0.
         25    2    3    3    0    0  0.88348835164E+01 -0.64369837552E+02 -0.30031026996E+03  0.33197474709E+03  0.12569583649E+03 0.  0.
          5    1    4    4  502    0 -0.23297682168E+02 -0.30807671251E+02 -0.83163698701E+02  0.91816040995E+02  0.47000000000E+01 0.  1.
         -5    1    4    4    0  502  0.14462798652E+02  0.95177508803E+02 -0.16720432287E+03  0.19299561216E+03  0.47000000000E+01 0.  1.
          5    1    5    5  503    0  0.36213795487E+02 -0.54456439866E+02 -0.56988706623E+02  0.86872006475E+02  0.47000000000E+01 0.  1.
         -5    1    5    5    0  503 -0.27378911971E+02 -0.99133976862E+01 -0.24332156333E+03  0.24510274062E+03  0.47000000000E+01 0.  1.
<mgrwt>
<rscale>  0 0.27781088E+03</rscale>
<asrwt>0</asrwt>
<pdfrwt beam="1">  1        1 0.89804972E-01 0.27781088E+03</pdfrwt>
<pdfrwt beam="2">  1       -1 0.50852394E-02 0.27781088E+03</pdfrwt>
<totfact> 0.62492460E+03</totfact>
</mgrwt>
</event>
<event>
 9    1  0.2074770E-002  0.2758966E+03  0.7818608E-02  0.1097951E+00
         -1   -1    0    0    0  501 -0.00000000000E+00  0.00000000000E+00  0.13292588662E+02  0.13292588662E+02  0.00000000000E+00 0.  1.
          1   -1    0    0  501    0  0.00000000000E+00 -0.00000000000E+00 -0.14316051609E+04  0.14316051609E+04  0.00000000000E+00 0.  1.
         36    2    1    2    0    0 -0.17763568394E-14  0.00000000000E+00 -0.14183125723E+04  0.14448977496E+04  0.27589663666E+03 0.  0.
         25    2    3    3    0    0  0.14699828934E+02 -0.34301799066E+02 -0.41495451411E+03  0.43460713592E+03  0.12370697403E+03 0.  0.
         25    2    3    3    0    0 -0.14699828934E+02  0.34301799066E+02 -0.10033580582E+04  0.10102906137E+04  0.11210277790E+03 0.  0.
          5    1    4    4  502    0  0.27861690768E+02 -0.75227198673E+02 -0.20382118442E+03  0.21909032487E+03  0.47000000000E+01 0.  1.
         -5    1    4    4    0  502 -0.13161861834E+02  0.40925399607E+02 -0.21113332969E+03  0.21551681105E+03  0.47000000000E+01 0.  1.
          5    1    5    5  503    0  0.33916548272E+02  0.54663971190E+02 -0.49471877183E+03  0.49890603844E+03  0.47000000000E+01 0. -1.
         -5    1    5    5    0  503 -0.48616377205E+02 -0.20362172124E+02 -0.50863928634E+03  0.51138457524E+03  0.47000000000E+01 0. -1.
<mgrwt>
<rscale>  0 0.27589664E+03</rscale>
<asrwt>0</asrwt>
<pdfrwt beam="1">  1        1 0.22024677E+00 0.27589664E+03</pdfrwt>
<pdfrwt beam="2">  1       -1 0.20450153E-02 0.27589664E+03</pdfrwt>
<totfact> 0.52754469E+03</totfact>
</mgrwt>
</event>
<event>
 9    1  0.2074770E-002  0.2780503E+03  0.7818608E-02  0.1096759E+00
         -1   -1    0    0    0  501 -0.00000000000E+00  0.00000000000E+00  0.20423914869E+03  0.20423914869E+03  0.00000000000E+00 0.  1.
          1   -1    0    0  501    0  0.00000000000E+00 -0.00000000000E+00 -0.94634104809E+02  0.94634104809E+02  0.00000000000E+00 0.  1.
         36    2    1    2    0    0 -0.35527136788E-14 -0.14210854715E-13  0.10960504388E+03  0.29887325350E+03  0.27805027605E+03 0.  0.
         25    2    3    3    0    0  0.13524103098E+02  0.26699274614E+02  0.25362427039E+01  0.12935351599E+03  0.12581791185E+03 0.  0.
         25    2    3    3    0    0 -0.13524103098E+02 -0.26699274614E+02  0.10706880117E+03  0.16951973750E+03  0.12797445288E+03 0.  0.
          5    1    4    4  502    0  0.17148736753E+02 -0.40322558733E+02 -0.31287504810E+02  0.54046145767E+02  0.47000000000E+01 0. -1.
         -5    1    4    4    0  502 -0.36246336553E+01  0.67021833347E+02  0.33823747514E+02  0.75307370225E+02  0.47000000000E+01 0. -1.
          5    1    5    5  503    0 -0.69343809333E+02 -0.44674130248E+01  0.44516466885E+02  0.82657894334E+02  0.47000000000E+01 0.  1.
         -5    1    5    5    0  503  0.55819706235E+02 -0.22231861589E+02  0.62552334288E+02  0.86861843169E+02  0.47000000000E+01 0.  1.
<mgrwt>
<rscale>  0 0.27805028E+03</rscale>
<asrwt>0</asrwt>
<pdfrwt beam="1">  1        1 0.14559093E-01 0.27805028E+03</pdfrwt>
<pdfrwt beam="2">  1       -1 0.31421407E-01 0.27805028E+03</pdfrwt>
<totfact> 0.36403340E+03</totfact>
</mgrwt>
</event>
<event>
 9    1  0.2074770E-002  0.2755569E+03  0.7818608E-02  0.1098141E+00
         -2   -1    0    0    0  501 -0.00000000000E+00  0.00000000000E+00  0.24488862636E+03  0.24488862636E+03  0.00000000000E+00 0. -1.
          2   -1    0    0  501    0  0.00000000000E+00 -0.00000000000E+00 -0.77516452455E+02  0.77516452455E+02  0.00000000000E+00 0. -1.
         36    2    1    2    0    0  0.00000000000E+00  0.00000000000E+00  0.16737217390E+03  0.32240507881E+03  0.27555687298E+03 0.  0.
         25    2    3    3    0    0 -0.76523437607E+01  0.34760149237E+02  0.14002445604E+03  0.19194125762E+03  0.12636364884E+03 0.  0.
         25    2    3    3    0    0  0.76523437607E+01 -0.34760149237E+02  0.27347717867E+02  0.13046382119E+03  0.12249932501E+03 0.  0.
          5    1    4    4  502    0 -0.98868546930E+01  0.61888434217E+02  0.15966975797E+02  0.64845682213E+02  0.47000000000E+01 0. -1.
         -5    1    4    4    0  502  0.22345109323E+01 -0.27128284981E+02  0.12405748024E+03  0.12709557541E+03  0.47000000000E+01 0. -1.
          5    1    5    5  503    0 -0.82334555297E+01  0.37753644149E+02 -0.18488085120E+02  0.43093232971E+02  0.47000000000E+01 0.  1.
         -5    1    5    5    0  503  0.15885799290E+02 -0.72513793386E+02  0.45835802987E+02  0.87370588219E+02  0.47000000000E+01 0.  1.
<mgrwt>
<rscale>  0 0.27555687E+03</rscale>
<asrwt>0</asrwt>
<pdfrwt beam="1">  1        2 0.11925608E-01 0.27555687E+03</pdfrwt>
<pdfrwt beam="2">  1       -2 0.37675173E-01 0.27555687E+03</pdfrwt>
<totfact> 0.34246861E+03</totfact>
</mgrwt>
</event>
<event>
 9    1  0.2074770E-002  0.2755533E+03  0.7818608E-02  0.1098143E+00
         -2   -1    0    0    0  501 -0.00000000000E+00  0.00000000000E+00  0.11630369894E+02  0.11630369894E+02  0.00000000000E+00 0.  1.
          2   -1    0    0  501    0  0.00000000000E+00 -0.00000000000E+00 -0.16321417293E+04  0.16321417293E+04  0.00000000000E+00 0.  1.
         36    2    1    2    0    0 -0.17763568394E-14 -0.35527136788E-14 -0.16205113594E+04  0.16437720992E+04  0.27555334897E+03 0.  0.
         25    2    3    3    0    0 -0.10007890337E+02 -0.23275258635E+02 -0.48405377460E+03  0.49983959213E+03  0.12202321757E+03 0.  0.
         25    2    3    3    0    0  0.10007890337E+02  0.23275258635E+02 -0.11364575848E+04  0.11439325071E+04  0.12807748872E+03 0.  0.
          5    1    4    4  502    0  0.44561677871E+02 -0.21081118567E+02 -0.96857637614E+02  0.10878257516E+03  0.47000000000E+01 0. -1.
         -5    1    4    4    0  502 -0.54569568208E+02 -0.21941400686E+01 -0.38719613699E+03  0.39105701697E+03  0.47000000000E+01 0. -1.
          5    1    5    5  503    0  0.55705966846E+01  0.36137699052E+02 -0.11248135161E+04  0.11254174785E+04  0.47000000000E+01 0. -1.
         -5    1    5    5    0  503  0.44372936521E+01 -0.12862440416E+02 -0.11644068751E+02  0.18515028639E+02  0.47000000000E+01 0. -1.
<mgrwt>
<rscale>  0 0.27555335E+03</rscale>
<asrwt>0</asrwt>
<pdfrwt beam="1">  1        2 0.25109877E+00 0.27555335E+03</pdfrwt>
<pdfrwt beam="2">  1       -2 0.17892873E-02 0.27555335E+03</pdfrwt>
<totfact> 0.10567894E+04</totfact>
</mgrwt>
</event>
<event>
 9    1  0.2074770E-002  0.2754634E+03  0.7818608E-02  0.1098193E+00
         -2   -1    0    0    0  501 -0.00000000000E+00  0.00000000000E+00  0.69607723249E+02  0.69607723249E+02  0.00000000000E+00 0. -1.
          2   -1    0    0  501    0  0.00000000000E+00 -0.00000000000E+00 -0.27252757420E+03  0.27252757420E+03  0.00000000000E+00 0. -1.
         36    2    1    2    0    0  0.71054273576E-14  0.00000000000E+00 -0.20291985095E+03  0.34213529745E+03  0.27546342017E+03 0.  0.
         25    2    3    3    0    0 -0.51427979868E+02  0.43741216068E+02 -0.95258023400E+02  0.17136812029E+03  0.12543847310E+03 0.  0.
         25    2    3    3    0    0  0.51427979868E+02 -0.43741216068E+02 -0.10766182755E+03  0.17076717716E+03  0.11407115581E+03 0.  0.
          5    1    4    4  502    0  0.74146330520E+01  0.62136042087E+02 -0.63489922192E+01  0.63073482635E+02  0.47000000000E+01 0. -1.
         -5    1    4    4    0  502 -0.58842612920E+02 -0.18394826019E+02 -0.88909031180E+02  0.10829463766E+03  0.47000000000E+01 0. -1.
          5    1    5    5  503    0 -0.23869564639E+02 -0.50163688400E+02 -0.35012904827E+02  0.65834225554E+02  0.47000000000E+01 0. -1.
         -5    1    5    5    0  503  0.75297544506E+02  0.64224723322E+01 -0.72648922727E+02  0.10493295161E+03  0.47000000000E+01 0. -1.
<mgrwt>
<rscale>  0 0.27546342E+03</rscale>
<asrwt>0</asrwt>
<pdfrwt beam="1">  1        2 0.41927320E-01 0.27546342E+03</pdfrwt>
<pdfrwt beam="2">  1       -2 0.10708880E-01 0.27546342E+03</pdfrwt>
<totfact> 0.71621188E+03</totfact>
</mgrwt>
</event>
<event>
 9    1  0.2074770E-002  0.2671816E+03  0.7818608E-02  0.1102904E+00
          1   -1    0    0  501    0  0.00000000000E+00  0.00000000000E+00  0.51667214393E+03  0.51667214393E+03  0.00000000000E+00 0.  1.
         -1   -1    0    0    0  501 -0.00000000000E+00 -0.00000000000E+00 -0.34541246961E+02  0.34541246961E+02  0.00000000000E+00 0.  1.
         36    2    1    2    0    0  0.17763568394E-14  0.71054273576E-14  0.48213089697E+03  0.55121339089E+03  0.26718158710E+03 0.  0.
         25    2    3    3    0    0  0.72272308723E+01  0.27321655958E+02  0.31590693023E+03  0.34083773627E+03  0.12479770890E+03 0.  0.
         25    2    3    3    0    0 -0.72272308723E+01 -0.27321655958E+02  0.16622396674E+03  0.21037565462E+03  0.12581257167E+03 0.  0.
          5    1    4    4  502    0 -0.43335716708E+02  0.52150977534E+02  0.21091554704E+03  0.22159685644E+03  0.47000000000E+01 0.  1.
         -5    1    4    4    0  502  0.50562947581E+02 -0.24829321577E+02  0.10499138319E+03  0.11924087983E+03  0.47000000000E+01 0.  1.
          5    1    5    5  503    0 -0.63197155422E+01 -0.71240936238E+02  0.14415568766E+03  0.16099118636E+03  0.47000000000E+01 0.  1.
         -5    1    5    5    0  503 -0.90751533013E+00  0.43919280281E+02  0.22068279081E+02  0.49384468267E+02  0.47000000000E+01 0.  1.
<mgrwt>
<rscale>  0 0.26718159E+03</rscale>
<asrwt>0</asrwt>
<pdfrwt beam="1">  1        1 0.79488016E-01 0.26718159E+03</pdfrwt>
<pdfrwt beam="2">  1       -1 0.53140384E-02 0.26718159E+03</pdfrwt>
<totfact> 0.68953375E+03</totfact>
</mgrwt>
</event>
<event>
 9    1  0.2074770E-002  0.2749180E+03  0.7818608E-02  0.1098497E+00
          1   -1    0    0  501    0  0.00000000000E+00  0.00000000000E+00  0.67974369973E+02  0.67974369973E+02  0.00000000000E+00 0.  1.
         -1   -1    0    0    0  501 -0.00000000000E+00 -0.00000000000E+00 -0.27797215911E+03  0.27797215911E+03  0.00000000000E+00 0.  1.
         36    2    1    2    0    0 -0.35527136788E-14  0.00000000000E+00 -0.20999778913E+03  0.34594652908E+03  0.27491804150E+03 0.  0.
         25    2    3    3    0    0 -0.86818566640E+00  0.39629538487E+02 -0.49185524031E+02  0.14030314889E+03  0.12527770650E+03 0.  0.
         25    2    3    3    0    0  0.86818566640E+00 -0.39629538487E+02 -0.16081226510E+03  0.20564338019E+03  0.12189077546E+03 0.  0.
          5    1    4    4  502    0 -0.28467892068E+02 -0.30739394659E+01 -0.76908288557E+02  0.82200029388E+02  0.47000000000E+01 0.  1.
         -5    1    4    4    0  502  0.27599706402E+02  0.42703477953E+02  0.27722764527E+02  0.58103119501E+02  0.47000000000E+01 0.  1.
          5    1    5    5  503    0 -0.59939755902E+02 -0.13793046155E+02 -0.71110717616E+02  0.94137381627E+02  0.47000000000E+01 0. -1.
         -5    1    5    5    0  503  0.60807941569E+02 -0.25836492332E+02 -0.89701547486E+02  0.11150599856E+03  0.47000000000E+01 0. -1.
<mgrwt>
<rscale>  0 0.27491804E+03</rscale>
<asrwt>0</asrwt>
<pdfrwt beam="1">  1        1 0.10457596E-01 0.27491804E+03</pdfrwt>
<pdfrwt beam="2">  1       -1 0.42764947E-01 0.27491804E+03</pdfrwt>
<totfact> 0.32913805E+03</totfact>
</mgrwt>
</event>
<event>
 9    1  0.2074770E-002  0.2743678E+03  0.7818608E-02  0.1098805E+00
          3   -1    0    0  501    0  0.00000000000E+00  0.00000000000E+00  0.10956368103E+04  0.10956368103E+04  0.00000000000E+00 0. -1.
         -3   -1    0    0    0  501 -0.00000000000E+00 -0.00000000000E+00 -0.17176703637E+02  0.17176703637E+02  0.00000000000E+00 0. -1.
         36    2    1    2    0    0 -0.35527136788E-14  0.00000000000E+00  0.10784601066E+04  0.11128135139E+04  0.27436784639E+03 0.  0.
         25    2    3    3    0    0 -0.28464940956E+02 -0.38565911445E+02  0.67635745284E+03  0.68942190995E+03  0.12468192939E+03 0.  0.
         25    2    3    3    0    0  0.28464940956E+02  0.38565911445E+02  0.40210265379E+03  0.42339160396E+03  0.12359742605E+03 0.  0.
          5    1    4    4  502    0 -0.23435067866E+02  0.40375598083E+02  0.15099230093E+03  0.15811437717E+03  0.47000000000E+01 0.  1.
         -5    1    4    4    0  502 -0.50298730900E+01 -0.78941509528E+02  0.52536515191E+03  0.53130753278E+03  0.47000000000E+01 0.  1.
          5    1    5    5  503    0  0.42563625779E+02 -0.31129870975E+02  0.10173151831E+03  0.11468270542E+03  0.47000000000E+01 0.  1.
         -5    1    5    5    0  503 -0.14098684823E+02  0.69695782420E+02  0.30037113549E+03  0.30870889853E+03  0.47000000000E+01 0.  1.
<mgrwt>
<rscale>  0 0.27436785E+03</rscale>
<asrwt>0</asrwt>
<pdfrwt beam="1">  1        3 0.16855945E+00 0.27436785E+03</pdfrwt>
<pdfrwt beam="2">  1       -3 0.26425707E-02 0.27436785E+03</pdfrwt>
<totfact> 0.40013853E+02</totfact>
</mgrwt>
</event>
<event>
 9    1  0.2074770E-002  0.2764377E+03  0.7818608E-02  0.1097651E+00
          2   -1    0    0  501    0  0.00000000000E+00  0.00000000000E+00  0.63435320665E+03  0.63435320665E+03  0.00000000000E+00 0.  1.
         -2   -1    0    0    0  501 -0.00000000000E+00 -0.00000000000E+00 -0.30116418361E+02  0.30116418361E+02  0.00000000000E+00 0.  1.
         36    2    1    2    0    0  0.00000000000E+00 -0.71054273576E-14  0.60423678829E+03  0.66446962501E+03  0.27643767153E+03 0.  0.
         25    2    3    3    0    0 -0.31874852304E+02  0.23272142132E+02  0.17236082198E+03  0.21304372446E+03  0.11883508225E+03 0.  0.
         25    2    3    3    0    0  0.31874852304E+02 -0.23272142132E+02  0.43187596631E+03  0.45142590055E+03  0.12534310749E+03 0.  0.
          5    1    4    4  502    0  0.45297663981E+02  0.89982134082E+01  0.58625218791E+02  0.74778690046E+02  0.47000000000E+01 0.  1.
         -5    1    4    4    0  502 -0.77172516285E+02  0.14273928723E+02  0.11373560318E+03  0.13826503442E+03  0.47000000000E+01 0.  1.
          5    1    5    5  503    0 -0.30239109818E+02  0.31652481801E+02  0.20883420785E+03  0.21342469335E+03  0.47000000000E+01 0.  1.
         -5    1    5    5    0  503  0.62113962122E+02 -0.54924623932E+02  0.22304175847E+03  0.23800120719E+03  0.47000000000E+01 0.  1.
<mgrwt>
<rscale>  0 0.27643767E+03</rscale>
<asrwt>0</asrwt>
<pdfrwt beam="1">  1        2 0.97592791E-01 0.27643767E+03</pdfrwt>
<pdfrwt beam="2">  1       -2 0.46332956E-02 0.27643767E+03</pdfrwt>
<totfact> 0.10345316E+04</totfact>
</mgrwt>
</event>
<event>
 9    1  0.2074770E-002  0.2754856E+03  0.7818608E-02  0.1098180E+00
          1   -1    0    0  501    0  0.00000000000E+00  0.00000000000E+00  0.16062091565E+04  0.16062091565E+04  0.00000000000E+00 0.  1.
         -1   -1    0    0    0  501 -0.00000000000E+00 -0.00000000000E+00 -0.11812333118E+02  0.11812333118E+02  0.00000000000E+00 0.  1.
         36    2    1    2    0    0  0.71054273576E-14  0.00000000000E+00  0.15943968234E+04  0.16180214896E+04  0.27548559029E+03 0.  0.
         25    2    3    3    0    0  0.47616720352E+02  0.33588403536E+01  0.89609192529E+03  0.90625638809E+03  0.12665412953E+03 0.  0.
         25    2    3    3    0    0 -0.47616720352E+02 -0.33588403536E+01  0.69830489809E+03  0.71176510153E+03  0.12923310405E+03 0.  0.
          5    1    4    4  502    0  0.85104204794E+02 -0.27854989728E+01  0.41659097965E+03  0.42523007773E+03  0.47000000000E+01 0.  1.
         -5    1    4    4    0  502 -0.37487484442E+02  0.61443393264E+01  0.47950094564E+03  0.48102631036E+03  0.47000000000E+01 0.  1.
          5    1    5    5  503    0 -0.29726415745E+02 -0.14361379947E+02  0.68632235044E+03  0.68713198713E+03  0.47000000000E+01 0.  1.
         -5    1    5    5    0  503 -0.17890304607E+02  0.11002539593E+02  0.11982547653E+02  0.24633114393E+02  0.47000000000E+01 0.  1.
<mgrwt>
<rscale>  0 0.27548559E+03</rscale>
<asrwt>0</asrwt>
<pdfrwt beam="1">  1        1 0.24710893E+00 0.27548559E+03</pdfrwt>
<pdfrwt beam="2">  1       -1 0.18172833E-02 0.27548559E+03</pdfrwt>
<totfact> 0.48040117E+03</totfact>
</mgrwt>
</event>
<event>
 9    1  0.2074770E-002  0.2720631E+03  0.7818608E-02  0.1100105E+00
          2   -1    0    0  501    0  0.00000000000E+00  0.00000000000E+00  0.31241152763E+03  0.31241152763E+03  0.00000000000E+00 0. -1.
         -2   -1    0    0    0  501 -0.00000000000E+00 -0.00000000000E+00 -0.59231433741E+02  0.59231433741E+02  0.00000000000E+00 0. -1.
         36    2    1    2    0    0  0.00000000000E+00  0.14210854715E-13  0.25318009389E+03  0.37164296137E+03  0.27206310076E+03 0.  0.
         25    2    3    3    0    0  0.93602955664E+01 -0.53694116200E+02  0.13212843465E+03  0.18990359697E+03  0.12503911248E+03 0.  0.
         25    2    3    3    0    0 -0.93602955664E+01  0.53694116200E+02  0.12105165924E+03  0.18173936441E+03  0.12411695744E+03 0.  0.
          5    1    4    4  502    0  0.42530844916E+01 -0.88413403966E+02  0.53155045556E+02  0.10335650728E+03  0.47000000000E+01 0.  1.
         -5    1    4    4    0  502  0.51072110748E+01  0.34719287765E+02  0.78973389098E+02  0.86547089689E+02  0.47000000000E+01 0.  1.
          5    1    5    5  503    0  0.13235821313E+02  0.87411193176E+02  0.55482334868E+02  0.10448101809E+03  0.47000000000E+01 0. -1.
         -5    1    5    5    0  503 -0.22596116880E+02 -0.33717076976E+02  0.65569324367E+02  0.77258346318E+02  0.47000000000E+01 0. -1.
<mgrwt>
<rscale>  0 0.27206310E+03</rscale>
<asrwt>0</asrwt>
<pdfrwt beam="1">  1        2 0.48063311E-01 0.27206310E+03</pdfrwt>
<pdfrwt beam="2">  1       -2 0.91125285E-02 0.27206310E+03</pdfrwt>
<totfact> 0.79864443E+03</totfact>
</mgrwt>
</event>
<event>
 9    1  0.2074770E-002  0.2728458E+03  0.7818608E-02  0.1099662E+00
         -1   -1    0    0    0  501 -0.00000000000E+00  0.00000000000E+00  0.17460461058E+02  0.17460461058E+02  0.00000000000E+00 0.  1.
          1   -1    0    0  501    0  0.00000000000E+00 -0.00000000000E+00 -0.10659057747E+04  0.10659057747E+04  0.00000000000E+00 0.  1.
         36    2    1    2    0    0  0.00000000000E+00  0.00000000000E+00 -0.10484453136E+04  0.10833662357E+04  0.27284578992E+03 0.  0.
         25    2    3    3    0    0 -0.47693419371E+02 -0.13481734024E+02 -0.54075384966E+03  0.55750234793E+03  0.12624469343E+03 0.  0.
         25    2    3    3    0    0  0.47693419371E+02  0.13481734024E+02 -0.50769146396E+03  0.52586388780E+03  0.12777240124E+03 0.  0.
          5    1    4    4  502    0 -0.77182857677E+02 -0.47176493177E+02 -0.36583435943E+03  0.37688152458E+03  0.47000000000E+01 0. -1.
         -5    1    4    4    0  502  0.29489438305E+02  0.33694759153E+02 -0.17491949023E+03  0.18062082335E+03  0.47000000000E+01 0. -1.
          5    1    5    5  503    0  0.35556267164E+02  0.62363346576E+02 -0.40556513003E+03  0.41189634597E+03  0.47000000000E+01 0.  1.
         -5    1    5    5    0  503  0.12137152208E+02 -0.48881612552E+02 -0.10212633393E+03  0.11396754183E+03  0.47000000000E+01 0.  1.
<mgrwt>
<rscale>  0 0.27284579E+03</rscale>
<asrwt>0</asrwt>
<pdfrwt beam="1">  1        1 0.16398551E+00 0.27284579E+03</pdfrwt>
<pdfrwt beam="2">  1       -1 0.26862248E-02 0.27284579E+03</pdfrwt>
<totfact> 0.63410691E+03</totfact>
</mgrwt>
</event>
<event>
 9    1  0.2074770E-002  0.2751043E+03  0.7818608E-02  0.1098393E+00
          4   -1    0    0  501    0  0.00000000000E+00  0.00000000000E+00  0.47706232243E+03  0.47706232243E+03  0.00000000000E+00 0.  1.
         -4   -1    0    0    0  501 -0.00000000000E+00 -0.00000000000E+00 -0.39660634436E+02  0.39660634436E+02  0.00000000000E+00 0.  1.
         36    2    1    2    0    0  0.00000000000E+00  0.00000000000E+00  0.43740168799E+03  0.51672295686E+03  0.27510430293E+03 0.  0.
         25    2    3    3    0    0  0.18098518759E+01 -0.56804389664E+02  0.21900286592E+03  0.25973842447E+03  0.12756088592E+03 0.  0.
         25    2    3    3    0    0 -0.18098518759E+01  0.56804389664E+02  0.21839882207E+03  0.25698453240E+03  0.12293490212E+03 0.  0.
          5    1    4    4  502    0  0.61098471370E+02 -0.67933739560E+01  0.10521765977E+03  0.12195088791E+03  0.47000000000E+01 0.  1.
         -5    1    4    4    0  502 -0.59288619494E+02 -0.50011015708E+02  0.11378520614E+03  0.13778753656E+03  0.47000000000E+01 0.  1.
          5    1    5    5  503    0 -0.39780990274E+02  0.23489708314E+02  0.17251039812E+02  0.49537682207E+02  0.47000000000E+01 0.  1.
         -5    1    5    5    0  503  0.37971138398E+02  0.33314681350E+02  0.20114778226E+03  0.20744685019E+03  0.47000000000E+01 0.  1.
<mgrwt>
<rscale>  0 0.27510430E+03</rscale>
<asrwt>0</asrwt>
<pdfrwt beam="1">  1        4 0.73394200E-01 0.27510430E+03</pdfrwt>
<pdfrwt beam="2">  1       -4 0.61016364E-02 0.27510430E+03</pdfrwt>
<totfact> 0.55619956E+02</totfact>
</mgrwt>
</event>
<event>
 9    1  0.2074770E-002  0.2750144E+03  0.7818608E-02  0.1098444E+00
         -2   -1    0    0    0  501 -0.00000000000E+00  0.00000000000E+00  0.10211205792E+02  0.10211205792E+02  0.00000000000E+00 0.  1.
          2   -1    0    0  501    0  0.00000000000E+00 -0.00000000000E+00 -0.18517139091E+04  0.18517139091E+04  0.00000000000E+00 0.  1.
         36    2    1    2    0    0  0.71054273576E-14  0.00000000000E+00 -0.18415027033E+04  0.18619251149E+04  0.27501441267E+03 0.  0.
         25    2    3    3    0    0 -0.29005224128E+02  0.16723480461E+02 -0.13483976310E+04  0.13543419732E+04  0.12224987202E+03 0.  0.
         25    2    3    3    0    0  0.29005224128E+02 -0.16723480461E+02 -0.49310507229E+03  0.50758314169E+03  0.11561598326E+03 0.  0.
          5    1    4    4  502    0 -0.74462166101E+02  0.21311408507E+00 -0.65295359345E+03  0.65720251430E+03  0.47000000000E+01 0. -1.
         -5    1    4    4    0  502  0.45456941972E+02  0.16510366376E+02 -0.69544403758E+03  0.69713945892E+03  0.47000000000E+01 0. -1.
          5    1    5    5  503    0  0.87923396703E+01 -0.55281834369E+02 -0.12699787586E+03  0.13886661557E+03  0.47000000000E+01 0. -1.
         -5    1    5    5    0  503  0.20212884458E+02  0.38558353909E+02 -0.36610719643E+03  0.36871652612E+03  0.47000000000E+01 0. -1.
<mgrwt>
<rscale>  0 0.27501441E+03</rscale>
<asrwt>0</asrwt>
<pdfrwt beam="1">  1        2 0.28487904E+00 0.27501441E+03</pdfrwt>
<pdfrwt beam="2">  1       -2 0.15709548E-02 0.27501441E+03</pdfrwt>
<totfact> 0.98016128E+03</totfact>
</mgrwt>
</event>
<event>
 9    1  0.2074770E-002  0.2752392E+03  0.7818608E-02  0.1098318E+00
          2   -1    0    0  501    0  0.00000000000E+00  0.00000000000E+00  0.81645834542E+03  0.81645834542E+03  0.00000000000E+00 0.  1.
         -2   -1    0    0    0  501 -0.00000000000E+00 -0.00000000000E+00 -0.23196723782E+02  0.23196723782E+02  0.00000000000E+00 0.  1.
         36    2    1    2    0    0  0.35527136788E-14 -0.35527136788E-14  0.79326162164E+03  0.83965506921E+03  0.27523923207E+03 0.  0.
         25    2    3    3    0    0  0.21923007621E+02 -0.28871107639E+02  0.56097422733E+03  0.57559099610E+03  0.12368812369E+03 0.  0.
         25    2    3    3    0    0 -0.21923007621E+02  0.28871107639E+02  0.23228739431E+03  0.26406407310E+03  0.12024243024E+03 0.  0.
          5    1    4    4  502    0 -0.29716670852E+02 -0.53095019954E+02  0.17365345647E+03  0.18406459360E+03  0.47000000000E+01 0. -1.
         -5    1    4    4    0  502  0.51639678473E+02  0.24223912315E+02  0.38732077086E+03  0.39152640251E+03  0.47000000000E+01 0. -1.
          5    1    5    5  503    0  0.31150830449E+02 -0.17346202350E+01  0.18185459439E+03  0.18457130504E+03  0.47000000000E+01 0. -1.
         -5    1    5    5    0  503 -0.53073838070E+02  0.30605727874E+02  0.50432799923E+02  0.79492768063E+02  0.47000000000E+01 0. -1.
<mgrwt>
<rscale>  0 0.27523923E+03</rscale>
<asrwt>0</asrwt>
<pdfrwt beam="1">  1        2 0.12560895E+00 0.27523923E+03</pdfrwt>
<pdfrwt beam="2">  1       -2 0.35687274E-02 0.27523923E+03</pdfrwt>
<totfact> 0.11243547E+04</totfact>
</mgrwt>
</event>
<event>
 9    1  0.2074770E-002  0.2753555E+03  0.7818608E-02  0.1098253E+00
          2   -1    0    0  501    0  0.00000000000E+00  0.00000000000E+00  0.20495339177E+04  0.20495339177E+04  0.00000000000E+00 0. -1.
         -2   -1    0    0    0  501 -0.00000000000E+00 -0.00000000000E+00 -0.92485255916E+01  0.92485255916E+01  0.00000000000E+00 0. -1.
         36    2    1    2    0    0 -0.35527136788E-14  0.71054273576E-14  0.20402853921E+04  0.20587824433E+04  0.27535552937E+03 0.  0.
         25    2    3    3    0    0 -0.48197994532E+01  0.59467771949E+02  0.84005736574E+03  0.85085377110E+03  0.12122753684E+03 0.  0.
         25    2    3    3    0    0  0.48197994532E+01 -0.59467771949E+02  0.12002280263E+04  0.12079286722E+04  0.12241207238E+03 0.  0.
          5    1    4    4  502    0  0.48926170940E+02  0.24096759039E+02  0.59269035509E+03  0.59521287874E+03  0.47000000000E+01 0. -1.
         -5    1    4    4    0  502 -0.53745970394E+02  0.35371012910E+02  0.24736701065E+03  0.25564089236E+03  0.47000000000E+01 0. -1.
          5    1    5    5  503    0  0.22621802192E+02 -0.71599064907E+02  0.11566098961E+04  0.11590542325E+04  0.47000000000E+01 0.  1.
         -5    1    5    5    0  503 -0.17802002739E+02  0.12131292958E+02  0.43618130187E+02  0.48874439653E+02  0.47000000000E+01 0.  1.
<mgrwt>
<rscale>  0 0.27535553E+03</rscale>
<asrwt>0</asrwt>
<pdfrwt beam="1">  1        2 0.31531255E+00 0.27535553E+03</pdfrwt>
<pdfrwt beam="2">  1       -2 0.14228517E-02 0.27535553E+03</pdfrwt>
<totfact> 0.89173309E+03</totfact>
</mgrwt>
</event>
<event>
 9    1  0.2074770E-002  0.2744995E+03  0.7818608E-02  0.1098732E+00
          2   -1    0    0  501    0  0.00000000000E+00  0.00000000000E+00  0.16144022691E+02  0.16144022691E+02  0.00000000000E+00 0.  1.
         -2   -1    0    0    0  501 -0.00000000000E+00 -0.00000000000E+00 -0.11668398964E+04  0.11668398964E+04  0.00000000000E+00 0.  1.
         36    2    1    2    0    0  0.00000000000E+00  0.71054273576E-14 -0.11506958737E+04  0.11829839191E+04  0.27449947006E+03 0.  0.
         25    2    3    3    0    0 -0.54817312636E+02  0.14410581116E+02 -0.55057200111E+03  0.56777141686E+03  0.12657902980E+03 0.  0.
         25    2    3    3    0    0  0.54817312636E+02 -0.14410581116E+02 -0.60012387263E+03  0.61521250226E+03  0.12298438042E+03 0.  0.
          5    1    4    4  502    0 -0.19295425849E+02  0.50282709138E+02 -0.46629381483E+03  0.46941737937E+03  0.47000000000E+01 0. -1.
         -5    1    4    4    0  502 -0.35521886787E+02 -0.35872128022E+02 -0.84278186271E+02  0.98354037491E+02  0.47000000000E+01 0. -1.
          5    1    5    5  503    0 -0.22231602262E+01  0.48908711638E+02 -0.18669580788E+03  0.19306584161E+03  0.47000000000E+01 0. -1.
         -5    1    5    5    0  503  0.57040472862E+02 -0.63319292754E+02 -0.41342806475E+03  0.42214666065E+03  0.47000000000E+01 0. -1.
<mgrwt>
<rscale>  0 0.27449947E+03</rscale>
<asrwt>0</asrwt>
<pdfrwt beam="1">  1        2 0.24836947E-02 0.27449947E+03</pdfrwt>
<pdfrwt beam="2">  1       -2 0.17951391E+00 0.27449947E+03</pdfrwt>
<totfact> 0.79605851E+02</totfact>
</mgrwt>
</event>
<event>
 9    1  0.2074770E-002  0.2751952E+03  0.7818608E-02  0.1098343E+00
          1   -1    0    0  501    0  0.00000000000E+00  0.00000000000E+00  0.53420768495E+03  0.53420768495E+03  0.00000000000E+00 0.  1.
         -1   -1    0    0    0  501 -0.00000000000E+00 -0.00000000000E+00 -0.35441446930E+02  0.35441446930E+02  0.00000000000E+00 0.  1.
         36    2    1    2    0    0  0.00000000000E+00  0.35527136788E-14  0.49876623802E+03  0.56964913188E+03  0.27519515487E+03 0.  0.
         25    2    3    3    0    0 -0.49958631269E+02 -0.25857981084E+02  0.24762477440E+03  0.28318818427E+03  0.12535158073E+03 0.  0.
         25    2    3    3    0    0  0.49958631269E+02  0.25857981084E+02  0.25114146362E+03  0.28646094760E+03  0.12579085711E+03 0.  0.
          5    1    4    4  502    0 -0.72551062733E+02 -0.57607332601E+02  0.20629958706E+03  0.22619432153E+03  0.47000000000E+01 0.  1.
         -5    1    4    4    0  502  0.22592431464E+02  0.31749351516E+02  0.41325187346E+02  0.56993862743E+02  0.47000000000E+01 0.  1.
          5    1    5    5  503    0  0.63727583092E+02  0.11558182421E+01  0.24970773265E+03  0.25775682825E+03  0.47000000000E+01 0. -1.
         -5    1    5    5    0  503 -0.13768951823E+02  0.24702162842E+02  0.14337309613E+01  0.28704119354E+02  0.47000000000E+01 0. -1.
<mgrwt>
<rscale>  0 0.27519515E+03</rscale>
<asrwt>0</asrwt>
<pdfrwt beam="1">  1        1 0.82185792E-01 0.27519515E+03</pdfrwt>
<pdfrwt beam="2">  1       -1 0.54525307E-02 0.27519515E+03</pdfrwt>
<totfact> 0.63492962E+03</totfact>
</mgrwt>
</event>
<event>
 9    1  0.2074770E-002  0.2759812E+03  0.7818608E-02  0.1097904E+00
          1   -1    0    0  501    0  0.00000000000E+00  0.00000000000E+00  0.91517013954E+03  0.91517013954E+03  0.00000000000E+00 0. -1.
         -1   -1    0    0    0  501 -0.00000000000E+00 -0.00000000000E+00 -0.20806404154E+02  0.20806404154E+02  0.00000000000E+00 0. -1.
         36    2    1    2    0    0  0.00000000000E+00  0.00000000000E+00  0.89436373538E+03  0.93597654369E+03  0.27598115728E+03 0.  0.
         25    2    3    3    0    0  0.43461708548E+02 -0.20016287030E+02  0.39943295799E+03  0.42201092398E+03  0.12750278497E+03 0.  0.
         25    2    3    3    0    0 -0.43461708548E+02  0.20016287030E+02  0.49493077739E+03  0.51396561971E+03  0.13005618777E+03 0.  0.
          5    1    4    4  502    0  0.86838239538E+02 -0.28667384051E+01  0.22073302789E+03  0.23726410945E+03  0.47000000000E+01 0.  1.
         -5    1    4    4    0  502 -0.43376530991E+02 -0.17149548625E+02  0.17869993011E+03  0.18474681453E+03  0.47000000000E+01 0.  1.
          5    1    5    5  503    0 -0.29566521143E+02 -0.54232472892E+02  0.25296764915E+03  0.26044205076E+03  0.47000000000E+01 0. -1.
         -5    1    5    5    0  503 -0.13895187404E+02  0.74248759922E+02  0.24196312824E+03  0.25352356895E+03  0.47000000000E+01 0. -1.
<mgrwt>
<rscale>  0 0.27598116E+03</rscale>
<asrwt>0</asrwt>
<pdfrwt beam="1">  1        1 0.14079538E+00 0.27598116E+03</pdfrwt>
<pdfrwt beam="2">  1       -1 0.32009860E-02 0.27598116E+03</pdfrwt>
<totfact> 0.63594833E+03</totfact>
</mgrwt>
</event>
<event>
 9    1  0.2074770E-002  0.2757634E+03  0.7818608E-02  0.1098026E+00
         -2   -1    0    0    0  501 -0.00000000000E+00  0.00000000000E+00  0.37077059515E+03  0.37077059515E+03  0.00000000000E+00 0. -1.
          2   -1    0    0  501    0  0.00000000000E+00 -0.00000000000E+00 -0.51275272221E+02  0.51275272221E+02  0.00000000000E+00 0. -1.
         36    2    1    2    0    0 -0.71054273576E-14 -0.35527136788E-14  0.31949532293E+03  0.42204586737E+03  0.27576340002E+03 0.  0.
         25    2    3    3    0    0 -0.21343258856E+02  0.23794103388E+02  0.52890015006E+02  0.12592376480E+03  0.10971666601E+03 0.  0.
         25    2    3    3    0    0  0.21343258856E+02 -0.23794103388E+02  0.26660530792E+03  0.29612210257E+03  0.12485277475E+03 0.  0.
          5    1    4    4  502    0  0.19325947131E+02 -0.35316742035E+02  0.84761636842E+01  0.41408934438E+02  0.47000000000E+01 0. -1.
         -5    1    4    4    0  502 -0.40669205988E+02  0.59110845423E+02  0.44413851322E+02  0.84514830364E+02  0.47000000000E+01 0. -1.
          5    1    5    5  503    0  0.68614044864E+02  0.62653372783E+00  0.10162747188E+03  0.12271313188E+03  0.47000000000E+01 0.  1.
         -5    1    5    5    0  503 -0.47270786008E+02 -0.24420637116E+02  0.16497783605E+03  0.17340897068E+03  0.47000000000E+01 0.  1.
<mgrwt>
<rscale>  0 0.27576340E+03</rscale>
<asrwt>0</asrwt>
<pdfrwt beam="1">  1        2 0.78885037E-02 0.27576340E+03</pdfrwt>
<pdfrwt beam="2">  1       -2 0.57041628E-01 0.27576340E+03</pdfrwt>
<totfact> 0.25353996E+03</totfact>
</mgrwt>
</event>
<event>
 9    1  0.2074770E-002  0.2753504E+03  0.7818608E-02  0.1098256E+00
         -2   -1    0    0    0  501 -0.00000000000E+00  0.00000000000E+00  0.15766281565E+02  0.15766281565E+02  0.00000000000E+00 0. -1.
          2   -1    0    0  501    0  0.00000000000E+00 -0.00000000000E+00 -0.12022149752E+04  0.12022149752E+04  0.00000000000E+00 0. -1.
         36    2    1    2    0    0  0.00000000000E+00  0.00000000000E+00 -0.11864486937E+04  0.12179812568E+04  0.27535039351E+03 0.  0.
         25    2    3    3    0    0 -0.46213481187E+02  0.36440967601E+02 -0.59516805399E+03  0.61084753064E+03  0.12428219191E+03 0.  0.
         25    2    3    3    0    0  0.46213481187E+02 -0.36440967601E+02 -0.59128063968E+03  0.60713372616E+03  0.12463922587E+03 0.  0.
          5    1    4    4  502    0 -0.24935452945E+01  0.22586806761E+02 -0.12498379814E+02  0.26356803785E+02  0.47000000000E+01 0. -1.
         -5    1    4    4    0  502 -0.43719935893E+02  0.13854160840E+02 -0.58266967418E+03  0.58449072685E+03  0.47000000000E+01 0. -1.
          5    1    5    5  503    0  0.79256428529E+02 -0.90812878334E+01 -0.49778085240E+03  0.50415465710E+03  0.47000000000E+01 0. -1.
         -5    1    5    5    0  503 -0.33042947342E+02 -0.27359679767E+02 -0.93499787273E+02  0.10297906907E+03  0.47000000000E+01 0. -1.
<mgrwt>
<rscale>  0 0.27535039E+03</rscale>
<asrwt>0</asrwt>
<pdfrwt beam="1">  1        2 0.18495619E+00 0.27535039E+03</pdfrwt>
<pdfrwt beam="2">  1       -2 0.24255812E-02 0.27535039E+03</pdfrwt>
<totfact> 0.11565032E+04</totfact>
</mgrwt>
</event>
<event>
 9    1  0.2074770E-002  0.2752332E+03  0.7818608E-02  0.1098321E+00
         -2   -1    0    0    0  501 -0.00000000000E+00  0.00000000000E+00  0.12192555251E+03  0.12192555251E+03  0.00000000000E+00 0. -1.
          2   -1    0    0  501    0  0.00000000000E+00 -0.00000000000E+00 -0.15532696119E+03  0.15532696119E+03  0.00000000000E+00 0. -1.
         36    2    1    2    0    0  0.00000000000E+00 -0.71054273576E-14 -0.33401408673E+02  0.27725251370E+03  0.27523317797E+03 0.  0.
         25    2    3    3    0    0  0.59948428396E+01 -0.42457856666E+02 -0.40141007521E+01  0.13768678697E+03  0.13077817313E+03 0.  0.
         25    2    3    3    0    0 -0.59948428396E+01  0.42457856666E+02 -0.29387307921E+02  0.13956572673E+03  0.12952362903E+03 0.  0.
          5    1    4    4  502    0 -0.61792267404E+02 -0.27948903667E+02  0.13839942410E+01  0.67995815806E+02  0.47000000000E+01 0.  1.
         -5    1    4    4    0  502  0.67787110243E+02 -0.14508952998E+02 -0.53980949932E+01  0.69690971164E+02  0.47000000000E+01 0.  1.
          5    1    5    5  503    0 -0.53533836476E+02 -0.20398194383E+02 -0.11685271318E+02  0.58656572928E+02  0.47000000000E+01 0.  1.
         -5    1    5    5    0  503  0.47538993636E+02  0.62856051049E+02 -0.17702036603E+02  0.80909153804E+02  0.47000000000E+01 0.  1.
<mgrwt>
<rscale>  0 0.27523318E+03</rscale>
<asrwt>0</asrwt>
<pdfrwt beam="1">  1        2 0.23896455E-01 0.27523318E+03</pdfrwt>
<pdfrwt beam="2">  1       -2 0.18757777E-01 0.27523318E+03</pdfrwt>
<totfact> 0.52764287E+03</totfact>
</mgrwt>
</event>
<event>
 9    1  0.2074770E-002  0.2763918E+03  0.7818608E-02  0.1097676E+00
          3   -1    0    0  501    0  0.00000000000E+00  0.00000000000E+00  0.56494888671E+03  0.56494888671E+03  0.00000000000E+00 0. -1.
         -3   -1    0    0    0  501 -0.00000000000E+00 -0.00000000000E+00 -0.33805028772E+02  0.33805028772E+02  0.00000000000E+00 0. -1.
         36    2    1    2    0    0  0.00000000000E+00  0.00000000000E+00  0.53114385794E+03  0.59875391549E+03  0.27639184771E+03 0.  0.
         25    2    3    3    0    0  0.41068931752E+02 -0.32441508094E+02  0.34820099821E+03  0.37222518289E+03  0.12070021962E+03 0.  0.
         25    2    3    3    0    0 -0.41068931752E+02  0.32441508094E+02  0.18294285973E+03  0.22652873260E+03  0.12291488178E+03 0.  0.
          5    1    4    4  502    0  0.80706650664E+02 -0.19973561897E+02  0.17156875934E+03  0.19071034534E+03  0.47000000000E+01 0. -1.
         -5    1    4    4    0  502 -0.39637718912E+02 -0.12467946197E+02  0.17663223887E+03  0.18151483755E+03  0.47000000000E+01 0. -1.
          5    1    5    5  503    0 -0.60602316951E+02 -0.11638844952E+02  0.16261464940E+03  0.17399344163E+03  0.47000000000E+01 0. -1.
         -5    1    5    5    0  503  0.19533385199E+02  0.44080353046E+02  0.20328210336E+02  0.52535290972E+02  0.47000000000E+01 0. -1.
<mgrwt>
<rscale>  0 0.27639185E+03</rscale>
<asrwt>0</asrwt>
<pdfrwt beam="1">  1        3 0.86915206E-01 0.27639185E+03</pdfrwt>
<pdfrwt beam="2">  1       -3 0.52007741E-02 0.27639185E+03</pdfrwt>
<totfact> 0.67636114E+02</totfact>
</mgrwt>
</event>
<event>
 9    1  0.2074770E-002  0.2700559E+03  0.7818608E-02  0.1101248E+00
         -1   -1    0    0    0  501 -0.00000000000E+00  0.00000000000E+00  0.79265468755E+02  0.79265468755E+02  0.00000000000E+00 0. -1.
          1   -1    0    0  501    0  0.00000000000E+00 -0.00000000000E+00 -0.23001871767E+03  0.23001871767E+03  0.00000000000E+00 0. -1.
         36    2    1    2    0    0  0.00000000000E+00  0.00000000000E+00 -0.15075324892E+03  0.30928418643E+03  0.27005585703E+03 0.  0.
         25    2    3    3    0    0  0.11336585999E+02 -0.25473773121E+02 -0.63462778922E+02  0.15539506857E+03  0.13907793401E+03 0.  0.
         25    2    3    3    0    0 -0.11336585999E+02  0.25473773121E+02 -0.87290469993E+02  0.15388911785E+03  0.12363172385E+03 0.  0.
          5    1    4    4  502    0 -0.34580007242E+02 -0.53803464173E+02  0.91824443159E+01  0.64784233741E+02  0.47000000000E+01 0.  1.
         -5    1    4    4    0  502  0.45916593240E+02  0.28329691051E+02 -0.72645223238E+02  0.90610834833E+02  0.47000000000E+01 0.  1.
          5    1    5    5  503    0  0.18907710706E+02  0.38210551172E+01 -0.10884621806E+03  0.11064217628E+03  0.47000000000E+01 0. -1.
         -5    1    5    5    0  503 -0.30244296704E+02  0.21652718004E+02  0.21555748069E+02  0.43246941567E+02  0.47000000000E+01 0. -1.
<mgrwt>
<rscale>  0 0.27005586E+03</rscale>
<asrwt>0</asrwt>
<pdfrwt beam="1">  1        1 0.35387495E-01 0.27005586E+03</pdfrwt>
<pdfrwt beam="2">  1       -1 0.12194688E-01 0.27005586E+03</pdfrwt>
<totfact> 0.54390218E+03</totfact>
</mgrwt>
</event>
<event>
 9    1  0.2074770E-002  0.2780912E+03  0.7818608E-02  0.1096736E+00
          2   -1    0    0  501    0  0.00000000000E+00  0.00000000000E+00  0.88110319998E+03  0.88110319998E+03  0.00000000000E+00 0.  1.
         -2   -1    0    0    0  501 -0.00000000000E+00 -0.00000000000E+00 -0.21942578906E+02  0.21942578906E+02  0.00000000000E+00 0.  1.
         36    2    1    2    0    0 -0.71054273576E-14 -0.35527136788E-14  0.85916062108E+03  0.90304577889E+03  0.27809118281E+03 0.  0.
         25    2    3    3    0    0  0.57554485594E+02 -0.15268714396E+02  0.45091225309E+03  0.47216077150E+03  0.12676072619E+03 0.  0.
         25    2    3    3    0    0 -0.57554485594E+02  0.15268714396E+02  0.40824836799E+03  0.43088500739E+03  0.12429604651E+03 0.  0.
          5    1    4    4  502    0  0.94417054382E+01  0.31891811876E+02  0.34445261411E+03  0.34608658864E+03  0.47000000000E+01 0.  1.
         -5    1    4    4    0  502  0.48112780156E+02 -0.47160526273E+02  0.10645963897E+03  0.12607418286E+03  0.47000000000E+01 0.  1.
          5    1    5    5  503    0 -0.34241783253E+02  0.68719283588E+02  0.27059180881E+03  0.28131273816E+03  0.47000000000E+01 0. -1.
         -5    1    5    5    0  503 -0.23312702342E+02 -0.53450569192E+02  0.13765655918E+03  0.14957226923E+03  0.47000000000E+01 0. -1.
<mgrwt>
<rscale>  0 0.27809118E+03</rscale>
<asrwt>0</asrwt>
<pdfrwt beam="1">  1        2 0.13555431E+00 0.27809118E+03</pdfrwt>
<pdfrwt beam="2">  1       -2 0.33757821E-02 0.27809118E+03</pdfrwt>
<totfact> 0.11066334E+04</totfact>
</mgrwt>
</event>
<event>
 9    1  0.2074770E-002  0.2775060E+03  0.7818608E-02  0.1097059E+00
         -2   -1    0    0    0  501 -0.00000000000E+00  0.00000000000E+00  0.21722973291E+02  0.21722973291E+02  0.00000000000E+00 0. -1.
          2   -1    0    0  501    0  0.00000000000E+00 -0.00000000000E+00 -0.88626859212E+03  0.88626859212E+03  0.00000000000E+00 0. -1.
         36    2    1    2    0    0  0.00000000000E+00  0.71054273576E-14 -0.86454561883E+03  0.90799156541E+03  0.27750595637E+03 0.  0.
         25    2    3    3    0    0  0.42532426355E+01 -0.32219977674E+02 -0.27842166298E+03  0.30694592878E+03  0.12506383869E+03 0.  0.
         25    2    3    3    0    0 -0.42532426355E+01  0.32219977674E+02 -0.58612395585E+03  0.60104563662E+03  0.12906722531E+03 0.  0.
          5    1    4    4  502    0 -0.16882817205E+02 -0.31680689231E+02 -0.28258122521E+03  0.28489109223E+03  0.47000000000E+01 0.  1.
         -5    1    4    4    0  502  0.21136059841E+02 -0.53928844317E+00  0.41595622358E+01  0.22054836558E+02  0.47000000000E+01 0.  1.
          5    1    5    5  503    0 -0.84564077870E+00  0.72545509157E+01 -0.57143991015E+03  0.57150590945E+03  0.47000000000E+01 0.  1.
         -5    1    5    5    0  503 -0.34076018568E+01  0.24965426759E+02 -0.14684045697E+02  0.29539727177E+02  0.47000000000E+01 0.  1.
<mgrwt>
<rscale>  0 0.27750596E+03</rscale>
<asrwt>0</asrwt>
<pdfrwt beam="1">  1        2 0.13634903E+00 0.27750596E+03</pdfrwt>
<pdfrwt beam="2">  1       -2 0.33419956E-02 0.27750596E+03</pdfrwt>
<totfact> 0.11146304E+04</totfact>
</mgrwt>
</event>
<event>
 9    1  0.2074770E-002  0.2759978E+03  0.7818608E-02  0.1097895E+00
          2   -1    0    0  501    0  0.00000000000E+00  0.00000000000E+00  0.30839830807E+03  0.30839830807E+03  0.00000000000E+00 0.  1.
         -2   -1    0    0    0  501 -0.00000000000E+00 -0.00000000000E+00 -0.61750319594E+02  0.61750319594E+02  0.00000000000E+00 0.  1.
         36    2    1    2    0    0 -0.71054273576E-14  0.71054273576E-14  0.24664798847E+03  0.37014862766E+03  0.27599778322E+03 0.  0.
         25    2    3    3    0    0  0.26957405990E+02 -0.61956265049E+02  0.10977637095E+03  0.17043641361E+03  0.11150084730E+03 0.  0.
         25    2    3    3    0    0 -0.26957405990E+02  0.61956265049E+02  0.13687161752E+03  0.19971221405E+03  0.12878605609E+03 0.  0.
          5    1    4    4  502    0  0.54870196587E+02 -0.73661296494E+02  0.53596846849E+02  0.10644922295E+03  0.47000000000E+01 0.  1.
         -5    1    4    4    0  502 -0.27912790597E+02  0.11705031444E+02  0.56179524105E+02  0.63987190661E+02  0.47000000000E+01 0.  1.
          5    1    5    5  503    0 -0.18951151803E+02  0.41155207357E+01 -0.22405980518E+02  0.30003360288E+02  0.47000000000E+01 0.  1.
         -5    1    5    5    0  503 -0.80062541865E+01  0.57840744314E+02  0.15927759804E+03  0.16970885376E+03  0.47000000000E+01 0.  1.
<mgrwt>
<rscale>  0 0.27599778E+03</rscale>
<asrwt>0</asrwt>
<pdfrwt beam="1">  1        2 0.47445893E-01 0.27599778E+03</pdfrwt>
<pdfrwt beam="2">  1       -2 0.95000493E-02 0.27599778E+03</pdfrwt>
<totfact> 0.75867056E+03</totfact>
</mgrwt>
</event>
<event>
 9    1  0.2074770E-002  0.2728576E+03  0.7818608E-02  0.1099655E+00
          2   -1    0    0  501    0  0.00000000000E+00  0.00000000000E+00  0.14781974557E+04  0.14781974557E+04  0.00000000000E+00 0. -1.
         -2   -1    0    0    0  501 -0.00000000000E+00 -0.00000000000E+00 -0.12591564067E+02  0.12591564067E+02  0.00000000000E+00 0. -1.
         36    2    1    2    0    0  0.00000000000E+00  0.00000000000E+00  0.14656058916E+04  0.14907890197E+04  0.27285760365E+03 0.  0.
         25    2    3    3    0    0  0.30955561695E+02 -0.22711240619E+02  0.53075353676E+03  0.54670056747E+03  0.12533214449E+03 0.  0.
         25    2    3    3    0    0 -0.30955561695E+02  0.22711240619E+02  0.93485235484E+03  0.94408845226E+03  0.12601600332E+03 0.  0.
          5    1    4    4  502    0  0.17064128793E+02 -0.69029506633E+02  0.19830539695E+03  0.21072108992E+03  0.47000000000E+01 0. -1.
         -5    1    4    4    0  502  0.13891432902E+02  0.46318266014E+02  0.33244813980E+03  0.33597947755E+03  0.47000000000E+01 0. -1.
          5    1    5    5  503    0 -0.76176593129E+02  0.16882991261E+02  0.72987183619E+03  0.73404556807E+03  0.47000000000E+01 0.  1.
         -5    1    5    5    0  503  0.45221031434E+02  0.58282493577E+01  0.20498051864E+03  0.21004288419E+03  0.47000000000E+01 0.  1.
<mgrwt>
<rscale>  0 0.27285760E+03</rscale>
<asrwt>0</asrwt>
<pdfrwt beam="1">  1        2 0.22741486E+00 0.27285760E+03</pdfrwt>
<pdfrwt beam="2">  1       -2 0.19371649E-02 0.27285760E+03</pdfrwt>
<totfact> 0.11354959E+04</totfact>
</mgrwt>
</event>
<event>
 9    1  0.2074770E-002  0.2744054E+03  0.7818608E-02  0.1098784E+00
          2   -1    0    0  501    0  0.00000000000E+00  0.00000000000E+00  0.42609168356E+03  0.42609168356E+03  0.00000000000E+00 0. -1.
         -2   -1    0    0    0  501 -0.00000000000E+00 -0.00000000000E+00 -0.44179633911E+02  0.44179633911E+02  0.00000000000E+00 0. -1.
         36    2    1    2    0    0  0.71054273576E-14  0.17763568394E-14  0.38191204965E+03  0.47027131747E+03  0.27440535412E+03 0.  0.
         25    2    3    3    0    0  0.30412553551E+02  0.61952287239E+01  0.10296925782E+03  0.16541203228E+03  0.12567882913E+03 0.  0.
         25    2    3    3    0    0 -0.30412553551E+02 -0.61952287239E+01  0.27894279183E+03  0.30485928520E+03  0.11902436047E+03 0.  0.
          5    1    4    4  502    0  0.71662881409E+02 -0.25626860608E+02  0.70468405105E+02  0.10382769705E+03  0.47000000000E+01 0.  1.
         -5    1    4    4    0  502 -0.41250327858E+02  0.31822089332E+02  0.32500852717E+02  0.61584335226E+02  0.47000000000E+01 0.  1.
          5    1    5    5  503    0 -0.21212979847E+02 -0.54604205291E+01  0.28932708810E+03  0.29019314363E+03  0.47000000000E+01 0.  1.
         -5    1    5    5    0  503 -0.91995737041E+01 -0.73480819484E+00 -0.10384296267E+02  0.14666141564E+02  0.47000000000E+01 0.  1.
<mgrwt>
<rscale>  0 0.27440535E+03</rscale>
<asrwt>0</asrwt>
<pdfrwt beam="1">  1        2 0.65552564E-01 0.27440535E+03</pdfrwt>
<pdfrwt beam="2">  1       -2 0.67968671E-02 0.27440535E+03</pdfrwt>
<totfact> 0.90238335E+03</totfact>
</mgrwt>
</event>
<event>
 9    1  0.2074770E-002  0.2804611E+03  0.7818608E-02  0.1095437E+00
         -1   -1    0    0    0  501 -0.00000000000E+00  0.00000000000E+00  0.34690486523E+02  0.34690486523E+02  0.00000000000E+00 0. -1.
          1   -1    0    0  501    0  0.00000000000E+00 -0.00000000000E+00 -0.56685892536E+03  0.56685892536E+03  0.00000000000E+00 0. -1.
         36    2    1    2    0    0  0.00000000000E+00 -0.71054273576E-14 -0.53216843884E+03  0.60154941188E+03  0.28046113393E+03 0.  0.
         25    2    3    3    0    0  0.17330427051E+02 -0.50904715566E+02 -0.30037115997E+03  0.33220760601E+03  0.13132945588E+03 0.  0.
         25    2    3    3    0    0 -0.17330427051E+02  0.50904715566E+02 -0.23179727887E+03  0.26934180587E+03  0.12618793972E+03 0.  0.
          5    1    4    4  502    0  0.25037127591E+02 -0.12828428587E+02 -0.29043769560E+03  0.29183483577E+03  0.47000000000E+01 0. -1.
         -5    1    4    4    0  502 -0.77067005408E+01 -0.38076286978E+02 -0.99334643662E+01  0.40372770249E+02  0.47000000000E+01 0. -1.
          5    1    5    5  503    0  0.30976794122E+02  0.63479590044E+02 -0.68445620768E+02  0.98468843440E+02  0.47000000000E+01 0. -1.
         -5    1    5    5    0  503 -0.48307221173E+02 -0.12574874478E+02 -0.16335165810E+03  0.17087296243E+03  0.47000000000E+01 0. -1.
<mgrwt>
<rscale>  0 0.28046113E+03</rscale>
<asrwt>0</asrwt>
<pdfrwt beam="1">  1        1 0.87209060E-01 0.28046113E+03</pdfrwt>
<pdfrwt beam="2">  1       -1 0.53369983E-02 0.28046113E+03</pdfrwt>
<totfact> 0.60526716E+03</totfact>
</mgrwt>
</event>
<event>
 9    1  0.2074770E-002  0.2749657E+03  0.7818608E-02  0.1098471E+00
          1   -1    0    0  501    0  0.00000000000E+00  0.00000000000E+00  0.73783476857E+03  0.73783476857E+03  0.00000000000E+00 0.  1.
         -1   -1    0    0    0  501 -0.00000000000E+00 -0.00000000000E+00 -0.25617567187E+02  0.25617567187E+02  0.00000000000E+00 0.  1.
         36    2    1    2    0    0  0.00000000000E+00 -0.71054273576E-14  0.71221720139E+03  0.76345233576E+03  0.27496568336E+03 0.  0.
         25    2    3    3    0    0  0.47805685331E+02  0.42900298188E+02  0.33165007437E+03  0.35736843191E+03  0.11659590540E+03 0.  0.
         25    2    3    3    0    0 -0.47805685331E+02 -0.42900298188E+02  0.38056712701E+03  0.40608390386E+03  0.12628135125E+03 0.  0.
          5    1    4    4  502    0  0.31787334012E+02  0.73585108993E+02  0.13062058686E+03  0.15332654885E+03  0.47000000000E+01 0.  1.
         -5    1    4    4    0  502  0.16018351319E+02 -0.30684810805E+02  0.20102948751E+03  0.20404188306E+03  0.47000000000E+01 0.  1.
          5    1    5    5  503    0 -0.54245200330E+02  0.33891785104E+02  0.15879815179E+03  0.17126043871E+03  0.47000000000E+01 0.  1.
         -5    1    5    5    0  503  0.64395149989E+01 -0.76792083292E+02  0.22176897522E+03  0.23482346514E+03  0.47000000000E+01 0.  1.
<mgrwt>
<rscale>  0 0.27496568E+03</rscale>
<asrwt>0</asrwt>
<pdfrwt beam="1">  1        1 0.11351303E+00 0.27496568E+03</pdfrwt>
<pdfrwt beam="2">  1       -1 0.39411647E-02 0.27496568E+03</pdfrwt>
<totfact> 0.65384391E+03</totfact>
</mgrwt>
</event>
<event>
 9    1  0.2074770E-002  0.2772352E+03  0.7818608E-02  0.1097209E+00
         -1   -1    0    0    0  501 -0.00000000000E+00  0.00000000000E+00  0.14567546311E+03  0.14567546311E+03  0.00000000000E+00 0.  1.
          1   -1    0    0  501    0  0.00000000000E+00 -0.00000000000E+00 -0.13190170176E+03  0.13190170176E+03  0.00000000000E+00 0.  1.
         36    2    1    2    0    0 -0.14210854715E-13 -0.71054273576E-14  0.13773761354E+02  0.27757716487E+03  0.27723521774E+03 0.  0.
         25    2    3    3    0    0 -0.38294643359E+02 -0.16507682270E+02  0.50807195734E+02  0.14240418265E+03  0.12632733993E+03 0.  0.
         25    2    3    3    0    0  0.38294643359E+02  0.16507682270E+02 -0.37033434380E+02  0.13517298222E+03  0.12313113569E+03 0.  0.
          5    1    4    4  502    0 -0.53261439275E+02 -0.63491717466E+02  0.25850418031E+02  0.86938559989E+02  0.47000000000E+01 0. -1.
         -5    1    4    4    0  502  0.14966795917E+02  0.46984035197E+02  0.24956777703E+02  0.55465622657E+02  0.47000000000E+01 0. -1.
          5    1    5    5  503    0  0.39845879141E+02  0.13378444336E+02  0.39824287412E+02  0.58092518669E+02  0.47000000000E+01 0. -1.
         -5    1    5    5    0  503 -0.15512357826E+01  0.31292379341E+01 -0.76857721792E+02  0.77080463553E+02  0.47000000000E+01 0. -1.
<mgrwt>
<rscale>  0 0.27723522E+03</rscale>
<asrwt>0</asrwt>
<pdfrwt beam="1">  1        1 0.20292570E-01 0.27723522E+03</pdfrwt>
<pdfrwt beam="2">  1       -1 0.22411610E-01 0.27723522E+03</pdfrwt>
<totfact> 0.41634523E+03</totfact>
</mgrwt>
</event>
<event>
 9    1  0.2074770E-002  0.2754826E+03  0.7818608E-02  0.1098182E+00
         -2   -1    0    0    0  501 -0.00000000000E+00  0.00000000000E+00  0.96719863776E+02  0.96719863776E+02  0.00000000000E+00 0.  1.
          2   -1    0    0  501    0  0.00000000000E+00 -0.00000000000E+00 -0.19616098990E+03  0.19616098990E+03  0.00000000000E+00 0.  1.
         36    2    1    2    0    0  0.71054273576E-14  0.00000000000E+00 -0.99441126122E+02  0.29288085367E+03  0.27548258908E+03 0.  0.
         25    2    3    3    0    0  0.25300716640E+02 -0.35583210734E+02 -0.62806067872E+02  0.14486427150E+03  0.12302342805E+03 0.  0.
         25    2    3    3    0    0 -0.25300716640E+02  0.35583210734E+02 -0.36635058250E+02  0.14801658217E+03  0.13660340389E+03 0.  0.
          5    1    4    4  502    0  0.74693642962E+02 -0.29908193625E+02 -0.39439112910E+02  0.89728334276E+02  0.47000000000E+01 0. -1.
         -5    1    4    4    0  502 -0.49392926322E+02 -0.56750171086E+01 -0.23366954962E+02  0.55135937228E+02  0.47000000000E+01 0. -1.
          5    1    5    5  503    0  0.39006523521E+02  0.46435268744E+02  0.17319663686E+02  0.63244002172E+02  0.47000000000E+01 0.  1.
         -5    1    5    5    0  503 -0.64307240161E+02 -0.10852058011E+02 -0.53954721936E+02  0.84772579997E+02  0.47000000000E+01 0.  1.
<mgrwt>
<rscale>  0 0.27548259E+03</rscale>
<asrwt>0</asrwt>
<pdfrwt beam="1">  1        2 0.30178614E-01 0.27548259E+03</pdfrwt>
<pdfrwt beam="2">  1       -2 0.14879979E-01 0.27548259E+03</pdfrwt>
<totfact> 0.59996205E+03</totfact>
</mgrwt>
</event>
<event>
 9    1  0.2074770E-002  0.2729661E+03  0.7818608E-02  0.1099594E+00
          2   -1    0    0  501    0  0.00000000000E+00  0.00000000000E+00  0.19856223855E+04  0.19856223855E+04  0.00000000000E+00 0.  1.
         -2   -1    0    0    0  501 -0.00000000000E+00 -0.00000000000E+00 -0.93812500062E+01  0.93812500062E+01  0.00000000000E+00 0.  1.
         36    2    1    2    0    0  0.71054273576E-14  0.00000000000E+00  0.19762411355E+04  0.19950036355E+04  0.27296607860E+03 0.  0.
         25    2    3    3    0    0  0.36384192467E+02 -0.23744693943E+02  0.94377862068E+03  0.95406950975E+03  0.13282667142E+03 0.  0.
         25    2    3    3    0    0 -0.36384192467E+02  0.23744693943E+02  0.10324625148E+04  0.10409341258E+04  0.12520938345E+03 0.  0.
          5    1    4    4  502    0  0.71023459274E+02  0.17508953323E+02  0.33664712305E+03  0.34453486133E+03  0.47000000000E+01 0.  1.
         -5    1    4    4    0  502 -0.34639266807E+02 -0.41253647266E+02  0.60713149763E+03  0.60953464843E+03  0.47000000000E+01 0.  1.
          5    1    5    5  503    0  0.31356291064E+02 -0.31354680335E+02  0.39247281918E+03  0.39499789463E+03  0.47000000000E+01 0.  1.
         -5    1    5    5    0  503 -0.67740483531E+02  0.55099374278E+02  0.63998969566E+03  0.64593623115E+03  0.47000000000E+01 0.  1.
<mgrwt>
<rscale>  0 0.27296608E+03</rscale>
<asrwt>0</asrwt>
<pdfrwt beam="1">  1        2 0.30548003E+00 0.27296608E+03</pdfrwt>
<pdfrwt beam="2">  1       -2 0.14432708E-02 0.27296608E+03</pdfrwt>
<totfact> 0.94362839E+03</totfact>
</mgrwt>
</event>
<event>
 9    1  0.2074770E-002  0.2749196E+03  0.7818608E-02  0.1098497E+00
         -1   -1    0    0    0  501 -0.00000000000E+00  0.00000000000E+00  0.69864277398E+01  0.69864277398E+01  0.00000000000E+00 0.  1.
          1   -1    0    0  501    0  0.00000000000E+00 -0.00000000000E+00 -0.27045573184E+04  0.27045573184E+04  0.00000000000E+00 0.  1.
         36    2    1    2    0    0  0.00000000000E+00 -0.71054273576E-14 -0.26975708906E+04  0.27115437461E+04  0.27491958295E+03 0.  0.
         25    2    3    3    0    0 -0.44000855135E+02 -0.12803251569E+02 -0.12361353127E+04  0.12437629325E+04  0.12967544987E+03 0.  0.
         25    2    3    3    0    0  0.44000855135E+02  0.12803251569E+02 -0.14614355779E+04  0.14677808136E+04  0.12840003910E+03 0.  0.
          5    1    4    4  502    0  0.21163505505E+02 -0.40306236247E+02 -0.19843902930E+03  0.20364828748E+03  0.47000000000E+01 0. -1.
         -5    1    4    4    0  502 -0.65164360640E+02  0.27502984678E+02 -0.10376962834E+04  0.10401146450E+04  0.47000000000E+01 0. -1.
          5    1    5    5  503    0  0.64151002535E+02  0.46640631661E+02 -0.12585097953E+04  0.12610153427E+04  0.47000000000E+01 0. -1.
         -5    1    5    5    0  503 -0.20150147401E+02 -0.33837380093E+02 -0.20292578258E+03  0.20676547092E+03  0.47000000000E+01 0. -1.
<mgrwt>
<rscale>  0 0.27491958E+03</rscale>
<asrwt>0</asrwt>
<pdfrwt beam="1">  1        1 0.41608664E+00 0.27491958E+03</pdfrwt>
<pdfrwt beam="2">  1       -1 0.10748327E-02 0.27491958E+03</pdfrwt>
<totfact> 0.19584891E+03</totfact>
</mgrwt>
</event>
<event>
 9    1  0.2074770E-002  0.2744027E+03  0.7818608E-02  0.1098786E+00
          2   -1    0    0  501    0  0.00000000000E+00  0.00000000000E+00  0.24859575950E+03  0.24859575950E+03  0.00000000000E+00 0.  1.
         -2   -1    0    0    0  501 -0.00000000000E+00 -0.00000000000E+00 -0.75722170836E+02  0.75722170836E+02  0.00000000000E+00 0.  1.
         36    2    1    2    0    0  0.71054273576E-14 -0.71054273576E-14  0.17287358866E+03  0.32431793034E+03  0.27440270094E+03 0.  0.
         25    2    3    3    0    0 -0.27419354226E+02  0.47568058897E+02  0.11090733832E+03  0.17595307271E+03  0.12507799523E+03 0.  0.
         25    2    3    3    0    0  0.27419354226E+02 -0.47568058897E+02  0.61966250349E+02  0.14836485763E+03  0.12311691022E+03 0.  0.
          5    1    4    4  502    0  0.45699597098E+02  0.88144434739E+00  0.19714764606E+02  0.49999920625E+02  0.47000000000E+01 0. -1.
         -5    1    4    4    0  502 -0.73118951323E+02  0.46686614550E+02  0.91192573711E+02  0.12595315209E+03  0.47000000000E+01 0. -1.
          5    1    5    5  503    0 -0.17377675188E+02 -0.40256527910E+02 -0.24608649670E+02  0.50499972999E+02  0.47000000000E+01 0.  1.
         -5    1    5    5    0  503  0.44797029414E+02 -0.73115309870E+01  0.86574900019E+02  0.97864884627E+02  0.47000000000E+01 0.  1.
<mgrwt>
<rscale>  0 0.27440270E+03</rscale>
<asrwt>0</asrwt>
<pdfrwt beam="1">  1        2 0.38245501E-01 0.27440270E+03</pdfrwt>
<pdfrwt beam="2">  1       -2 0.11649565E-01 0.27440270E+03</pdfrwt>
<totfact> 0.69080151E+03</totfact>
</mgrwt>
</event>
<event>
 9    1  0.2074770E-002  0.2773316E+03  0.7818608E-02  0.1097155E+00
          2   -1    0    0  501    0  0.00000000000E+00  0.00000000000E+00  0.20756259011E+03  0.20756259011E+03  0.00000000000E+00 0. -1.
         -2   -1    0    0    0  501 -0.00000000000E+00 -0.00000000000E+00 -0.92638114785E+02  0.92638114785E+02  0.00000000000E+00 0. -1.
         36    2    1    2    0    0 -0.17763568394E-14  0.00000000000E+00  0.11492447532E+03  0.30020070489E+03  0.27733162133E+03 0.  0.
         25    2    3    3    0    0 -0.10964209923E+02 -0.16193297998E+02 -0.10071793758E+01  0.12725939417E+03  0.12574379585E+03 0.  0.
         25    2    3    3    0    0  0.10964209923E+02  0.16193297998E+02  0.11593165470E+03  0.17294131072E+03  0.12683103560E+03 0.  0.
          5    1    4    4  502    0 -0.26420140739E+02  0.45710170942E+02  0.24489890935E+02  0.58389111333E+02  0.47000000000E+01 0.  1.
         -5    1    4    4    0  502  0.15455930816E+02 -0.61903468940E+02 -0.25497070311E+02  0.68870282841E+02  0.47000000000E+01 0.  1.
          5    1    5    5  503    0 -0.54221498916E+02  0.17268457431E+02  0.80197169392E+02  0.98447176421E+02  0.47000000000E+01 0.  1.
         -5    1    5    5    0  503  0.65185708839E+02 -0.10751594331E+01  0.35734485308E+02  0.74494134298E+02  0.47000000000E+01 0.  1.
<mgrwt>
<rscale>  0 0.27733162E+03</rscale>
<asrwt>0</asrwt>
<pdfrwt beam="1">  1        2 0.31932706E-01 0.27733162E+03</pdfrwt>
<pdfrwt beam="2">  1       -2 0.14252018E-01 0.27733162E+03</pdfrwt>
<totfact> 0.60563474E+03</totfact>
</mgrwt>
</event>
<event>
 9    1  0.2074770E-002  0.2743678E+03  0.7818608E-02  0.1098805E+00
         -2   -1    0    0    0  501 -0.00000000000E+00  0.00000000000E+00  0.92203412838E+02  0.92203412838E+02  0.00000000000E+00 0. -1.
          2   -1    0    0  501    0  0.00000000000E+00 -0.00000000000E+00 -0.20410768844E+03  0.20410768844E+03  0.00000000000E+00 0. -1.
         36    2    1    2    0    0 -0.21316282073E-13 -0.35527136788E-14 -0.11190427560E+03  0.29631110128E+03  0.27436782217E+03 0.  0.
         25    2    3    3    0    0 -0.59497818696E+02  0.27108769703E+02 -0.62561669024E+02  0.14741266851E+03  0.11636862370E+03 0.  0.
         25    2    3    3    0    0  0.59497818696E+02 -0.27108769703E+02 -0.49342606578E+02  0.14889843277E+03  0.12434297179E+03 0.  0.
          5    1    4    4  502    0  0.27433986197E+02 -0.16597388474E+02 -0.14961000120E+01  0.32441103836E+02  0.47000000000E+01 0.  1.
         -5    1    4    4    0  502 -0.86931804894E+02  0.43706158177E+02 -0.61065569012E+02  0.11497156467E+03  0.47000000000E+01 0.  1.
          5    1    5    5  503    0  0.98230933612E+02 -0.20841307655E+02 -0.40656781990E+02  0.10843772565E+03  0.47000000000E+01 0.  1.
         -5    1    5    5    0  503 -0.38733114915E+02 -0.62674620482E+01 -0.86858245874E+01  0.40460707116E+02  0.47000000000E+01 0.  1.
<mgrwt>
<rscale>  0 0.27436782E+03</rscale>
<asrwt>0</asrwt>
<pdfrwt beam="1">  1        2 0.31401183E-01 0.27436782E+03</pdfrwt>
<pdfrwt beam="2">  1       -2 0.14185140E-01 0.27436782E+03</pdfrwt>
<totfact> 0.62139045E+03</totfact>
</mgrwt>
</event>
<event>
 9    1  0.2074770E-002  0.2761005E+03  0.7818608E-02  0.1097838E+00
         -2   -1    0    0    0  501 -0.00000000000E+00  0.00000000000E+00  0.35668394651E+02  0.35668394651E+02  0.00000000000E+00 0.  1.
          2   -1    0    0  501    0  0.00000000000E+00 -0.00000000000E+00 -0.53430684210E+03  0.53430684210E+03  0.00000000000E+00 0.  1.
         36    2    1    2    0    0  0.71054273576E-14 -0.71054273576E-14 -0.49863844745E+03  0.56997523675E+03  0.27610046946E+03 0.  0.
         25    2    3    3    0    0 -0.20114442496E+02 -0.39665944664E+02 -0.17184465161E+03  0.21749931080E+03  0.12568766028E+03 0.  0.
         25    2    3    3    0    0  0.20114442496E+02  0.39665944664E+02 -0.32679379583E+03  0.35247592595E+03  0.12436685819E+03 0.  0.
          5    1    4    4  502    0  0.26124328601E+02 -0.45898627070E+02 -0.16080994682E+03  0.16932540715E+03  0.47000000000E+01 0.  1.
         -5    1    4    4    0  502 -0.46238771097E+02  0.62326824054E+01 -0.11034704795E+02  0.48173903645E+02  0.47000000000E+01 0.  1.
          5    1    5    5  503    0  0.51486576937E+02  0.11782959226E+02 -0.29469553304E+03  0.29942820997E+03  0.47000000000E+01 0.  1.
         -5    1    5    5    0  503 -0.31372134441E+02  0.27882985438E+02 -0.32098262795E+02  0.53047715980E+02  0.47000000000E+01 0.  1.
<mgrwt>
<rscale>  0 0.27610047E+03</rscale>
<asrwt>0</asrwt>
<pdfrwt beam="1">  1        2 0.82201050E-01 0.27610047E+03</pdfrwt>
<pdfrwt beam="2">  1       -2 0.54874455E-02 0.27610047E+03</pdfrwt>
<totfact> 0.97503019E+03</totfact>
</mgrwt>
</event>
<event>
 9    1  0.2074770E-002  0.2754524E+03  0.7818608E-02  0.1098199E+00
          1   -1    0    0  501    0  0.00000000000E+00  0.00000000000E+00  0.10252635018E+04  0.10252635018E+04  0.00000000000E+00 0.  1.
         -1   -1    0    0    0  501 -0.00000000000E+00 -0.00000000000E+00 -0.18501106344E+02  0.18501106344E+02  0.00000000000E+00 0.  1.
         36    2    1    2    0    0  0.00000000000E+00  0.14210854715E-13  0.10067623954E+04  0.10437646081E+04  0.27545242113E+03 0.  0.
         25    2    3    3    0    0 -0.48613713915E+01 -0.37694145064E+02  0.48534289923E+03  0.50234090968E+03  0.12387161986E+03 0.  0.
         25    2    3    3    0    0  0.48613713915E+01  0.37694145064E+02  0.52141949620E+03  0.54142369843E+03  0.14077232932E+03 0.  0.
          5    1    4    4  502    0  0.32424833868E+02  0.34706384755E+02  0.19504590897E+03  0.20080064641E+03  0.47000000000E+01 0.  1.
         -5    1    4    4    0  502 -0.37286205260E+02 -0.72400529819E+02  0.29029699026E+03  0.30154026327E+03  0.47000000000E+01 0.  1.
          5    1    5    5  503    0 -0.51066439499E+02 -0.26642594902E+02  0.26268686256E+03  0.26896856112E+03  0.47000000000E+01 0.  1.
         -5    1    5    5    0  503  0.55927810890E+02  0.64336739966E+02  0.25873263364E+03  0.27245513732E+03  0.47000000000E+01 0.  1.
<mgrwt>
<rscale>  0 0.27545242E+03</rscale>
<asrwt>0</asrwt>
<pdfrwt beam="1">  1        1 0.15773280E+00 0.27545242E+03</pdfrwt>
<pdfrwt beam="2">  1       -1 0.28463249E-02 0.27545242E+03</pdfrwt>
<totfact> 0.62387701E+03</totfact>
</mgrwt>
</event>
<event>
 9    1  0.2074770E-002  0.2743925E+03  0.7818608E-02  0.1098792E+00
         -1   -1    0    0    0  501 -0.00000000000E+00  0.00000000000E+00  0.71639679164E+02  0.71639679164E+02  0.00000000000E+00 0.  1.
          1   -1    0    0  501    0  0.00000000000E+00 -0.00000000000E+00 -0.26274282415E+03  0.26274282415E+03  0.00000000000E+00 0.  1.
         36    2    1    2    0    0  0.00000000000E+00  0.35527136788E-14 -0.19110314499E+03  0.33438250331E+03  0.27439250445E+03 0.  0.
         25    2    3    3    0    0  0.25751526645E+02 -0.29678926790E+02 -0.14175594860E+03  0.19338146459E+03  0.12552952667E+03 0.  0.
         25    2    3    3    0    0 -0.25751526645E+02  0.29678926790E+02 -0.49347196391E+02  0.14100103872E+03  0.12610379577E+03 0.  0.
          5    1    4    4  502    0  0.55330273894E+02 -0.18502824411E+02 -0.14944873319E+03  0.16050173698E+03  0.47000000000E+01 0.  1.
         -5    1    4    4    0  502 -0.29578747249E+02 -0.11176102379E+02  0.76927845974E+01  0.32879727616E+02  0.47000000000E+01 0.  1.
          5    1    5    5  503    0  0.81545646942E+01  0.55702866860E+02 -0.72700324039E+02  0.92069177345E+02  0.47000000000E+01 0.  1.
         -5    1    5    5    0  503 -0.33906091339E+02 -0.26023940070E+02  0.23353127648E+02  0.48931861374E+02  0.47000000000E+01 0.  1.
<mgrwt>
<rscale>  0 0.27439250E+03</rscale>
<asrwt>0</asrwt>
<pdfrwt beam="1">  1        1 0.40421973E-01 0.27439250E+03</pdfrwt>
<pdfrwt beam="2">  1       -1 0.11021489E-01 0.27439250E+03</pdfrwt>
<totfact> 0.53914365E+03</totfact>
</mgrwt>
</event>
<event>
 9    1  0.2074770E-002  0.2757841E+03  0.7818608E-02  0.1098014E+00
          2   -1    0    0  501    0  0.00000000000E+00  0.00000000000E+00  0.19263577190E+03  0.19263577190E+03  0.00000000000E+00 0.  1.
         -2   -1    0    0    0  501 -0.00000000000E+00 -0.00000000000E+00 -0.98705572660E+02  0.98705572660E+02  0.00000000000E+00 0.  1.
         36    2    1    2    0    0  0.00000000000E+00  0.00000000000E+00  0.93930199243E+02  0.29134134456E+03  0.27578414879E+03 0.  0.
         25    2    3    3    0    0  0.16834257513E+02 -0.45656932412E+02  0.67385551225E+01  0.13250963493E+03  0.12306684168E+03 0.  0.
         25    2    3    3    0    0 -0.16834257513E+02  0.45656932412E+02  0.87191644121E+02  0.15883170963E+03  0.12351996388E+03 0.  0.
          5    1    4    4  502    0 -0.22803325353E+02 -0.75101217977E+02 -0.11900171293E+02  0.79522881396E+02  0.47000000000E+01 0. -1.
         -5    1    4    4    0  502  0.39637582865E+02  0.29444285565E+02  0.18638726415E+02  0.52986753535E+02  0.47000000000E+01 0. -1.
          5    1    5    5  503    0  0.19259980317E+02 -0.35244286902E+02  0.11040393194E+02  0.41917620196E+02  0.47000000000E+01 0.  1.
         -5    1    5    5    0  503 -0.36094237830E+02  0.80901219313E+02  0.76151250927E+02  0.11691408944E+03  0.47000000000E+01 0.  1.
<mgrwt>
<rscale>  0 0.27578415E+03</rscale>
<asrwt>0</asrwt>
<pdfrwt beam="1">  1        2 0.29636272E-01 0.27578415E+03</pdfrwt>
<pdfrwt beam="2">  1       -2 0.15185473E-01 0.27578415E+03</pdfrwt>
<totfact> 0.59183667E+03</totfact>
</mgrwt>
</event>
<event>
 9    1  0.2074770E-002  0.2750780E+03  0.7818608E-02  0.1098408E+00
          2   -1    0    0  501    0  0.00000000000E+00  0.00000000000E+00  0.14956520978E+03  0.14956520978E+03  0.00000000000E+00 0.  1.
         -2   -1    0    0    0  501 -0.00000000000E+00 -0.00000000000E+00 -0.12647977012E+03  0.12647977012E+03  0.00000000000E+00 0.  1.
         36    2    1    2    0    0 -0.71054273576E-14  0.35527136788E-14  0.23085439666E+02  0.27604497990E+03  0.27507797695E+03 0.  0.
         25    2    3    3    0    0  0.43913382421E+02 -0.31436979241E+02 -0.16086424267E+02  0.13748613742E+03  0.12540732083E+03 0.  0.
         25    2    3    3    0    0 -0.43913382421E+02  0.31436979241E+02  0.39171863933E+02  0.13855884248E+03  0.12143907561E+03 0.  0.
          5    1    4    4  502    0  0.86833692280E+02 -0.32374240315E+02 -0.51420561909E+01  0.92933913578E+02  0.47000000000E+01 0.  1.
         -5    1    4    4    0  502 -0.42920309859E+02  0.93726107386E+00 -0.10944368076E+02  0.44552223842E+02  0.47000000000E+01 0.  1.
          5    1    5    5  503    0 -0.82327668976E+02  0.20817914553E+01  0.13394525875E+02  0.83568428596E+02  0.47000000000E+01 0.  1.
         -5    1    5    5    0  503  0.38414286554E+02  0.29355187786E+02  0.25777338058E+02  0.54990413881E+02  0.47000000000E+01 0.  1.
<mgrwt>
<rscale>  0 0.27507798E+03</rscale>
<asrwt>0</asrwt>
<pdfrwt beam="1">  1        2 0.23010032E-01 0.27507798E+03</pdfrwt>
<pdfrwt beam="2">  1       -2 0.19458426E-01 0.27507798E+03</pdfrwt>
<totfact> 0.51726831E+03</totfact>
</mgrwt>
</event>
<event>
 9    1  0.2074770E-002  0.2770101E+03  0.7818608E-02  0.1097333E+00
         -2   -1    0    0    0  501 -0.00000000000E+00  0.00000000000E+00  0.12601376979E+02  0.12601376979E+02  0.00000000000E+00 0. -1.
          2   -1    0    0  501    0  0.00000000000E+00 -0.00000000000E+00 -0.15223453030E+04  0.15223453030E+04  0.00000000000E+00 0. -1.
         36    2    1    2    0    0  0.31086244690E-14 -0.71054273576E-14 -0.15097439261E+04  0.15349466800E+04  0.27701008686E+03 0.  0.
         25    2    3    3    0    0 -0.13905643534E+01 -0.35269184517E+02 -0.10030113192E+04  0.10112121848E+04  0.12358206589E+03 0.  0.
         25    2    3    3    0    0  0.13905643534E+01  0.35269184517E+02 -0.50673260681E+03  0.52373449526E+03  0.12756973652E+03 0.  0.
          5    1    4    4  502    0  0.52624844989E+02 -0.49341655985E+02 -0.53581831744E+03  0.54067303671E+03  0.47000000000E+01 0.  1.
         -5    1    4    4    0  502 -0.54015409343E+02  0.14072471469E+02 -0.46719300181E+03  0.47053914804E+03  0.47000000000E+01 0.  1.
          5    1    5    5  503    0 -0.15527902231E+01  0.18046090198E+02 -0.21592210722E+01  0.18836792841E+02  0.47000000000E+01 0. -1.
         -5    1    5    5    0  503  0.29433545765E+01  0.17223094318E+02 -0.50457338573E+03  0.50489770242E+03  0.47000000000E+01 0. -1.
<mgrwt>
<rscale>  0 0.27701009E+03</rscale>
<asrwt>0</asrwt>
<pdfrwt beam="1">  1        2 0.23420695E+00 0.27701009E+03</pdfrwt>
<pdfrwt beam="2">  1       -2 0.19386736E-02 0.27701009E+03</pdfrwt>
<totfact> 0.10744698E+04</totfact>
</mgrwt>
</event>
<event>
 9    1  0.2074770E-002  0.2730111E+03  0.7818608E-02  0.1099569E+00
          2   -1    0    0  501    0  0.00000000000E+00  0.00000000000E+00  0.11628274081E+04  0.11628274081E+04  0.00000000000E+00 0.  1.
         -2   -1    0    0    0  501 -0.00000000000E+00 -0.00000000000E+00 -0.16024533886E+02  0.16024533886E+02  0.00000000000E+00 0.  1.
         36    2    1    2    0    0  0.00000000000E+00  0.00000000000E+00  0.11468028742E+04  0.11788519420E+04  0.27301111482E+03 0.  0.
         25    2    3    3    0    0 -0.14120002621E+02  0.23850740302E+02  0.35142030754E+03  0.37363436347E+03  0.12384737674E+03 0.  0.
         25    2    3    3    0    0  0.14120002621E+02 -0.23850740302E+02  0.79538256668E+03  0.80521757852E+03  0.12236702618E+03 0.  0.
          5    1    4    4  502    0  0.92665347063E+01 -0.45249051802E+02  0.79539920394E+02  0.92097960296E+02  0.47000000000E+01 0.  1.
         -5    1    4    4    0  502 -0.23386537328E+02  0.69099792104E+02  0.27188038714E+03  0.28153640317E+03  0.47000000000E+01 0.  1.
          5    1    5    5  503    0  0.48424307313E+02  0.29336168695E+02  0.26303655189E+03  0.26910191743E+03  0.47000000000E+01 0. -1.
         -5    1    5    5    0  503 -0.34304304692E+02 -0.53186908997E+02  0.53234601479E+03  0.53611566110E+03  0.47000000000E+01 0. -1.
<mgrwt>
<rscale>  0 0.27301111E+03</rscale>
<asrwt>0</asrwt>
<pdfrwt beam="1">  1        2 0.17889646E+00 0.27301111E+03</pdfrwt>
<pdfrwt beam="2">  1       -2 0.24653138E-02 0.27301111E+03</pdfrwt>
<totfact> 0.11887901E+04</totfact>
</mgrwt>
</event>
<event>
 9    1  0.2074770E-002  0.2747178E+03  0.7818608E-02  0.1098609E+00
          1   -1    0    0  501    0  0.00000000000E+00  0.00000000000E+00  0.43642366581E+03  0.43642366581E+03  0.00000000000E+00 0. -1.
         -1   -1    0    0    0  501 -0.00000000000E+00 -0.00000000000E+00 -0.43231996183E+02  0.43231996183E+02  0.00000000000E+00 0. -1.
         36    2    1    2    0    0  0.71054273576E-14  0.00000000000E+00  0.39319166963E+03  0.47965566199E+03  0.27471779159E+03 0.  0.
         25    2    3    3    0    0 -0.10563700153E+00 -0.13629973486E+02  0.12065482284E+03  0.18029389207E+03  0.13327608153E+03 0.  0.
         25    2    3    3    0    0  0.10563700153E+00  0.13629973486E+02  0.27253684679E+03  0.29936176992E+03  0.12310706355E+03 0.  0.
          5    1    4    4  502    0  0.35286388021E+02 -0.56779834507E+02  0.10045418519E+03  0.12075683048E+03  0.47000000000E+01 0.  1.
         -5    1    4    4    0  502 -0.35392025023E+02  0.43149861022E+02  0.20200637652E+02  0.59537061592E+02  0.47000000000E+01 0.  1.
          5    1    5    5  503    0  0.39026409557E+02 -0.40814385666E+02  0.13091047489E+03  0.14264822872E+03  0.47000000000E+01 0.  1.
         -5    1    5    5    0  503 -0.38920772555E+02  0.54444359151E+02  0.14162637189E+03  0.15671354120E+03  0.47000000000E+01 0.  1.
<mgrwt>
<rscale>  0 0.27471779E+03</rscale>
<asrwt>0</asrwt>
<pdfrwt beam="1">  1        1 0.67142099E-01 0.27471779E+03</pdfrwt>
<pdfrwt beam="2">  1       -1 0.66510767E-02 0.27471779E+03</pdfrwt>
<totfact> 0.61442837E+03</totfact>
</mgrwt>
</event>
<event>
 9    1  0.2074770E-002  0.2748892E+03  0.7818608E-02  0.1098514E+00
          2   -1    0    0  501    0  0.00000000000E+00  0.00000000000E+00  0.66354219812E+03  0.66354219812E+03  0.00000000000E+00 0. -1.
         -2   -1    0    0    0  501 -0.00000000000E+00 -0.00000000000E+00 -0.28469951697E+02  0.28469951697E+02  0.00000000000E+00 0. -1.
         36    2    1    2    0    0  0.00000000000E+00  0.71054273576E-14  0.63507224642E+03  0.69201214982E+03  0.27488917279E+03 0.  0.
         25    2    3    3    0    0 -0.19529889252E+02 -0.41261438023E+02  0.38770656746E+03  0.41083216884E+03  0.12799517827E+03 0.  0.
         25    2    3    3    0    0  0.19529889252E+02  0.41261438023E+02  0.24736567897E+03  0.28117998098E+03  0.12565221737E+03 0.  0.
          5    1    4    4  502    0  0.12669828464E+02 -0.13488724877E+02  0.35855491249E+03  0.35906292697E+03  0.47000000000E+01 0.  1.
         -5    1    4    4    0  502 -0.32199717717E+02 -0.27772713146E+02  0.29151654966E+02  0.51769241870E+02  0.47000000000E+01 0.  1.
          5    1    5    5  503    0  0.65820561573E+02  0.29450208220E+02  0.83494449941E+02  0.11042225437E+03  0.47000000000E+01 0.  1.
         -5    1    5    5    0  503 -0.46290672320E+02  0.11811229803E+02  0.16387122903E+03  0.17075772661E+03  0.47000000000E+01 0.  1.
<mgrwt>
<rscale>  0 0.27488917E+03</rscale>
<asrwt>0</asrwt>
<pdfrwt beam="1">  1        2 0.10208340E+00 0.27488917E+03</pdfrwt>
<pdfrwt beam="2">  1       -2 0.43799931E-02 0.27488917E+03</pdfrwt>
<totfact> 0.10675899E+04</totfact>
</mgrwt>
</event>
<event>
 9    1  0.2074770E-002  0.2755431E+03  0.7818608E-02  0.1098148E+00
          2   -1    0    0  501    0  0.00000000000E+00  0.00000000000E+00  0.21594794550E+04  0.21594794550E+04  0.00000000000E+00 0.  1.
         -2   -1    0    0    0  501 -0.00000000000E+00 -0.00000000000E+00 -0.87896210648E+01  0.87896210648E+01  0.00000000000E+00 0.  1.
         36    2    1    2    0    0  0.00000000000E+00  0.71054273576E-14  0.21506898339E+04  0.21682690760E+04  0.27554314440E+03 0.  0.
         25    2    3    3    0    0  0.17628166643E+02 -0.41964617372E+02  0.76348488633E+03  0.77475056311E+03  0.12352118046E+03 0.  0.
         25    2    3    3    0    0 -0.17628166643E+02  0.41964617372E+02  0.13872049476E+04  0.13935185129E+04  0.12443672248E+03 0.  0.
          5    1    4    4  502    0 -0.11373737534E+02  0.40071607995E+02  0.32490111846E+03  0.32759414288E+03  0.47000000000E+01 0.  1.
         -5    1    4    4    0  502  0.29001904177E+02 -0.82036225368E+02  0.43858376787E+03  0.44715642023E+03  0.47000000000E+01 0.  1.
          5    1    5    5  503    0  0.18158158100E+02  0.37473511476E+02  0.12723963564E+04  0.12730862345E+04  0.47000000000E+01 0. -1.
         -5    1    5    5    0  503 -0.35786324743E+02  0.44911058958E+01  0.11480859119E+03  0.12043227841E+03  0.47000000000E+01 0. -1.
<mgrwt>
<rscale>  0 0.27554314E+03</rscale>
<asrwt>0</asrwt>
<pdfrwt beam="1">  1        2 0.33222719E+00 0.27554314E+03</pdfrwt>
<pdfrwt beam="2">  1       -2 0.13522511E-02 0.27554314E+03</pdfrwt>
<totfact> 0.84021903E+03</totfact>
</mgrwt>
</event>
<event>
 9    1  0.2074770E-002  0.2752763E+03  0.7818608E-02  0.1098297E+00
         -2   -1    0    0    0  501 -0.00000000000E+00  0.00000000000E+00  0.69008211644E+02  0.69008211644E+02  0.00000000000E+00 0.  1.
          2   -1    0    0  501    0  0.00000000000E+00 -0.00000000000E+00 -0.27452175876E+03  0.27452175876E+03  0.00000000000E+00 0.  1.
         36    2    1    2    0    0  0.35527136788E-14  0.00000000000E+00 -0.20551354711E+03  0.34352997040E+03  0.27527626581E+03 0.  0.
         25    2    3    3    0    0 -0.23544095128E+02  0.52594157664E+02 -0.83936660928E+02  0.15995433519E+03  0.12336756649E+03 0.  0.
         25    2    3    3    0    0  0.23544095128E+02 -0.52594157664E+02 -0.12157688619E+03  0.18357563521E+03  0.12489437438E+03 0.  0.
          5    1    4    4  502    0 -0.24127923085E+02  0.25526059623E+02  0.27703989198E+02  0.44981522982E+02  0.47000000000E+01 0. -1.
         -5    1    4    4    0  502  0.58382795759E+00  0.27068098041E+02 -0.11164065013E+03  0.11497281221E+03  0.47000000000E+01 0. -1.
          5    1    5    5  503    0  0.42078779207E+02  0.30398504879E+02 -0.40768544663E+02  0.66172932475E+02  0.47000000000E+01 0.  1.
         -5    1    5    5    0  503 -0.18534684079E+02 -0.82992662543E+02 -0.80808341522E+02  0.11740270273E+03  0.47000000000E+01 0.  1.
<mgrwt>
<rscale>  0 0.27527627E+03</rscale>
<asrwt>0</asrwt>
<pdfrwt beam="1">  1        2 0.42234116E-01 0.27527627E+03</pdfrwt>
<pdfrwt beam="2">  1       -2 0.10616648E-01 0.27527627E+03</pdfrwt>
<totfact> 0.72048624E+03</totfact>
</mgrwt>
</event>
<event>
 9    1  0.2074770E-002  0.2745726E+03  0.7818608E-02  0.1098691E+00
          1   -1    0    0  501    0  0.00000000000E+00  0.00000000000E+00  0.17817837312E+04  0.17817837312E+04  0.00000000000E+00 0.  1.
         -1   -1    0    0    0  501 -0.00000000000E+00 -0.00000000000E+00 -0.10577902461E+02  0.10577902461E+02  0.00000000000E+00 0.  1.
         36    2    1    2    0    0  0.71054273576E-14 -0.17763568394E-14  0.17712058287E+04  0.17923616336E+04  0.27457264624E+03 0.  0.
         25    2    3    3    0    0  0.57733997261E+02  0.12981468622E+02  0.10378942534E+04  0.10471272826E+04  0.12549634197E+03 0.  0.
         25    2    3    3    0    0 -0.57733997261E+02 -0.12981468622E+02  0.73331157533E+03  0.74523435101E+03  0.11885553603E+03 0.  0.
          5    1    4    4  502    0 -0.33993505436E+02  0.28001000212E+02  0.26915069862E+03  0.27277060508E+03  0.47000000000E+01 0. -1.
         -5    1    4    4    0  502  0.91727502697E+02 -0.15019531590E+02  0.76874355476E+03  0.77435667755E+03  0.47000000000E+01 0. -1.
          5    1    5    5  503    0 -0.19128529805E+02 -0.35487821685E+02  0.64379688762E+03  0.64507504110E+03  0.47000000000E+01 0.  1.
         -5    1    5    5    0  503 -0.38605467456E+02  0.22506353063E+02  0.89514687703E+02  0.10015930990E+03  0.47000000000E+01 0.  1.
<mgrwt>
<rscale>  0 0.27457265E+03</rscale>
<asrwt>0</asrwt>
<pdfrwt beam="1">  1        1 0.27412034E+00 0.27457265E+03</pdfrwt>
<pdfrwt beam="2">  1       -1 0.16273710E-02 0.27457265E+03</pdfrwt>
<totfact> 0.43338409E+03</totfact>
</mgrwt>
</event>
<event>
 9    1  0.2074770E-002  0.2763203E+03  0.7818608E-02  0.1097716E+00
          2   -1    0    0  501    0  0.00000000000E+00  0.00000000000E+00  0.50477969224E+03  0.50477969224E+03  0.00000000000E+00 0. -1.
         -2   -1    0    0    0  501 -0.00000000000E+00 -0.00000000000E+00 -0.37814970386E+02  0.37814970386E+02  0.00000000000E+00 0. -1.
         36    2    1    2    0    0  0.00000000000E+00  0.00000000000E+00  0.46696472185E+03  0.54259466262E+03  0.27632031495E+03 0.  0.
         25    2    3    3    0    0  0.27511225776E+02  0.41318391844E+02  0.27095711770E+03  0.30466490846E+03  0.13014941324E+03 0.  0.
         25    2    3    3    0    0 -0.27511225776E+02 -0.41318391844E+02  0.19600760415E+03  0.23792975417E+03  0.12540936960E+03 0.  0.
          5    1    4    4  502    0 -0.57429436615E+01 -0.11925987461E+02  0.22804841269E+03  0.22848058803E+03  0.47000000000E+01 0. -1.
         -5    1    4    4    0  502  0.33254169437E+02  0.53244379305E+02  0.42908705007E+02  0.76184320421E+02  0.47000000000E+01 0. -1.
          5    1    5    5  503    0 -0.29243456254E+02 -0.66275754869E+02  0.19944348745E+03  0.21224384586E+03  0.47000000000E+01 0.  1.
         -5    1    5    5    0  503  0.17322304781E+01  0.24957363025E+02 -0.34358832999E+01  0.25685908308E+02  0.47000000000E+01 0.  1.
<mgrwt>
<rscale>  0 0.27632031E+03</rscale>
<asrwt>0</asrwt>
<pdfrwt beam="1">  1        2 0.77658409E-01 0.27632031E+03</pdfrwt>
<pdfrwt beam="2">  1       -2 0.58176881E-02 0.27632031E+03</pdfrwt>
<totfact> 0.95067684E+03</totfact>
</mgrwt>
</event>
<event>
 9    1  0.2074770E-002  0.2738599E+03  0.7818608E-02  0.1099091E+00
          2   -1    0    0  501    0  0.00000000000E+00  0.00000000000E+00  0.67155832601E+03  0.67155832601E+03  0.00000000000E+00 0.  1.
         -2   -1    0    0    0  501 -0.00000000000E+00 -0.00000000000E+00 -0.27919858541E+02  0.27919858541E+02  0.00000000000E+00 0.  1.
         36    2    1    2    0    0 -0.35527136788E-14  0.71054273576E-14  0.64363846747E+03  0.69947818455E+03  0.27385991648E+03 0.  0.
         25    2    3    3    0    0  0.16328218660E+01 -0.42431740995E+02  0.27745441762E+03  0.30733057625E+03  0.12517192371E+03 0.  0.
         25    2    3    3    0    0 -0.16328218660E+01  0.42431740995E+02  0.36618404984E+03  0.39214760830E+03  0.13373806334E+03 0.  0.
          5    1    4    4  502    0  0.33887689743E+02  0.32739155203E+02  0.72374508656E+02  0.86489232294E+02  0.47000000000E+01 0.  1.
         -5    1    4    4    0  502 -0.32254867877E+02 -0.75170896198E+02  0.20507990897E+03  0.22084134395E+03  0.47000000000E+01 0.  1.
          5    1    5    5  503    0  0.29609495512E+02  0.79600474317E+02  0.28512196108E+03  0.29753920822E+03  0.47000000000E+01 0.  1.
         -5    1    5    5    0  503 -0.31242317378E+02 -0.37168733322E+02  0.81062088764E+02  0.94608400086E+02  0.47000000000E+01 0.  1.
<mgrwt>
<rscale>  0 0.27385992E+03</rscale>
<asrwt>0</asrwt>
<pdfrwt beam="1">  1        2 0.10331665E+00 0.27385992E+03</pdfrwt>
<pdfrwt beam="2">  1       -2 0.42953634E-02 0.27385992E+03</pdfrwt>
<totfact> 0.10836755E+04</totfact>
</mgrwt>
</event>
<event>
 9    1  0.2074770E-002  0.2752997E+03  0.7818608E-02  0.1098284E+00
         -1   -1    0    0    0  501 -0.00000000000E+00  0.00000000000E+00  0.60045240199E+02  0.60045240199E+02  0.00000000000E+00 0.  1.
          1   -1    0    0  501    0  0.00000000000E+00 -0.00000000000E+00 -0.31555342437E+03  0.31555342437E+03  0.00000000000E+00 0.  1.
         36    2    1    2    0    0  0.00000000000E+00  0.00000000000E+00 -0.25550818417E+03  0.37559866457E+03  0.27529969969E+03 0.  0.
         25    2    3    3    0    0  0.20203827249E+02 -0.21747963068E+02 -0.52974900005E+02  0.13632382924E+03  0.12205194736E+03 0.  0.
         25    2    3    3    0    0 -0.20203827249E+02  0.21747963068E+02 -0.20253328416E+03  0.23927483533E+03  0.12390136034E+03 0.  0.
          5    1    4    4  502    0  0.50410435457E+02  0.34469638410E+02 -0.31130179932E+02  0.68706230268E+02  0.47000000000E+01 0. -1.
         -5    1    4    4    0  502 -0.30206608208E+02 -0.56217601478E+02 -0.21844720073E+02  0.67617598969E+02  0.47000000000E+01 0. -1.
          5    1    5    5  503    0 -0.61599961640E+02  0.14553154645E+02 -0.18104595045E+03  0.19184909632E+03  0.47000000000E+01 0. -1.
         -5    1    5    5    0  503  0.41396134391E+02  0.71948084232E+01 -0.21487333719E+02  0.47425739015E+02  0.47000000000E+01 0. -1.
<mgrwt>
<rscale>  0 0.27529970E+03</rscale>
<asrwt>0</asrwt>
<pdfrwt beam="1">  1        1 0.48546679E-01 0.27529970E+03</pdfrwt>
<pdfrwt beam="2">  1       -1 0.92377296E-02 0.27529970E+03</pdfrwt>
<totfact> 0.56281904E+03</totfact>
</mgrwt>
</event>
<event>
 9    1  0.2074770E-002  0.2757122E+03  0.7818608E-02  0.1098054E+00
          2   -1    0    0  501    0  0.00000000000E+00  0.00000000000E+00  0.19233078843E+03  0.19233078843E+03  0.00000000000E+00 0. -1.
         -2   -1    0    0    0  501 -0.00000000000E+00 -0.00000000000E+00 -0.98810536331E+02  0.98810536331E+02  0.00000000000E+00 0. -1.
         36    2    1    2    0    0  0.00000000000E+00 -0.71054273576E-14  0.93520252104E+02  0.29114132477E+03  0.27571222938E+03 0.  0.
         25    2    3    3    0    0  0.21649985119E+02 -0.59115700503E+02  0.58606457207E+02  0.15169846151E+03  0.12495726668E+03 0.  0.
         25    2    3    3    0    0 -0.21649985119E+02  0.59115700503E+02  0.34913794897E+02  0.13944286326E+03  0.11942341118E+03 0.  0.
          5    1    4    4  502    0 -0.88565303535E+01  0.16369593704E+01 -0.34700513952E+02  0.36157066175E+02  0.47000000000E+01 0. -1.
         -5    1    4    4    0  502  0.30506515472E+02 -0.60752659874E+02  0.93306971159E+02  0.11554139533E+03  0.47000000000E+01 0. -1.
          5    1    5    5  503    0 -0.55387798705E+02  0.67591577668E+02 -0.32725179528E+01  0.87574134257E+02  0.47000000000E+01 0. -1.
         -5    1    5    5    0  503  0.33737813586E+02 -0.84758771651E+01  0.38186312849E+02  0.51868729003E+02  0.47000000000E+01 0. -1.
<mgrwt>
<rscale>  0 0.27571223E+03</rscale>
<asrwt>0</asrwt>
<pdfrwt beam="1">  1        2 0.29589352E-01 0.27571223E+03</pdfrwt>
<pdfrwt beam="2">  1       -2 0.15201621E-01 0.27571223E+03</pdfrwt>
<totfact> 0.59182073E+03</totfact>
</mgrwt>
</event>
<event>
 9    1  0.2074770E-002  0.2758481E+03  0.7818608E-02  0.1097978E+00
          2   -1    0    0  501    0  0.00000000000E+00  0.00000000000E+00  0.65425316242E+03  0.65425316242E+03  0.00000000000E+00 0.  1.
         -2   -1    0    0    0  501 -0.00000000000E+00 -0.00000000000E+00 -0.29075963856E+02  0.29075963856E+02  0.00000000000E+00 0.  1.
         36    2    1    2    0    0  0.00000000000E+00  0.00000000000E+00  0.62517719856E+03  0.68332912628E+03  0.27584808357E+03 0.  0.
         25    2    3    3    0    0 -0.39155446829E+02  0.36888680383E+02  0.37705077740E+03  0.39954884059E+03  0.12073965184E+03 0.  0.
         25    2    3    3    0    0  0.39155446829E+02 -0.36888680383E+02  0.24812642117E+03  0.28378028568E+03  0.12676989352E+03 0.  0.
          5    1    4    4  502    0  0.11735093772E+02  0.50402902677E+02  0.65818650965E+02  0.83859107072E+02  0.47000000000E+01 0. -1.
         -5    1    4    4    0  502 -0.50890540601E+02 -0.13514222294E+02  0.31123212643E+03  0.31568973352E+03  0.47000000000E+01 0. -1.
          5    1    5    5  503    0  0.82602906683E+02 -0.84596491878E+01  0.17727913179E+03  0.19581824845E+03  0.47000000000E+01 0. -1.
         -5    1    5    5    0  503 -0.43447459854E+02 -0.28429031195E+02  0.70847289374E+02  0.87962037233E+02  0.47000000000E+01 0. -1.
<mgrwt>
<rscale>  0 0.27584808E+03</rscale>
<asrwt>0</asrwt>
<pdfrwt beam="1">  1        2 0.10065432E+00 0.27584808E+03</pdfrwt>
<pdfrwt beam="2">  1       -2 0.44732257E-02 0.27584808E+03</pdfrwt>
<totfact> 0.10517981E+04</totfact>
</mgrwt>
</event>
<event>
 9    1  0.2074770E-002  0.2756213E+03  0.7818608E-02  0.1098105E+00
         -2   -1    0    0    0  501 -0.00000000000E+00  0.00000000000E+00  0.67631310674E+01  0.67631310674E+01  0.00000000000E+00 0. -1.
          2   -1    0    0  501    0  0.00000000000E+00 -0.00000000000E+00 -0.28081325322E+04  0.28081325322E+04  0.00000000000E+00 0. -1.
         36    2    1    2    0    0  0.71054273576E-14  0.35527136788E-14 -0.28013694011E+04  0.28148956633E+04  0.27562125005E+03 0.  0.
         25    2    3    3    0    0  0.37355678329E+02  0.15649165206E+02 -0.93648737176E+03  0.94549660812E+03  0.12375336531E+03 0.  0.
         25    2    3    3    0    0 -0.37355678329E+02 -0.15649165206E+02 -0.18648820294E+04  0.18693990552E+04  0.12339976027E+03 0.  0.
          5    1    4    4  502    0  0.82786910576E+02  0.15488395162E+02 -0.63112893459E+03  0.63674122297E+03  0.47000000000E+01 0.  1.
         -5    1    4    4    0  502 -0.45431232248E+02  0.16077004359E+00 -0.30535843717E+03  0.30875538515E+03  0.47000000000E+01 0.  1.
          5    1    5    5  503    0 -0.77644647493E+02 -0.33709363071E+02 -0.13127599580E+04  0.13154945115E+04  0.47000000000E+01 0.  1.
         -5    1    5    5    0  503  0.40288969165E+02  0.18060197865E+02 -0.55212207137E+03  0.55390454365E+03  0.47000000000E+01 0.  1.
<mgrwt>
<rscale>  0 0.27562125E+03</rscale>
<asrwt>0</asrwt>
<pdfrwt beam="1">  1        2 0.43202015E+00 0.27562125E+03</pdfrwt>
<pdfrwt beam="2">  1       -2 0.10404823E-02 0.27562125E+03</pdfrwt>
<totfact> 0.54245206E+03</totfact>
</mgrwt>
</event>
<event>
 9    1  0.2074770E-002  0.2728802E+03  0.7818608E-02  0.1099642E+00
          4   -1    0    0  501    0  0.00000000000E+00  0.00000000000E+00  0.36740077259E+03  0.36740077259E+03  0.00000000000E+00 0. -1.
         -4   -1    0    0    0  501 -0.00000000000E+00 -0.00000000000E+00 -0.50669182813E+02  0.50669182813E+02  0.00000000000E+00 0. -1.
         36    2    1    2    0    0  0.00000000000E+00  0.71054273576E-14  0.31673158978E+03  0.41806995541E+03  0.27288017086E+03 0.  0.
         25    2    3    3    0    0 -0.39007620363E+02 -0.42825417487E+02  0.16667330861E+03  0.21511760687E+03  0.12304463481E+03 0.  0.
         25    2    3    3    0    0  0.39007620363E+02  0.42825417487E+02  0.15005828117E+03  0.20295234854E+03  0.12376007918E+03 0.  0.
          5    1    4    4  502    0  0.43868737173E+02 -0.19842080330E+02  0.75706124603E+02  0.89842537560E+02  0.47000000000E+01 0. -1.
         -5    1    4    4    0  502 -0.82876357536E+02 -0.22983337158E+02  0.90967184004E+02  0.12527506931E+03  0.47000000000E+01 0. -1.
          5    1    5    5  503    0 -0.49753026126E+00 -0.11740191383E+02  0.13260081597E+03  0.13320340096E+03  0.47000000000E+01 0.  1.
         -5    1    5    5    0  503  0.39505150624E+02  0.54565608870E+02  0.17457465203E+02  0.69748947580E+02  0.47000000000E+01 0.  1.
<mgrwt>
<rscale>  0 0.27288017E+03</rscale>
<asrwt>0</asrwt>
<pdfrwt beam="1">  1        4 0.56523194E-01 0.27288017E+03</pdfrwt>
<pdfrwt beam="2">  1       -4 0.77952591E-02 0.27288017E+03</pdfrwt>
<totfact> 0.64934968E+02</totfact>
</mgrwt>
</event>
<event>
 9    1  0.2074770E-002  0.2790424E+03  0.7818608E-02  0.1096213E+00
          4   -1    0    0  501    0  0.00000000000E+00  0.00000000000E+00  0.86300523324E+03  0.86300523324E+03  0.00000000000E+00 0.  1.
         -4   -1    0    0    0  501 -0.00000000000E+00 -0.00000000000E+00 -0.22556249948E+02  0.22556249948E+02  0.00000000000E+00 0.  1.
         36    2    1    2    0    0 -0.35527136788E-14 -0.17763568394E-14  0.84044898329E+03  0.88556148319E+03  0.27904237490E+03 0.  0.
         25    2    3    3    0    0  0.31378282012E+02 -0.70767646260E+01  0.60889396934E+03  0.62173244377E+03  0.12151003482E+03 0.  0.
         25    2    3    3    0    0 -0.31378282012E+02  0.70767646260E+01  0.23155501395E+03  0.26382903941E+03  0.12228393342E+03 0.  0.
          5    1    4    4  502    0  0.67158423970E+02  0.29755049277E+02  0.32963816868E+03  0.33775587207E+03  0.47000000000E+01 0.  1.
         -5    1    4    4    0  502 -0.35780141958E+02 -0.36831813903E+02  0.27925580065E+03  0.28397657170E+03  0.47000000000E+01 0.  1.
          5    1    5    5  503    0 -0.56570890757E+02  0.88527369786E+01  0.23110208057E+03  0.23813630188E+03  0.47000000000E+01 0. -1.
         -5    1    5    5    0  503  0.25192608745E+02 -0.17759723526E+01  0.45293338608E+00  0.25692737531E+02  0.47000000000E+01 0. -1.
<mgrwt>
<rscale>  0 0.27904237E+03</rscale>
<asrwt>0</asrwt>
<pdfrwt beam="1">  1        4 0.13277001E+00 0.27904237E+03</pdfrwt>
<pdfrwt beam="2">  1       -4 0.34701930E-02 0.27904237E+03</pdfrwt>
<totfact> 0.34644781E+02</totfact>
</mgrwt>
</event>
<event>
 9    1  0.2074770E-002  0.2758692E+03  0.7818608E-02  0.1097967E+00
          1   -1    0    0  501    0  0.00000000000E+00  0.00000000000E+00  0.23530687791E+03  0.23530687791E+03  0.00000000000E+00 0.  1.
         -1   -1    0    0    0  501 -0.00000000000E+00 -0.00000000000E+00 -0.80855914656E+02  0.80855914656E+02  0.00000000000E+00 0.  1.
         36    2    1    2    0    0  0.00000000000E+00 -0.35527136788E-14  0.15445096325E+03  0.31616279257E+03  0.27586919247E+03 0.  0.
         25    2    3    3    0    0 -0.42530731319E+02 -0.18508777852E+02  0.31059575081E+02  0.13450919653E+03  0.12237887392E+03 0.  0.
         25    2    3    3    0    0  0.42530731319E+02  0.18508777852E+02  0.12339138817E+03  0.18165359604E+03  0.12498462431E+03 0.  0.
          5    1    4    4  502    0 -0.36475420346E+02 -0.67298302922E+02  0.36291138203E+02  0.84844885395E+02  0.47000000000E+01 0. -1.
         -5    1    4    4    0  502 -0.60553109727E+01  0.48789525070E+02 -0.52315631224E+01  0.49664311132E+02  0.47000000000E+01 0. -1.
          5    1    5    5  503    0  0.29230440747E+02  0.27142545718E+02 -0.14553815299E+02  0.42720486819E+02  0.47000000000E+01 0. -1.
         -5    1    5    5    0  503  0.13300290571E+02 -0.86337678659E+01  0.13794520347E+03  0.13893310922E+03  0.47000000000E+01 0. -1.
<mgrwt>
<rscale>  0 0.27586919E+03</rscale>
<asrwt>0</asrwt>
<pdfrwt beam="1">  1        1 0.36201058E-01 0.27586919E+03</pdfrwt>
<pdfrwt beam="2">  1       -1 0.12439372E-01 0.27586919E+03</pdfrwt>
<totfact> 0.51277743E+03</totfact>
</mgrwt>
</event>
<event>
 9    1  0.2074770E-002  0.2786600E+03  0.7818608E-02  0.1096423E+00
          2   -1    0    0  501    0  0.00000000000E+00  0.00000000000E+00  0.94235723242E+03  0.94235723242E+03  0.00000000000E+00 0.  1.
         -2   -1    0    0    0  501 -0.00000000000E+00 -0.00000000000E+00 -0.20600305464E+02  0.20600305464E+02  0.00000000000E+00 0.  1.
         36    2    1    2    0    0 -0.14210854715E-13  0.00000000000E+00  0.92175692696E+03  0.96295753788E+03  0.27865998524E+03 0.  0.
         25    2    3    3    0    0  0.35981504570E+02 -0.28827862119E+02  0.66241791985E+03  0.67415825821E+03  0.11647378365E+03 0.  0.
         25    2    3    3    0    0 -0.35981504570E+02  0.28827862119E+02  0.25933900711E+03  0.28879927967E+03  0.11841701324E+03 0.  0.
          5    1    4    4  502    0 -0.97719413966E+01 -0.65460869483E+02  0.36552489277E+03  0.37149852423E+03  0.47000000000E+01 0. -1.
         -5    1    4    4    0  502  0.45753445967E+02  0.36633007364E+02  0.29689302708E+03  0.30265973398E+03  0.47000000000E+01 0. -1.
          5    1    5    5  503    0 -0.52182580285E+02  0.33418419651E+02  0.26358242494E+03  0.27080915272E+03  0.47000000000E+01 0. -1.
         -5    1    5    5    0  503  0.16201075715E+02 -0.45905575312E+01 -0.42434178352E+01  0.17990126951E+02  0.47000000000E+01 0. -1.
<mgrwt>
<rscale>  0 0.27865999E+03</rscale>
<asrwt>0</asrwt>
<pdfrwt beam="1">  1        2 0.14497800E+00 0.27865999E+03</pdfrwt>
<pdfrwt beam="2">  1       -2 0.31692785E-02 0.27865999E+03</pdfrwt>
<totfact> 0.11108067E+04</totfact>
</mgrwt>
</event>
<event>
 9    1  0.2074770E-002  0.2726988E+03  0.7818608E-02  0.1099745E+00
         -2   -1    0    0    0  501 -0.00000000000E+00  0.00000000000E+00  0.44496843352E+02  0.44496843352E+02  0.00000000000E+00 0.  1.
          2   -1    0    0  501    0  0.00000000000E+00 -0.00000000000E+00 -0.41780839608E+03  0.41780839608E+03  0.00000000000E+00 0.  1.
         36    2    1    2    0    0  0.00000000000E+00  0.00000000000E+00 -0.37331155272E+03  0.46230523943E+03  0.27269876972E+03 0.  0.
         25    2    3    3    0    0 -0.39358337493E+02 -0.21506443851E+02 -0.14256066387E+03  0.19482278404E+03  0.12498307262E+03 0.  0.
         25    2    3    3    0    0  0.39358337493E+02  0.21506443851E+02 -0.23075088885E+03  0.26748245539E+03  0.12762948474E+03 0.  0.
          5    1    4    4  502    0 -0.31492852771E+02 -0.73193128731E+02 -0.77840555992E+02  0.11149114775E+03  0.47000000000E+01 0.  1.
         -5    1    4    4    0  502 -0.78654847223E+01  0.51686684879E+02 -0.64720107878E+02  0.83331636294E+02  0.47000000000E+01 0.  1.
          5    1    5    5  503    0 -0.38883824541E+01  0.61915970949E+02 -0.58939019012E+02  0.85700670585E+02  0.47000000000E+01 0.  1.
         -5    1    5    5    0  503  0.43246719947E+02 -0.40409527098E+02 -0.17181186984E+03  0.18178178480E+03  0.47000000000E+01 0.  1.
<mgrwt>
<rscale>  0 0.27269877E+03</rscale>
<asrwt>0</asrwt>
<pdfrwt beam="1">  1        2 0.64278215E-01 0.27269877E+03</pdfrwt>
<pdfrwt beam="2">  1       -2 0.68456682E-02 0.27269877E+03</pdfrwt>
<totfact> 0.91158354E+03</totfact>
</mgrwt>
</event>
<event>
 9    1  0.2074770E-002  0.2749374E+03  0.7818608E-02  0.1098487E+00
         -2   -1    0    0    0  501 -0.00000000000E+00  0.00000000000E+00  0.44567864996E+02  0.44567864996E+02  0.00000000000E+00 0. -1.
          2   -1    0    0  501    0  0.00000000000E+00 -0.00000000000E+00 -0.42401938101E+03  0.42401938101E+03  0.00000000000E+00 0. -1.
         36    2    1    2    0    0 -0.35527136788E-14  0.35527136788E-14 -0.37945151601E+03  0.46858724601E+03  0.27493736398E+03 0.  0.
         25    2    3    3    0    0  0.25357233907E+02 -0.10668311740E+02 -0.27667190821E+03  0.30461875908E+03  0.12445256688E+03 0.  0.
         25    2    3    3    0    0 -0.25357233907E+02  0.10668311740E+02 -0.10277960780E+03  0.16396848692E+03  0.12476062976E+03 0.  0.
          5    1    4    4  502    0  0.39037491970E+01  0.25929766708E+02 -0.20706679342E+01  0.26720211919E+02  0.47000000000E+01 0.  1.
         -5    1    4    4    0  502  0.21453484710E+02 -0.36598078448E+02 -0.27460124028E+03  0.27789854716E+03  0.47000000000E+01 0.  1.
          5    1    5    5  503    0  0.18990819581E+02  0.46662839016E+02 -0.52798915079E+01  0.50872772951E+02  0.47000000000E+01 0. -1.
         -5    1    5    5    0  503 -0.44348053488E+02 -0.35994527276E+02 -0.97499716292E+02  0.11309571397E+03  0.47000000000E+01 0. -1.
<mgrwt>
<rscale>  0 0.27493736E+03</rscale>
<asrwt>0</asrwt>
<pdfrwt beam="1">  1        2 0.65233750E-01 0.27493736E+03</pdfrwt>
<pdfrwt beam="2">  1       -2 0.68565947E-02 0.27493736E+03</pdfrwt>
<totfact> 0.89508476E+03</totfact>
</mgrwt>
</event>
<event>
 9    1  0.2074770E-002  0.2738822E+03  0.7818608E-02  0.1099078E+00
          3   -1    0    0  501    0  0.00000000000E+00  0.00000000000E+00  0.58872101633E+03  0.58872101633E+03  0.00000000000E+00 0. -1.
         -3   -1    0    0    0  501 -0.00000000000E+00 -0.00000000000E+00 -0.31853567882E+02  0.31853567882E+02  0.00000000000E+00 0. -1.
         36    2    1    2    0    0  0.71054273576E-14  0.00000000000E+00  0.55686744845E+03  0.62057458421E+03  0.27388219991E+03 0.  0.
         25    2    3    3    0    0  0.41914052053E+02  0.10966382940E+02  0.21853570298E+03  0.25752594683E+03  0.12916930943E+03 0.  0.
         25    2    3    3    0    0 -0.41914052053E+02 -0.10966382940E+02  0.33833174546E+03  0.36304863738E+03  0.12433379992E+03 0.  0.
          5    1    4    4  502    0 -0.23220058756E+02 -0.28967447008E+02  0.15435474527E+02  0.40479970215E+02  0.47000000000E+01 0. -1.
         -5    1    4    4    0  502  0.65134110809E+02  0.39933829948E+02  0.20310022846E+03  0.21704597661E+03  0.47000000000E+01 0. -1.
          5    1    5    5  503    0  0.79225463407E+01  0.16073068132E+02  0.28326454880E+03  0.28386969699E+03  0.47000000000E+01 0.  1.
         -5    1    5    5    0  503 -0.49836598394E+02 -0.27039451072E+02  0.55067196663E+02  0.79178940395E+02  0.47000000000E+01 0.  1.
<mgrwt>
<rscale>  0 0.27388220E+03</rscale>
<asrwt>0</asrwt>
<pdfrwt beam="1">  1        3 0.90572456E-01 0.27388220E+03</pdfrwt>
<pdfrwt beam="2">  1       -3 0.49005493E-02 0.27388220E+03</pdfrwt>
<totfact> 0.67767253E+02</totfact>
</mgrwt>
</event>
<event>
 9    1  0.2074770E-002  0.2761376E+03  0.7818608E-02  0.1097817E+00
          2   -1    0    0  501    0  0.00000000000E+00  0.00000000000E+00  0.21126350458E+03  0.21126350458E+03  0.00000000000E+00 0.  1.
         -2   -1    0    0    0  501 -0.00000000000E+00 -0.00000000000E+00 -0.90233224303E+02  0.90233224303E+02  0.00000000000E+00 0.  1.
         36    2    1    2    0    0 -0.62172489379E-14 -0.71054273576E-14  0.12103028027E+03  0.30149672888E+03  0.27613755409E+03 0.  0.
         25    2    3    3    0    0 -0.66111754759E+01  0.56991649265E+02  0.57237474651E+02  0.14809622109E+03  0.12395404983E+03 0.  0.
         25    2    3    3    0    0  0.66111754759E+01 -0.56991649265E+02  0.63792805621E+02  0.15340050779E+03  0.12716303714E+03 0.  0.
          5    1    4    4  502    0  0.56585180239E+01 -0.33429270469E+02 -0.88210438838E+01  0.35347358678E+02  0.47000000000E+01 0.  1.
         -5    1    4    4    0  502 -0.12269693500E+02  0.90420919734E+02  0.66058518535E+02  0.11274886241E+03  0.47000000000E+01 0.  1.
          5    1    5    5  503    0 -0.55788943171E+02 -0.52520138112E+02  0.34421982241E+02  0.84129269275E+02  0.47000000000E+01 0.  1.
         -5    1    5    5    0  503  0.62400118647E+02 -0.44715111534E+01  0.29370823380E+02  0.69271238513E+02  0.47000000000E+01 0.  1.
<mgrwt>
<rscale>  0 0.27613755E+03</rscale>
<asrwt>0</asrwt>
<pdfrwt beam="1">  1        2 0.32502078E-01 0.27613755E+03</pdfrwt>
<pdfrwt beam="2">  1       -2 0.13882035E-01 0.27613755E+03</pdfrwt>
<totfact> 0.62016839E+03</totfact>
</mgrwt>
</event>
<event>
 9    1  0.2074770E-002  0.2755231E+03  0.7818608E-02  0.1098160E+00
         -2   -1    0    0    0  501 -0.00000000000E+00  0.00000000000E+00  0.29763320711E+02  0.29763320711E+02  0.00000000000E+00 0. -1.
          2   -1    0    0  501    0  0.00000000000E+00 -0.00000000000E+00 -0.63763857476E+03  0.63763857476E+03  0.00000000000E+00 0. -1.
         36    2    1    2    0    0  0.71054273576E-14  0.00000000000E+00 -0.60787525404E+03  0.66740189547E+03  0.27552307633E+03 0.  0.
         25    2    3    3    0    0 -0.56967592557E+02  0.17801607056E+02 -0.35826941521E+03  0.38388182044E+03  0.12428223676E+03 0.  0.
         25    2    3    3    0    0  0.56967592557E+02 -0.17801607056E+02 -0.24960583884E+03  0.28352007503E+03  0.12049213396E+03 0.  0.
          5    1    4    4  502    0 -0.72414944649E+01  0.13595308181E+02 -0.32104046753E+03  0.32144415290E+03  0.47000000000E+01 0. -1.
         -5    1    4    4    0  502 -0.49726098092E+02  0.42062988752E+01 -0.37228947683E+02  0.62437667535E+02  0.47000000000E+01 0. -1.
          5    1    5    5  503    0 -0.23696928824E+02  0.29964853847E+02 -0.97004643499E+02  0.10436200344E+03  0.47000000000E+01 0.  1.
         -5    1    5    5    0  503  0.80664521380E+02 -0.47766460903E+02 -0.15260119534E+03  0.17915807159E+03  0.47000000000E+01 0.  1.
<mgrwt>
<rscale>  0 0.27552308E+03</rscale>
<asrwt>0</asrwt>
<pdfrwt beam="1">  1        2 0.98098239E-01 0.27552308E+03</pdfrwt>
<pdfrwt beam="2">  1       -2 0.45789726E-02 0.27552308E+03</pdfrwt>
<totfact> 0.10466419E+04</totfact>
</mgrwt>
</event>
<event>
 9    1  0.2074770E-002  0.2761011E+03  0.7818608E-02  0.1097838E+00
          2   -1    0    0  501    0  0.00000000000E+00  0.00000000000E+00  0.19716840478E+04  0.19716840478E+04  0.00000000000E+00 0.  1.
         -2   -1    0    0    0  501 -0.00000000000E+00 -0.00000000000E+00 -0.96658264955E+01  0.96658264955E+01  0.00000000000E+00 0.  1.
         36    2    1    2    0    0  0.00000000000E+00  0.00000000000E+00  0.19620182213E+04  0.19813498743E+04  0.27610111126E+03 0.  0.
         25    2    3    3    0    0  0.35195949559E+01 -0.19500675876E+02  0.63970615337E+03  0.65303146227E+03  0.12974384052E+03 0.  0.
         25    2    3    3    0    0 -0.35195949559E+01  0.19500675876E+02  0.13223120679E+04  0.13283184120E+04  0.12461113432E+03 0.  0.
          5    1    4    4  502    0  0.28138531014E+02 -0.16797684526E+02  0.36418054260E+02  0.49216905725E+02  0.47000000000E+01 0.  1.
         -5    1    4    4    0  502 -0.24618936058E+02 -0.27029913502E+01  0.60328809911E+03  0.60381455655E+03  0.47000000000E+01 0.  1.
          5    1    5    5  503    0  0.19257727432E+02  0.41053674449E+01  0.33065851537E+02  0.38770538371E+02  0.47000000000E+01 0. -1.
         -5    1    5    5    0  503 -0.22777322388E+02  0.15395308431E+02  0.12892462164E+04  0.12895478736E+04  0.47000000000E+01 0. -1.
<mgrwt>
<rscale>  0 0.27610111E+03</rscale>
<asrwt>0</asrwt>
<pdfrwt beam="1">  1        2 0.30333569E+00 0.27610111E+03</pdfrwt>
<pdfrwt beam="2">  1       -2 0.14870518E-02 0.27610111E+03</pdfrwt>
<totfact> 0.91875937E+03</totfact>
</mgrwt>
</event>
<event>
 9    1  0.2074770E-002  0.2761726E+03  0.7818608E-02  0.1097798E+00
         -2   -1    0    0    0  501 -0.00000000000E+00  0.00000000000E+00  0.24072242284E+02  0.24072242284E+02  0.00000000000E+00 0. -1.
          2   -1    0    0  501    0  0.00000000000E+00 -0.00000000000E+00 -0.79210852734E+03  0.79210852734E+03  0.00000000000E+00 0. -1.
         36    2    1    2    0    0  0.71054273576E-14 -0.14210854715E-13 -0.76803628506E+03  0.81618076962E+03  0.27617261548E+03 0.  0.
         25    2    3    3    0    0 -0.16539881158E+02 -0.38702980012E+02 -0.50144471852E+03  0.51915784270E+03  0.12769718706E+03 0.  0.
         25    2    3    3    0    0  0.16539881158E+02  0.38702980012E+02 -0.26659156654E+03  0.29702292692E+03  0.12401639986E+03 0.  0.
          5    1    4    4  502    0  0.31228672447E+02  0.11614557452E+02 -0.38980756858E+02  0.51494828214E+02  0.47000000000E+01 0.  1.
         -5    1    4    4    0  502 -0.47768553604E+02 -0.50317537464E+02 -0.46246396166E+03  0.46766301449E+03  0.47000000000E+01 0.  1.
          5    1    5    5  503    0  0.26735672805E+02 -0.34840436364E+02 -0.44064726559E+02  0.62389440878E+02  0.47000000000E+01 0.  1.
         -5    1    5    5    0  503 -0.10195791647E+02  0.73543416376E+02 -0.22252683998E+03  0.23463348604E+03  0.47000000000E+01 0.  1.
<mgrwt>
<rscale>  0 0.27617262E+03</rscale>
<asrwt>0</asrwt>
<pdfrwt beam="1">  1        2 0.12186285E+00 0.27617262E+03</pdfrwt>
<pdfrwt beam="2">  1       -2 0.37034218E-02 0.27617262E+03</pdfrwt>
<totfact> 0.11056494E+04</totfact>
</mgrwt>
</event>
<event>
 9    1  0.2074770E-002  0.2738295E+03  0.7818608E-02  0.1099108E+00
          2   -1    0    0  501    0  0.00000000000E+00  0.00000000000E+00  0.50798518754E+03  0.50798518754E+03  0.00000000000E+00 0.  1.
         -2   -1    0    0    0  501 -0.00000000000E+00 -0.00000000000E+00 -0.36901948835E+02  0.36901948835E+02  0.00000000000E+00 0.  1.
         36    2    1    2    0    0  0.00000000000E+00  0.71054273576E-14  0.47108323870E+03  0.54488713637E+03  0.27382946079E+03 0.  0.
         25    2    3    3    0    0 -0.29331785539E+02  0.18590786342E+02  0.14710061382E+03  0.19573787660E+03  0.12437344881E+03 0.  0.
         25    2    3    3    0    0  0.29331785539E+02 -0.18590786342E+02  0.32398262488E+03  0.34914925977E+03  0.12543720897E+03 0.  0.
          5    1    4    4  502    0 -0.10145895152E+02  0.71259490071E+02  0.72102947629E+02  0.10198911300E+03  0.47000000000E+01 0. -1.
         -5    1    4    4    0  502 -0.19185890387E+02 -0.52668703728E+02  0.74997666192E+02  0.93748763600E+02  0.47000000000E+01 0. -1.
          5    1    5    5  503    0  0.27599980991E+01  0.19249987432E+02  0.29210875682E+03  0.29279309318E+03  0.47000000000E+01 0. -1.
         -5    1    5    5    0  503  0.26571787440E+02 -0.37840773774E+02  0.31873868067E+02  0.56356166594E+02  0.47000000000E+01 0. -1.
<mgrwt>
<rscale>  0 0.27382946E+03</rscale>
<asrwt>0</asrwt>
<pdfrwt beam="1">  1        2 0.78151562E-01 0.27382946E+03</pdfrwt>
<pdfrwt beam="2">  1       -2 0.56772233E-02 0.27382946E+03</pdfrwt>
<totfact> 0.97959015E+03</totfact>
</mgrwt>
</event>
<event>
 9    1  0.2074770E-002  0.2745717E+03  0.7818608E-02  0.1098691E+00
         -1   -1    0    0    0  501 -0.00000000000E+00  0.00000000000E+00  0.46020268332E+02  0.46020268332E+02  0.00000000000E+00 0.  1.
          1   -1    0    0  501    0  0.00000000000E+00 -0.00000000000E+00 -0.40954585936E+03  0.40954585936E+03  0.00000000000E+00 0.  1.
         36    2    1    2    0    0 -0.88817841970E-14  0.00000000000E+00 -0.36352559103E+03  0.45556612770E+03  0.27457174175E+03 0.  0.
         25    2    3    3    0    0 -0.12320513259E+02  0.38885267099E+02 -0.22836887570E+03  0.26433879837E+03  0.12672331233E+03 0.  0.
         25    2    3    3    0    0  0.12320513259E+02 -0.38885267099E+02 -0.13515671533E+03  0.19122732933E+03  0.12898331186E+03 0.  0.
          5    1    4    4  502    0 -0.89576098307E+01  0.34235531208E+02  0.15051057249E+00  0.35699061954E+02  0.47000000000E+01 0.  1.
         -5    1    4    4    0  502 -0.33629034286E+01  0.46497358914E+01 -0.22851938628E+03  0.22863973641E+03  0.47000000000E+01 0.  1.
          5    1    5    5  503    0  0.68320881528E+02 -0.37702657624E+02 -0.67644573631E+02  0.10337848706E+03  0.47000000000E+01 0.  1.
         -5    1    5    5    0  503 -0.56000368269E+02 -0.11826094752E+01 -0.67512141697E+02  0.87848842269E+02  0.47000000000E+01 0.  1.
<mgrwt>
<rscale>  0 0.27457174E+03</rscale>
<asrwt>0</asrwt>
<pdfrwt beam="1">  1        1 0.63007057E-01 0.27457174E+03</pdfrwt>
<pdfrwt beam="2">  1       -1 0.70800411E-02 0.27457174E+03</pdfrwt>
<totfact> 0.60666958E+03</totfact>
</mgrwt>
</event>
<event>
 9    1  0.2074770E-002  0.2746443E+03  0.7818608E-02  0.1098651E+00
          2   -1    0    0  501    0  0.00000000000E+00  0.00000000000E+00  0.11816662399E+04  0.11816662399E+04  0.00000000000E+00 0. -1.
         -2   -1    0    0    0  501 -0.00000000000E+00 -0.00000000000E+00 -0.15958285574E+02  0.15958285574E+02  0.00000000000E+00 0. -1.
         36    2    1    2    0    0 -0.71054273576E-14  0.00000000000E+00  0.11657079544E+04  0.11976245255E+04  0.27464425944E+03 0.  0.
         25    2    3    3    0    0 -0.17568859107E+02 -0.49673560392E+02  0.65006071082E+03  0.66415526331E+03  0.12548768313E+03 0.  0.
         25    2    3    3    0    0  0.17568859107E+02  0.49673560392E+02  0.51564724355E+03  0.53346926221E+03  0.12617942197E+03 0.  0.
          5    1    4    4  502    0  0.45474471466E+02  0.21960157724E+01  0.13269041813E+03  0.14036234218E+03  0.47000000000E+01 0. -1.
         -5    1    4    4    0  502 -0.63043330573E+02 -0.51869576164E+02  0.51737029269E+03  0.52379292113E+03  0.47000000000E+01 0. -1.
          5    1    5    5  503    0 -0.52919971938E+02  0.73156732601E+01  0.17686838726E+03  0.18482034227E+03  0.47000000000E+01 0.  1.
         -5    1    5    5    0  503  0.70488831045E+02  0.42357887132E+02  0.33877885629E+03  0.34864891994E+03  0.47000000000E+01 0.  1.
<mgrwt>
<rscale>  0 0.27464426E+03</rscale>
<asrwt>0</asrwt>
<pdfrwt beam="1">  1        2 0.18179474E+00 0.27464426E+03</pdfrwt>
<pdfrwt beam="2">  1       -2 0.24551218E-02 0.27464426E+03</pdfrwt>
<totfact> 0.11669345E+04</totfact>
</mgrwt>
</event>
<event>
 9    1  0.2074770E-002  0.2751991E+03  0.7818608E-02  0.1098340E+00
         -1   -1    0    0    0  501 -0.00000000000E+00  0.00000000000E+00  0.31906779934E+02  0.31906779934E+02  0.00000000000E+00 0.  1.
          1   -1    0    0  501    0  0.00000000000E+00 -0.00000000000E+00 -0.59340463628E+03  0.59340463628E+03  0.00000000000E+00 0.  1.
         36    2    1    2    0    0  0.00000000000E+00  0.71054273576E-14 -0.56149785634E+03  0.62531141621E+03  0.27519906353E+03 0.  0.
         25    2    3    3    0    0 -0.18225439172E+02  0.43964146987E+02 -0.21988413193E+03  0.25747266308E+03  0.12521233129E+03 0.  0.
         25    2    3    3    0    0  0.18225439172E+02 -0.43964146987E+02 -0.34161372441E+03  0.36783875313E+03  0.12782956913E+03 0.  0.
          5    1    4    4  502    0 -0.42047143679E+02  0.10799505967E+00 -0.12501652180E+02  0.44117516495E+02  0.47000000000E+01 0. -1.
         -5    1    4    4    0  502  0.23821704507E+02  0.43856151927E+02 -0.20738247975E+03  0.21335514659E+03  0.47000000000E+01 0. -1.
          5    1    5    5  503    0  0.55693639105E+02  0.73865494000E+01 -0.75669394240E+02  0.94362544335E+02  0.47000000000E+01 0.  1.
         -5    1    5    5    0  503 -0.37468199932E+02 -0.51350696387E+02 -0.26594433017E+03  0.27347620880E+03  0.47000000000E+01 0.  1.
<mgrwt>
<rscale>  0 0.27519906E+03</rscale>
<asrwt>0</asrwt>
<pdfrwt beam="1">  1        1 0.91293010E-01 0.27519906E+03</pdfrwt>
<pdfrwt beam="2">  1       -1 0.49087360E-02 0.27519906E+03</pdfrwt>
<totfact> 0.64392462E+03</totfact>
</mgrwt>
</event>
<event>
 9    1  0.2074770E-002  0.2744185E+03  0.7818608E-02  0.1098777E+00
         -2   -1    0    0    0  501 -0.00000000000E+00  0.00000000000E+00  0.19980687034E+02  0.19980687034E+02  0.00000000000E+00 0.  1.
          2   -1    0    0  501    0  0.00000000000E+00 -0.00000000000E+00 -0.94222854016E+03  0.94222854016E+03  0.00000000000E+00 0.  1.
         36    2    1    2    0    0  0.00000000000E+00 -0.71054273576E-14 -0.92224785313E+03  0.96220922719E+03  0.27441846567E+03 0.  0.
         25    2    3    3    0    0 -0.19728984742E+02 -0.34204826871E+02 -0.38850283653E+03  0.41269802160E+03  0.13351404428E+03 0.  0.
         25    2    3    3    0    0  0.19728984742E+02  0.34204826871E+02 -0.53374501660E+03  0.54951120559E+03  0.12457776411E+03 0.  0.
          5    1    4    4  502    0 -0.76526084783E+02 -0.14010338866E+02 -0.24077614704E+03  0.25307661731E+03  0.47000000000E+01 0. -1.
         -5    1    4    4    0  502  0.56797100041E+02 -0.20194488005E+02 -0.14772668949E+03  0.15962140429E+03  0.47000000000E+01 0. -1.
          5    1    5    5  503    0 -0.33722513727E+02 -0.30602448185E+02 -0.16056316885E+03  0.16696208839E+03  0.47000000000E+01 0. -1.
         -5    1    5    5    0  503  0.53451498469E+02  0.64807275056E+02 -0.37318184775E+03  0.38254911721E+03  0.47000000000E+01 0. -1.
<mgrwt>
<rscale>  0 0.27441847E+03</rscale>
<asrwt>0</asrwt>
<pdfrwt beam="1">  1        2 0.14495822E+00 0.27441847E+03</pdfrwt>
<pdfrwt beam="2">  1       -2 0.30739522E-02 0.27441847E+03</pdfrwt>
<totfact> 0.11621834E+04</totfact>
</mgrwt>
</event>
<event>
 9    1  0.2074770E-002  0.2754449E+03  0.7818608E-02  0.1098203E+00
          2   -1    0    0  501    0  0.00000000000E+00  0.00000000000E+00  0.33074570633E+02  0.33074570633E+02  0.00000000000E+00 0.  1.
         -2   -1    0    0    0  501 -0.00000000000E+00 -0.00000000000E+00 -0.57347581952E+03  0.57347581952E+03  0.00000000000E+00 0.  1.
         36    2    1    2    0    0 -0.14210854715E-13 -0.71054273576E-14 -0.54040124889E+03  0.60655039015E+03  0.27544485110E+03 0.  0.
         25    2    3    3    0    0 -0.18637830474E+02 -0.56162129725E+02 -0.16365561897E+03  0.20387270214E+03  0.10620434793E+03 0.  0.
         25    2    3    3    0    0  0.18637830474E+02  0.56162129725E+02 -0.37674562992E+03  0.40267768801E+03  0.12926908841E+03 0.  0.
          5    1    4    4  502    0 -0.58154338883E+02 -0.27974665151E+02 -0.12812232550E+03  0.14353372186E+03  0.47000000000E+01 0. -1.
         -5    1    4    4    0  502  0.39516508410E+02 -0.28187464574E+02 -0.35533293473E+02  0.60338980279E+02  0.47000000000E+01 0. -1.
          5    1    5    5  503    0  0.72531786504E+02  0.46553046914E+02 -0.25184945968E+03  0.26622976275E+03  0.47000000000E+01 0.  1.
         -5    1    5    5    0  503 -0.53893956031E+02  0.96090828110E+01 -0.12489617024E+03  0.13644792526E+03  0.47000000000E+01 0.  1.
<mgrwt>
<rscale>  0 0.27544485E+03</rscale>
<asrwt>0</asrwt>
<pdfrwt beam="1">  1        2 0.50883954E-02 0.27544485E+03</pdfrwt>
<pdfrwt beam="2">  1       -2 0.88227051E-01 0.27544485E+03</pdfrwt>
<totfact> 0.17543267E+03</totfact>
</mgrwt>
</event>
<event>
 9    1  0.2074770E-002  0.2750173E+03  0.7818608E-02  0.1098442E+00
         -2   -1    0    0    0  501 -0.00000000000E+00  0.00000000000E+00  0.10689771135E+03  0.10689771135E+03  0.00000000000E+00 0. -1.
          2   -1    0    0  501    0  0.00000000000E+00 -0.00000000000E+00 -0.17688525124E+03  0.17688525124E+03  0.00000000000E+00 0. -1.
         36    2    1    2    0    0  0.00000000000E+00  0.00000000000E+00 -0.69987539887E+02  0.28378296258E+03  0.27501729784E+03 0.  0.
         25    2    3    3    0    0  0.27675131423E+02 -0.40742960776E+02 -0.13239846041E+02  0.13662882659E+03  0.12675267643E+03 0.  0.
         25    2    3    3    0    0 -0.27675131423E+02  0.40742960776E+02 -0.56747693846E+02  0.14715413599E+03  0.12652326754E+03 0.  0.
          5    1    4    4  502    0 -0.42566758699E+02  0.13039483107E+02  0.81225708206E+01  0.45497507872E+02  0.47000000000E+01 0. -1.
         -5    1    4    4    0  502  0.70241890122E+02 -0.53782443882E+02 -0.21362416862E+02  0.91131318722E+02  0.47000000000E+01 0. -1.
          5    1    5    5  503    0  0.11432135262E+02 -0.26454647885E+01  0.35602866540E+02  0.37780236983E+02  0.47000000000E+01 0. -1.
         -5    1    5    5    0  503 -0.39107266685E+02  0.43388425564E+02 -0.92350560386E+02  0.10937389901E+03  0.47000000000E+01 0. -1.
<mgrwt>
<rscale>  0 0.27501730E+03</rscale>
<asrwt>0</asrwt>
<pdfrwt beam="1">  1        2 0.27213115E-01 0.27501730E+03</pdfrwt>
<pdfrwt beam="2">  1       -2 0.16445802E-01 0.27501730E+03</pdfrwt>
<totfact> 0.56946996E+03</totfact>
</mgrwt>
</event>
<event>
 9    1  0.2074770E-002  0.2739647E+03  0.7818608E-02  0.1099032E+00
          1   -1    0    0  501    0  0.00000000000E+00  0.00000000000E+00  0.32144438938E+02  0.32144438938E+02  0.00000000000E+00 0. -1.
         -1   -1    0    0    0  501 -0.00000000000E+00 -0.00000000000E+00 -0.58374520190E+03  0.58374520190E+03  0.00000000000E+00 0. -1.
         36    2    1    2    0    0  0.00000000000E+00  0.00000000000E+00 -0.55160076296E+03  0.61588964084E+03  0.27396468384E+03 0.  0.
         25    2    3    3    0    0  0.18265116615E+02 -0.29670538617E+02 -0.35476833100E+03  0.37865245169E+03  0.12768380924E+03 0.  0.
         25    2    3    3    0    0 -0.18265116615E+02  0.29670538617E+02 -0.19683243196E+03  0.23723718915E+03  0.12776745398E+03 0.  0.
          5    1    4    4  502    0 -0.39701724458E+02 -0.28502670506E+01 -0.37175879381E+02  0.54667055481E+02  0.47000000000E+01 0.  1.
         -5    1    4    4    0  502  0.57966841073E+02 -0.26820271566E+02 -0.31759245162E+03  0.32398539621E+03  0.47000000000E+01 0.  1.
          5    1    5    5  503    0 -0.46119331066E+02 -0.32419850784E+02 -0.12983815462E+03  0.14162653642E+03  0.47000000000E+01 0. -1.
         -5    1    5    5    0  503  0.27854214451E+02  0.62090389401E+02 -0.66994277334E+02  0.95610652723E+02  0.47000000000E+01 0. -1.
<mgrwt>
<rscale>  0 0.27396468E+03</rscale>
<asrwt>0</asrwt>
<pdfrwt beam="1">  1        1 0.49452982E-02 0.27396468E+03</pdfrwt>
<pdfrwt beam="2">  1       -1 0.89806956E-01 0.27396468E+03</pdfrwt>
<totfact> 0.21541808E+03</totfact>
</mgrwt>
</event>
<event>
 9    1  0.2074770E-002  0.2750357E+03  0.7818608E-02  0.1098432E+00
         -1   -1    0    0    0  501 -0.00000000000E+00  0.00000000000E+00  0.12620426156E+02  0.12620426156E+02  0.00000000000E+00 0. -1.
          1   -1    0    0  501    0  0.00000000000E+00 -0.00000000000E+00 -0.14984567991E+04  0.14984567991E+04  0.00000000000E+00 0. -1.
         36    2    1    2    0    0  0.00000000000E+00  0.00000000000E+00 -0.14858363730E+04  0.15110772253E+04  0.27503573136E+03 0.  0.
         25    2    3    3    0    0 -0.30289032857E+02 -0.24494476773E+02 -0.86356929107E+03  0.87438701120E+03  0.13146604114E+03 0.  0.
         25    2    3    3    0    0  0.30289032857E+02  0.24494476773E+02 -0.62226708191E+03  0.63669021409E+03  0.12899884724E+03 0.  0.
          5    1    4    4  502    0  0.51618475967E+02 -0.11451644319E+02 -0.28757961199E+03  0.29243756676E+03  0.47000000000E+01 0.  1.
         -5    1    4    4    0  502 -0.81907508824E+02 -0.13042832453E+02 -0.57598967908E+03  0.58194944444E+03  0.47000000000E+01 0.  1.
          5    1    5    5  503    0 -0.22497267594E+02 -0.26856059005E+02 -0.60283054682E+02  0.69882126730E+02  0.47000000000E+01 0.  1.
         -5    1    5    5    0  503  0.52786300451E+02  0.51350535778E+02 -0.56198402723E+03  0.56680808736E+03  0.47000000000E+01 0.  1.
<mgrwt>
<rscale>  0 0.27503573E+03</rscale>
<asrwt>0</asrwt>
<pdfrwt beam="1">  1        1 0.23053186E+00 0.27503573E+03</pdfrwt>
<pdfrwt beam="2">  1       -1 0.19416036E-02 0.27503573E+03</pdfrwt>
<totfact> 0.51367570E+03</totfact>
</mgrwt>
</event>
<event>
 9    1  0.2074770E-002  0.2747727E+03  0.7818608E-02  0.1098579E+00
          1   -1    0    0  501    0  0.00000000000E+00  0.00000000000E+00  0.12780884302E+04  0.12780884302E+04  0.00000000000E+00 0. -1.
         -1   -1    0    0    0  501 -0.00000000000E+00 -0.00000000000E+00 -0.14768154867E+02  0.14768154867E+02  0.00000000000E+00 0. -1.
         36    2    1    2    0    0 -0.71054273576E-14  0.00000000000E+00  0.12633202753E+04  0.12928565851E+04  0.27477269057E+03 0.  0.
         25    2    3    3    0    0  0.16954220512E+02 -0.52516319808E+02  0.49757690775E+03  0.51604057948E+03  0.12517863677E+03 0.  0.
         25    2    3    3    0    0 -0.16954220512E+02  0.52516319808E+02  0.76574336758E+03  0.77681600559E+03  0.11846852790E+03 0.  0.
          5    1    4    4  502    0  0.45678650534E+02  0.26205005714E+02  0.19377563825E+03  0.20085897894E+03  0.47000000000E+01 0.  1.
         -5    1    4    4    0  502 -0.28724430022E+02 -0.78721325522E+02  0.30380126950E+03  0.31518160054E+03  0.47000000000E+01 0.  1.
          5    1    5    5  503    0 -0.48303493836E+02  0.36832078272E+02  0.69557615803E+03  0.69823929360E+03  0.47000000000E+01 0. -1.
         -5    1    5    5    0  503  0.31349273324E+02  0.15684241536E+02  0.70167209549E+02  0.78576711985E+02  0.47000000000E+01 0. -1.
<mgrwt>
<rscale>  0 0.27477269E+03</rscale>
<asrwt>0</asrwt>
<pdfrwt beam="1">  1        1 0.19662890E+00 0.27477269E+03</pdfrwt>
<pdfrwt beam="2">  1       -1 0.22720248E-02 0.27477269E+03</pdfrwt>
<totfact> 0.57441799E+03</totfact>
</mgrwt>
</event>
<event>
 9    1  0.2074770E-002  0.2745668E+03  0.7818608E-02  0.1098694E+00
          1   -1    0    0  501    0  0.00000000000E+00  0.00000000000E+00  0.10267823582E+04  0.10267823582E+04  0.00000000000E+00 0. -1.
         -1   -1    0    0    0  501 -0.00000000000E+00 -0.00000000000E+00 -0.18355133961E+02  0.18355133961E+02  0.00000000000E+00 0. -1.
         36    2    1    2    0    0  0.71054273576E-14  0.35527136788E-14  0.10084272242E+04  0.10451374921E+04  0.27456676954E+03 0.  0.
         25    2    3    3    0    0  0.56225620686E+02 -0.40025671342E+01  0.46430787211E+03  0.48350537889E+03  0.12254921600E+03 0.  0.
         25    2    3    3    0    0 -0.56225620686E+02  0.40025671342E+01  0.54411935210E+03  0.56163211325E+03  0.12722979342E+03 0.  0.
          5    1    4    4  502    0  0.59122379597E+02  0.23416276931E+02  0.10315898803E+03  0.12127507825E+03  0.47000000000E+01 0.  1.
         -5    1    4    4    0  502 -0.28967589117E+01 -0.27418844065E+02  0.36114888409E+03  0.36223030064E+03  0.47000000000E+01 0.  1.
          5    1    5    5  503    0  0.31184717825E+02  0.13999432770E+02  0.30229173333E+03  0.30425458548E+03  0.47000000000E+01 0. -1.
         -5    1    5    5    0  503 -0.87410338511E+02 -0.99968656359E+01  0.24182761877E+03  0.25737752777E+03  0.47000000000E+01 0. -1.
<mgrwt>
<rscale>  0 0.27456677E+03</rscale>
<asrwt>0</asrwt>
<pdfrwt beam="1">  1        1 0.15796647E+00 0.27456677E+03</pdfrwt>
<pdfrwt beam="2">  1       -1 0.28238676E-02 0.27456677E+03</pdfrwt>
<totfact> 0.62952653E+03</totfact>
</mgrwt>
</event>
<event>
 9    1  0.2074770E-002  0.2753564E+03  0.7818608E-02  0.1098253E+00
         -2   -1    0    0    0  501 -0.00000000000E+00  0.00000000000E+00  0.30413820814E+02  0.30413820814E+02  0.00000000000E+00 0.  1.
          2   -1    0    0  501    0  0.00000000000E+00 -0.00000000000E+00 -0.62324600941E+03  0.62324600941E+03  0.00000000000E+00 0.  1.
         36    2    1    2    0    0  0.00000000000E+00 -0.71054273576E-14 -0.59283218859E+03  0.65365983022E+03  0.27535644138E+03 0.  0.
         25    2    3    3    0    0  0.34666414030E+02  0.36886867485E+02 -0.31846021248E+03  0.34706240784E+03  0.12834721168E+03 0.  0.
         25    2    3    3    0    0 -0.34666414030E+02 -0.36886867485E+02 -0.27437197611E+03  0.30659742238E+03  0.12712040309E+03 0.  0.
          5    1    4    4  502    0  0.71546752208E+02  0.18099153646E+02 -0.98377084503E+02  0.12307175902E+03  0.47000000000E+01 0.  1.
         -5    1    4    4    0  502 -0.36880338178E+02  0.18787713839E+02 -0.22008312798E+03  0.22399064882E+03  0.47000000000E+01 0.  1.
          5    1    5    5  503    0  0.39551607629E+02  0.14483893736E+02 -0.12520646581E+03  0.13218495347E+03  0.47000000000E+01 0. -1.
         -5    1    5    5    0  503 -0.74218021659E+02 -0.51370761221E+02 -0.14916551030E+03  0.17441246891E+03  0.47000000000E+01 0. -1.
<mgrwt>
<rscale>  0 0.27535644E+03</rscale>
<asrwt>0</asrwt>
<pdfrwt beam="1">  1        2 0.95883995E-01 0.27535644E+03</pdfrwt>
<pdfrwt beam="2">  1       -2 0.46790496E-02 0.27535644E+03</pdfrwt>
<totfact> 0.10404889E+04</totfact>
</mgrwt>
</event>
<event>
 9    1  0.2074770E-002  0.2675524E+03  0.7818608E-02  0.1102689E+00
         -1   -1    0    0    0  501 -0.00000000000E+00  0.00000000000E+00  0.25107422646E+02  0.25107422646E+02  0.00000000000E+00 0. -1.
          1   -1    0    0  501    0  0.00000000000E+00 -0.00000000000E+00 -0.71278014196E+03  0.71278014196E+03  0.00000000000E+00 0. -1.
         36    2    1    2    0    0 -0.71054273576E-14 -0.10658141036E-13 -0.68767271931E+03  0.73788756461E+03  0.26755240442E+03 0.  0.
         25    2    3    3    0    0 -0.34778351659E+02 -0.17973149177E+02 -0.32383503110E+03  0.34894109651E+03  0.12392817934E+03 0.  0.
         25    2    3    3    0    0  0.34778351659E+02  0.17973149177E+02 -0.36383768822E+03  0.38894646809E+03  0.13179121307E+03 0.  0.
          5    1    4    4  502    0  0.69441866554E+01 -0.65739914503E+02 -0.15856799552E+03  0.17185999328E+03  0.47000000000E+01 0.  1.
         -5    1    4    4    0  502 -0.41722538315E+02  0.47766765325E+02 -0.16526703558E+03  0.17708110323E+03  0.47000000000E+01 0.  1.
          5    1    5    5  503    0  0.82746404086E+02  0.28341962944E+02 -0.21507738812E+03  0.23222964310E+03  0.47000000000E+01 0.  1.
         -5    1    5    5    0  503 -0.47968052427E+02 -0.10368813767E+02 -0.14876030010E+03  0.15671682500E+03  0.47000000000E+01 0.  1.
<mgrwt>
<rscale>  0 0.26755240E+03</rscale>
<asrwt>0</asrwt>
<pdfrwt beam="1">  1        1 0.10965848E+00 0.26755240E+03</pdfrwt>
<pdfrwt beam="2">  1       -1 0.38626806E-02 0.26755240E+03</pdfrwt>
<totfact> 0.70842593E+03</totfact>
</mgrwt>
</event>
<event>
 9    1  0.2074770E-002  0.2752084E+03  0.7818608E-02  0.1098335E+00
         -2   -1    0    0    0  501 -0.00000000000E+00  0.00000000000E+00  0.92587516446E+02  0.92587516446E+02  0.00000000000E+00 0.  1.
          2   -1    0    0  501    0  0.00000000000E+00 -0.00000000000E+00 -0.20450834923E+03  0.20450834923E+03  0.00000000000E+00 0.  1.
         36    2    1    2    0    0 -0.71054273576E-14  0.00000000000E+00 -0.11192083278E+03  0.29709586567E+03  0.27520843117E+03 0.  0.
         25    2    3    3    0    0  0.51626361243E+02 -0.40776364860E+02 -0.27673226752E+02  0.14101759856E+03  0.12162303449E+03 0.  0.
         25    2    3    3    0    0 -0.51626361243E+02  0.40776364860E+02 -0.84247606029E+02  0.15607826711E+03  0.11373114453E+03 0.  0.
          5    1    4    4  502    0  0.10799105656E+02  0.17621022159E+02  0.38315817347E+02  0.43787132400E+02  0.47000000000E+01 0. -1.
         -5    1    4    4    0  502  0.40827255587E+02 -0.58397387019E+02 -0.65989044099E+02  0.97230466164E+02  0.47000000000E+01 0. -1.
          5    1    5    5  503    0 -0.82401783276E+02  0.74611746884E+01 -0.69493189048E+02  0.10815320771E+03  0.47000000000E+01 0.  1.
         -5    1    5    5    0  503  0.30775422033E+02  0.33315190172E+02 -0.14754416982E+02  0.47925059394E+02  0.47000000000E+01 0.  1.
<mgrwt>
<rscale>  0 0.27520843E+03</rscale>
<asrwt>0</asrwt>
<pdfrwt beam="1">  1        2 0.31462823E-01 0.27520843E+03</pdfrwt>
<pdfrwt beam="2">  1       -2 0.14244233E-01 0.27520843E+03</pdfrwt>
<totfact> 0.61590856E+03</totfact>
</mgrwt>
</event>
<event>
 9    1  0.2074770E-002  0.2759951E+03  0.7818608E-02  0.1097897E+00
          2   -1    0    0  501    0  0.00000000000E+00  0.00000000000E+00  0.12595099246E+02  0.12595099246E+02  0.00000000000E+00 0.  1.
         -2   -1    0    0    0  501 -0.00000000000E+00 -0.00000000000E+00 -0.15119634945E+04  0.15119634945E+04  0.00000000000E+00 0.  1.
         36    2    1    2    0    0  0.00000000000E+00 -0.71054273576E-14 -0.14993683953E+04  0.15245585938E+04  0.27599514684E+03 0.  0.
         25    2    3    3    0    0  0.39190667089E+01 -0.31722914846E+02 -0.10059626531E+04  0.10145448046E+04  0.12774427057E+03 0.  0.
         25    2    3    3    0    0 -0.39190667089E+01  0.31722914846E+02 -0.49340574215E+03  0.51001378916E+03  0.12507252431E+03 0.  0.
          5    1    4    4  502    0  0.48316609480E+02 -0.49233371399E+02 -0.80395728980E+03  0.80692492429E+03  0.47000000000E+01 0.  1.
         -5    1    4    4    0  502 -0.44397542772E+02  0.17510456553E+02 -0.20200536332E+03  0.20761988032E+03  0.47000000000E+01 0.  1.
          5    1    5    5  503    0  0.52992717867E+02 -0.10414271808E+02 -0.15386494898E+03  0.16313551952E+03  0.47000000000E+01 0. -1.
         -5    1    5    5    0  503 -0.56911784576E+02  0.42137186653E+02 -0.33954079316E+03  0.34687826963E+03  0.47000000000E+01 0. -1.
<mgrwt>
<rscale>  0 0.27599515E+03</rscale>
<asrwt>0</asrwt>
<pdfrwt beam="1">  1        2 0.19377066E-02 0.27599515E+03</pdfrwt>
<pdfrwt beam="2">  1       -2 0.23260988E+00 0.27599515E+03</pdfrwt>
<totfact> 0.52048696E+02</totfact>
</mgrwt>
</event>
<event>
 9    1  0.2074770E-002  0.2751200E+03  0.7818608E-02  0.1098385E+00
          2   -1    0    0  501    0  0.00000000000E+00  0.00000000000E+00  0.27250941515E+04  0.27250941515E+04  0.00000000000E+00 0.  1.
         -2   -1    0    0    0  501 -0.00000000000E+00 -0.00000000000E+00 -0.69438914313E+01  0.69438914313E+01  0.00000000000E+00 0.  1.
         36    2    1    2    0    0 -0.35527136788E-14  0.71054273576E-14  0.27181502601E+04  0.27320380430E+04  0.27512003146E+03 0.  0.
         25    2    3    3    0    0  0.25885459479E+02  0.18046014360E+02  0.77046759124E+03  0.78027004495E+03  0.11918606565E+03 0.  0.
         25    2    3    3    0    0 -0.25885459479E+02 -0.18046014360E+02  0.19476826689E+04  0.19517679980E+04  0.12220811695E+03 0.  0.
          5    1    4    4  502    0  0.39607676178E+00  0.11424345058E+02  0.73842446143E+03  0.73852789235E+03  0.47000000000E+01 0. -1.
         -5    1    4    4    0  502  0.25489382717E+02  0.66216693026E+01  0.32043129805E+02  0.41742152596E+02  0.47000000000E+01 0. -1.
          5    1    5    5  503    0 -0.23976210564E+02  0.48619665655E+02  0.11507322037E+04  0.11520179796E+04  0.47000000000E+01 0.  1.
         -5    1    5    5    0  503 -0.19092489154E+01 -0.66665680015E+02  0.79695046514E+03  0.79975001845E+03  0.47000000000E+01 0.  1.
<mgrwt>
<rscale>  0 0.27512003E+03</rscale>
<asrwt>0</asrwt>
<pdfrwt beam="1">  1        2 0.41924440E+00 0.27512003E+03</pdfrwt>
<pdfrwt beam="2">  1       -2 0.10682932E-02 0.27512003E+03</pdfrwt>
<totfact> 0.58208156E+03</totfact>
</mgrwt>
</event>
<event>
 9    1  0.2074770E-002  0.2739163E+03  0.7818608E-02  0.1099059E+00
         -4   -1    0    0    0  501 -0.00000000000E+00  0.00000000000E+00  0.95283269922E+02  0.95283269922E+02  0.00000000000E+00 0. -1.
          4   -1    0    0  501    0  0.00000000000E+00 -0.00000000000E+00 -0.19686071408E+03  0.19686071408E+03  0.00000000000E+00 0. -1.
         36    2    1    2    0    0  0.71054273576E-14 -0.71054273576E-14 -0.10157744415E+03  0.29214398400E+03  0.27391628324E+03 0.  0.
         25    2    3    3    0    0 -0.20319609515E+02  0.23859387740E+02 -0.15793476349E+02  0.13147271430E+03  0.12670234329E+03 0.  0.
         25    2    3    3    0    0  0.20319609515E+02 -0.23859387740E+02 -0.85783967806E+02  0.16067126970E+03  0.13219005583E+03 0.  0.
          5    1    4    4  502    0  0.52959675576E+02  0.18794425024E+02 -0.12694937388E+02  0.57803192684E+02  0.47000000000E+01 0. -1.
         -5    1    4    4    0  502 -0.73279285091E+02  0.50649627161E+01 -0.30985389607E+01  0.73669521612E+02  0.47000000000E+01 0. -1.
          5    1    5    5  503    0  0.74591226802E+02 -0.28063005325E+02 -0.62003621470E+02  0.10108373984E+03  0.47000000000E+01 0. -1.
         -5    1    5    5    0  503 -0.54271617287E+02  0.42036175847E+01 -0.23780346336E+02  0.59587529866E+02  0.47000000000E+01 0. -1.
<mgrwt>
<rscale>  0 0.27391628E+03</rscale>
<asrwt>0</asrwt>
<pdfrwt beam="1">  1        4 0.30286263E-01 0.27391628E+03</pdfrwt>
<pdfrwt beam="2">  1       -4 0.14658965E-01 0.27391628E+03</pdfrwt>
<totfact> 0.76809498E+02</totfact>
</mgrwt>
</event>
<event>
 9    1  0.2074770E-002  0.2751536E+03  0.7818608E-02  0.1098366E+00
         -2   -1    0    0    0  501 -0.00000000000E+00  0.00000000000E+00  0.37769786169E+01  0.37769786169E+01  0.00000000000E+00 0.  1.
          2   -1    0    0  501    0  0.00000000000E+00 -0.00000000000E+00 -0.50112482036E+04  0.50112482036E+04  0.00000000000E+00 0.  1.
         36    2    1    2    0    0  0.00000000000E+00 -0.71054273576E-14 -0.50074712250E+04  0.50150251822E+04  0.27515361026E+03 0.  0.
         25    2    3    3    0    0 -0.37284301108E+02  0.36518715487E+02 -0.19959257140E+04  0.20004304420E+04  0.12360728845E+03 0.  0.
         25    2    3    3    0    0  0.37284301108E+02 -0.36518715487E+02 -0.30115455110E+04  0.30145947402E+04  0.12510534509E+03 0.  0.
          5    1    4    4  502    0  0.46107732514E+01  0.21826339916E+02 -0.17694201734E+04  0.17695670341E+04  0.47000000000E+01 0. -1.
         -5    1    4    4    0  502 -0.41895074360E+02  0.14692375571E+02 -0.22650554066E+03  0.23086340790E+03  0.47000000000E+01 0. -1.
          5    1    5    5  503    0 -0.33554497507E+02 -0.23493717459E+02 -0.41431682161E+03  0.41636327615E+03  0.47000000000E+01 0. -1.
         -5    1    5    5    0  503  0.70838798615E+02 -0.13024998028E+02 -0.25972286894E+04  0.25982314640E+04  0.47000000000E+01 0. -1.
<mgrwt>
<rscale>  0 0.27515361E+03</rscale>
<asrwt>0</asrwt>
<pdfrwt beam="1">  1        2 0.77096176E+00 0.27515361E+03</pdfrwt>
<pdfrwt beam="2">  1       -2 0.58107326E-03 0.27515361E+03</pdfrwt>
<totfact> 0.22948457E+02</totfact>
</mgrwt>
</event>
<event>
 9    1  0.2074770E-002  0.2759585E+03  0.7818608E-02  0.1097917E+00
          1   -1    0    0  501    0  0.00000000000E+00  0.00000000000E+00  0.17800960993E+03  0.17800960993E+03  0.00000000000E+00 0.  1.
         -1   -1    0    0    0  501 -0.00000000000E+00 -0.00000000000E+00 -0.10695085452E+03  0.10695085452E+03  0.00000000000E+00 0.  1.
         36    2    1    2    0    0  0.00000000000E+00  0.00000000000E+00  0.71058755416E+02  0.28496046445E+03  0.27595854685E+03 0.  0.
         25    2    3    3    0    0 -0.23109047409E+02  0.50954464923E+02  0.38634923490E+02  0.14217281193E+03  0.12486018410E+03 0.  0.
         25    2    3    3    0    0  0.23109047409E+02 -0.50954464923E+02  0.32423831926E+02  0.14278765252E+03  0.12730523660E+03 0.  0.
          5    1    4    4  502    0 -0.33321837758E+02 -0.28018778548E+02 -0.14728572741E+02  0.46199758418E+02  0.47000000000E+01 0. -1.
         -5    1    4    4    0  502  0.10212790350E+02  0.78973243471E+02  0.53363496231E+02  0.95973053516E+02  0.47000000000E+01 0. -1.
          5    1    5    5  503    0  0.15450712739E+02 -0.52371352097E+02 -0.41225135441E+02  0.68579040798E+02  0.47000000000E+01 0. -1.
         -5    1    5    5    0  503  0.76583346698E+01  0.14168871742E+01  0.73648967366E+02  0.74208611719E+02  0.47000000000E+01 0. -1.
<mgrwt>
<rscale>  0 0.27595855E+03</rscale>
<asrwt>0</asrwt>
<pdfrwt beam="1">  1        1 0.27386094E-01 0.27595855E+03</pdfrwt>
<pdfrwt beam="2">  1       -1 0.16453978E-01 0.27595855E+03</pdfrwt>
<totfact> 0.46834574E+03</totfact>
</mgrwt>
</event>
<event>
 9    1  0.2074770E-002  0.2746785E+03  0.7818608E-02  0.1098631E+00
          1   -1    0    0  501    0  0.00000000000E+00  0.00000000000E+00  0.48513358437E+03  0.48513358437E+03  0.00000000000E+00 0. -1.
         -1   -1    0    0    0  501 -0.00000000000E+00 -0.00000000000E+00 -0.38880144387E+02  0.38880144387E+02  0.00000000000E+00 0. -1.
         36    2    1    2    0    0  0.35527136788E-14 -0.71054273576E-14  0.44625343999E+03  0.52401372876E+03  0.27467845789E+03 0.  0.
         25    2    3    3    0    0  0.25038373084E+02 -0.51888966787E+02  0.20582544915E+03  0.24744075377E+03  0.12467327744E+03 0.  0.
         25    2    3    3    0    0 -0.25038373084E+02  0.51888966787E+02  0.24042799083E+03  0.27657297499E+03  0.12396615149E+03 0.  0.
          5    1    4    4  502    0 -0.56398687852E+01 -0.39150746434E+02  0.95809964160E+00  0.39844661137E+02  0.47000000000E+01 0.  1.
         -5    1    4    4    0  502  0.30678241870E+02 -0.12738220354E+02  0.20486734951E+03  0.20759609264E+03  0.47000000000E+01 0.  1.
          5    1    5    5  503    0 -0.34839903823E+02  0.87410706805E+02  0.13366977690E+03  0.16353638683E+03  0.47000000000E+01 0. -1.
         -5    1    5    5    0  503  0.98015307384E+01 -0.35521740018E+02  0.10675821393E+03  0.11303658815E+03  0.47000000000E+01 0. -1.
<mgrwt>
<rscale>  0 0.27467846E+03</rscale>
<asrwt>0</asrwt>
<pdfrwt beam="1">  1        1 0.74635932E-01 0.27467846E+03</pdfrwt>
<pdfrwt beam="2">  1       -1 0.59815610E-02 0.27467846E+03</pdfrwt>
<totfact> 0.62802568E+03</totfact>
</mgrwt>
</event>
<event>
 9    1  0.2074770E-002  0.2751192E+03  0.7818608E-02  0.1098385E+00
         -1   -1    0    0    0  501 -0.00000000000E+00  0.00000000000E+00  0.15624765890E+04  0.15624765890E+04  0.00000000000E+00 0. -1.
          1   -1    0    0  501    0  0.00000000000E+00 -0.00000000000E+00 -0.12110673818E+02  0.12110673818E+02  0.00000000000E+00 0. -1.
         36    2    1    2    0    0  0.71054273576E-14  0.00000000000E+00  0.15503659152E+04  0.15745872629E+04  0.27511920557E+03 0.  0.
         25    2    3    3    0    0  0.46208113212E+02  0.26739139371E+02  0.93468075308E+03  0.94440451737E+03  0.12418377890E+03 0.  0.
         25    2    3    3    0    0 -0.46208113212E+02 -0.26739139371E+02  0.61568516214E+03  0.63018274549E+03  0.12333654176E+03 0.  0.
          5    1    4    4  502    0  0.57676996497E+02 -0.27475311685E+02  0.71232189056E+03  0.71519654253E+03  0.47000000000E+01 0. -1.
         -5    1    4    4    0  502 -0.11468883285E+02  0.54214451056E+02  0.22235886252E+03  0.22920797484E+03  0.47000000000E+01 0. -1.
          5    1    5    5  503    0  0.31492906452E+02 -0.22070497082E+02  0.37914545566E+03  0.38111976667E+03  0.47000000000E+01 0. -1.
         -5    1    5    5    0  503 -0.77701019664E+02 -0.46686422885E+01  0.23653970648E+03  0.24906297882E+03  0.47000000000E+01 0. -1.
<mgrwt>
<rscale>  0 0.27511921E+03</rscale>
<asrwt>0</asrwt>
<pdfrwt beam="1">  1        1 0.18631818E-02 0.27511921E+03</pdfrwt>
<pdfrwt beam="2">  1       -1 0.24038085E+00 0.27511921E+03</pdfrwt>
<totfact> 0.61052498E+02</totfact>
</mgrwt>
</event>
<event>
 8    1  0.2074770E-002  0.2918557E+03  0.7818608E-02  0.1089384E+00
         -1   -1    0    0    0  501 -0.00000000000E+00  0.00000000000E+00  0.75239268880E+02  0.75239268880E+02  0.00000000000E+00 0. -1.
          1   -1    0    0  501    0  0.00000000000E+00 -0.00000000000E+00 -0.28302954035E+03  0.28302954035E+03  0.00000000000E+00 0. -1.
         25    2    1    2    0    0 -0.27987639144E+02  0.63385966749E+02 -0.76499058702E+02  0.16211475731E+03  0.12501199874E+03 0.  0.
         25    2    1    2    0    0  0.27987639144E+02 -0.63385966749E+02 -0.13129121277E+03  0.19615405193E+03  0.12821053315E+03 0.  0.
          5    1    3    3  502    0  0.25240649547E+02  0.69904367427E+02 -0.78592209772E+01  0.74883698689E+02  0.47000000000E+01 0.  1.
         -5    1    3    3    0  502 -0.53228288692E+02 -0.65184006788E+01 -0.68639837725E+02  0.87231058617E+02  0.47000000000E+01 0.  1.
          5    1    4    4  503    0 -0.28912434405E+02 -0.46973775026E+02 -0.37844463333E+01  0.55487624183E+02  0.47000000000E+01 0. -1.
         -5    1    4    4    0  503  0.56900073549E+02 -0.16412191723E+02 -0.12750676644E+03  0.14066642774E+03  0.47000000000E+01 0. -1.
<mgrwt>
<rscale>  0 0.29185569E+03</rscale>
<asrwt>0</asrwt>
<pdfrwt beam="1">  1        1 0.43543005E-01 0.29185569E+03</pdfrwt>
<pdfrwt beam="2">  1       -1 0.11575272E-01 0.29185569E+03</pdfrwt>
<totfact> 0.45578133E+03</totfact>
</mgrwt>
</event>
<event>
 9    1  0.2074770E-002  0.2761809E+03  0.7818608E-02  0.1097793E+00
          4   -1    0    0  501    0  0.00000000000E+00  0.00000000000E+00  0.10148518729E+03  0.10148518729E+03  0.00000000000E+00 0.  1.
         -4   -1    0    0    0  501 -0.00000000000E+00 -0.00000000000E+00 -0.18789904679E+03  0.18789904679E+03  0.00000000000E+00 0.  1.
         36    2    1    2    0    0  0.14210854715E-13 -0.17763568394E-14 -0.86413859500E+02  0.28938423408E+03  0.27618088243E+03 0.  0.
         25    2    3    3    0    0 -0.57195434356E+02  0.12670990885E+02 -0.64252988227E+02  0.14914697278E+03  0.12117962400E+03 0.  0.
         25    2    3    3    0    0  0.57195434356E+02 -0.12670990885E+02 -0.22160871273E+02  0.14023726130E+03  0.12547315856E+03 0.  0.
          5    1    4    4  502    0  0.11751624808E+02  0.12134029820E+02  0.28510258694E+02  0.33470288557E+02  0.47000000000E+01 0.  1.
         -5    1    4    4    0  502 -0.68947059163E+02  0.53696106523E+00 -0.92763246920E+02  0.11567668423E+03  0.47000000000E+01 0.  1.
          5    1    5    5  503    0  0.77471127272E+02  0.74796958899E+01 -0.55770650597E+02  0.95865410234E+02  0.47000000000E+01 0.  1.
         -5    1    5    5    0  503 -0.20275692916E+02 -0.20150686775E+02  0.33609779324E+02  0.44371851065E+02  0.47000000000E+01 0.  1.
<mgrwt>
<rscale>  0 0.27618088E+03</rscale>
<asrwt>0</asrwt>
<pdfrwt beam="1">  1        4 0.15613106E-01 0.27618088E+03</pdfrwt>
<pdfrwt beam="2">  1       -4 0.28907545E-01 0.27618088E+03</pdfrwt>
<totfact> 0.75189597E+02</totfact>
</mgrwt>
</event>
<event>
 9    1  0.2074770E-002  0.2758133E+03  0.7818608E-02  0.1097998E+00
         -2   -1    0    0    0  501 -0.00000000000E+00  0.00000000000E+00  0.27796988010E+02  0.27796988010E+02  0.00000000000E+00 0.  1.
          2   -1    0    0  501    0  0.00000000000E+00 -0.00000000000E+00 -0.68418365671E+03  0.68418365671E+03  0.00000000000E+00 0.  1.
         36    2    1    2    0    0 -0.14210854715E-13  0.17763568394E-14 -0.65638666870E+03  0.71198064472E+03  0.27581330571E+03 0.  0.
         25    2    3    3    0    0 -0.55314843673E+02  0.60039786726E+01 -0.26216604841E+03  0.29502288944E+03  0.12333567473E+03 0.  0.
         25    2    3    3    0    0  0.55314843673E+02 -0.60039786726E+01 -0.39422062029E+03  0.41695775528E+03  0.12388741881E+03 0.  0.
          5    1    4    4  502    0  0.39463156184E+02  0.41997554015E+01 -0.88758626971E+02  0.97340446389E+02  0.47000000000E+01 0. -1.
         -5    1    4    4    0  502 -0.94777999857E+02  0.18042232711E+01 -0.17340742144E+03  0.19768244305E+03  0.47000000000E+01 0. -1.
          5    1    5    5  503    0 -0.32932774832E+02 -0.28480352770E+02 -0.15030418180E+03  0.15655393709E+03  0.47000000000E+01 0. -1.
         -5    1    5    5    0  503  0.88247618506E+02  0.22476374097E+02 -0.24391643849E+03  0.26040381819E+03  0.47000000000E+01 0. -1.
<mgrwt>
<rscale>  0 0.27581331E+03</rscale>
<asrwt>0</asrwt>
<pdfrwt beam="1">  1        2 0.10525901E+00 0.27581331E+03</pdfrwt>
<pdfrwt beam="2">  1       -2 0.42764601E-02 0.27581331E+03</pdfrwt>
<totfact> 0.10670514E+04</totfact>
</mgrwt>
</event>
<event>
 9    1  0.2074770E-002  0.2787276E+03  0.7818608E-02  0.1096386E+00
         -2   -1    0    0    0  501 -0.00000000000E+00  0.00000000000E+00  0.99400570752E+01  0.99400570752E+01  0.00000000000E+00 0. -1.
          2   -1    0    0  501    0  0.00000000000E+00 -0.00000000000E+00 -0.19539390636E+04  0.19539390636E+04  0.00000000000E+00 0. -1.
         36    2    1    2    0    0  0.00000000000E+00 -0.35527136788E-14 -0.19439990065E+04  0.19638791207E+04  0.27872757893E+03 0.  0.
         25    2    3    3    0    0  0.14318067689E+02  0.25744049103E+02 -0.13208289037E+04  0.13274426108E+04  0.12902375377E+03 0.  0.
         25    2    3    3    0    0 -0.14318067689E+02 -0.25744049103E+02 -0.62317010288E+03  0.63643650991E+03  0.12586775163E+03 0.  0.
          5    1    4    4  502    0  0.50793882642E+02  0.53622430265E+02 -0.10585826708E+04  0.10611666902E+04  0.47000000000E+01 0. -1.
         -5    1    4    4    0  502 -0.36475814953E+02 -0.27878381162E+02 -0.26224623286E+03  0.26627592054E+03  0.47000000000E+01 0. -1.
          5    1    5    5  503    0 -0.15405461252E+02  0.21715516119E+02 -0.26485148438E+02  0.37847654676E+02  0.47000000000E+01 0. -1.
         -5    1    5    5    0  503  0.10873935633E+01 -0.47459565222E+02 -0.59668495444E+03  0.59858885524E+03  0.47000000000E+01 0. -1.
<mgrwt>
<rscale>  0 0.27872758E+03</rscale>
<asrwt>0</asrwt>
<pdfrwt beam="1">  1        2 0.30060568E+00 0.27872758E+03</pdfrwt>
<pdfrwt beam="2">  1       -2 0.15292412E-02 0.27872758E+03</pdfrwt>
<totfact> 0.90113553E+03</totfact>
</mgrwt>
</event>
<event>
 9    1  0.2074770E-002  0.2750102E+03  0.7818608E-02  0.1098446E+00
         -2   -1    0    0    0  501 -0.00000000000E+00  0.00000000000E+00  0.16078421382E+02  0.16078421382E+02  0.00000000000E+00 0.  1.
          2   -1    0    0  501    0  0.00000000000E+00 -0.00000000000E+00 -0.11759646052E+04  0.11759646052E+04  0.00000000000E+00 0.  1.
         36    2    1    2    0    0  0.00000000000E+00 -0.71054273576E-14 -0.11598861838E+04  0.11920430266E+04  0.27501021402E+03 0.  0.
         25    2    3    3    0    0 -0.13556184418E+02  0.41751200179E+02 -0.57129184856E+03  0.58718068355E+03  0.12837385269E+03 0.  0.
         25    2    3    3    0    0  0.13556184418E+02 -0.41751200179E+02 -0.58859433528E+03  0.60486234305E+03  0.13224307039E+03 0.  0.
          5    1    4    4  502    0  0.94426614868E+01  0.74203597847E+02 -0.19739987854E+03  0.21114956746E+03  0.47000000000E+01 0. -1.
         -5    1    4    4    0  502 -0.22998845905E+02 -0.32452397668E+02 -0.37389197001E+03  0.37603111609E+03  0.47000000000E+01 0. -1.
          5    1    5    5  503    0 -0.48742351385E+02 -0.55220284608E+02 -0.26905241229E+03  0.27899173323E+03  0.47000000000E+01 0. -1.
         -5    1    5    5    0  503  0.62298535803E+02  0.13469084429E+02 -0.31954192299E+03  0.32587060982E+03  0.47000000000E+01 0. -1.
<mgrwt>
<rscale>  0 0.27501021E+03</rscale>
<asrwt>0</asrwt>
<pdfrwt beam="1">  1        2 0.18091771E+00 0.27501021E+03</pdfrwt>
<pdfrwt beam="2">  1       -2 0.24736021E-02 0.27501021E+03</pdfrwt>
<totfact> 0.11627999E+04</totfact>
</mgrwt>
</event>
<event>
 9    1  0.2074770E-002  0.2745761E+03  0.7818608E-02  0.1098689E+00
         -2   -1    0    0    0  501 -0.00000000000E+00  0.00000000000E+00  0.10476471580E+02  0.10476471580E+02  0.00000000000E+00 0. -1.
          2   -1    0    0  501    0  0.00000000000E+00 -0.00000000000E+00 -0.17990804805E+04  0.17990804805E+04  0.00000000000E+00 0. -1.
         36    2    1    2    0    0 -0.14210854715E-13  0.00000000000E+00 -0.17886040089E+04  0.18095569521E+04  0.27457614991E+03 0.  0.
         25    2    3    3    0    0 -0.52238200054E+02  0.32676328389E+02 -0.95424288846E+03  0.96359075097E+03  0.11887419064E+03 0.  0.
         25    2    3    3    0    0  0.52238200054E+02 -0.32676328389E+02 -0.83436112045E+03  0.84596620110E+03  0.12531465238E+03 0.  0.
          5    1    4    4  502    0 -0.48039318104E+01  0.19331300655E+02 -0.22049216732E+02  0.30083798037E+02  0.47000000000E+01 0. -1.
         -5    1    4    4    0  502 -0.47434268243E+02  0.13345027734E+02 -0.93219367173E+03  0.93350695293E+03  0.47000000000E+01 0. -1.
          5    1    5    5  503    0 -0.24844540480E+02  0.25541003111E+02 -0.36371517734E+03  0.36548654457E+03  0.47000000000E+01 0.  1.
         -5    1    5    5    0  503  0.77082740534E+02 -0.58217331499E+02 -0.47064594311E+03  0.48047965653E+03  0.47000000000E+01 0.  1.
<mgrwt>
<rscale>  0 0.27457615E+03</rscale>
<asrwt>0</asrwt>
<pdfrwt beam="1">  1        2 0.27678178E+00 0.27457615E+03</pdfrwt>
<pdfrwt beam="2">  1       -2 0.16117639E-02 0.27457615E+03</pdfrwt>
<totfact> 0.10060169E+04</totfact>
</mgrwt>
</event>
<event>
 9    1  0.2074770E-002  0.2753016E+03  0.7818608E-02  0.1098283E+00
         -1   -1    0    0    0  501 -0.00000000000E+00  0.00000000000E+00  0.82437313642E+03  0.82437313642E+03  0.00000000000E+00 0.  1.
          1   -1    0    0  501    0  0.00000000000E+00 -0.00000000000E+00 -0.22984429779E+02  0.22984429779E+02  0.00000000000E+00 0.  1.
         36    2    1    2    0    0  0.71054273576E-14  0.00000000000E+00  0.80138870664E+03  0.84735756620E+03  0.27530162706E+03 0.  0.
         25    2    3    3    0    0  0.46995687533E+02  0.11921387737E+02  0.54590872310E+03  0.56172793242E+03  0.12317151442E+03 0.  0.
         25    2    3    3    0    0 -0.46995687533E+02 -0.11921387737E+02  0.25547998354E+03  0.28562963378E+03  0.11816747257E+03 0.  0.
          5    1    4    4  502    0  0.20520247992E+02  0.29371672548E+02  0.36677839580E+02  0.51489121591E+02  0.47000000000E+01 0.  1.
         -5    1    4    4    0  502  0.26475439541E+02 -0.17450284811E+02  0.50923088352E+03  0.51023881083E+03  0.47000000000E+01 0.  1.
          5    1    5    5  503    0 -0.26185308859E+02  0.50614298219E+02  0.15652625678E+03  0.16664344165E+03  0.47000000000E+01 0. -1.
         -5    1    5    5    0  503 -0.20810378674E+02 -0.62535685956E+02  0.98953726761E+02  0.11898619213E+03  0.47000000000E+01 0. -1.
<mgrwt>
<rscale>  0 0.27530163E+03</rscale>
<asrwt>0</asrwt>
<pdfrwt beam="1">  1        1 0.35360668E-02 0.27530163E+03</pdfrwt>
<pdfrwt beam="2">  1       -1 0.12682661E+00 0.27530163E+03</pdfrwt>
<totfact> 0.15632359E+03</totfact>
</mgrwt>
</event>
<event>
 9    1  0.2074770E-002  0.2745741E+03  0.7818608E-02  0.1098690E+00
         -2   -1    0    0    0  501 -0.00000000000E+00  0.00000000000E+00  0.29231643801E+02  0.29231643801E+02  0.00000000000E+00 0. -1.
          2   -1    0    0  501    0  0.00000000000E+00 -0.00000000000E+00 -0.64477163991E+03  0.64477163991E+03  0.00000000000E+00 0. -1.
         36    2    1    2    0    0 -0.35527136788E-14  0.88817841970E-15 -0.61553999611E+03  0.67400328371E+03  0.27457410592E+03 0.  0.
         25    2    3    3    0    0 -0.31294937178E+02 -0.34952877485E+01 -0.25064028505E+03  0.28246234012E+03  0.12638366575E+03 0.  0.
         25    2    3    3    0    0  0.31294937178E+02  0.34952877485E+01 -0.36489971106E+03  0.39154094359E+03  0.13842297946E+03 0.  0.
          5    1    4    4  502    0 -0.41496995591E+02 -0.50911423212E+02 -0.20639078460E+03  0.21664076168E+03  0.47000000000E+01 0.  1.
         -5    1    4    4    0  502  0.10202058413E+02  0.47416135463E+02 -0.44249500454E+02  0.65821578442E+02  0.47000000000E+01 0.  1.
          5    1    5    5  503    0  0.42178677270E+01  0.91159336586E+01  0.10394698522E+02  0.15199684602E+02  0.47000000000E+01 0. -1.
         -5    1    5    5    0  503  0.27077069451E+02 -0.56206459101E+01 -0.37529440959E+03  0.37634125899E+03  0.47000000000E+01 0. -1.
<mgrwt>
<rscale>  0 0.27457411E+03</rscale>
<asrwt>0</asrwt>
<pdfrwt beam="1">  1        2 0.99195634E-01 0.27457411E+03</pdfrwt>
<pdfrwt beam="2">  1       -2 0.44971761E-02 0.27457411E+03</pdfrwt>
<totfact> 0.10613855E+04</totfact>
</mgrwt>
</event>
<event>
 9    1  0.2074770E-002  0.2750626E+03  0.7818608E-02  0.1098417E+00
         -2   -1    0    0    0  501 -0.00000000000E+00  0.00000000000E+00  0.70431330507E+01  0.70431330507E+01  0.00000000000E+00 0.  1.
          2   -1    0    0  501    0  0.00000000000E+00 -0.00000000000E+00 -0.26855747770E+04  0.26855747770E+04  0.00000000000E+00 0.  1.
         36    2    1    2    0    0  0.71054273576E-14  0.00000000000E+00 -0.26785316440E+04  0.26926179101E+04  0.27506261449E+03 0.  0.
         25    2    3    3    0    0 -0.40375108915E+02  0.46422845231E+02 -0.13109434880E+04  0.13183364041E+04  0.12511121355E+03 0.  0.
         25    2    3    3    0    0  0.40375108915E+02 -0.46422845231E+02 -0.13675881560E+04  0.13742815059E+04  0.12069408947E+03 0.  0.
          5    1    4    4  502    0  0.15723266588E+01 -0.12267637087E+01  0.69627227934E+00  0.51528589546E+01  0.47000000000E+01 0. -1.
         -5    1    4    4    0  502 -0.41947435573E+02  0.47649608940E+02 -0.13116397603E+04  0.13131835452E+04  0.47000000000E+01 0. -1.
          5    1    5    5  503    0 -0.40772029302E+02 -0.12373563585E+02 -0.62802386814E+03  0.62948513279E+03  0.47000000000E+01 0.  1.
         -5    1    5    5    0  503  0.81147138217E+02 -0.34049281646E+02 -0.73956428782E+03  0.74479637314E+03  0.47000000000E+01 0.  1.
<mgrwt>
<rscale>  0 0.27506261E+03</rscale>
<asrwt>0</asrwt>
<pdfrwt beam="1">  1        2 0.41316509E+00 0.27506261E+03</pdfrwt>
<pdfrwt beam="2">  1       -2 0.10835596E-02 0.27506261E+03</pdfrwt>
<totfact> 0.60020384E+03</totfact>
</mgrwt>
</event>
<event>
 9    1  0.2074770E-002  0.2756882E+03  0.7818608E-02  0.1098068E+00
         -1   -1    0    0    0  501 -0.00000000000E+00  0.00000000000E+00  0.10033078395E+02  0.10033078395E+02  0.00000000000E+00 0. -1.
          1   -1    0    0  501    0  0.00000000000E+00 -0.00000000000E+00 -0.18938355004E+04  0.18938355004E+04  0.00000000000E+00 0. -1.
         36    2    1    2    0    0  0.00000000000E+00  0.00000000000E+00 -0.18838024220E+04  0.19038685788E+04  0.27568823002E+03 0.  0.
         25    2    3    3    0    0  0.24985305847E+02  0.25386814627E+02 -0.12452998874E+04  0.12519609086E+04  0.12395786088E+03 0.  0.
         25    2    3    3    0    0 -0.24985305847E+02 -0.25386814627E+02 -0.63850253463E+03  0.65190767021E+03  0.12660713993E+03 0.  0.
          5    1    4    4  502    0 -0.22160497444E+02  0.62445672036E+02 -0.77232256240E+03  0.77517403207E+03  0.47000000000E+01 0.  1.
         -5    1    4    4    0  502  0.47145803291E+02 -0.37058857408E+02 -0.47297732497E+03  0.47678687651E+03  0.47000000000E+01 0.  1.
          5    1    5    5  503    0  0.49328841427E+01 -0.67182851340E+02 -0.21719668372E+03  0.22745188123E+03  0.47000000000E+01 0.  1.
         -5    1    5    5    0  503 -0.29918189990E+02  0.41796036712E+02 -0.42130585091E+03  0.42445578897E+03  0.47000000000E+01 0.  1.
<mgrwt>
<rscale>  0 0.27568823E+03</rscale>
<asrwt>0</asrwt>
<pdfrwt beam="1">  1        1 0.29135883E+00 0.27568823E+03</pdfrwt>
<pdfrwt beam="2">  1       -1 0.15435530E-02 0.27568823E+03</pdfrwt>
<totfact> 0.39585483E+03</totfact>
</mgrwt>
</event>
<event>
 9    1  0.2074770E-002  0.2746944E+03  0.7818608E-02  0.1098623E+00
         -2   -1    0    0    0  501 -0.00000000000E+00  0.00000000000E+00  0.13160324839E+02  0.13160324839E+02  0.00000000000E+00 0. -1.
          2   -1    0    0  501    0  0.00000000000E+00 -0.00000000000E+00 -0.14334180416E+04  0.14334180416E+04  0.00000000000E+00 0. -1.
         36    2    1    2    0    0  0.00000000000E+00  0.71054273576E-14 -0.14202577167E+04  0.14465783664E+04  0.27469435419E+03 0.  0.
         25    2    3    3    0    0 -0.47977123422E+01  0.48410079535E+01 -0.50430686866E+03  0.52193234023E+03  0.13431863834E+03 0.  0.
         25    2    3    3    0    0  0.47977123422E+01 -0.48410079535E+01 -0.91595084806E+03  0.92464602616E+03  0.12632444036E+03 0.  0.
          5    1    4    4  502    0  0.49378072654E+02 -0.39836602579E+02 -0.26185615934E+03  0.26947335146E+03  0.47000000000E+01 0. -1.
         -5    1    4    4    0  502 -0.54175784996E+02  0.44677610532E+02 -0.24245070932E+03  0.25245898877E+03  0.47000000000E+01 0. -1.
          5    1    5    5  503    0  0.27633821778E+02 -0.44413689385E+02 -0.76648724194E+03  0.76828444339E+03  0.47000000000E+01 0.  1.
         -5    1    5    5    0  503 -0.22836109436E+02  0.39572681432E+02 -0.14946360613E+03  0.15636158277E+03  0.47000000000E+01 0.  1.
<mgrwt>
<rscale>  0 0.27469435E+03</rscale>
<asrwt>0</asrwt>
<pdfrwt beam="1">  1        2 0.22052591E+00 0.27469435E+03</pdfrwt>
<pdfrwt beam="2">  1       -2 0.20246649E-02 0.27469435E+03</pdfrwt>
<totfact> 0.11249635E+04</totfact>
</mgrwt>
</event>
<event>
 9    1  0.2074770E-002  0.2749857E+03  0.7818608E-02  0.1098460E+00
          1   -1    0    0  501    0  0.00000000000E+00  0.00000000000E+00  0.47680567031E+02  0.47680567031E+02  0.00000000000E+00 0.  1.
         -1   -1    0    0    0  501 -0.00000000000E+00 -0.00000000000E+00 -0.39647788672E+03  0.39647788672E+03  0.00000000000E+00 0.  1.
         36    2    1    2    0    0 -0.71054273576E-14 -0.71054273576E-14 -0.34879731969E+03  0.44415845376E+03  0.27498574839E+03 0.  0.
         25    2    3    3    0    0 -0.10773331499E+02 -0.39353494120E+02 -0.10995965828E+03  0.17133163533E+03  0.12489451807E+03 0.  0.
         25    2    3    3    0    0  0.10773331499E+02  0.39353494120E+02 -0.23883766141E+03  0.27282681843E+03  0.12540447430E+03 0.  0.
          5    1    4    4  502    0 -0.46490302818E+02 -0.23113542551E+02 -0.11976334473E+03  0.13061750590E+03  0.47000000000E+01 0. -1.
         -5    1    4    4    0  502  0.35716971319E+02 -0.16239951568E+02  0.98036864511E+01  0.40714129429E+02  0.47000000000E+01 0. -1.
          5    1    5    5  503    0 -0.17713640396E+02  0.68037164370E+02 -0.70636277813E+02  0.99771752189E+02  0.47000000000E+01 0. -1.
         -5    1    5    5    0  503  0.28486971895E+02 -0.28683670250E+02 -0.16820138360E+03  0.17305506624E+03  0.47000000000E+01 0. -1.
<mgrwt>
<rscale>  0 0.27498575E+03</rscale>
<asrwt>0</asrwt>
<pdfrwt beam="1">  1        1 0.73354717E-02 0.27498575E+03</pdfrwt>
<pdfrwt beam="2">  1       -1 0.60996599E-01 0.27498575E+03</pdfrwt>
<totfact> 0.27483986E+03</totfact>
</mgrwt>
</event>
<event>
 9    1  0.2074770E-002  0.2733932E+03  0.7818608E-02  0.1099353E+00
          3   -1    0    0  501    0  0.00000000000E+00  0.00000000000E+00  0.21654960798E+03  0.21654960798E+03  0.00000000000E+00 0.  1.
         -3   -1    0    0    0  501 -0.00000000000E+00 -0.00000000000E+00 -0.86289486031E+02  0.86289486031E+02  0.00000000000E+00 0.  1.
         36    2    1    2    0    0  0.71054273576E-14  0.00000000000E+00  0.13026012195E+03  0.30283909401E+03  0.27339315553E+03 0.  0.
         25    2    3    3    0    0  0.33613364854E+02 -0.34695467700E+02  0.87640485418E+02  0.16390553767E+03  0.12980961759E+03 0.  0.
         25    2    3    3    0    0 -0.33613364854E+02  0.34695467700E+02  0.42619636528E+02  0.13893355634E+03  0.12309535281E+03 0.  0.
          5    1    4    4  502    0  0.61202389701E+02  0.28816878329E+02  0.32155341612E+02  0.75047991152E+02  0.47000000000E+01 0. -1.
         -5    1    4    4    0  502 -0.27589024848E+02 -0.63512346029E+02  0.55485143806E+02  0.88857546518E+02  0.47000000000E+01 0. -1.
          5    1    5    5  503    0 -0.53105135737E+02  0.43444666709E+02  0.73779121005E+02  0.10086150506E+03  0.47000000000E+01 0.  1.
         -5    1    5    5    0  503  0.19491770884E+02 -0.87491990087E+01 -0.31159484477E+02  0.38072051275E+02  0.47000000000E+01 0.  1.
<mgrwt>
<rscale>  0 0.27339316E+03</rscale>
<asrwt>0</asrwt>
<pdfrwt beam="1">  1        3 0.33315324E-01 0.27339316E+03</pdfrwt>
<pdfrwt beam="2">  1       -3 0.13275306E-01 0.27339316E+03</pdfrwt>
<totfact> 0.10258575E+03</totfact>
</mgrwt>
</event>
<event>
 9    1  0.2074770E-002  0.2772235E+03  0.7818608E-02  0.1097215E+00
          2   -1    0    0  501    0  0.00000000000E+00  0.00000000000E+00  0.17024845500E+04  0.17024845500E+04  0.00000000000E+00 0. -1.
         -2   -1    0    0    0  501 -0.00000000000E+00 -0.00000000000E+00 -0.11285400177E+02  0.11285400177E+02  0.00000000000E+00 0. -1.
         36    2    1    2    0    0 -0.71054273576E-14  0.00000000000E+00  0.16911991499E+04  0.17137699502E+04  0.27722351590E+03 0.  0.
         25    2    3    3    0    0  0.32563383297E+02  0.18083048081E-01  0.99909807876E+03  0.10071728120E+04  0.12304360230E+03 0.  0.
         25    2    3    3    0    0 -0.32563383297E+02 -0.18083048081E-01  0.69210107110E+03  0.70659713818E+03  0.13861907806E+03 0.  0.
          5    1    4    4  502    0  0.71009437356E+02 -0.11018072064E+02  0.83907611817E+03  0.84216064987E+03  0.47000000000E+01 0.  1.
         -5    1    4    4    0  502 -0.38446054059E+02  0.11036155112E+02  0.16002196059E+03  0.16501216217E+03  0.47000000000E+01 0.  1.
          5    1    5    5  503    0  0.54307352263E+02 -0.22973312052E+01  0.23103818422E+03  0.23739271010E+03  0.47000000000E+01 0. -1.
         -5    1    5    5    0  503 -0.86870735560E+02  0.22792481571E+01  0.46106288688E+03  0.46920442808E+03  0.47000000000E+01 0. -1.
<mgrwt>
<rscale>  0 0.27722352E+03</rscale>
<asrwt>0</asrwt>
<pdfrwt beam="1">  1        2 0.26192050E+00 0.27722352E+03</pdfrwt>
<pdfrwt beam="2">  1       -2 0.17362168E-02 0.27722352E+03</pdfrwt>
<totfact> 0.10141540E+04</totfact>
</mgrwt>
</event>
<event>
 9    1  0.2074770E-002  0.2755820E+03  0.7818608E-02  0.1098127E+00
          2   -1    0    0  501    0  0.00000000000E+00  0.00000000000E+00  0.15999493553E+03  0.15999493553E+03  0.00000000000E+00 0.  1.
         -2   -1    0    0    0  501 -0.00000000000E+00 -0.00000000000E+00 -0.11866851620E+03  0.11866851620E+03  0.00000000000E+00 0.  1.
         36    2    1    2    0    0 -0.71054273576E-14  0.00000000000E+00  0.41326419326E+02  0.27866345172E+03  0.27558201391E+03 0.  0.
         25    2    3    3    0    0 -0.48852661104E+02 -0.33282061965E+02  0.72060654299E+01  0.13658291871E+03  0.12291740381E+03 0.  0.
         25    2    3    3    0    0  0.48852661104E+02  0.33282061965E+02  0.34120353896E+02  0.14208053301E+03  0.12461300561E+03 0.  0.
          5    1    4    4  502    0 -0.38959796388E+02 -0.15557070312E+02 -0.55944413477E+02  0.70083918059E+02  0.47000000000E+01 0. -1.
         -5    1    4    4    0  502 -0.98928647160E+01 -0.17724991654E+02  0.63150478907E+02  0.66499000651E+02  0.47000000000E+01 0. -1.
          5    1    5    5  503    0  0.66359661236E+02 -0.15986396648E+02  0.52731237844E+02  0.86381959701E+02  0.47000000000E+01 0.  1.
         -5    1    5    5    0  503 -0.17507000133E+02  0.49268458614E+02 -0.18610883948E+02  0.55698573313E+02  0.47000000000E+01 0.  1.
<mgrwt>
<rscale>  0 0.27558201E+03</rscale>
<asrwt>0</asrwt>
<pdfrwt beam="1">  1        2 0.24614605E-01 0.27558201E+03</pdfrwt>
<pdfrwt beam="2">  1       -2 0.18256695E-01 0.27558201E+03</pdfrwt>
<totfact> 0.53438101E+03</totfact>
</mgrwt>
</event>
<event>
 9    1  0.2074770E-002  0.2748735E+03  0.7818608E-02  0.1098522E+00
          1   -1    0    0  501    0  0.00000000000E+00  0.00000000000E+00  0.25341573045E+03  0.25341573045E+03  0.00000000000E+00 0.  1.
         -1   -1    0    0    0  501 -0.00000000000E+00 -0.00000000000E+00 -0.74537024876E+02  0.74537024876E+02  0.00000000000E+00 0.  1.
         36    2    1    2    0    0  0.00000000000E+00 -0.10658141036E-13  0.17887870557E+03  0.32795275533E+03  0.27487345892E+03 0.  0.
         25    2    3    3    0    0  0.16617254562E+02  0.31480315121E+02  0.13309686998E+03  0.18618207377E+03  0.12522717120E+03 0.  0.
         25    2    3    3    0    0 -0.16617254562E+02 -0.31480315121E+02  0.45781835589E+02  0.14177068155E+03  0.12936694434E+03 0.  0.
          5    1    4    4  502    0 -0.75916414155E+01  0.87499752676E+01  0.14867682396E+03  0.14920148481E+03  0.47000000000E+01 0. -1.
         -5    1    4    4    0  502  0.24208895977E+02  0.22730339853E+02 -0.15579953976E+02  0.36980588965E+02  0.47000000000E+01 0. -1.
          5    1    5    5  503    0  0.47337396553E+02  0.13352868225E+02 -0.31097432704E+01  0.49506451150E+02  0.47000000000E+01 0.  1.
         -5    1    5    5    0  503 -0.63954651115E+02 -0.44833183345E+02  0.48891578860E+02  0.92264230401E+02  0.47000000000E+01 0.  1.
<mgrwt>
<rscale>  0 0.27487346E+03</rscale>
<asrwt>0</asrwt>
<pdfrwt beam="1">  1        1 0.38987035E-01 0.27487346E+03</pdfrwt>
<pdfrwt beam="2">  1       -1 0.11467235E-01 0.27487346E+03</pdfrwt>
<totfact> 0.53043751E+03</totfact>
</mgrwt>
</event>
<event>
 9    1  0.2074770E-002  0.2743602E+03  0.7818608E-02  0.1098810E+00
         -2   -1    0    0    0  501 -0.00000000000E+00  0.00000000000E+00  0.57697249097E+02  0.57697249097E+02  0.00000000000E+00 0.  1.
          2   -1    0    0  501    0  0.00000000000E+00 -0.00000000000E+00 -0.32615742748E+03  0.32615742748E+03  0.00000000000E+00 0.  1.
         36    2    1    2    0    0  0.00000000000E+00  0.00000000000E+00 -0.26846017838E+03  0.38385467657E+03  0.27436024740E+03 0.  0.
         25    2    3    3    0    0  0.66971837249E+02  0.53552645076E+01 -0.13012039731E+03  0.18663447289E+03  0.11570308047E+03 0.  0.
         25    2    3    3    0    0 -0.66971837249E+02 -0.53552645076E+01 -0.13833978107E+03  0.19722020369E+03  0.12346662656E+03 0.  0.
          5    1    4    4  502    0  0.51271366220E+02 -0.37099783530E+02 -0.18513386576E+02  0.66105842514E+02  0.47000000000E+01 0.  1.
         -5    1    4    4    0  502  0.15700471029E+02  0.42455048038E+02 -0.11160701073E+03  0.12052863037E+03  0.47000000000E+01 0.  1.
          5    1    5    5  503    0 -0.93073315383E+02  0.14896480682E+02 -0.13351787972E+03  0.16350431609E+03  0.47000000000E+01 0.  1.
         -5    1    5    5    0  503  0.26101478134E+02 -0.20251745190E+02 -0.48219013425E+01  0.33715887599E+02  0.47000000000E+01 0.  1.
<mgrwt>
<rscale>  0 0.27436025E+03</rscale>
<asrwt>0</asrwt>
<pdfrwt beam="1">  1        2 0.50178064E-01 0.27436025E+03</pdfrwt>
<pdfrwt beam="2">  1       -2 0.88765001E-02 0.27436025E+03</pdfrwt>
<totfact> 0.79494131E+03</totfact>
</mgrwt>
</event>
<event>
 9    1  0.2074770E-002  0.2720972E+03  0.7818608E-02  0.1100085E+00
          1   -1    0    0  501    0  0.00000000000E+00  0.00000000000E+00  0.74623068018E+03  0.74623068018E+03  0.00000000000E+00 0. -1.
         -1   -1    0    0    0  501 -0.00000000000E+00 -0.00000000000E+00 -0.24803610903E+02  0.24803610903E+02  0.00000000000E+00 0. -1.
         36    2    1    2    0    0  0.00000000000E+00  0.17763568394E-14  0.72142706927E+03  0.77103429108E+03  0.27209715496E+03 0.  0.
         25    2    3    3    0    0 -0.16051786802E+02 -0.10907980060E+02  0.52542099587E+03  0.54035013409E+03  0.12463707564E+03 0.  0.
         25    2    3    3    0    0  0.16051786802E+02  0.10907980060E+02  0.19600607340E+03  0.23068415699E+03  0.12008395224E+03 0.  0.
          5    1    4    4  502    0 -0.54984046202E+02 -0.46091927819E+01  0.46343090214E+03  0.46672773761E+03  0.47000000000E+01 0.  1.
         -5    1    4    4    0  502  0.38932259400E+02 -0.62987872776E+01  0.61990093727E+02  0.73622396480E+02  0.47000000000E+01 0.  1.
          5    1    5    5  503    0  0.40650456332E+02  0.55859370382E+02  0.98061315316E+02  0.12004515992E+03  0.47000000000E+01 0.  1.
         -5    1    5    5    0  503 -0.24598669529E+02 -0.44951390323E+02  0.97944758088E+02  0.11063899706E+03  0.47000000000E+01 0.  1.
<mgrwt>
<rscale>  0 0.27209715E+03</rscale>
<asrwt>0</asrwt>
<pdfrwt beam="1">  1        1 0.11480470E+00 0.27209715E+03</pdfrwt>
<pdfrwt beam="2">  1       -1 0.38159407E-02 0.27209715E+03</pdfrwt>
<totfact> 0.67430471E+03</totfact>
</mgrwt>
</event>
<event>
 9    1  0.2074770E-002  0.2742523E+03  0.7818608E-02  0.1098870E+00
          1   -1    0    0  501    0  0.00000000000E+00  0.00000000000E+00  0.55318182997E+02  0.55318182997E+02  0.00000000000E+00 0. -1.
         -1   -1    0    0    0  501 -0.00000000000E+00 -0.00000000000E+00 -0.33991677828E+03  0.33991677828E+03  0.00000000000E+00 0. -1.
         36    2    1    2    0    0 -0.71054273576E-14 -0.35527136788E-14 -0.28459859528E+03  0.39523496127E+03  0.27425228199E+03 0.  0.
         25    2    3    3    0    0  0.35531357651E+02 -0.12192599490E+01 -0.97369806952E+02  0.15942967938E+03  0.12113207416E+03 0.  0.
         25    2    3    3    0    0 -0.35531357651E+02  0.12192599490E+01 -0.18722878833E+03  0.23580528189E+03  0.13887241562E+03 0.  0.
          5    1    4    4  502    0 -0.32701946081E+02  0.18742495391E+02  0.96491780107E+00  0.37996308733E+02  0.47000000000E+01 0. -1.
         -5    1    4    4    0  502  0.68233303732E+02 -0.19961755340E+02 -0.98334724753E+02  0.12143337065E+03  0.47000000000E+01 0. -1.
          5    1    5    5  503    0  0.25497754155E+02  0.53263651877E+02 -0.53633272359E+02  0.79911012897E+02  0.47000000000E+01 0. -1.
         -5    1    5    5    0  503 -0.61029111806E+02 -0.52044391928E+02 -0.13359551597E+03  0.15589426900E+03  0.47000000000E+01 0. -1.
<mgrwt>
<rscale>  0 0.27425228E+03</rscale>
<asrwt>0</asrwt>
<pdfrwt beam="1">  1        1 0.85104897E-02 0.27425228E+03</pdfrwt>
<pdfrwt beam="2">  1       -1 0.52294889E-01 0.27425228E+03</pdfrwt>
<totfact> 0.30069322E+03</totfact>
</mgrwt>
</event>
<event>
 9    1  0.2074770E-002  0.2745919E+03  0.7818608E-02  0.1098680E+00
         -1   -1    0    0    0  501 -0.00000000000E+00  0.00000000000E+00  0.48420339332E+02  0.48420339332E+02  0.00000000000E+00 0. -1.
          1   -1    0    0  501    0  0.00000000000E+00 -0.00000000000E+00 -0.38930294023E+03  0.38930294023E+03  0.00000000000E+00 0. -1.
         36    2    1    2    0    0  0.00000000000E+00  0.00000000000E+00 -0.34088260090E+03  0.43772327956E+03  0.27459191881E+03 0.  0.
         25    2    3    3    0    0 -0.16607740275E+01  0.14898743022E+02 -0.24710865368E+03  0.28021629605E+03  0.13127739767E+03 0.  0.
         25    2    3    3    0    0  0.16607740275E+01 -0.14898743022E+02 -0.93773947221E+02  0.15750698351E+03  0.12565892711E+03 0.  0.
          5    1    4    4  502    0  0.19478770527E+02  0.61835896145E+02 -0.69161448178E+02  0.94913099556E+02  0.47000000000E+01 0. -1.
         -5    1    4    4    0  502 -0.21139544554E+02 -0.46937153123E+02 -0.17794720550E+03  0.18530319650E+03  0.47000000000E+01 0. -1.
          5    1    5    5  503    0 -0.52748570430E+02 -0.25007308168E+02 -0.81945008720E+02  0.10072165407E+03  0.47000000000E+01 0. -1.
         -5    1    5    5    0  503  0.54409344457E+02  0.10108565147E+02 -0.11828938501E+02  0.56785329440E+02  0.47000000000E+01 0. -1.
<mgrwt>
<rscale>  0 0.27459192E+03</rscale>
<asrwt>0</asrwt>
<pdfrwt beam="1">  1        1 0.59892758E-01 0.27459192E+03</pdfrwt>
<pdfrwt beam="2">  1       -1 0.74492832E-02 0.27459192E+03</pdfrwt>
<totfact> 0.59926126E+03</totfact>
</mgrwt>
</event>
<event>
 9    1  0.2074770E-002  0.2741406E+03  0.7818608E-02  0.1098933E+00
          1   -1    0    0  501    0  0.00000000000E+00  0.00000000000E+00  0.37191495744E+03  0.37191495744E+03  0.00000000000E+00 0. -1.
         -1   -1    0    0    0  501 -0.00000000000E+00 -0.00000000000E+00 -0.50517661676E+02  0.50517661676E+02  0.00000000000E+00 0. -1.
         36    2    1    2    0    0  0.00000000000E+00  0.00000000000E+00  0.32139729576E+03  0.42243261911E+03  0.27414064997E+03 0.  0.
         25    2    3    3    0    0  0.27637168633E+02  0.46995919975E+02  0.13733925938E+03  0.19285819639E+03  0.12393458825E+03 0.  0.
         25    2    3    3    0    0 -0.27637168633E+02 -0.46995919975E+02  0.18405803639E+03  0.22957442272E+03  0.12591515090E+03 0.  0.
          5    1    4    4  502    0  0.24216607795E+02 -0.72001559024E+01  0.13592506317E+03  0.13833292860E+03  0.47000000000E+01 0. -1.
         -5    1    4    4    0  502  0.34205608379E+01  0.54196075877E+02  0.14141962089E+01  0.54525267792E+02  0.47000000000E+01 0. -1.
          5    1    5    5  503    0  0.42369474209E+02 -0.10339249412E+02  0.11991731578E+03  0.12768839042E+03  0.47000000000E+01 0.  1.
         -5    1    5    5    0  503 -0.70006642842E+02 -0.36656670563E+02  0.64140720603E+02  0.10188603230E+03  0.47000000000E+01 0.  1.
<mgrwt>
<rscale>  0 0.27414065E+03</rscale>
<asrwt>0</asrwt>
<pdfrwt beam="1">  1        1 0.57217684E-01 0.27414065E+03</pdfrwt>
<pdfrwt beam="2">  1       -1 0.77719482E-02 0.27414065E+03</pdfrwt>
<totfact> 0.59546015E+03</totfact>
</mgrwt>
</event>
<event>
 9    1  0.2074770E-002  0.2752569E+03  0.7818608E-02  0.1098308E+00
          1   -1    0    0  501    0  0.00000000000E+00  0.00000000000E+00  0.18615469573E+04  0.18615469573E+04  0.00000000000E+00 0. -1.
         -1   -1    0    0    0  501 -0.00000000000E+00 -0.00000000000E+00 -0.10175188029E+02  0.10175188029E+02  0.00000000000E+00 0. -1.
         36    2    1    2    0    0  0.00000000000E+00 -0.71054273576E-14  0.18513717693E+04  0.18717221454E+04  0.27525690049E+03 0.  0.
         25    2    3    3    0    0 -0.43846098026E+02  0.26703637064E+02  0.79150171071E+03  0.80343578766E+03  0.12805679322E+03 0.  0.
         25    2    3    3    0    0  0.43846098026E+02 -0.26703637064E+02  0.10598700586E+04  0.10682863577E+04  0.12359464555E+03 0.  0.
          5    1    4    4  502    0 -0.15897562377E+02 -0.46920632935E+02  0.45963809547E+03  0.46232407150E+03  0.47000000000E+01 0. -1.
         -5    1    4    4    0  502 -0.27948535649E+02  0.73624269999E+02  0.33186361524E+03  0.34111171616E+03  0.47000000000E+01 0. -1.
          5    1    5    5  503    0  0.59976090120E+02  0.33115748610E+02  0.66805734040E+03  0.67157760851E+03  0.47000000000E+01 0.  1.
         -5    1    5    5    0  503 -0.16129992094E+02 -0.59819385674E+02  0.39181271820E+03  0.39670874920E+03  0.47000000000E+01 0.  1.
<mgrwt>
<rscale>  0 0.27525690E+03</rscale>
<asrwt>0</asrwt>
<pdfrwt beam="1">  1        1 0.28639157E+00 0.27525690E+03</pdfrwt>
<pdfrwt beam="2">  1       -1 0.15654150E-02 0.27525690E+03</pdfrwt>
<totfact> 0.40700783E+03</totfact>
</mgrwt>
</event>
<event>
 9    1  0.2074770E-002  0.2739587E+03  0.7818608E-02  0.1099035E+00
         -1   -1    0    0    0  501 -0.00000000000E+00  0.00000000000E+00  0.81541296004E+02  0.81541296004E+02  0.00000000000E+00 0.  1.
          1   -1    0    0  501    0  0.00000000000E+00 -0.00000000000E+00 -0.23010850028E+03  0.23010850028E+03  0.00000000000E+00 0.  1.
         36    2    1    2    0    0  0.71054273576E-14  0.00000000000E+00 -0.14856720427E+03  0.31164979628E+03  0.27395872196E+03 0.  0.
         25    2    3    3    0    0 -0.46116837928E+02 -0.22307319517E+02 -0.95529037715E+02  0.16625703590E+03  0.12606040495E+03 0.  0.
         25    2    3    3    0    0  0.46116837928E+02  0.22307319517E+02 -0.53038166557E+02  0.14539276037E+03  0.12530613877E+03 0.  0.
          5    1    4    4  502    0  0.25097651882E+00 -0.69173622632E+02 -0.40821770979E+02  0.80458436743E+02  0.47000000000E+01 0.  1.
         -5    1    4    4    0  502 -0.46367814447E+02  0.46866303115E+02 -0.54707266736E+02  0.85798599161E+02  0.47000000000E+01 0.  1.
          5    1    5    5  503    0  0.11806145788E+02  0.66420097743E+02 -0.58000984920E+02  0.89091069778E+02  0.47000000000E+01 0. -1.
         -5    1    5    5    0  503  0.34310692140E+02 -0.44112778226E+02  0.49628183632E+01  0.56301690597E+02  0.47000000000E+01 0. -1.
<mgrwt>
<rscale>  0 0.27395872E+03</rscale>
<asrwt>0</asrwt>
<pdfrwt beam="1">  1        1 0.35401308E-01 0.27395872E+03</pdfrwt>
<pdfrwt beam="2">  1       -1 0.12544815E-01 0.27395872E+03</pdfrwt>
<totfact> 0.52032921E+03</totfact>
</mgrwt>
</event>
<event>
 9    1  0.2074770E-002  0.2749820E+03  0.7818608E-02  0.1098462E+00
         -2   -1    0    0    0  501 -0.00000000000E+00  0.00000000000E+00  0.61191550833E+03  0.61191550833E+03  0.00000000000E+00 0.  1.
          2   -1    0    0  501    0  0.00000000000E+00 -0.00000000000E+00 -0.30892787250E+02  0.30892787250E+02  0.00000000000E+00 0.  1.
         36    2    1    2    0    0  0.00000000000E+00  0.35527136788E-14  0.58102272108E+03  0.64280829558E+03  0.27498200388E+03 0.  0.
         25    2    3    3    0    0 -0.12096354517E+02  0.12670675332E+02  0.17306266563E+03  0.21654872633E+03  0.12897983112E+03 0.  0.
         25    2    3    3    0    0  0.12096354517E+02 -0.12670675332E+02  0.40796005545E+03  0.42625956925E+03  0.12230676892E+03 0.  0.
          5    1    4    4  502    0 -0.44768294108E+02  0.33961883064E+02  0.16767360721E+03  0.17690149296E+03  0.47000000000E+01 0. -1.
         -5    1    4    4    0  502  0.32671939591E+02 -0.21291207733E+02  0.53890584210E+01  0.39647233372E+02  0.47000000000E+01 0. -1.
          5    1    5    5  503    0 -0.49282985737E+02  0.74204810538E+01  0.25961413360E+03  0.26439641561E+03  0.47000000000E+01 0. -1.
         -5    1    5    5    0  503  0.61379340254E+02 -0.20091156385E+02  0.14834592185E+03  0.16186315364E+03  0.47000000000E+01 0. -1.
<mgrwt>
<rscale>  0 0.27498200E+03</rscale>
<asrwt>0</asrwt>
<pdfrwt beam="1">  1        2 0.47527370E-02 0.27498200E+03</pdfrwt>
<pdfrwt beam="2">  1       -2 0.94140838E-01 0.27498200E+03</pdfrwt>
<totfact> 0.16571294E+03</totfact>
</mgrwt>
</event>
<event>
 9    1  0.2074770E-002  0.2757748E+03  0.7818608E-02  0.1098019E+00
          2   -1    0    0  501    0  0.00000000000E+00  0.00000000000E+00  0.42282691376E+03  0.42282691376E+03  0.00000000000E+00 0.  1.
         -2   -1    0    0    0  501 -0.00000000000E+00 -0.00000000000E+00 -0.44966223868E+02  0.44966223868E+02  0.00000000000E+00 0.  1.
         36    2    1    2    0    0  0.00000000000E+00  0.35527136788E-14  0.37786068989E+03  0.46779313763E+03  0.27577476071E+03 0.  0.
         25    2    3    3    0    0 -0.63954703762E+01 -0.46034791507E+01  0.32416715013E+03  0.34661288919E+03  0.12245023345E+03 0.  0.
         25    2    3    3    0    0  0.63954703762E+01  0.46034791507E+01  0.53693539760E+02  0.12118024843E+03  0.10834926089E+03 0.  0.
          5    1    4    4  502    0  0.39625921114E+02  0.27663446848E+02  0.63625185888E+02  0.80035830694E+02  0.47000000000E+01 0.  1.
         -5    1    4    4    0  502 -0.46021391490E+02 -0.32266925999E+02  0.26054196424E+03  0.26657705850E+03  0.47000000000E+01 0.  1.
          5    1    5    5  503    0  0.35353991223E+01 -0.28637457475E+02  0.75556539902E+02  0.81015330275E+02  0.47000000000E+01 0.  1.
         -5    1    5    5    0  503  0.28600712539E+01  0.33240936626E+02 -0.21863000142E+02  0.40164918157E+02  0.47000000000E+01 0.  1.
<mgrwt>
<rscale>  0 0.27577476E+03</rscale>
<asrwt>0</asrwt>
<pdfrwt beam="1">  1        2 0.65050292E-01 0.27577476E+03</pdfrwt>
<pdfrwt beam="2">  1       -2 0.69178809E-02 0.27577476E+03</pdfrwt>
<totfact> 0.88567287E+03</totfact>
</mgrwt>
</event>
<event>
 9    1  0.2074770E-002  0.2766990E+03  0.7818608E-02  0.1097506E+00
          2   -1    0    0  501    0  0.00000000000E+00  0.00000000000E+00  0.44607060148E+02  0.44607060148E+02  0.00000000000E+00 0. -1.
         -2   -1    0    0    0  501 -0.00000000000E+00 -0.00000000000E+00 -0.42909313396E+03  0.42909313396E+03  0.00000000000E+00 0. -1.
         36    2    1    2    0    0  0.00000000000E+00  0.71054273576E-14 -0.38448607381E+03  0.47370019411E+03  0.27669899339E+03 0.  0.
         25    2    3    3    0    0 -0.21945548750E+02 -0.45100963815E+02 -0.26058674817E+03  0.29228764460E+03  0.12251901820E+03 0.  0.
         25    2    3    3    0    0  0.21945548750E+02  0.45100963815E+02 -0.12389932565E+03  0.18141254951E+03  0.12265303166E+03 0.  0.
          5    1    4    4  502    0 -0.63148142749E+02 -0.47796495813E+02 -0.10716059096E+03  0.13333294866E+03  0.47000000000E+01 0. -1.
         -5    1    4    4    0  502  0.41202593999E+02  0.26955319989E+01 -0.15342615721E+03  0.15895469594E+03  0.47000000000E+01 0. -1.
          5    1    5    5  503    0  0.58162989476E+02 -0.87695260610E+01 -0.27503634333E+02  0.65102825082E+02  0.47000000000E+01 0. -1.
         -5    1    5    5    0  503 -0.36217440726E+02  0.53870489876E+02 -0.96395691312E+02  0.11630972442E+03  0.47000000000E+01 0. -1.
<mgrwt>
<rscale>  0 0.27669899E+03</rscale>
<asrwt>0</asrwt>
<pdfrwt beam="1">  1        2 0.68626247E-02 0.27669899E+03</pdfrwt>
<pdfrwt beam="2">  1       -2 0.66014328E-01 0.27669899E+03</pdfrwt>
<totfact> 0.22364899E+03</totfact>
</mgrwt>
</event>
<event>
 9    1  0.2074770E-002  0.2764169E+03  0.7818608E-02  0.1097662E+00
          1   -1    0    0  501    0  0.00000000000E+00  0.00000000000E+00  0.23237616740E+04  0.23237616740E+04  0.00000000000E+00 0. -1.
         -1   -1    0    0    0  501 -0.00000000000E+00 -0.00000000000E+00 -0.82201087081E+01  0.82201087081E+01  0.00000000000E+00 0. -1.
         36    2    1    2    0    0  0.00000000000E+00  0.00000000000E+00  0.23155415652E+04  0.23319817827E+04  0.27641688495E+03 0.  0.
         25    2    3    3    0    0 -0.23033532842E+02  0.23639719279E+02  0.16162680844E+04  0.16217562025E+04  0.12915602871E+03 0.  0.
         25    2    3    3    0    0  0.23033532842E+02 -0.23639719279E+02  0.69927348089E+03  0.71022558020E+03  0.11978144152E+03 0.  0.
          5    1    4    4  502    0  0.45793256637E+02 -0.17886369275E+02  0.80111467629E+03  0.80263550826E+03  0.47000000000E+01 0. -1.
         -5    1    4    4    0  502 -0.68826789479E+02  0.41526088554E+02  0.81515340806E+03  0.81912069419E+03  0.47000000000E+01 0. -1.
          5    1    5    5  503    0  0.54212050059E+02 -0.52960041197E+02  0.53679208657E+03  0.54213609595E+03  0.47000000000E+01 0. -1.
         -5    1    5    5    0  503 -0.31178517217E+02  0.29320321918E+02  0.16248139433E+03  0.16808948425E+03  0.47000000000E+01 0. -1.
<mgrwt>
<rscale>  0 0.27641688E+03</rscale>
<asrwt>0</asrwt>
<pdfrwt beam="1">  1        1 0.35750127E+00 0.27641688E+03</pdfrwt>
<pdfrwt beam="2">  1       -1 0.12646340E-02 0.27641688E+03</pdfrwt>
<totfact> 0.27746245E+03</totfact>
</mgrwt>
</event>
<event>
 9    1  0.2074770E-002  0.2745565E+03  0.7818608E-02  0.1098700E+00
         -2   -1    0    0    0  501 -0.00000000000E+00  0.00000000000E+00  0.14234290235E+02  0.14234290235E+02  0.00000000000E+00 0.  1.
          2   -1    0    0  501    0  0.00000000000E+00 -0.00000000000E+00 -0.13239381058E+04  0.13239381058E+04  0.00000000000E+00 0.  1.
         36    2    1    2    0    0 -0.71054273576E-14  0.00000000000E+00 -0.13097038155E+04  0.13381723960E+04  0.27455650967E+03 0.  0.
         25    2    3    3    0    0 -0.24886857812E+01  0.58106179742E+02 -0.56865522625E+03  0.58484258817E+03  0.12365098023E+03 0.  0.
         25    2    3    3    0    0  0.24886857812E+01 -0.58106179742E+02 -0.74104858928E+03  0.75332980783E+03  0.12235303843E+03 0.  0.
          5    1    4    4  502    0  0.46533198350E+02  0.23875477009E+02 -0.43732034316E+03  0.44046174577E+03  0.47000000000E+01 0.  1.
         -5    1    4    4    0  502 -0.49021884131E+02  0.34230702732E+02 -0.13133488309E+03  0.14438084240E+03  0.47000000000E+01 0.  1.
          5    1    5    5  503    0 -0.49998403875E+02  0.78656360049E+01 -0.29889089118E+03  0.30318239304E+03  0.47000000000E+01 0.  1.
         -5    1    5    5    0  503  0.52487089656E+02 -0.65971815747E+02 -0.44215769810E+03  0.45014741479E+03  0.47000000000E+01 0.  1.
<mgrwt>
<rscale>  0 0.27455651E+03</rscale>
<asrwt>0</asrwt>
<pdfrwt beam="1">  1        2 0.20368269E+00 0.27455651E+03</pdfrwt>
<pdfrwt beam="2">  1       -2 0.21898918E-02 0.27455651E+03</pdfrwt>
<totfact> 0.11498282E+04</totfact>
</mgrwt>
</event>
<event>
 9    1  0.2074770E-002  0.2756641E+03  0.7818608E-02  0.1098081E+00
          2   -1    0    0  501    0  0.00000000000E+00  0.00000000000E+00  0.21321219594E+04  0.21321219594E+04  0.00000000000E+00 0. -1.
         -2   -1    0    0    0  501 -0.00000000000E+00 -0.00000000000E+00 -0.89102185913E+01  0.89102185913E+01  0.00000000000E+00 0. -1.
         36    2    1    2    0    0 -0.71054273576E-14 -0.14210854715E-13  0.21232117408E+04  0.21410321780E+04  0.27566409067E+03 0.  0.
         25    2    3    3    0    0  0.17071835064E+02  0.54590091366E+02  0.10450773828E+04  0.10542584902E+04  0.12650178838E+03 0.  0.
         25    2    3    3    0    0 -0.17071835064E+02 -0.54590091366E+02  0.10781343580E+04  0.10867736878E+04  0.12422491279E+03 0.  0.
          5    1    4    4  502    0 -0.12057019737E+02  0.66951396728E+02  0.97317035828E+03  0.97555650655E+03  0.47000000000E+01 0.  1.
         -5    1    4    4    0  502  0.29128854801E+02 -0.12361305362E+02  0.71907024530E+02  0.78701983641E+02  0.47000000000E+01 0.  1.
          5    1    5    5  503    0 -0.16076942748E+02  0.52694435300E+01  0.86928083592E+03  0.86945816278E+03  0.47000000000E+01 0.  1.
         -5    1    5    5    0  503 -0.99489231566E+00 -0.59859534896E+02  0.20885352208E+03  0.21731552502E+03  0.47000000000E+01 0.  1.
<mgrwt>
<rscale>  0 0.27566409E+03</rscale>
<asrwt>0</asrwt>
<pdfrwt beam="1">  1        2 0.32801836E+00 0.27566409E+03</pdfrwt>
<pdfrwt beam="2">  1       -2 0.13708046E-02 0.27566409E+03</pdfrwt>
<totfact> 0.85163058E+03</totfact>
</mgrwt>
</event>
<event>
 9    1  0.2074770E-002  0.2749195E+03  0.7818608E-02  0.1098497E+00
          2   -1    0    0  501    0  0.00000000000E+00  0.00000000000E+00  0.49073955261E+03  0.49073955261E+03  0.00000000000E+00 0.  1.
         -2   -1    0    0    0  501 -0.00000000000E+00 -0.00000000000E+00 -0.38503495991E+02  0.38503495991E+02  0.00000000000E+00 0.  1.
         36    2    1    2    0    0  0.14210854715E-13 -0.71054273576E-14  0.45223605662E+03  0.52924304860E+03  0.27491954020E+03 0.  0.
         25    2    3    3    0    0  0.53571499317E+02  0.17950836639E+02  0.18486047766E+03  0.22982256092E+03  0.12430959429E+03 0.  0.
         25    2    3    3    0    0 -0.53571499317E+02 -0.17950836639E+02  0.26737557896E+03  0.29942048768E+03  0.12235518029E+03 0.  0.
          5    1    4    4  502    0  0.20840665924E+01  0.65785765231E+02  0.84519454757E+02  0.10722750801E+03  0.47000000000E+01 0.  1.
         -5    1    4    4    0  502  0.51487432725E+02 -0.47834928593E+02  0.10034102290E+03  0.12259505291E+03  0.47000000000E+01 0.  1.
          5    1    5    5  503    0 -0.11239603276E+01  0.18088112077E+02  0.21783313309E+03  0.21863624347E+03  0.47000000000E+01 0. -1.
         -5    1    5    5    0  503 -0.52447538989E+02 -0.36038948715E+02  0.49542445871E+02  0.80784244215E+02  0.47000000000E+01 0. -1.
<mgrwt>
<rscale>  0 0.27491954E+03</rscale>
<asrwt>0</asrwt>
<pdfrwt beam="1">  1        2 0.75498389E-01 0.27491954E+03</pdfrwt>
<pdfrwt beam="2">  1       -2 0.59236151E-02 0.27491954E+03</pdfrwt>
<totfact> 0.95419466E+03</totfact>
</mgrwt>
</event>
<event>
 9    1  0.2074770E-002  0.2733672E+03  0.7818608E-02  0.1099368E+00
         -1   -1    0    0    0  501 -0.00000000000E+00  0.00000000000E+00  0.33044604622E+02  0.33044604622E+02  0.00000000000E+00 0.  1.
          1   -1    0    0  501    0  0.00000000000E+00 -0.00000000000E+00 -0.56536949340E+03  0.56536949340E+03  0.00000000000E+00 0.  1.
         36    2    1    2    0    0 -0.71054273576E-14  0.35527136788E-14 -0.53232488877E+03  0.59841409802E+03  0.27336723560E+03 0.  0.
         25    2    3    3    0    0  0.37369770427E+02  0.12800320180E+02 -0.24845654079E+03  0.28628346824E+03  0.13662804830E+03 0.  0.
         25    2    3    3    0    0 -0.37369770427E+02 -0.12800320180E+02 -0.28386834798E+03  0.31213062978E+03  0.12362824566E+03 0.  0.
          5    1    4    4  502    0 -0.32783994706E+02  0.34258261914E+01 -0.62160674849E+01  0.33871168993E+02  0.47000000000E+01 0.  1.
         -5    1    4    4    0  502  0.70153765133E+02  0.93744939884E+01 -0.24224047331E+03  0.25241229924E+03  0.47000000000E+01 0.  1.
          5    1    5    5  503    0  0.23694942416E+02  0.37517564083E+02 -0.15059970383E+03  0.15707125360E+03  0.47000000000E+01 0.  1.
         -5    1    5    5    0  503 -0.61064712843E+02 -0.50317884262E+02 -0.13326864415E+03  0.15505937619E+03  0.47000000000E+01 0.  1.
<mgrwt>
<rscale>  0 0.27336724E+03</rscale>
<asrwt>0</asrwt>
<pdfrwt beam="1">  1        1 0.86979911E-01 0.27336724E+03</pdfrwt>
<pdfrwt beam="2">  1       -1 0.50837860E-02 0.27336724E+03</pdfrwt>
<totfact> 0.65292381E+03</totfact>
</mgrwt>
</event>
<event>
 9    1  0.2074770E-002  0.2735777E+03  0.7818608E-02  0.1099249E+00
         -2   -1    0    0    0  501 -0.00000000000E+00  0.00000000000E+00  0.77889503903E+01  0.77889503903E+01  0.00000000000E+00 0.  1.
          2   -1    0    0  501    0  0.00000000000E+00 -0.00000000000E+00 -0.24022739782E+04  0.24022739782E+04  0.00000000000E+00 0.  1.
         36    2    1    2    0    0  0.71054273576E-14  0.71054273576E-14 -0.23944850278E+04  0.24100629286E+04  0.27357772453E+03 0.  0.
         25    2    3    3    0    0 -0.94765352321E+01 -0.41760425254E+02 -0.14911039196E+04  0.14971439841E+04  0.12733998695E+03 0.  0.
         25    2    3    3    0    0  0.94765352321E+01  0.41760425254E+02 -0.90338110822E+03  0.91291894449E+03  0.12445816438E+03 0.  0.
          5    1    4    4  502    0  0.58887897423E+02 -0.21669444912E+02 -0.70883838206E+03  0.71162580841E+03  0.47000000000E+01 0.  1.
         -5    1    4    4    0  502 -0.68364432655E+02 -0.20090980342E+02 -0.78226553749E+03  0.78551817566E+03  0.47000000000E+01 0.  1.
          5    1    5    5  503    0  0.39490655998E+02 -0.30805469662E+02 -0.26738820459E+03  0.27207908928E+03  0.47000000000E+01 0.  1.
         -5    1    5    5    0  503 -0.30014120766E+02  0.72565894916E+02 -0.63599290364E+03  0.64083985521E+03  0.47000000000E+01 0.  1.
<mgrwt>
<rscale>  0 0.27357772E+03</rscale>
<asrwt>0</asrwt>
<pdfrwt beam="1">  1        2 0.36958102E+00 0.27357772E+03</pdfrwt>
<pdfrwt beam="2">  1       -2 0.11982987E-02 0.27357772E+03</pdfrwt>
<totfact> 0.74281419E+03</totfact>
</mgrwt>
</event>
<event>
 9    1  0.2074770E-002  0.2739713E+03  0.7818608E-02  0.1099028E+00
          2   -1    0    0  501    0  0.00000000000E+00  0.00000000000E+00  0.12283160910E+04  0.12283160910E+04  0.00000000000E+00 0. -1.
         -2   -1    0    0    0  501 -0.00000000000E+00 -0.00000000000E+00 -0.15277068609E+02  0.15277068609E+02  0.00000000000E+00 0. -1.
         36    2    1    2    0    0  0.00000000000E+00  0.00000000000E+00  0.12130390224E+04  0.12435931596E+04  0.27397130649E+03 0.  0.
         25    2    3    3    0    0  0.43996038905E+02  0.37124065269E+02  0.68526988303E+03  0.69793422051E+03  0.11917850439E+03 0.  0.
         25    2    3    3    0    0 -0.43996038905E+02 -0.37124065269E+02  0.52776913938E+03  0.54565893911E+03  0.12605382063E+03 0.  0.
          5    1    4    4  502    0  0.33398046602E+02 -0.31263075978E+02  0.12147758471E+03  0.12989111988E+03  0.47000000000E+01 0. -1.
         -5    1    4    4    0  502  0.10597992303E+02  0.68387141247E+02  0.56379229832E+03  0.56804310063E+03  0.47000000000E+01 0. -1.
          5    1    5    5  503    0 -0.16574955792E+02  0.12690826747E+02  0.44276074579E+03  0.44327751382E+03  0.47000000000E+01 0.  1.
         -5    1    5    5    0  503 -0.27421083114E+02 -0.49814892016E+02  0.85008393584E+02  0.10238142529E+03  0.47000000000E+01 0.  1.
<mgrwt>
<rscale>  0 0.27397131E+03</rscale>
<asrwt>0</asrwt>
<pdfrwt beam="1">  1        2 0.18897163E+00 0.27397131E+03</pdfrwt>
<pdfrwt beam="2">  1       -2 0.23503192E-02 0.27397131E+03</pdfrwt>
<totfact> 0.11709867E+04</totfact>
</mgrwt>
</event>
<event>
 9    1  0.2074770E-002  0.2750676E+03  0.7818608E-02  0.1098414E+00
          1   -1    0    0  501    0  0.00000000000E+00  0.00000000000E+00  0.47617997695E+03  0.47617997695E+03  0.00000000000E+00 0. -1.
         -1   -1    0    0    0  501 -0.00000000000E+00 -0.00000000000E+00 -0.39723528769E+02  0.39723528769E+02  0.00000000000E+00 0. -1.
         36    2    1    2    0    0 -0.71054273576E-14  0.00000000000E+00  0.43645644818E+03  0.51590350572E+03  0.27506762088E+03 0.  0.
         25    2    3    3    0    0 -0.53283339011E+02  0.74714039344E+01  0.18537622964E+03  0.22995327410E+03  0.12497690051E+03 0.  0.
         25    2    3    3    0    0  0.53283339011E+02 -0.74714039344E+01  0.25108021855E+03  0.28595023163E+03  0.12582258433E+03 0.  0.
          5    1    4    4  502    0 -0.16459528141E+02 -0.40649894366E+02  0.15662980562E+03  0.16272159041E+03  0.47000000000E+01 0. -1.
         -5    1    4    4    0  502 -0.36823810870E+02  0.48121298301E+02  0.28746424019E+02  0.67231683684E+02  0.47000000000E+01 0. -1.
          5    1    5    5  503    0  0.26492268311E+02  0.34655135589E+02  0.22536563910E+03  0.22959655918E+03  0.47000000000E+01 0.  1.
         -5    1    5    5    0  503  0.26791070700E+02 -0.42126539524E+02  0.25714579449E+02  0.56353672443E+02  0.47000000000E+01 0.  1.
<mgrwt>
<rscale>  0 0.27506762E+03</rscale>
<asrwt>0</asrwt>
<pdfrwt beam="1">  1        1 0.73258454E-01 0.27506762E+03</pdfrwt>
<pdfrwt beam="2">  1       -1 0.61113125E-02 0.27506762E+03</pdfrwt>
<totfact> 0.62316439E+03</totfact>
</mgrwt>
</event>
<event>
 9    1  0.2074770E-002  0.2713417E+03  0.7818608E-02  0.1100514E+00
         -1   -1    0    0    0  501 -0.00000000000E+00  0.00000000000E+00  0.71658537725E+01  0.71658537725E+01  0.00000000000E+00 0.  1.
          1   -1    0    0  501    0  0.00000000000E+00 -0.00000000000E+00 -0.25686515897E+04  0.25686515897E+04  0.00000000000E+00 0.  1.
         36    2    1    2    0    0  0.00000000000E+00 -0.71054273576E-14 -0.25614857359E+04  0.25758174434E+04  0.27134171580E+03 0.  0.
         25    2    3    3    0    0 -0.55399729037E+02  0.99471222291E+01 -0.12042941849E+04  0.12116127024E+04  0.12046900698E+03 0.  0.
         25    2    3    3    0    0  0.55399729037E+02 -0.99471222291E+01 -0.13571915510E+04  0.13642047410E+04  0.12616494812E+03 0.  0.
          5    1    4    4  502    0 -0.20828182119E+02  0.63922812239E+02 -0.70078746628E+03  0.70402066872E+03  0.47000000000E+01 0.  1.
         -5    1    4    4    0  502 -0.34571546918E+02 -0.53975690010E+02 -0.50350671865E+03  0.50759203372E+03  0.47000000000E+01 0.  1.
          5    1    5    5  503    0  0.70892784355E+02 -0.44580871096E+02 -0.57565180931E+03  0.58173046723E+03  0.47000000000E+01 0. -1.
         -5    1    5    5    0  503 -0.15493055318E+02  0.34633748867E+02 -0.78153974166E+03  0.78247427378E+03  0.47000000000E+01 0. -1.
<mgrwt>
<rscale>  0 0.27134172E+03</rscale>
<asrwt>0</asrwt>
<pdfrwt beam="1">  1        1 0.39517664E+00 0.27134172E+03</pdfrwt>
<pdfrwt beam="2">  1       -1 0.11024405E-02 0.27134172E+03</pdfrwt>
<totfact> 0.23309199E+03</totfact>
</mgrwt>
</event>
<event>
 9    1  0.2074770E-002  0.2751025E+03  0.7818608E-02  0.1098394E+00
          2   -1    0    0  501    0  0.00000000000E+00  0.00000000000E+00  0.16100533933E+04  0.16100533933E+04  0.00000000000E+00 0.  1.
         -2   -1    0    0    0  501 -0.00000000000E+00 -0.00000000000E+00 -0.11751381016E+02  0.11751381016E+02  0.00000000000E+00 0.  1.
         36    2    1    2    0    0  0.71054273576E-14 -0.71054273576E-14  0.15983020123E+04  0.16218047743E+04  0.27510253274E+03 0.  0.
         25    2    3    3    0    0  0.19077685098E+02 -0.27710997709E+02  0.10927376722E+04  0.11004108868E+04  0.12528624012E+03 0.  0.
         25    2    3    3    0    0 -0.19077685098E+02  0.27710997709E+02  0.50556434008E+03  0.52139388756E+03  0.12298140740E+03 0.  0.
          5    1    4    4  502    0 -0.47646722881E+02 -0.35809412358E+02  0.40648424493E+03  0.41085770724E+03  0.47000000000E+01 0.  1.
         -5    1    4    4    0  502  0.66724407980E+02  0.80984146493E+01  0.68625342729E+03  0.68955317954E+03  0.47000000000E+01 0.  1.
          5    1    5    5  503    0  0.10990230768E+02  0.67295957305E+02  0.38296788051E+03  0.38901930356E+03  0.47000000000E+01 0. -1.
         -5    1    5    5    0  503 -0.30067915866E+02 -0.39584959596E+02  0.12259645957E+03  0.13237458400E+03  0.47000000000E+01 0. -1.
<mgrwt>
<rscale>  0 0.27510253E+03</rscale>
<asrwt>0</asrwt>
<pdfrwt beam="1">  1        2 0.24770035E+00 0.27510253E+03</pdfrwt>
<pdfrwt beam="2">  1       -2 0.18079060E-02 0.27510253E+03</pdfrwt>
<totfact> 0.10692132E+04</totfact>
</mgrwt>
</event>
<event>
 9    1  0.2074770E-002  0.2752573E+03  0.7818608E-02  0.1098308E+00
         -1   -1    0    0    0  501 -0.00000000000E+00  0.00000000000E+00  0.56088056891E+02  0.56088056891E+02  0.00000000000E+00 0.  1.
          1   -1    0    0  501    0  0.00000000000E+00 -0.00000000000E+00 -0.33771252131E+03  0.33771252131E+03  0.00000000000E+00 0.  1.
         36    2    1    2    0    0 -0.71054273576E-14  0.35527136788E-14 -0.28162446442E+03  0.39380057820E+03  0.27525725500E+03 0.  0.
         25    2    3    3    0    0  0.34937380259E+02  0.28631808544E+02 -0.18257849073E+03  0.22559162350E+03  0.12456433806E+03 0.  0.
         25    2    3    3    0    0 -0.34937380259E+02 -0.28631808544E+02 -0.99045973692E+02  0.16820895471E+03  0.12823317254E+03 0.  0.
          5    1    4    4  502    0 -0.19018200434E+02 -0.25350660216E+02 -0.52330539047E+01  0.32462636590E+02  0.47000000000E+01 0.  1.
         -5    1    4    4    0  502  0.53955580694E+02  0.53982468761E+02 -0.17734543683E+03  0.19312898691E+03  0.47000000000E+01 0.  1.
          5    1    5    5  503    0 -0.76341778413E+02 -0.30537545982E+02 -0.95851009426E+02  0.12637291978E+03  0.47000000000E+01 0. -1.
         -5    1    5    5    0  503  0.41404398154E+02  0.19057374372E+01 -0.31949642668E+01  0.41836034926E+02  0.47000000000E+01 0. -1.
<mgrwt>
<rscale>  0 0.27525726E+03</rscale>
<asrwt>0</asrwt>
<pdfrwt beam="1">  1        1 0.51955771E-01 0.27525726E+03</pdfrwt>
<pdfrwt beam="2">  1       -1 0.86289321E-02 0.27525726E+03</pdfrwt>
<totfact> 0.57362927E+03</totfact>
</mgrwt>
</event>
<event>
 9    1  0.2074770E-002  0.2744313E+03  0.7818608E-02  0.1098770E+00
          1   -1    0    0  501    0  0.00000000000E+00  0.00000000000E+00  0.56820447248E+03  0.56820447248E+03  0.00000000000E+00 0. -1.
         -1   -1    0    0    0  501 -0.00000000000E+00 -0.00000000000E+00 -0.33136194926E+02  0.33136194926E+02  0.00000000000E+00 0. -1.
         36    2    1    2    0    0  0.71054273576E-14  0.00000000000E+00  0.53506827755E+03  0.60134066741E+03  0.27443129674E+03 0.  0.
         25    2    3    3    0    0 -0.16603171467E+02 -0.52404112074E+02  0.21483416486E+03  0.25289463916E+03  0.12157353272E+03 0.  0.
         25    2    3    3    0    0  0.16603171467E+02  0.52404112074E+02  0.32023411269E+03  0.34844602824E+03  0.12586854811E+03 0.  0.
          5    1    4    4  502    0  0.51850242975E+02 -0.32106300609E+02  0.86169533953E+02  0.10567185442E+03  0.47000000000E+01 0.  1.
         -5    1    4    4    0  502 -0.68453414442E+02 -0.20297811466E+02  0.12866463091E+03  0.14722278474E+03  0.47000000000E+01 0.  1.
          5    1    5    5  503    0 -0.29575701748E+02 -0.21757434360E+02  0.17519066652E+03  0.17905855947E+03  0.47000000000E+01 0.  1.
         -5    1    5    5    0  503  0.46178873215E+02  0.74161546435E+02  0.14504344617E+03  0.16938746877E+03  0.47000000000E+01 0.  1.
<mgrwt>
<rscale>  0 0.27443130E+03</rscale>
<asrwt>0</asrwt>
<pdfrwt beam="1">  1        1 0.87416066E-01 0.27443130E+03</pdfrwt>
<pdfrwt beam="2">  1       -1 0.50978765E-02 0.27443130E+03</pdfrwt>
<totfact> 0.64586300E+03</totfact>
</mgrwt>
</event>
<event>
 9    1  0.2074770E-002  0.2747998E+03  0.7818608E-02  0.1098564E+00
         -2   -1    0    0    0  501 -0.00000000000E+00  0.00000000000E+00  0.40323435354E+02  0.40323435354E+02  0.00000000000E+00 0. -1.
          2   -1    0    0  501    0  0.00000000000E+00 -0.00000000000E+00 -0.46818250024E+03  0.46818250024E+03  0.00000000000E+00 0. -1.
         36    2    1    2    0    0 -0.35527136788E-14 -0.71054273576E-14 -0.42785906488E+03  0.50850593559E+03  0.27479975824E+03 0.  0.
         25    2    3    3    0    0 -0.29169679616E+01 -0.49421212891E+02 -0.16036983088E+03  0.21001987723E+03  0.12624936114E+03 0.  0.
         25    2    3    3    0    0  0.29169679616E+01  0.49421212891E+02 -0.26748923400E+03  0.29848605836E+03  0.12285142142E+03 0.  0.
          5    1    4    4  502    0 -0.47484724143E+02  0.14793521061E+02 -0.97668457407E+02  0.10970353169E+03  0.47000000000E+01 0.  1.
         -5    1    4    4    0  502  0.44567756181E+02 -0.64214733951E+02 -0.62701373474E+02  0.10031634554E+03  0.47000000000E+01 0.  1.
          5    1    5    5  503    0  0.18980380350E+02  0.71175997505E+02 -0.79420923001E+02  0.10842532209E+03  0.47000000000E+01 0. -1.
         -5    1    5    5    0  503 -0.16063412388E+02 -0.21754784614E+02 -0.18806831100E+03  0.19006073628E+03  0.47000000000E+01 0. -1.
<mgrwt>
<rscale>  0 0.27479976E+03</rscale>
<asrwt>0</asrwt>
<pdfrwt beam="1">  1        2 0.72028080E-01 0.27479976E+03</pdfrwt>
<pdfrwt beam="2">  1       -2 0.62036052E-02 0.27479976E+03</pdfrwt>
<totfact> 0.93658601E+03</totfact>
</mgrwt>
</event>
<event>
 9    1  0.2074770E-002  0.2766470E+03  0.7818608E-02  0.1097534E+00
         -2   -1    0    0    0  501 -0.00000000000E+00  0.00000000000E+00  0.77969596483E+01  0.77969596483E+01  0.00000000000E+00 0. -1.
          2   -1    0    0  501    0  0.00000000000E+00 -0.00000000000E+00 -0.24539552961E+04  0.24539552961E+04  0.00000000000E+00 0. -1.
         36    2    1    2    0    0  0.00000000000E+00  0.00000000000E+00 -0.24461583364E+04  0.24617522557E+04  0.27664699834E+03 0.  0.
         25    2    3    3    0    0  0.77606222678E+01  0.39878115310E+02 -0.16364450426E+04  0.16414175682E+04  0.12103208012E+03 0.  0.
         25    2    3    3    0    0 -0.77606222678E+01 -0.39878115310E+02 -0.80971329384E+03  0.82033468754E+03  0.12515146827E+03 0.  0.
          5    1    4    4  502    0  0.35413680278E+02  0.19880529322E+02 -0.15043243979E+04  0.15048798452E+04  0.47000000000E+01 0. -1.
         -5    1    4    4    0  502 -0.27653058010E+02  0.19997585988E+02 -0.13212064467E+03  0.13653772303E+03  0.47000000000E+01 0. -1.
          5    1    5    5  503    0 -0.50109736706E+02 -0.58420760266E+02 -0.63037657653E+03  0.63507534134E+03  0.47000000000E+01 0. -1.
         -5    1    5    5    0  503  0.42349114438E+02  0.18542644957E+02 -0.17933671731E+03  0.18525934619E+03  0.47000000000E+01 0. -1.
<mgrwt>
<rscale>  0 0.27664700E+03</rscale>
<asrwt>0</asrwt>
<pdfrwt beam="1">  1        2 0.37753227E+00 0.27664700E+03</pdfrwt>
<pdfrwt beam="2">  1       -2 0.11995301E-02 0.27664700E+03</pdfrwt>
<totfact> 0.69522767E+03</totfact>
</mgrwt>
</event>
<event>
 9    1  0.2074770E-002  0.2664292E+03  0.7818608E-02  0.1103341E+00
         -2   -1    0    0    0  501 -0.00000000000E+00  0.00000000000E+00  0.83183875348E+02  0.83183875348E+02  0.00000000000E+00 0. -1.
          2   -1    0    0  501    0  0.00000000000E+00 -0.00000000000E+00 -0.21333612154E+03  0.21333612154E+03  0.00000000000E+00 0. -1.
         36    2    1    2    0    0  0.00000000000E+00  0.00000000000E+00 -0.13015224619E+03  0.29651999689E+03  0.26642916763E+03 0.  0.
         25    2    3    3    0    0 -0.18492827684E+02 -0.27608768284E+02 -0.95161393515E+02  0.16100254740E+03  0.12554640851E+03 0.  0.
         25    2    3    3    0    0  0.18492827684E+02  0.27608768284E+02 -0.34990852678E+02  0.13551744949E+03  0.12663487112E+03 0.  0.
          5    1    4    4  502    0  0.10532842562E+02 -0.57582947688E+02 -0.19370186805E+01  0.58758647689E+02  0.47000000000E+01 0. -1.
         -5    1    4    4    0  502 -0.29025670246E+02  0.29974179403E+02 -0.93224374835E+02  0.10224389971E+03  0.47000000000E+01 0. -1.
          5    1    5    5  503    0  0.64707800959E+01 -0.29778123806E+01 -0.79518901878E+02  0.79975521990E+02  0.47000000000E+01 0.  1.
         -5    1    5    5    0  503  0.12022047588E+02  0.30586580665E+02  0.44528049201E+02  0.55541927502E+02  0.47000000000E+01 0.  1.
<mgrwt>
<rscale>  0 0.26642917E+03</rscale>
<asrwt>0</asrwt>
<pdfrwt beam="1">  1        2 0.32820942E-01 0.26642917E+03</pdfrwt>
<pdfrwt beam="2">  1       -2 0.12797519E-01 0.26642917E+03</pdfrwt>
<totfact> 0.69973294E+03</totfact>
</mgrwt>
</event>
<event>
 9    1  0.2074770E-002  0.2746938E+03  0.7818608E-02  0.1098623E+00
         -2   -1    0    0    0  501 -0.00000000000E+00  0.00000000000E+00  0.82384394417E+01  0.82384394417E+01  0.00000000000E+00 0.  1.
          2   -1    0    0  501    0  0.00000000000E+00 -0.00000000000E+00 -0.22897751981E+04  0.22897751981E+04  0.00000000000E+00 0.  1.
         36    2    1    2    0    0  0.00000000000E+00  0.00000000000E+00 -0.22815367587E+04  0.22980136376E+04  0.27469382450E+03 0.  0.
         25    2    3    3    0    0  0.50180692891E+02 -0.31956527884E+02 -0.11589862642E+04  0.11672165640E+04  0.12492407773E+03 0.  0.
         25    2    3    3    0    0 -0.50180692891E+02  0.31956527884E+02 -0.11225504945E+04  0.11307970736E+04  0.12265026366E+03 0.  0.
          5    1    4    4  502    0  0.55304344535E+02 -0.75814763349E+02 -0.78846102961E+03  0.79403988192E+03  0.47000000000E+01 0. -1.
         -5    1    4    4    0  502 -0.51236516433E+01  0.43858235465E+02 -0.37052523455E+03  0.37317668210E+03  0.47000000000E+01 0. -1.
          5    1    5    5  503    0 -0.11822127466E+02  0.58088545138E+02 -0.95567697625E+03  0.95752525539E+03  0.47000000000E+01 0. -1.
         -5    1    5    5    0  503 -0.38358565425E+02 -0.26132017254E+02 -0.16687351830E+03  0.17327181818E+03  0.47000000000E+01 0. -1.
<mgrwt>
<rscale>  0 0.27469382E+03</rscale>
<asrwt>0</asrwt>
<pdfrwt beam="1">  1        2 0.35227283E+00 0.27469382E+03</pdfrwt>
<pdfrwt beam="2">  1       -2 0.12674532E-02 0.27469382E+03</pdfrwt>
<totfact> 0.78700049E+03</totfact>
</mgrwt>
</event>
<event>
 9    1  0.2074770E-002  0.2752183E+03  0.7818608E-02  0.1098330E+00
          1   -1    0    0  501    0  0.00000000000E+00  0.00000000000E+00  0.26523991348E+03  0.26523991348E+03  0.00000000000E+00 0.  1.
         -1   -1    0    0    0  501 -0.00000000000E+00 -0.00000000000E+00 -0.71393024052E+02  0.71393024052E+02  0.00000000000E+00 0.  1.
         36    2    1    2    0    0  0.00000000000E+00  0.00000000000E+00  0.19384688943E+03  0.33663293753E+03  0.27521830988E+03 0.  0.
         25    2    3    3    0    0 -0.71920893558E+01 -0.46042925330E+02  0.48437048113E+02  0.14079733036E+03  0.12371767653E+03 0.  0.
         25    2    3    3    0    0  0.71920893558E+01  0.46042925330E+02  0.14540984132E+03  0.19583560717E+03  0.12262090344E+03 0.  0.
          5    1    4    4  502    0 -0.60758009141E+02 -0.49193043627E+02  0.27426416694E+02  0.82980657679E+02  0.47000000000E+01 0.  1.
         -5    1    4    4    0  502  0.53565919785E+02  0.31501182971E+01  0.21010631419E+02  0.57816672685E+02  0.47000000000E+01 0.  1.
          5    1    5    5  503    0  0.23974583886E+02  0.84531179243E+02  0.10882169424E+03  0.13994481796E+03  0.47000000000E+01 0.  1.
         -5    1    5    5    0  503 -0.16782494530E+02 -0.38488253913E+02  0.36588147079E+02  0.55890789211E+02  0.47000000000E+01 0.  1.
<mgrwt>
<rscale>  0 0.27521831E+03</rscale>
<asrwt>0</asrwt>
<pdfrwt beam="1">  1        1 0.40806140E-01 0.27521831E+03</pdfrwt>
<pdfrwt beam="2">  1       -1 0.10983542E-01 0.27521831E+03</pdfrwt>
<totfact> 0.53570028E+03</totfact>
</mgrwt>
</event>
<event>
 9    1  0.2074770E-002  0.2752992E+03  0.7818608E-02  0.1098284E+00
          1   -1    0    0  501    0  0.00000000000E+00  0.00000000000E+00  0.51109152814E+03  0.51109152814E+03  0.00000000000E+00 0. -1.
         -1   -1    0    0    0  501 -0.00000000000E+00 -0.00000000000E+00 -0.37072448730E+02  0.37072448730E+02  0.00000000000E+00 0. -1.
         36    2    1    2    0    0  0.00000000000E+00 -0.71054273576E-14  0.47401907941E+03  0.54816397687E+03  0.27529921521E+03 0.  0.
         25    2    3    3    0    0  0.23250600035E+02  0.52944308983E+02  0.18390965517E+03  0.22740117320E+03  0.12060199855E+03 0.  0.
         25    2    3    3    0    0 -0.23250600035E+02 -0.52944308983E+02  0.29010942425E+03  0.32076280367E+03  0.12402261054E+03 0.  0.
          5    1    4    4  502    0 -0.24908551652E+01 -0.28060820016E+02  0.46241576553E+01  0.28932452600E+02  0.47000000000E+01 0.  1.
         -5    1    4    4    0  502  0.25741455200E+02  0.81005128999E+02  0.17928549751E+03  0.19846872060E+03  0.47000000000E+01 0.  1.
          5    1    5    5  503    0  0.29251537552E+02 -0.25995940519E+02  0.19918099411E+02  0.44161771440E+02  0.47000000000E+01 0.  1.
         -5    1    5    5    0  503 -0.52502137587E+02 -0.26948368464E+02  0.27019132484E+03  0.27660103223E+03  0.47000000000E+01 0.  1.
<mgrwt>
<rscale>  0 0.27529922E+03</rscale>
<asrwt>0</asrwt>
<pdfrwt beam="1">  1        1 0.78629461E-01 0.27529922E+03</pdfrwt>
<pdfrwt beam="2">  1       -1 0.57034540E-02 0.27529922E+03</pdfrwt>
<totfact> 0.62966108E+03</totfact>
</mgrwt>
</event>
<event>
 9    1  0.2074770E-002  0.2771788E+03  0.7818608E-02  0.1097240E+00
          2   -1    0    0  501    0  0.00000000000E+00  0.00000000000E+00  0.27477159373E+04  0.27477159373E+04  0.00000000000E+00 0. -1.
         -2   -1    0    0    0  501 -0.00000000000E+00 -0.00000000000E+00 -0.69901762057E+01  0.69901762057E+01  0.00000000000E+00 0. -1.
         36    2    1    2    0    0  0.00000000000E+00 -0.71054273576E-14  0.27407257611E+04  0.27547061135E+04  0.27717877671E+03 0.  0.
         25    2    3    3    0    0  0.52346266923E+02  0.12090434410E+02  0.12604425839E+04  0.12679197248E+04  0.12656465198E+03 0.  0.
         25    2    3    3    0    0 -0.52346266923E+02 -0.12090434410E+02  0.14802831772E+04  0.14867863887E+04  0.12809828451E+03 0.  0.
          5    1    4    4  502    0  0.48771811206E+02 -0.42789258876E+02  0.97635249913E+03  0.97851719597E+03  0.47000000000E+01 0.  1.
         -5    1    4    4    0  502  0.35744557170E+01  0.54879693286E+02  0.28409008475E+03  0.28940252888E+03  0.47000000000E+01 0.  1.
          5    1    5    5  503    0 -0.21093298591E+02 -0.63409476100E+02  0.47532275486E+03  0.48002031227E+03  0.47000000000E+01 0. -1.
         -5    1    5    5    0  503 -0.31252968332E+02  0.51319041690E+02  0.10049604224E+04  0.10067660764E+04  0.47000000000E+01 0. -1.
<mgrwt>
<rscale>  0 0.27717878E+03</rscale>
<asrwt>0</asrwt>
<pdfrwt beam="1">  1        2 0.42272467E+00 0.27717878E+03</pdfrwt>
<pdfrwt beam="2">  1       -2 0.10754139E-02 0.27717878E+03</pdfrwt>
<totfact> 0.55966634E+03</totfact>
</mgrwt>
</event>
<event>
 9    1  0.2074770E-002  0.2748564E+03  0.7818608E-02  0.1098532E+00
          2   -1    0    0  501    0  0.00000000000E+00  0.00000000000E+00  0.10759058722E+04  0.10759058722E+04  0.00000000000E+00 0. -1.
         -2   -1    0    0    0  501 -0.00000000000E+00 -0.00000000000E+00 -0.17554058032E+02  0.17554058032E+02  0.00000000000E+00 0. -1.
         36    2    1    2    0    0  0.71054273576E-14 -0.14210854715E-13  0.10583518141E+04  0.10934599302E+04  0.27485642883E+03 0.  0.
         25    2    3    3    0    0  0.88285632188E+01 -0.53771069265E+02  0.60488384148E+03  0.61986202354E+03  0.12399675451E+03 0.  0.
         25    2    3    3    0    0 -0.88285632188E+01  0.53771069265E+02  0.45346797266E+03  0.47359790666E+03  0.12526972319E+03 0.  0.
          5    1    4    4  502    0  0.42907587558E+02 -0.80442121471E+02  0.38086311821E+03  0.39165137660E+03  0.47000000000E+01 0.  1.
         -5    1    4    4    0  502 -0.34079024339E+02  0.26671052207E+02  0.22402072327E+03  0.22821064694E+03  0.47000000000E+01 0.  1.
          5    1    5    5  503    0 -0.41993970514E+02  0.81559631450E+01  0.49108688383E+02  0.65297523453E+02  0.47000000000E+01 0. -1.
         -5    1    5    5    0  503  0.33165407296E+02  0.45615106120E+02  0.40435928428E+03  0.40830038321E+03  0.47000000000E+01 0. -1.
<mgrwt>
<rscale>  0 0.27485643E+03</rscale>
<asrwt>0</asrwt>
<pdfrwt beam="1">  1        2 0.16552393E+00 0.27485643E+03</pdfrwt>
<pdfrwt beam="2">  1       -2 0.27006252E-02 0.27485643E+03</pdfrwt>
<totfact> 0.11674997E+04</totfact>
</mgrwt>
</event>
<event>
 9    1  0.2074770E-002  0.2720757E+03  0.7818608E-02  0.1100097E+00
          1   -1    0    0  501    0  0.00000000000E+00  0.00000000000E+00  0.88795839188E+02  0.88795839188E+02  0.00000000000E+00 0. -1.
         -1   -1    0    0    0  501 -0.00000000000E+00 -0.00000000000E+00 -0.20841406707E+03  0.20841406707E+03  0.00000000000E+00 0. -1.
         36    2    1    2    0    0  0.00000000000E+00  0.00000000000E+00 -0.11961822788E+03  0.29720990626E+03  0.27207573934E+03 0.  0.
         25    2    3    3    0    0 -0.49082468376E+02 -0.45215804470E+01 -0.84832285316E+02  0.15866396648E+03  0.12469243857E+03 0.  0.
         25    2    3    3    0    0  0.49082468376E+02  0.45215804470E+01 -0.34785942564E+02  0.13854593978E+03  0.12472121807E+03 0.  0.
          5    1    4    4  502    0  0.34126173524E+02  0.28173199841E+02 -0.26052866835E+02  0.51567109469E+02  0.47000000000E+01 0.  1.
         -5    1    4    4    0  502 -0.83208641899E+02 -0.32694780288E+02 -0.58779418481E+02  0.10709685701E+03  0.47000000000E+01 0.  1.
          5    1    5    5  503    0 -0.14021964649E+02 -0.17778538498E+02 -0.61977766035E+02  0.66151533666E+02  0.47000000000E+01 0.  1.
         -5    1    5    5    0  503  0.63104433025E+02  0.22300118945E+02  0.27191823471E+02  0.72394406110E+02  0.47000000000E+01 0.  1.
<mgrwt>
<rscale>  0 0.27207574E+03</rscale>
<asrwt>0</asrwt>
<pdfrwt beam="1">  1        1 0.13660898E-01 0.27207574E+03</pdfrwt>
<pdfrwt beam="2">  1       -1 0.32063702E-01 0.27207574E+03</pdfrwt>
<totfact> 0.38214740E+03</totfact>
</mgrwt>
</event>
<event>
 9    1  0.2074770E-002  0.2780761E+03  0.7818608E-02  0.1096744E+00
         -1   -1    0    0    0  501 -0.00000000000E+00  0.00000000000E+00  0.99846490350E+01  0.99846490350E+01  0.00000000000E+00 0.  1.
          1   -1    0    0  501    0  0.00000000000E+00 -0.00000000000E+00 -0.19361299456E+04  0.19361299456E+04  0.00000000000E+00 0.  1.
         36    2    1    2    0    0  0.14210854715E-13 -0.71054273576E-14 -0.19261452965E+04  0.19461145946E+04  0.27807609025E+03 0.  0.
         25    2    3    3    0    0  0.48750196435E+02 -0.18329285630E+02 -0.11482327661E+04  0.11563580847E+04  0.12654244611E+03 0.  0.
         25    2    3    3    0    0 -0.48750196435E+02  0.18329285630E+02 -0.77791253045E+03  0.78975650986E+03  0.12591622405E+03 0.  0.
          5    1    4    4  502    0 -0.49657728228E+01  0.25569265996E+02 -0.83846550271E+03  0.83888314770E+03  0.47000000000E+01 0.  1.
         -5    1    4    4    0  502  0.53715969258E+02 -0.43898551627E+02 -0.30976726338E+03  0.31747493704E+03  0.47000000000E+01 0.  1.
          5    1    5    5  503    0 -0.59671370511E+02  0.45958369714E+02 -0.72480172551E+03  0.72871975101E+03  0.47000000000E+01 0. -1.
         -5    1    5    5    0  503  0.10921174076E+02 -0.27629084083E+02 -0.53110804933E+02  0.61036758851E+02  0.47000000000E+01 0. -1.
<mgrwt>
<rscale>  0 0.27807609E+03</rscale>
<asrwt>0</asrwt>
<pdfrwt beam="1">  1        1 0.29786613E+00 0.27807609E+03</pdfrwt>
<pdfrwt beam="2">  1       -1 0.15360999E-02 0.27807609E+03</pdfrwt>
<totfact> 0.37422126E+03</totfact>
</mgrwt>
</event>
<event>
 9    1  0.2074770E-002  0.2749464E+03  0.7818608E-02  0.1098482E+00
          1   -1    0    0  501    0  0.00000000000E+00  0.00000000000E+00  0.14707510409E+03  0.14707510409E+03  0.00000000000E+00 0. -1.
         -1   -1    0    0    0  501 -0.00000000000E+00 -0.00000000000E+00 -0.12849814832E+03  0.12849814832E+03  0.00000000000E+00 0. -1.
         36    2    1    2    0    0  0.00000000000E+00  0.71054273576E-14  0.18576955771E+02  0.27557325240E+03  0.27494638415E+03 0.  0.
         25    2    3    3    0    0  0.70065861913E+02 -0.12922792709E+02  0.21162057395E+02  0.14763206953E+03  0.12755850306E+03 0.  0.
         25    2    3    3    0    0 -0.70065861913E+02  0.12922792709E+02 -0.25851016232E+01  0.12794118287E+03  0.10623577527E+03 0.  0.
          5    1    4    4  502    0  0.47688336555E+02 -0.62759708252E+02 -0.17070946013E+02  0.80786543565E+02  0.47000000000E+01 0. -1.
         -5    1    4    4    0  502  0.22377525357E+02  0.49836915543E+02  0.38233003408E+02  0.66845525965E+02  0.47000000000E+01 0. -1.
          5    1    5    5  503    0 -0.66654565931E+01 -0.39567039016E+02 -0.17730295609E+02  0.44118389255E+02  0.47000000000E+01 0. -1.
         -5    1    5    5    0  503 -0.63400405320E+02  0.52489831725E+02  0.15145193986E+02  0.83822793619E+02  0.47000000000E+01 0. -1.
<mgrwt>
<rscale>  0 0.27494638E+03</rscale>
<asrwt>0</asrwt>
<pdfrwt beam="1">  1        1 0.22626939E-01 0.27494638E+03</pdfrwt>
<pdfrwt beam="2">  1       -1 0.19768946E-01 0.27494638E+03</pdfrwt>
<totfact> 0.44430516E+03</totfact>
</mgrwt>
</event>
<event>
 9    1  0.2074770E-002  0.2754788E+03  0.7818608E-02  0.1098184E+00
         -1   -1    0    0    0  501 -0.00000000000E+00  0.00000000000E+00  0.23516064435E+02  0.23516064435E+02  0.00000000000E+00 0. -1.
          1   -1    0    0  501    0  0.00000000000E+00 -0.00000000000E+00 -0.80677375759E+03  0.80677375759E+03  0.00000000000E+00 0. -1.
         36    2    1    2    0    0  0.71054273576E-14 -0.35527136788E-14 -0.78325769315E+03  0.83028982202E+03  0.27547880984E+03 0.  0.
         25    2    3    3    0    0 -0.38646787980E+02  0.18132986660E+02 -0.32240764815E+03  0.35019449947E+03  0.12987346321E+03 0.  0.
         25    2    3    3    0    0  0.38646787980E+02 -0.18132986660E+02 -0.46085004500E+03  0.48009532255E+03  0.12761808388E+03 0.  0.
          5    1    4    4  502    0  0.29820421262E+02  0.27286738291E+02 -0.23593839680E+03  0.23942188851E+03  0.47000000000E+01 0.  1.
         -5    1    4    4    0  502 -0.68467209242E+02 -0.91537516306E+01 -0.86469251351E+02  0.11077261096E+03  0.47000000000E+01 0.  1.
          5    1    5    5  503    0  0.55176529318E+02 -0.49621493850E+02 -0.15245815777E+03  0.16962406053E+03  0.47000000000E+01 0.  1.
         -5    1    5    5    0  503 -0.16529741338E+02  0.31488507190E+02 -0.30839188723E+03  0.31047126202E+03  0.47000000000E+01 0.  1.
<mgrwt>
<rscale>  0 0.27547881E+03</rscale>
<asrwt>0</asrwt>
<pdfrwt beam="1">  1        1 0.12411906E+00 0.27547881E+03</pdfrwt>
<pdfrwt beam="2">  1       -1 0.36178556E-02 0.27547881E+03</pdfrwt>
<totfact> 0.64843214E+03</totfact>
</mgrwt>
</event>
<event>
 9    1  0.2074770E-002  0.2745476E+03  0.7818608E-02  0.1098705E+00
         -1   -1    0    0    0  501 -0.00000000000E+00  0.00000000000E+00  0.89004548611E+01  0.89004548611E+01  0.00000000000E+00 0. -1.
          1   -1    0    0  501    0  0.00000000000E+00 -0.00000000000E+00 -0.21172054042E+04  0.21172054042E+04  0.00000000000E+00 0. -1.
         36    2    1    2    0    0  0.00000000000E+00 -0.14210854715E-13 -0.21083049493E+04  0.21261058590E+04  0.27454756332E+03 0.  0.
         25    2    3    3    0    0 -0.29552098677E+02 -0.68247990048E+02 -0.10437419542E+04  0.10536445500E+04  0.12344414133E+03 0.  0.
         25    2    3    3    0    0  0.29552098677E+02  0.68247990048E+02 -0.10645629951E+04  0.10724613090E+04  0.10652593210E+03 0.  0.
          5    1    4    4  502    0 -0.33641727097E+02 -0.10317969818E+03 -0.78251700245E+03  0.79002073710E+03  0.47000000000E+01 0. -1.
         -5    1    4    4    0  502  0.40896284201E+01  0.34931708133E+02 -0.26122495178E+03  0.26362381290E+03  0.47000000000E+01 0. -1.
          5    1    5    5  503    0  0.11037737457E+02  0.80157395909E+02 -0.10125198887E+04  0.10157586597E+04  0.47000000000E+01 0.  1.
         -5    1    5    5    0  503  0.18514361220E+02 -0.11909405862E+02 -0.52043106415E+02  0.56702649363E+02  0.47000000000E+01 0.  1.
<mgrwt>
<rscale>  0 0.27454756E+03</rscale>
<asrwt>0</asrwt>
<pdfrwt beam="1">  1        1 0.32572382E+00 0.27454756E+03</pdfrwt>
<pdfrwt beam="2">  1       -1 0.13693011E-02 0.27454756E+03</pdfrwt>
<totfact> 0.33738085E+03</totfact>
</mgrwt>
</event>
<event>
 9    1  0.2074770E-002  0.2775360E+03  0.7818608E-02  0.1097042E+00
          2   -1    0    0  501    0  0.00000000000E+00  0.00000000000E+00  0.59020818746E+02  0.59020818746E+02  0.00000000000E+00 0. -1.
         -2   -1    0    0    0  501 -0.00000000000E+00 -0.00000000000E+00 -0.32626729269E+03  0.32626729269E+03  0.00000000000E+00 0. -1.
         36    2    1    2    0    0  0.00000000000E+00  0.00000000000E+00 -0.26724647395E+03  0.38528811144E+03  0.27753603546E+03 0.  0.
         25    2    3    3    0    0  0.57834648090E+02  0.52686098397E+01 -0.16104114837E+03  0.21274332654E+03  0.12630465846E+03 0.  0.
         25    2    3    3    0    0 -0.57834648090E+02 -0.52686098397E+01 -0.10620532558E+03  0.17254478490E+03  0.12296148522E+03 0.  0.
          5    1    4    4  502    0  0.74594759326E+02  0.50550463856E+02 -0.11098040126E+03  0.14303309749E+03  0.47000000000E+01 0.  1.
         -5    1    4    4    0  502 -0.16760111236E+02 -0.45281854016E+02 -0.50060747112E+02  0.69710229043E+02  0.47000000000E+01 0.  1.
          5    1    5    5  503    0 -0.89196698752E+02  0.22538657450E+02 -0.84968990781E+02  0.12532302878E+03  0.47000000000E+01 0.  1.
         -5    1    5    5    0  503  0.31362050662E+02 -0.27807267290E+02 -0.21236334796E+02  0.47221756124E+02  0.47000000000E+01 0.  1.
<mgrwt>
<rscale>  0 0.27753604E+03</rscale>
<asrwt>0</asrwt>
<pdfrwt beam="1">  1        2 0.90801260E-02 0.27753604E+03</pdfrwt>
<pdfrwt beam="2">  1       -2 0.50194968E-01 0.27753604E+03</pdfrwt>
<totfact> 0.27494037E+03</totfact>
</mgrwt>
</event>
<event>
 9    1  0.2074770E-002  0.2751429E+03  0.7818608E-02  0.1098372E+00
         -1   -1    0    0    0  501 -0.00000000000E+00  0.00000000000E+00  0.15516184311E+02  0.15516184311E+02  0.00000000000E+00 0. -1.
          1   -1    0    0  501    0  0.00000000000E+00 -0.00000000000E+00 -0.12197524344E+04  0.12197524344E+04  0.00000000000E+00 0. -1.
         36    2    1    2    0    0  0.14210854715E-13  0.35527136788E-14 -0.12042362501E+04  0.12352686188E+04  0.27514289805E+03 0.  0.
         25    2    3    3    0    0 -0.56933317126E+02 -0.23026873531E+02 -0.71743536151E+03  0.72983585249E+03  0.11905979225E+03 0.  0.
         25    2    3    3    0    0  0.56933317126E+02  0.23026873531E+02 -0.48680088863E+03  0.50543276627E+03  0.12130761125E+03 0.  0.
          5    1    4    4  502    0 -0.13178352635E+02  0.16930236214E+02 -0.19490531092E+02  0.29364479881E+02  0.47000000000E+01 0. -1.
         -5    1    4    4    0  502 -0.43754964491E+02 -0.39957109745E+02 -0.69794483041E+03  0.70047137260E+03  0.47000000000E+01 0. -1.
          5    1    5    5  503    0  0.52827814263E+00 -0.46134044930E+02 -0.18027339257E+03  0.18614299677E+03  0.47000000000E+01 0.  1.
         -5    1    5    5    0  503  0.56405038984E+02  0.69160918461E+02 -0.30652749606E+03  0.31928976950E+03  0.47000000000E+01 0.  1.
<mgrwt>
<rscale>  0 0.27514290E+03</rscale>
<asrwt>0</asrwt>
<pdfrwt beam="1">  1        1 0.18765432E+00 0.27514290E+03</pdfrwt>
<pdfrwt beam="2">  1       -1 0.23871041E-02 0.27514290E+03</pdfrwt>
<totfact> 0.58626425E+03</totfact>
</mgrwt>
</event>
<event>
 9    1  0.2074770E-002  0.2755135E+03  0.7818608E-02  0.1098165E+00
          2   -1    0    0  501    0  0.00000000000E+00  0.00000000000E+00  0.34164871421E+03  0.34164871421E+03  0.00000000000E+00 0.  1.
         -2   -1    0    0    0  501 -0.00000000000E+00 -0.00000000000E+00 -0.55545135056E+02  0.55545135056E+02  0.00000000000E+00 0.  1.
         36    2    1    2    0    0  0.00000000000E+00 -0.71054273576E-14  0.28610357915E+03  0.39719384926E+03  0.27551351308E+03 0.  0.
         25    2    3    3    0    0  0.42317941177E+02  0.39084474868E+02  0.11374491113E+03  0.17862272283E+03  0.12509903270E+03 0.  0.
         25    2    3    3    0    0 -0.42317941177E+02 -0.39084474868E+02  0.17235866802E+03  0.21857112643E+03  0.12143896634E+03 0.  0.
          5    1    4    4  502    0  0.63927536954E+02 -0.25435306559E+02  0.49150794172E+02  0.84685154357E+02  0.47000000000E+01 0.  1.
         -5    1    4    4    0  502 -0.21609595777E+02  0.64519781428E+02  0.64594116959E+02  0.93937568475E+02  0.47000000000E+01 0.  1.
          5    1    5    5  503    0 -0.51901326336E+02 -0.37567180850E+02  0.22117252509E+02  0.67943385337E+02  0.47000000000E+01 0.  1.
         -5    1    5    5    0  503  0.95833851593E+01 -0.15172940181E+01  0.15024141551E+03  0.15062774109E+03  0.47000000000E+01 0.  1.
<mgrwt>
<rscale>  0 0.27551351E+03</rscale>
<asrwt>0</asrwt>
<pdfrwt beam="1">  1        2 0.52561339E-01 0.27551351E+03</pdfrwt>
<pdfrwt beam="2">  1       -2 0.85454056E-02 0.27551351E+03</pdfrwt>
<totfact> 0.80286277E+03</totfact>
</mgrwt>
</event>
<event>
 9    1  0.2074770E-002  0.2746077E+03  0.7818608E-02  0.1098671E+00
         -3   -1    0    0    0  501 -0.00000000000E+00  0.00000000000E+00  0.21616775272E+03  0.21616775272E+03  0.00000000000E+00 0. -1.
          3   -1    0    0  501    0  0.00000000000E+00 -0.00000000000E+00 -0.87211634947E+02  0.87211634947E+02  0.00000000000E+00 0. -1.
         36    2    1    2    0    0  0.00000000000E+00 -0.88817841970E-15  0.12895611778E+03  0.30337938767E+03  0.27460767023E+03 0.  0.
         25    2    3    3    0    0  0.76738368597E+02 -0.36231240695E+01  0.74506937231E+02  0.14720434464E+03  0.10107388952E+03 0.  0.
         25    2    3    3    0    0 -0.76738368597E+02  0.36231240695E+01  0.54449180545E+02  0.15617504303E+03  0.12459545161E+03 0.  0.
          5    1    4    4  502    0  0.91548868147E+00 -0.32279560617E+01  0.70915319103E+02  0.71150054837E+02  0.47000000000E+01 0. -1.
         -5    1    4    4    0  502  0.75822879915E+02 -0.39516800786E+00  0.35916181282E+01  0.76054289801E+02  0.47000000000E+01 0. -1.
          5    1    5    5  503    0 -0.17349583331E+02 -0.14937258539E+02  0.83958241999E+02  0.87150479826E+02  0.47000000000E+01 0. -1.
         -5    1    5    5    0  503 -0.59388785265E+02  0.18560382608E+02 -0.29509061453E+02  0.69024563206E+02  0.47000000000E+01 0. -1.
<mgrwt>
<rscale>  0 0.27460767E+03</rscale>
<asrwt>0</asrwt>
<pdfrwt beam="1">  1        3 0.13417175E-01 0.27460767E+03</pdfrwt>
<pdfrwt beam="2">  1       -3 0.33256577E-01 0.27460767E+03</pdfrwt>
<totfact> 0.10110354E+03</totfact>
</mgrwt>
</event>
<event>
 9    1  0.2074770E-002  0.2750486E+03  0.7818608E-02  0.1098424E+00
          2   -1    0    0  501    0  0.00000000000E+00  0.00000000000E+00  0.69534820581E+03  0.69534820581E+03  0.00000000000E+00 0. -1.
         -2   -1    0    0    0  501 -0.00000000000E+00 -0.00000000000E+00 -0.27199233152E+02  0.27199233152E+02  0.00000000000E+00 0. -1.
         36    2    1    2    0    0 -0.14210854715E-13  0.35527136788E-14  0.66814897266E+03  0.72254743897E+03  0.27504863550E+03 0.  0.
         25    2    3    3    0    0  0.60235713490E+02 -0.16657219796E+02  0.38729829813E+03  0.41186582359E+03  0.12541005045E+03 0.  0.
         25    2    3    3    0    0 -0.60235713490E+02  0.16657219796E+02  0.28085067453E+03  0.31068161538E+03  0.11721843114E+03 0.  0.
          5    1    4    4  502    0  0.48936577146E+01 -0.65638881484E+02  0.17571036969E+03  0.18769292652E+03  0.47000000000E+01 0. -1.
         -5    1    4    4    0  502  0.55342055775E+02  0.48981661687E+02  0.21158792844E+03  0.22417289707E+03  0.47000000000E+01 0. -1.
          5    1    5    5  503    0  0.23636655932E+02  0.91147220553E+01  0.16709496102E+03  0.16906976566E+03  0.47000000000E+01 0.  1.
         -5    1    5    5    0  503 -0.83872369422E+02  0.75424977411E+01  0.11375571351E+03  0.14161184972E+03  0.47000000000E+01 0.  1.
<mgrwt>
<rscale>  0 0.27504864E+03</rscale>
<asrwt>0</asrwt>
<pdfrwt beam="1">  1        2 0.10697663E+00 0.27504864E+03</pdfrwt>
<pdfrwt beam="2">  1       -2 0.41844979E-02 0.27504864E+03</pdfrwt>
<totfact> 0.10811509E+04</totfact>
</mgrwt>
</event>
<event>
 9    1  0.2074770E-002  0.2751430E+03  0.7818608E-02  0.1098372E+00
          1   -1    0    0  501    0  0.00000000000E+00  0.00000000000E+00  0.13119846524E+04  0.13119846524E+04  0.00000000000E+00 0. -1.
         -1   -1    0    0    0  501 -0.00000000000E+00 -0.00000000000E+00 -0.14425410588E+02  0.14425410588E+02  0.00000000000E+00 0. -1.
         36    2    1    2    0    0  0.00000000000E+00  0.00000000000E+00  0.12975592418E+04  0.13264100630E+04  0.27514299771E+03 0.  0.
         25    2    3    3    0    0  0.40066781930E+02  0.16785650292E+02  0.84667571049E+03  0.85718228435E+03  0.12654882381E+03 0.  0.
         25    2    3    3    0    0 -0.40066781930E+02 -0.16785650292E+02  0.45088353131E+03  0.46922777863E+03  0.12244037061E+03 0.  0.
          5    1    4    4  502    0  0.52467052784E+02 -0.29006133614E+02  0.70783512225E+03  0.71038496444E+03  0.47000000000E+01 0.  1.
         -5    1    4    4    0  502 -0.12400270854E+02  0.45791783906E+02  0.13884058824E+03  0.14679731991E+03  0.47000000000E+01 0.  1.
          5    1    5    5  503    0 -0.53522879816E+01  0.25387985314E+02  0.15875621320E+02  0.30778598689E+02  0.47000000000E+01 0.  1.
         -5    1    5    5    0  503 -0.34714493948E+02 -0.42173635606E+02  0.43500790999E+03  0.43844917994E+03  0.47000000000E+01 0.  1.
<mgrwt>
<rscale>  0 0.27514300E+03</rscale>
<asrwt>0</asrwt>
<pdfrwt beam="1">  1        1 0.20184370E+00 0.27514300E+03</pdfrwt>
<pdfrwt beam="2">  1       -1 0.22192950E-02 0.27514300E+03</pdfrwt>
<totfact> 0.56361624E+03</totfact>
</mgrwt>
</event>
<event>
 9    1  0.2074770E-002  0.2750240E+03  0.7818608E-02  0.1098438E+00
          2   -1    0    0  501    0  0.00000000000E+00  0.00000000000E+00  0.13575478204E+03  0.13575478204E+03  0.00000000000E+00 0.  1.
         -2   -1    0    0    0  501 -0.00000000000E+00 -0.00000000000E+00 -0.13929195639E+03  0.13929195639E+03  0.00000000000E+00 0.  1.
         36    2    1    2    0    0  0.00000000000E+00  0.00000000000E+00 -0.35371743478E+01  0.27504673842E+03  0.27502399298E+03 0.  0.
         25    2    3    3    0    0 -0.11089006390E+02 -0.27519478239E+02 -0.47477504626E+02  0.13826315694E+03  0.12642111919E+03 0.  0.
         25    2    3    3    0    0  0.11089006390E+02  0.27519478239E+02  0.43940330278E+02  0.13678358148E+03  0.12609007809E+03 0.  0.
          5    1    4    4  502    0  0.25605042633E+02  0.40689979270E+02 -0.20512043345E+01  0.48348630388E+02  0.47000000000E+01 0. -1.
         -5    1    4    4    0  502 -0.36694049022E+02 -0.68209457509E+02 -0.45426300291E+02  0.89914526554E+02  0.47000000000E+01 0. -1.
          5    1    5    5  503    0  0.36121641697E+02  0.44269397685E+02  0.74242614954E+02  0.93800897892E+02  0.47000000000E+01 0. -1.
         -5    1    5    5    0  503 -0.25032635307E+02 -0.16749919446E+02 -0.30302284676E+02  0.42982683588E+02  0.47000000000E+01 0. -1.
<mgrwt>
<rscale>  0 0.27502399E+03</rscale>
<asrwt>0</asrwt>
<pdfrwt beam="1">  1        2 0.20885351E-01 0.27502399E+03</pdfrwt>
<pdfrwt beam="2">  1       -2 0.21429532E-01 0.27502399E+03</pdfrwt>
<totfact> 0.48923038E+03</totfact>
</mgrwt>
</event>
<event>
 9    1  0.2074770E-002  0.2805901E+03  0.7818608E-02  0.1095367E+00
         -3   -1    0    0    0  501 -0.00000000000E+00  0.00000000000E+00  0.17988087483E+02  0.17988087483E+02  0.00000000000E+00 0.  1.
          3   -1    0    0  501    0  0.00000000000E+00 -0.00000000000E+00 -0.10942072922E+04  0.10942072922E+04  0.00000000000E+00 0.  1.
         36    2    1    2    0    0  0.00000000000E+00 -0.71054273576E-14 -0.10762192048E+04  0.11121953797E+04  0.28059006752E+03 0.  0.
         25    2    3    3    0    0  0.25489926851E+02  0.57090653305E+02 -0.57631845457E+03  0.59295649604E+03  0.12468105729E+03 0.  0.
         25    2    3    3    0    0 -0.25489926851E+02 -0.57090653305E+02 -0.49990075019E+03  0.51923888370E+03  0.12569478602E+03 0.  0.
          5    1    4    4  502    0 -0.39488401331E+02 -0.78505319883E+01 -0.27310947899E+03  0.27610114489E+03  0.47000000000E+01 0. -1.
         -5    1    4    4    0  502  0.64978328182E+02  0.64941185293E+02 -0.30320897558E+03  0.31685535115E+03  0.47000000000E+01 0. -1.
          5    1    5    5  503    0 -0.17476626877E+02 -0.12279839669E+02 -0.45363986632E+03  0.45416675931E+03  0.47000000000E+01 0. -1.
         -5    1    5    5    0  503 -0.80132999735E+01 -0.44810813635E+02 -0.46260883877E+02  0.65072124386E+02  0.47000000000E+01 0. -1.
<mgrwt>
<rscale>  0 0.28059007E+03</rscale>
<asrwt>0</asrwt>
<pdfrwt beam="1">  1        3 0.16833957E+00 0.28059007E+03</pdfrwt>
<pdfrwt beam="2">  1       -3 0.27673982E-02 0.28059007E+03</pdfrwt>
<totfact> 0.37441900E+02</totfact>
</mgrwt>
</event>
<event>
 9    1  0.2074770E-002  0.2760234E+03  0.7818608E-02  0.1097881E+00
          1   -1    0    0  501    0  0.00000000000E+00  0.00000000000E+00  0.30044817114E+02  0.30044817114E+02  0.00000000000E+00 0. -1.
         -1   -1    0    0    0  501 -0.00000000000E+00 -0.00000000000E+00 -0.63396064104E+03  0.63396064104E+03  0.00000000000E+00 0. -1.
         36    2    1    2    0    0  0.71054273576E-14 -0.35527136788E-14 -0.60391582393E+03  0.66400545815E+03  0.27602341580E+03 0.  0.
         25    2    3    3    0    0 -0.40524157932E+02  0.27542708795E+02 -0.39948867794E+03  0.42070083887E+03  0.12246298969E+03 0.  0.
         25    2    3    3    0    0  0.40524157932E+02 -0.27542708795E+02 -0.20442714599E+03  0.24330461928E+03  0.12249845535E+03 0.  0.
          5    1    4    4  502    0 -0.18544263069E+01  0.50461657161E+02 -0.61542320702E+02  0.79745626699E+02  0.47000000000E+01 0. -1.
         -5    1    4    4    0  502 -0.38669731626E+02 -0.22918948366E+02 -0.33794635723E+03  0.34095521217E+03  0.47000000000E+01 0. -1.
          5    1    5    5  503    0 -0.31263778015E+02 -0.33806889688E+02 -0.31731895166E+02  0.56118916392E+02  0.47000000000E+01 0.  1.
         -5    1    5    5    0  503  0.71787935947E+02  0.62641808935E+01 -0.17269525082E+03  0.18718570289E+03  0.47000000000E+01 0.  1.
<mgrwt>
<rscale>  0 0.27602342E+03</rscale>
<asrwt>0</asrwt>
<pdfrwt beam="1">  1        1 0.46222798E-02 0.27602342E+03</pdfrwt>
<pdfrwt beam="2">  1       -1 0.97532400E-01 0.27602342E+03</pdfrwt>
<totfact> 0.19771974E+03</totfact>
</mgrwt>
</event>
<event>
 9    1  0.2074770E-002  0.2730372E+03  0.7818608E-02  0.1099554E+00
         -4   -1    0    0    0  501 -0.00000000000E+00  0.00000000000E+00  0.26617480322E+02  0.26617480322E+02  0.00000000000E+00 0. -1.
          4   -1    0    0  501    0  0.00000000000E+00 -0.00000000000E+00 -0.70019135847E+03  0.70019135847E+03  0.00000000000E+00 0. -1.
         36    2    1    2    0    0  0.00000000000E+00  0.00000000000E+00 -0.67357387815E+03  0.72680883880E+03  0.27303721142E+03 0.  0.
         25    2    3    3    0    0 -0.33615996533E+02 -0.47648453513E+02 -0.34739714515E+03  0.37311528838E+03  0.12300338052E+03 0.  0.
         25    2    3    3    0    0  0.33615996533E+02  0.47648453513E+02 -0.32617673301E+03  0.35369355042E+03  0.12372330463E+03 0.  0.
          5    1    4    4  502    0 -0.61709684286E+02 -0.37638265723E+02 -0.33084956628E+03  0.33868606362E+03  0.47000000000E+01 0. -1.
         -5    1    4    4    0  502  0.28093687753E+02 -0.10010187790E+02 -0.16547578869E+02  0.34429224760E+02  0.47000000000E+01 0. -1.
          5    1    5    5  503    0 -0.12383676426E+02 -0.21950163752E+02 -0.20442712581E+03  0.20602840799E+03  0.47000000000E+01 0. -1.
         -5    1    5    5    0  503  0.45999672958E+02  0.69598617265E+02 -0.12174960719E+03  0.14766514243E+03  0.47000000000E+01 0. -1.
<mgrwt>
<rscale>  0 0.27303721E+03</rscale>
<asrwt>0</asrwt>
<pdfrwt beam="1">  1        4 0.10772175E+00 0.27303721E+03</pdfrwt>
<pdfrwt beam="2">  1       -4 0.40949970E-02 0.27303721E+03</pdfrwt>
<totfact> 0.44140892E+02</totfact>
</mgrwt>
</event>
<event>
 9    1  0.2074770E-002  0.2750300E+03  0.7818608E-02  0.1098435E+00
          2   -1    0    0  501    0  0.00000000000E+00  0.00000000000E+00  0.12264658421E+04  0.12264658421E+04  0.00000000000E+00 0. -1.
         -2   -1    0    0    0  501 -0.00000000000E+00 -0.00000000000E+00 -0.15418589374E+02  0.15418589374E+02  0.00000000000E+00 0. -1.
         36    2    1    2    0    0 -0.71054273576E-14  0.35527136788E-14  0.12110472527E+04  0.12418844315E+04  0.27502998528E+03 0.  0.
         25    2    3    3    0    0 -0.25791603563E+02 -0.19967202465E+02  0.86099166946E+03  0.86988733290E+03  0.11972226645E+03 0.  0.
         25    2    3    3    0    0  0.25791603563E+02  0.19967202465E+02  0.35005558328E+03  0.37199709858E+03  0.12156905025E+03 0.  0.
          5    1    4    4  502    0 -0.16413909522E+02  0.48287043216E+02  0.47640044205E+03  0.47914562103E+03  0.47000000000E+01 0. -1.
         -5    1    4    4    0  502 -0.93776940414E+01 -0.68254245680E+02  0.38459122741E+03  0.39074171187E+03  0.47000000000E+01 0. -1.
          5    1    5    5  503    0 -0.48676524157E+02  0.12813059359E+02  0.15491305092E+03  0.16295312773E+03  0.47000000000E+01 0. -1.
         -5    1    5    5    0  503  0.74468127720E+02  0.71541431058E+01  0.19514253236E+03  0.20904397084E+03  0.47000000000E+01 0. -1.
<mgrwt>
<rscale>  0 0.27502999E+03</rscale>
<asrwt>0</asrwt>
<pdfrwt beam="1">  1        2 0.18868698E+00 0.27502999E+03</pdfrwt>
<pdfrwt beam="2">  1       -2 0.23720916E-02 0.27502999E+03</pdfrwt>
<totfact> 0.11580409E+04</totfact>
</mgrwt>
</event>
<event>
 9    1  0.2074770E-002  0.2743803E+03  0.7818608E-02  0.1098798E+00
          2   -1    0    0  501    0  0.00000000000E+00  0.00000000000E+00  0.19735913709E+04  0.19735913709E+04  0.00000000000E+00 0. -1.
         -2   -1    0    0    0  501 -0.00000000000E+00 -0.00000000000E+00 -0.95364922103E+01  0.95364922103E+01  0.00000000000E+00 0. -1.
         36    2    1    2    0    0 -0.35527136788E-14  0.00000000000E+00  0.19640548787E+04  0.19831278631E+04  0.27438031077E+03 0.  0.
         25    2    3    3    0    0 -0.13464404105E+01  0.50162649856E+02  0.11821494694E+04  0.11897164693E+04  0.12421676585E+03 0.  0.
         25    2    3    3    0    0  0.13464404105E+01 -0.50162649856E+02  0.78190540927E+03  0.79341139382E+03  0.12492984611E+03 0.  0.
          5    1    4    4  502    0 -0.17693351687E+02 -0.72503210768E+01  0.94228862888E+03  0.94249433524E+03  0.47000000000E+01 0.  1.
         -5    1    4    4    0  502  0.16346911277E+02  0.57412970933E+02  0.23986084051E+03  0.24722213402E+03  0.47000000000E+01 0.  1.
          5    1    5    5  503    0  0.44069217772E+02 -0.31571443552E+02  0.66859284337E+03  0.67080349746E+03  0.47000000000E+01 0. -1.
         -5    1    5    5    0  503 -0.42722777362E+02 -0.18591206304E+02  0.11331256590E+03  0.12260789635E+03  0.47000000000E+01 0. -1.
<mgrwt>
<rscale>  0 0.27438031E+03</rscale>
<asrwt>0</asrwt>
<pdfrwt beam="1">  1        2 0.30362912E+00 0.27438031E+03</pdfrwt>
<pdfrwt beam="2">  1       -2 0.14671542E-02 0.27438031E+03</pdfrwt>
<totfact> 0.93482068E+03</totfact>
</mgrwt>
</event>
<event>
 9    1  0.2074770E-002  0.2742302E+03  0.7818608E-02  0.1098883E+00
          1   -1    0    0  501    0  0.00000000000E+00  0.00000000000E+00  0.28575566362E+04  0.28575566362E+04  0.00000000000E+00 0. -1.
         -1   -1    0    0    0  501 -0.00000000000E+00 -0.00000000000E+00 -0.65792413193E+01  0.65792413193E+01  0.00000000000E+00 0. -1.
         36    2    1    2    0    0  0.00000000000E+00  0.71054273576E-14  0.28509773949E+04  0.28641358776E+04  0.27423022950E+03 0.  0.
         25    2    3    3    0    0  0.16224739526E+02 -0.36787750467E+02  0.18836252615E+04  0.18881018950E+04  0.12356398882E+03 0.  0.
         25    2    3    3    0    0 -0.16224739526E+02  0.36787750467E+02  0.96735213343E+03  0.97603398259E+03  0.12351357960E+03 0.  0.
          5    1    4    4  502    0 -0.48422129719E+02  0.80920440296E+01  0.88262303593E+03  0.88399982883E+03  0.47000000000E+01 0. -1.
         -5    1    4    4    0  502  0.64646869245E+02 -0.44879794496E+02  0.10010022256E+04  0.10041020661E+04  0.47000000000E+01 0. -1.
          5    1    5    5  503    0  0.34754150364E+02 -0.70788987025E+01  0.10262601404E+03  0.10868371788E+03  0.47000000000E+01 0. -1.
         -5    1    5    5    0  503 -0.50978889890E+02  0.43866649169E+02  0.86472611939E+03  0.86735026471E+03  0.47000000000E+01 0. -1.
<mgrwt>
<rscale>  0 0.27423023E+03</rscale>
<asrwt>0</asrwt>
<pdfrwt beam="1">  1        1 0.43962311E+00 0.27423023E+03</pdfrwt>
<pdfrwt beam="2">  1       -1 0.10121933E-02 0.27423023E+03</pdfrwt>
<totfact> 0.16799100E+03</totfact>
</mgrwt>
</event>
<event>
 9    1  0.2074770E-002  0.2745841E+03  0.7818608E-02  0.1098684E+00
         -3   -1    0    0    0  501 -0.00000000000E+00  0.00000000000E+00  0.19291465258E+03  0.19291465258E+03  0.00000000000E+00 0. -1.
          3   -1    0    0  501    0  0.00000000000E+00 -0.00000000000E+00 -0.97706975727E+02  0.97706975727E+02  0.00000000000E+00 0. -1.
         36    2    1    2    0    0  0.71054273576E-14  0.71054273576E-14  0.95207676848E+02  0.29062162830E+03  0.27458410206E+03 0.  0.
         25    2    3    3    0    0 -0.43085997917E+02  0.30004030188E+02  0.64132516556E+02  0.15385412462E+03  0.12962047268E+03 0.  0.
         25    2    3    3    0    0  0.43085997917E+02 -0.30004030188E+02  0.31075160292E+02  0.13676750368E+03  0.12240522633E+03 0.  0.
          5    1    4    4  502    0  0.89949448045E+01  0.27867839051E+02  0.90510850505E+02  0.95246152387E+02  0.47000000000E+01 0.  1.
         -5    1    4    4    0  502 -0.52080942722E+02  0.21361911371E+01 -0.26378333949E+02  0.58607972233E+02  0.47000000000E+01 0.  1.
          5    1    5    5  503    0  0.59919720295E+02 -0.68328453969E+02  0.19211485411E+02  0.93007105501E+02  0.47000000000E+01 0. -1.
         -5    1    5    5    0  503 -0.16833722378E+02  0.38324423781E+02  0.11863674881E+02  0.43760398180E+02  0.47000000000E+01 0. -1.
<mgrwt>
<rscale>  0 0.27458410E+03</rscale>
<asrwt>0</asrwt>
<pdfrwt beam="1">  1        3 0.15031842E-01 0.27458410E+03</pdfrwt>
<pdfrwt beam="2">  1       -3 0.29679177E-01 0.27458410E+03</pdfrwt>
<totfact> 0.10300487E+03</totfact>
</mgrwt>
</event>
<event>
 9    1  0.2074770E-002  0.2761316E+03  0.7818608E-02  0.1097821E+00
          1   -1    0    0  501    0  0.00000000000E+00  0.00000000000E+00  0.46439322590E+03  0.46439322590E+03  0.00000000000E+00 0.  1.
         -1   -1    0    0    0  501 -0.00000000000E+00 -0.00000000000E+00 -0.41047474430E+02  0.41047474430E+02  0.00000000000E+00 0.  1.
         36    2    1    2    0    0  0.17763568394E-14 -0.14210854715E-13  0.42334575147E+03  0.50544070033E+03  0.27613162851E+03 0.  0.
         25    2    3    3    0    0 -0.42647211687E+01  0.46212071737E+02  0.13055521475E+03  0.18517781916E+03  0.12285119938E+03 0.  0.
         25    2    3    3    0    0  0.42647211687E+01 -0.46212071737E+02  0.29279053672E+03  0.32026288117E+03  0.12119517829E+03 0.  0.
          5    1    4    4  502    0  0.14829487317E+02 -0.37620626486E+02  0.66050344327E+02  0.77588421926E+02  0.47000000000E+01 0.  1.
         -5    1    4    4    0  502 -0.19094208486E+02  0.83832698223E+02  0.64504870422E+02  0.10758939723E+03  0.47000000000E+01 0.  1.
          5    1    5    5  503    0  0.41999575480E+01  0.96781375842E+00 -0.11043063575E+02  0.12752080614E+02  0.47000000000E+01 0. -1.
         -5    1    5    5    0  503  0.64763620677E-01 -0.47179885496E+02  0.30383360030E+03  0.30751080056E+03  0.47000000000E+01 0. -1.
<mgrwt>
<rscale>  0 0.27613163E+03</rscale>
<asrwt>0</asrwt>
<pdfrwt beam="1">  1        1 0.71445108E-01 0.27613163E+03</pdfrwt>
<pdfrwt beam="2">  1       -1 0.63149964E-02 0.27613163E+03</pdfrwt>
<totfact> 0.61297360E+03</totfact>
</mgrwt>
</event>
<event>
 9    1  0.2074770E-002  0.2752574E+03  0.7818608E-02  0.1098308E+00
          2   -1    0    0  501    0  0.00000000000E+00  0.00000000000E+00  0.17944002647E+02  0.17944002647E+02  0.00000000000E+00 0.  1.
         -2   -1    0    0    0  501 -0.00000000000E+00 -0.00000000000E+00 -0.10555981870E+04  0.10555981870E+04  0.00000000000E+00 0.  1.
         36    2    1    2    0    0 -0.71054273576E-14  0.00000000000E+00 -0.10376541843E+04  0.10735421896E+04  0.27525738254E+03 0.  0.
         25    2    3    3    0    0  0.27666405908E+02 -0.81444866553E+01 -0.29770632537E+03  0.32235308443E+03  0.12021103193E+03 0.  0.
         25    2    3    3    0    0 -0.27666405908E+02  0.81444866553E+01 -0.73994785894E+03  0.75118910517E+03  0.12621598592E+03 0.  0.
          5    1    4    4  502    0  0.50662185164E+02 -0.26448204959E+02 -0.60767426809E+02  0.83551988080E+02  0.47000000000E+01 0. -1.
         -5    1    4    4    0  502 -0.22995779256E+02  0.18303718304E+02 -0.23693889856E+03  0.23880109635E+03  0.47000000000E+01 0. -1.
          5    1    5    5  503    0 -0.16969418395E+02  0.34788752406E+02 -0.70337896200E+03  0.70445885092E+03  0.47000000000E+01 0. -1.
         -5    1    5    5    0  503 -0.10696987513E+02 -0.26644265751E+02 -0.36568896942E+02  0.46730254256E+02  0.47000000000E+01 0. -1.
<mgrwt>
<rscale>  0 0.27525738E+03</rscale>
<asrwt>0</asrwt>
<pdfrwt beam="1">  1        2 0.27606155E-02 0.27525738E+03</pdfrwt>
<pdfrwt beam="2">  1       -2 0.16239974E+00 0.27525738E+03</pdfrwt>
<totfact> 0.90382393E+02</totfact>
</mgrwt>
</event>
<event>
 9    1  0.2074770E-002  0.2747273E+03  0.7818608E-02  0.1098604E+00
          1   -1    0    0  501    0  0.00000000000E+00  0.00000000000E+00  0.96302835867E+03  0.96302835867E+03  0.00000000000E+00 0. -1.
         -1   -1    0    0    0  501 -0.00000000000E+00 -0.00000000000E+00 -0.19593168096E+02  0.19593168096E+02  0.00000000000E+00 0. -1.
         36    2    1    2    0    0  0.00000000000E+00  0.00000000000E+00  0.94343519058E+03  0.98262152677E+03  0.27472733036E+03 0.  0.
         25    2    3    3    0    0 -0.42044186556E+02  0.48776886856E+02  0.38271137687E+03  0.40574762207E+03  0.11839018760E+03 0.  0.
         25    2    3    3    0    0  0.42044186556E+02 -0.48776886856E+02  0.56072381371E+03  0.57687390470E+03  0.11927031627E+03 0.  0.
          5    1    4    4  502    0  0.33773327558E+01 -0.24939069739E+02  0.21898052152E+03  0.22047204444E+03  0.47000000000E+01 0.  1.
         -5    1    4    4    0  502 -0.45421519311E+02  0.73715956594E+02  0.16373085535E+03  0.18527557763E+03  0.47000000000E+01 0.  1.
          5    1    5    5  503    0  0.34963646454E+02 -0.39971522166E+02  0.56204260857E+03  0.56456546388E+03  0.47000000000E+01 0. -1.
         -5    1    5    5    0  503  0.70805401020E+01 -0.88053646900E+01 -0.13187948588E+01  0.12308440817E+02  0.47000000000E+01 0. -1.
<mgrwt>
<rscale>  0 0.27472733E+03</rscale>
<asrwt>0</asrwt>
<pdfrwt beam="1">  1        1 0.14815817E+00 0.27472733E+03</pdfrwt>
<pdfrwt beam="2">  1       -1 0.30143343E-02 0.27472733E+03</pdfrwt>
<totfact> 0.63835417E+03</totfact>
</mgrwt>
</event>
<event>
 9    1  0.2074770E-002  0.2750595E+03  0.7818608E-02  0.1098418E+00
         -1   -1    0    0    0  501 -0.00000000000E+00  0.00000000000E+00  0.89374404877E+01  0.89374404877E+01  0.00000000000E+00 0.  1.
          1   -1    0    0  501    0  0.00000000000E+00 -0.00000000000E+00 -0.21163141152E+04  0.21163141152E+04  0.00000000000E+00 0.  1.
         36    2    1    2    0    0 -0.35527136788E-14  0.00000000000E+00 -0.21073766747E+04  0.21252515557E+04  0.27505949508E+03 0.  0.
         25    2    3    3    0    0 -0.23919646157E+02 -0.44088303829E+02 -0.10237433079E+04  0.10327588696E+04  0.12658828646E+03 0.  0.
         25    2    3    3    0    0  0.23919646157E+02  0.44088303829E+02 -0.10836333668E+04  0.10924926861E+04  0.12947226525E+03 0.  0.
          5    1    4    4  502    0  0.38343879507E+02  0.55417940963E+01 -0.13742985990E+03  0.14286364467E+03  0.47000000000E+01 0. -1.
         -5    1    4    4    0  502 -0.62263525665E+02 -0.49630097926E+02 -0.88631344799E+03  0.88989522492E+03  0.47000000000E+01 0. -1.
          5    1    5    5  503    0  0.11294241106E+01 -0.16467069231E+01 -0.93921236679E+03  0.93922624919E+03  0.47000000000E+01 0. -1.
         -5    1    5    5    0  503  0.22790222047E+02  0.45735010753E+02 -0.14442100003E+03  0.15326643689E+03  0.47000000000E+01 0. -1.
<mgrwt>
<rscale>  0 0.27505950E+03</rscale>
<asrwt>0</asrwt>
<pdfrwt beam="1">  1        1 0.32558654E+00 0.27505950E+03</pdfrwt>
<pdfrwt beam="2">  1       -1 0.13749919E-02 0.27505950E+03</pdfrwt>
<totfact> 0.33579772E+03</totfact>
</mgrwt>
</event>
<event>
 9    1  0.2074770E-002  0.2761082E+03  0.7818608E-02  0.1097834E+00
          2   -1    0    0  501    0  0.00000000000E+00  0.00000000000E+00  0.10650779662E+04  0.10650779662E+04  0.00000000000E+00 0. -1.
         -2   -1    0    0    0  501 -0.00000000000E+00 -0.00000000000E+00 -0.17894408611E+02  0.17894408611E+02  0.00000000000E+00 0. -1.
         36    2    1    2    0    0 -0.35527136788E-14  0.00000000000E+00  0.10471835576E+04  0.10829723748E+04  0.27610824203E+03 0.  0.
         25    2    3    3    0    0  0.17365212515E+02 -0.17597728965E+02  0.32272399465E+03  0.34713903275E+03  0.12547310733E+03 0.  0.
         25    2    3    3    0    0 -0.17365212515E+02  0.17597728965E+02  0.72445956293E+03  0.73583334205E+03  0.12648248213E+03 0.  0.
          5    1    4    4  502    0 -0.13226948590E+02  0.22796644299E+01  0.30667760506E+03  0.30700715380E+03  0.47000000000E+01 0.  1.
         -5    1    4    4    0  502  0.30592161105E+02 -0.19877393395E+02  0.16046389594E+02  0.40131878952E+02  0.47000000000E+01 0.  1.
          5    1    5    5  503    0  0.17999966690E+02  0.51571302496E+02  0.15811341134E+03  0.16734855508E+03  0.47000000000E+01 0. -1.
         -5    1    5    5    0  503 -0.35365179205E+02 -0.33973573530E+02  0.56634615159E+03  0.56848478697E+03  0.47000000000E+01 0. -1.
<mgrwt>
<rscale>  0 0.27610824E+03</rscale>
<asrwt>0</asrwt>
<pdfrwt beam="1">  1        2 0.16385810E+00 0.27610824E+03</pdfrwt>
<pdfrwt beam="2">  1       -2 0.27529868E-02 0.27610824E+03</pdfrwt>
<totfact> 0.11517964E+04</totfact>
</mgrwt>
</event>
<event>
 9    1  0.2074770E-002  0.2750699E+03  0.7818608E-02  0.1098413E+00
          2   -1    0    0  501    0  0.00000000000E+00  0.00000000000E+00  0.88645280360E+03  0.88645280360E+03  0.00000000000E+00 0.  1.
         -2   -1    0    0    0  501 -0.00000000000E+00 -0.00000000000E+00 -0.21338827200E+02  0.21338827200E+02  0.00000000000E+00 0.  1.
         36    2    1    2    0    0 -0.14210854715E-13 -0.35527136788E-14  0.86511397640E+03  0.90779163080E+03  0.27506990528E+03 0.  0.
         25    2    3    3    0    0  0.46020369038E+02  0.12997393094E+02  0.31927589868E+03  0.34628125522E+03  0.12524696260E+03 0.  0.
         25    2    3    3    0    0 -0.46020369038E+02 -0.12997393094E+02  0.54583807771E+03  0.56151037558E+03  0.12275132671E+03 0.  0.
          5    1    4    4  502    0 -0.19092698242E+02 -0.19886314409E+02  0.22625339708E+03  0.22797518794E+03  0.47000000000E+01 0.  1.
         -5    1    4    4    0  502  0.65113067279E+02  0.32883707503E+02  0.93022501608E+02  0.11830606728E+03  0.47000000000E+01 0.  1.
          5    1    5    5  503    0  0.29445578722E+02  0.16367674792E+02  0.60204248220E+02  0.69149001352E+02  0.47000000000E+01 0.  1.
         -5    1    5    5    0  503 -0.75465947759E+02 -0.29365067885E+02  0.48563382949E+03  0.49236137423E+03  0.47000000000E+01 0.  1.
<mgrwt>
<rscale>  0 0.27506991E+03</rscale>
<asrwt>0</asrwt>
<pdfrwt beam="1">  1        2 0.13637733E+00 0.27506991E+03</pdfrwt>
<pdfrwt beam="2">  1       -2 0.32828972E-02 0.27506991E+03</pdfrwt>
<totfact> 0.11440809E+04</totfact>
</mgrwt>
</event>
<event>
 9    1  0.2074770E-002  0.2752733E+03  0.7818608E-02  0.1098299E+00
          2   -1    0    0  501    0  0.00000000000E+00  0.00000000000E+00  0.21322925261E+02  0.21322925261E+02  0.00000000000E+00 0.  1.
         -2   -1    0    0    0  501 -0.00000000000E+00 -0.00000000000E+00 -0.88842632682E+03  0.88842632682E+03  0.00000000000E+00 0.  1.
         36    2    1    2    0    0 -0.71054273576E-14  0.00000000000E+00 -0.86710340156E+03  0.90974925208E+03  0.27527330540E+03 0.  0.
         25    2    3    3    0    0  0.42286623952E+02  0.37261651914E+02 -0.46560324754E+03  0.48540169196E+03  0.12510727064E+03 0.  0.
         25    2    3    3    0    0 -0.42286623952E+02 -0.37261651914E+02 -0.40150015402E+03  0.42434756013E+03  0.12526726962E+03 0.  0.
          5    1    4    4  502    0  0.48977252869E+02  0.49707069690E+02 -0.11580448253E+03  0.13528611255E+03  0.47000000000E+01 0.  1.
         -5    1    4    4    0  502 -0.66906289164E+01 -0.12445417776E+02 -0.34979876501E+03  0.35011557940E+03  0.47000000000E+01 0.  1.
          5    1    5    5  503    0 -0.76375217319E+02 -0.58371326338E+02 -0.30219586404E+03  0.31715109302E+03  0.47000000000E+01 0.  1.
         -5    1    5    5    0  503  0.34088593367E+02  0.21109674424E+02 -0.99304289978E+02  0.10719646711E+03  0.47000000000E+01 0.  1.
<mgrwt>
<rscale>  0 0.27527331E+03</rscale>
<asrwt>0</asrwt>
<pdfrwt beam="1">  1        2 0.32804501E-02 0.27527331E+03</pdfrwt>
<pdfrwt beam="2">  1       -2 0.13668097E+00 0.27527331E+03</pdfrwt>
<totfact> 0.11157578E+03</totfact>
</mgrwt>
</event>
<event>
 9    1  0.2074770E-002  0.2755634E+03  0.7818608E-02  0.1098137E+00
          2   -1    0    0  501    0  0.00000000000E+00  0.00000000000E+00  0.85795770205E+03  0.85795770205E+03  0.00000000000E+00 0.  1.
         -2   -1    0    0    0  501 -0.00000000000E+00 -0.00000000000E+00 -0.22126736071E+02  0.22126736071E+02  0.00000000000E+00 0.  1.
         36    2    1    2    0    0 -0.71054273576E-14  0.00000000000E+00  0.83583096598E+03  0.88008443812E+03  0.27556344920E+03 0.  0.
         25    2    3    3    0    0  0.38049317123E+02 -0.21744303405E+02  0.49766898288E+03  0.51703133831E+03  0.13314061368E+03 0.  0.
         25    2    3    3    0    0 -0.38049317123E+02  0.21744303405E+02  0.33816198310E+03  0.36305309981E+03  0.12463330696E+03 0.  0.
          5    1    4    4  502    0  0.50932854722E+02 -0.26824376702E+02  0.77735024563E+02  0.96842794876E+02  0.47000000000E+01 0.  1.
         -5    1    4    4    0  502 -0.12883537599E+02  0.50800732962E+01  0.41993395832E+03  0.42018854344E+03  0.47000000000E+01 0.  1.
          5    1    5    5  503    0  0.16851607530E+02  0.16198479761E+02  0.38089334811E+01  0.24144676373E+02  0.47000000000E+01 0. -1.
         -5    1    5    5    0  503 -0.54900924653E+02  0.55458236446E+01  0.33435304962E+03  0.33890842344E+03  0.47000000000E+01 0. -1.
<mgrwt>
<rscale>  0 0.27556345E+03</rscale>
<asrwt>0</asrwt>
<pdfrwt beam="1">  1        2 0.13199347E+00 0.27556345E+03</pdfrwt>
<pdfrwt beam="2">  1       -2 0.34041139E-02 0.27556345E+03</pdfrwt>
<totfact> 0.11315835E+04</totfact>
</mgrwt>
</event>
<event>
 9    1  0.2074770E-002  0.2751993E+03  0.7818608E-02  0.1098340E+00
         -1   -1    0    0    0  501 -0.00000000000E+00  0.00000000000E+00  0.52975556862E+02  0.52975556862E+02  0.00000000000E+00 0.  1.
          1   -1    0    0  501    0  0.00000000000E+00 -0.00000000000E+00 -0.35740371366E+03  0.35740371366E+03  0.00000000000E+00 0.  1.
         36    2    1    2    0    0  0.00000000000E+00  0.00000000000E+00 -0.30442815680E+03  0.41037927052E+03  0.27519927875E+03 0.  0.
         25    2    3    3    0    0  0.21753000348E+02  0.40237085094E+02 -0.92515260717E+02  0.15819911065E+03  0.11989857841E+03 0.  0.
         25    2    3    3    0    0 -0.21753000348E+02 -0.40237085094E+02 -0.21191289608E+03  0.25218015987E+03  0.12882368364E+03 0.  0.
          5    1    4    4  502    0  0.13189607168E+02 -0.41865146419E+02 -0.21021660313E+02  0.48894339388E+02  0.47000000000E+01 0. -1.
         -5    1    4    4    0  502  0.85633931794E+01  0.82102231513E+02 -0.71493600404E+02  0.10930477126E+03  0.47000000000E+01 0. -1.
          5    1    5    5  503    0  0.42442561315E+02 -0.50454183005E+02 -0.14183198045E+03  0.15647810157E+03  0.47000000000E+01 0. -1.
         -5    1    5    5    0  503 -0.64195561663E+02  0.10217097911E+02 -0.70080915636E+02  0.95702058302E+02  0.47000000000E+01 0. -1.
<mgrwt>
<rscale>  0 0.27519928E+03</rscale>
<asrwt>0</asrwt>
<pdfrwt beam="1">  1        1 0.54985186E-01 0.27519928E+03</pdfrwt>
<pdfrwt beam="2">  1       -1 0.81500858E-02 0.27519928E+03</pdfrwt>
<totfact> 0.58262818E+03</totfact>
</mgrwt>
</event>
<event>
 9    1  0.2074770E-002  0.2797431E+03  0.7818608E-02  0.1095829E+00
          2   -1    0    0  501    0  0.00000000000E+00  0.00000000000E+00  0.10899188419E+04  0.10899188419E+04  0.00000000000E+00 0. -1.
         -2   -1    0    0    0  501 -0.00000000000E+00 -0.00000000000E+00 -0.17950006837E+02  0.17950006837E+02  0.00000000000E+00 0. -1.
         36    2    1    2    0    0  0.00000000000E+00  0.00000000000E+00  0.10719688351E+04  0.11078688488E+04  0.27974310118E+03 0.  0.
         25    2    3    3    0    0  0.12851307447E+02  0.25354570549E+02  0.74069330469E+03  0.75166347717E+03  0.12475336048E+03 0.  0.
         25    2    3    3    0    0 -0.12851307447E+02 -0.25354570549E+02  0.33127553042E+03  0.35620537161E+03  0.12779193777E+03 0.  0.
          5    1    4    4  502    0  0.19478553101E+02  0.30993486914E+02  0.74085368818E+03  0.74177239606E+03  0.47000000000E+01 0.  1.
         -5    1    4    4    0  502 -0.66272456536E+01 -0.56389163653E+01 -0.16038349199E+00  0.98910811134E+01  0.47000000000E+01 0.  1.
          5    1    5    5  503    0  0.68297818814E+01  0.49516804972E+02  0.93877660436E+02  0.10645968732E+03  0.47000000000E+01 0.  1.
         -5    1    5    5    0  503 -0.19681089329E+02 -0.74871375521E+02  0.23739786998E+03  0.24974568429E+03  0.47000000000E+01 0.  1.
<mgrwt>
<rscale>  0 0.27974310E+03</rscale>
<asrwt>0</asrwt>
<pdfrwt beam="1">  1        2 0.16767977E+00 0.27974310E+03</pdfrwt>
<pdfrwt beam="2">  1       -2 0.27615404E-02 0.27974310E+03</pdfrwt>
<totfact> 0.11087105E+04</totfact>
</mgrwt>
</event>
<event>
 9    1  0.2074770E-002  0.2748880E+03  0.7818608E-02  0.1098514E+00
          2   -1    0    0  501    0  0.00000000000E+00  0.00000000000E+00  0.10247710182E+04  0.10247710182E+04  0.00000000000E+00 0. -1.
         -2   -1    0    0    0  501 -0.00000000000E+00 -0.00000000000E+00 -0.18434216441E+02  0.18434216441E+02  0.00000000000E+00 0. -1.
         36    2    1    2    0    0 -0.71054273576E-14  0.00000000000E+00  0.10063368018E+04  0.10432052347E+04  0.27488798266E+03 0.  0.
         25    2    3    3    0    0 -0.25754342306E+02 -0.37902665597E+02  0.37929940932E+03  0.40243921618E+03  0.12644913051E+03 0.  0.
         25    2    3    3    0    0  0.25754342306E+02  0.37902665597E+02  0.62703739248E+03  0.64076601849E+03  0.12371459366E+03 0.  0.
          5    1    4    4  502    0 -0.67388821821E+02 -0.40110045047E+02  0.14995682510E+03  0.16929030810E+03  0.47000000000E+01 0.  1.
         -5    1    4    4    0  502  0.41634479515E+02  0.22073794492E+01  0.22934258421E+03  0.23314890809E+03  0.47000000000E+01 0.  1.
          5    1    5    5  503    0  0.59615280739E+02  0.23996725557E+02  0.56438873065E+03  0.56805506231E+03  0.47000000000E+01 0.  1.
         -5    1    5    5    0  503 -0.33860938433E+02  0.13905940040E+02  0.62648661828E+02  0.72710956182E+02  0.47000000000E+01 0.  1.
<mgrwt>
<rscale>  0 0.27488798E+03</rscale>
<asrwt>0</asrwt>
<pdfrwt beam="1">  1        2 0.15765704E+00 0.27488798E+03</pdfrwt>
<pdfrwt beam="2">  1       -2 0.28360341E-02 0.27488798E+03</pdfrwt>
<totfact> 0.11650780E+04</totfact>
</mgrwt>
</event>
<event>
 9    1  0.2074770E-002  0.2750371E+03  0.7818608E-02  0.1098431E+00
         -2   -1    0    0    0  501 -0.00000000000E+00  0.00000000000E+00  0.63966562814E+01  0.63966562814E+01  0.00000000000E+00 0.  1.
          2   -1    0    0  501    0  0.00000000000E+00 -0.00000000000E+00 -0.29564433095E+04  0.29564433095E+04  0.00000000000E+00 0.  1.
         36    2    1    2    0    0  0.17763568394E-14  0.00000000000E+00 -0.29500466532E+04  0.29628399658E+04  0.27503710052E+03 0.  0.
         25    2    3    3    0    0 -0.86410593139E+01 -0.31918979547E+02 -0.10816962200E+04  0.10894065856E+04  0.12508599917E+03 0.  0.
         25    2    3    3    0    0  0.86410593139E+01  0.31918979547E+02 -0.18683504332E+04  0.18734333802E+04  0.13388726442E+03 0.  0.
          5    1    4    4  502    0  0.16185065294E+02  0.16310392409E+02 -0.88508321549E+03  0.88539390871E+03  0.47000000000E+01 0.  1.
         -5    1    4    4    0  502 -0.24826124608E+02 -0.48229371956E+02 -0.19661300452E+03  0.20401267688E+03  0.47000000000E+01 0.  1.
          5    1    5    5  503    0 -0.13836413846E+02 -0.28456156547E+02 -0.14291795916E+04  0.14295375456E+04  0.47000000000E+01 0.  1.
         -5    1    5    5    0  503  0.22477473160E+02  0.60375136093E+02 -0.43917084155E+03  0.44389583455E+03  0.47000000000E+01 0.  1.
<mgrwt>
<rscale>  0 0.27503710E+03</rscale>
<asrwt>0</asrwt>
<pdfrwt beam="1">  1        2 0.45483653E+00 0.27503710E+03</pdfrwt>
<pdfrwt beam="2">  1       -2 0.98410291E-03 0.27503710E+03</pdfrwt>
<totfact> 0.48245959E+03</totfact>
</mgrwt>
</event>
<event>
 9    1  0.2074770E-002  0.2750946E+03  0.7818608E-02  0.1098399E+00
          2   -1    0    0  501    0  0.00000000000E+00  0.00000000000E+00  0.31702054517E+04  0.31702054517E+04  0.00000000000E+00 0. -1.
         -2   -1    0    0    0  501 -0.00000000000E+00 -0.00000000000E+00 -0.59678340209E+01  0.59678340209E+01  0.00000000000E+00 0. -1.
         36    2    1    2    0    0 -0.35527136788E-14  0.00000000000E+00  0.31642376177E+04  0.31761732858E+04  0.27509460153E+03 0.  0.
         25    2    3    3    0    0 -0.53393033726E+00  0.59780695541E+02  0.14320251615E+04  0.14384204698E+04  0.12158687572E+03 0.  0.
         25    2    3    3    0    0  0.53393033726E+00 -0.59780695541E+02  0.17322124563E+04  0.17377528159E+04  0.12510331328E+03 0.  0.
          5    1    4    4  502    0 -0.83906652705E+01  0.90371878242E+02  0.72491887689E+03  0.73059355849E+03  0.47000000000E+01 0.  1.
         -5    1    4    4    0  502  0.78567349332E+01 -0.30591182700E+02  0.70710628457E+03  0.70782691135E+03  0.47000000000E+01 0.  1.
          5    1    5    5  503    0  0.48516350621E+02 -0.19103879660E+02  0.33042408794E+03  0.33454590475E+03  0.47000000000E+01 0.  1.
         -5    1    5    5    0  503 -0.47982420284E+02 -0.40676815881E+02  0.14017883683E+04  0.14032069112E+04  0.47000000000E+01 0.  1.
<mgrwt>
<rscale>  0 0.27509460E+03</rscale>
<asrwt>0</asrwt>
<pdfrwt beam="1">  1        2 0.48772257E+00 0.27509460E+03</pdfrwt>
<pdfrwt beam="2">  1       -2 0.91813084E-03 0.27509460E+03</pdfrwt>
<totfact> 0.39707152E+03</totfact>
</mgrwt>
</event>
<event>
 9    1  0.2074770E-002  0.2761033E+03  0.7818608E-02  0.1097836E+00
         -2   -1    0    0    0  501 -0.00000000000E+00  0.00000000000E+00  0.18980327959E+02  0.18980327959E+02  0.00000000000E+00 0. -1.
          2   -1    0    0  501    0  0.00000000000E+00 -0.00000000000E+00 -0.10041060111E+04  0.10041060111E+04  0.00000000000E+00 0. -1.
         36    2    1    2    0    0  0.14210854715E-13 -0.71054273576E-14 -0.98512568317E+03  0.10230863391E+04  0.27610332412E+03 0.  0.
         25    2    3    3    0    0 -0.56842852292E+02  0.13562901918E+02 -0.44895723513E+03  0.46971544465E+03  0.12511969389E+03 0.  0.
         25    2    3    3    0    0  0.56842852292E+02 -0.13562901918E+02 -0.53616844804E+03  0.55337089444E+03  0.12380500788E+03 0.  0.
          5    1    4    4  502    0 -0.31044142937E+02  0.89233516215E+01 -0.16749171797E+02  0.36687733246E+02  0.47000000000E+01 0.  1.
         -5    1    4    4    0  502 -0.25798709355E+02  0.46395502970E+01 -0.43220806333E+03  0.43302771140E+03  0.47000000000E+01 0.  1.
          5    1    5    5  503    0  0.53973111119E+02 -0.64548773908E+02 -0.29442900622E+03  0.30625180921E+03  0.47000000000E+01 0.  1.
         -5    1    5    5    0  503  0.28697411725E+01  0.50985871989E+02 -0.24173944182E+03  0.24711908524E+03  0.47000000000E+01 0.  1.
<mgrwt>
<rscale>  0 0.27610332E+03</rscale>
<asrwt>0</asrwt>
<pdfrwt beam="1">  1        2 0.15447789E+00 0.27610332E+03</pdfrwt>
<pdfrwt beam="2">  1       -2 0.29200496E-02 0.27610332E+03</pdfrwt>
<totfact> 0.11485416E+04</totfact>
</mgrwt>
</event>
<event>
 9    1  0.2074770E-002  0.2741456E+03  0.7818608E-02  0.1098930E+00
          1   -1    0    0  501    0  0.00000000000E+00  0.00000000000E+00  0.16076632673E+04  0.16076632673E+04  0.00000000000E+00 0. -1.
         -1   -1    0    0    0  501 -0.00000000000E+00 -0.00000000000E+00 -0.11687123211E+02  0.11687123211E+02  0.00000000000E+00 0. -1.
         36    2    1    2    0    0 -0.71054273576E-14  0.00000000000E+00  0.15959761441E+04  0.16193503905E+04  0.27414564514E+03 0.  0.
         25    2    3    3    0    0 -0.28605349977E+02  0.35980067547E+02  0.57884771220E+03  0.59363584331E+03  0.12339371631E+03 0.  0.
         25    2    3    3    0    0  0.28605349977E+02 -0.35980067547E+02  0.10171284319E+04  0.10257145472E+04  0.12420649779E+03 0.  0.
          5    1    4    4  502    0  0.38116266282E+02  0.49955279308E+02  0.29887242704E+03  0.30544262527E+03  0.47000000000E+01 0.  1.
         -5    1    4    4    0  502 -0.66721616260E+02 -0.13975211761E+02  0.27997528516E+03  0.28819321804E+03  0.47000000000E+01 0.  1.
          5    1    5    5  503    0  0.42785811490E+02 -0.58894473340E+02  0.95559278253E+03  0.95837301750E+03  0.47000000000E+01 0. -1.
         -5    1    5    5    0  503 -0.14180461513E+02  0.22914405793E+02  0.61535649389E+02  0.67341529737E+02  0.47000000000E+01 0. -1.
<mgrwt>
<rscale>  0 0.27414565E+03</rscale>
<asrwt>0</asrwt>
<pdfrwt beam="1">  1        1 0.24733263E+00 0.27414565E+03</pdfrwt>
<pdfrwt beam="2">  1       -1 0.17980202E-02 0.27414565E+03</pdfrwt>
<totfact> 0.48684725E+03</totfact>
</mgrwt>
</event>
<event>
 9    1  0.2074770E-002  0.2783225E+03  0.7818608E-02  0.1096609E+00
          2   -1    0    0  501    0  0.00000000000E+00  0.00000000000E+00  0.10251574893E+03  0.10251574893E+03  0.00000000000E+00 0. -1.
         -2   -1    0    0    0  501 -0.00000000000E+00 -0.00000000000E+00 -0.18890608680E+03  0.18890608680E+03  0.00000000000E+00 0. -1.
         36    2    1    2    0    0  0.14210854715E-13  0.10658141036E-13 -0.86390337874E+02  0.29142183572E+03  0.27832246740E+03 0.  0.
         25    2    3    3    0    0  0.39669636535E+02  0.30956394876E+02 -0.24818580701E+02  0.14355705516E+03  0.13213889545E+03 0.  0.
         25    2    3    3    0    0 -0.39669636535E+02 -0.30956394876E+02 -0.61571757173E+02  0.14786478057E+03  0.12466328090E+03 0.  0.
          5    1    4    4  502    0 -0.46219172533E+02 -0.33180325208E+01 -0.20427711823E+02  0.50858653735E+02  0.47000000000E+01 0.  1.
         -5    1    4    4    0  502  0.85888809068E+02  0.34274427397E+02 -0.43908688782E+01  0.92698401421E+02  0.47000000000E+01 0.  1.
          5    1    5    5  503    0  0.36864424638E+01  0.58467915142E+01  0.34841360882E+02  0.35829949165E+02  0.47000000000E+01 0.  1.
         -5    1    5    5    0  503 -0.43356078999E+02 -0.36803186390E+02 -0.96413118055E+02  0.11203483140E+03  0.47000000000E+01 0.  1.
<mgrwt>
<rscale>  0 0.27832247E+03</rscale>
<asrwt>0</asrwt>
<pdfrwt beam="1">  1        2 0.15771654E-01 0.27832247E+03</pdfrwt>
<pdfrwt beam="2">  1       -2 0.29062475E-01 0.27832247E+03</pdfrwt>
<totfact> 0.39579507E+03</totfact>
</mgrwt>
</event>
<event>
 9    1  0.2074770E-002  0.2744962E+03  0.7818608E-02  0.1098734E+00
         -2   -1    0    0    0  501 -0.00000000000E+00  0.00000000000E+00  0.96566833588E+01  0.96566833588E+01  0.00000000000E+00 0. -1.
          2   -1    0    0  501    0  0.00000000000E+00 -0.00000000000E+00 -0.19506739897E+04  0.19506739897E+04  0.00000000000E+00 0. -1.
         36    2    1    2    0    0 -0.35527136788E-14  0.35527136788E-14 -0.19410173063E+04  0.19603306730E+04  0.27449620073E+03 0.  0.
         25    2    3    3    0    0 -0.23266578723E+02  0.26892755771E+02 -0.14400185091E+04  0.14457759264E+04  0.12389579849E+03 0.  0.
         25    2    3    3    0    0  0.23266578723E+02 -0.26892755771E+02 -0.50099879722E+03  0.51455474661E+03  0.11181340906E+03 0.  0.
          5    1    4    4  502    0  0.34073837264E+02  0.29335300707E+02 -0.10990242190E+04  0.10999535946E+04  0.47000000000E+01 0. -1.
         -5    1    4    4    0  502 -0.57340415987E+02 -0.24425449357E+01 -0.34099429010E+03  0.34582233186E+03  0.47000000000E+01 0. -1.
          5    1    5    5  503    0  0.24169491850E+02  0.41458651276E+02 -0.18191001375E+03  0.18819226128E+03  0.47000000000E+01 0. -1.
         -5    1    5    5    0  503 -0.90291312692E+00 -0.68351407047E+02 -0.31908878347E+03  0.32636248533E+03  0.47000000000E+01 0. -1.
<mgrwt>
<rscale>  0 0.27449620E+03</rscale>
<asrwt>0</asrwt>
<pdfrwt beam="1">  1        2 0.30010329E+00 0.27449620E+03</pdfrwt>
<pdfrwt beam="2">  1       -2 0.14856456E-02 0.27449620E+03</pdfrwt>
<totfact> 0.94366817E+03</totfact>
</mgrwt>
</event>
<event>
 9    1  0.2074770E-002  0.2747036E+03  0.7818608E-02  0.1098617E+00
          2   -1    0    0  501    0  0.00000000000E+00  0.00000000000E+00  0.20738293204E+04  0.20738293204E+04  0.00000000000E+00 0. -1.
         -2   -1    0    0    0  501 -0.00000000000E+00 -0.00000000000E+00 -0.90969482359E+01  0.90969482359E+01  0.00000000000E+00 0. -1.
         36    2    1    2    0    0  0.35527136788E-14 -0.71054273576E-14  0.20647323721E+04  0.20829262686E+04  0.27470360738E+03 0.  0.
         25    2    3    3    0    0  0.31862161508E+02 -0.38452336663E+02  0.13208388823E+04  0.13278621162E+04  0.12691992381E+03 0.  0.
         25    2    3    3    0    0 -0.31862161508E+02  0.38452336663E+02  0.74389348986E+03  0.75506415245E+03  0.11937575353E+03 0.  0.
          5    1    4    4  502    0  0.50493318756E+02 -0.57667029607E+02  0.12438517040E+04  0.12462199698E+04  0.47000000000E+01 0.  1.
         -5    1    4    4    0  502 -0.18631157248E+02  0.19214692944E+02  0.76987178264E+02  0.81642146361E+02  0.47000000000E+01 0.  1.
          5    1    5    5  503    0  0.11027997181E+02  0.28690325129E+02  0.65532710752E+03  0.65606437133E+03  0.47000000000E+01 0.  1.
         -5    1    5    5    0  503 -0.42890158689E+02  0.97620115340E+01  0.88566382345E+02  0.98999781127E+02  0.47000000000E+01 0.  1.
<mgrwt>
<rscale>  0 0.27470361E+03</rscale>
<asrwt>0</asrwt>
<pdfrwt beam="1">  1        2 0.31905029E+00 0.27470361E+03</pdfrwt>
<pdfrwt beam="2">  1       -2 0.13995321E-02 0.27470361E+03</pdfrwt>
<totfact> 0.88694898E+03</totfact>
</mgrwt>
</event>
<event>
 9    1  0.2074770E-002  0.2729422E+03  0.7818608E-02  0.1099607E+00
          2   -1    0    0  501    0  0.00000000000E+00  0.00000000000E+00  0.93027816206E+03  0.93027816206E+03  0.00000000000E+00 0. -1.
         -2   -1    0    0    0  501 -0.00000000000E+00 -0.00000000000E+00 -0.20020206464E+02  0.20020206464E+02  0.00000000000E+00 0. -1.
         36    2    1    2    0    0  0.71054273576E-14 -0.71054273576E-14  0.91025795560E+03  0.95029836853E+03  0.27294219808E+03 0.  0.
         25    2    3    3    0    0 -0.34168402808E+02  0.45046656872E+02  0.55531823855E+03  0.57021479803E+03  0.11648986556E+03 0.  0.
         25    2    3    3    0    0  0.34168402808E+02 -0.45046656872E+02  0.35493971705E+03  0.38008357050E+03  0.12363105103E+03 0.  0.
          5    1    4    4  502    0 -0.41275485050E+01  0.66111510019E+02  0.16089036511E+03  0.17405622080E+03  0.47000000000E+01 0. -1.
         -5    1    4    4    0  502 -0.30040854303E+02 -0.21064853147E+02  0.39442787344E+03  0.39615857723E+03  0.47000000000E+01 0. -1.
          5    1    5    5  503    0 -0.40801659389E+02  0.10144961561E+02  0.12517524380E+03  0.13213109897E+03  0.47000000000E+01 0.  1.
         -5    1    5    5    0  503  0.74970062197E+02 -0.55191618432E+02  0.22976447325E+03  0.24795247153E+03  0.47000000000E+01 0.  1.
<mgrwt>
<rscale>  0 0.27294220E+03</rscale>
<asrwt>0</asrwt>
<pdfrwt beam="1">  1        2 0.14311968E+00 0.27294220E+03</pdfrwt>
<pdfrwt beam="2">  1       -2 0.30800325E-02 0.27294220E+03</pdfrwt>
<totfact> 0.11789065E+04</totfact>
</mgrwt>
</event>
<event>
 9    1  0.2074770E-002  0.2741240E+03  0.7818608E-02  0.1098942E+00
          2   -1    0    0  501    0  0.00000000000E+00  0.00000000000E+00  0.42557285170E+03  0.42557285170E+03  0.00000000000E+00 0.  1.
         -2   -1    0    0    0  501 -0.00000000000E+00 -0.00000000000E+00 -0.44142844759E+02  0.44142844759E+02  0.00000000000E+00 0.  1.
         36    2    1    2    0    0  0.14210854715E-13  0.14210854715E-13  0.38143000694E+03  0.46971569646E+03  0.27412403270E+03 0.  0.
         25    2    3    3    0    0  0.38034560476E+02  0.31463156253E+02  0.24009506535E+03  0.27471954002E+03  0.12405090598E+03 0.  0.
         25    2    3    3    0    0 -0.38034560476E+02 -0.31463156253E+02  0.14133494159E+03  0.19499615643E+03  0.12494549738E+03 0.  0.
          5    1    4    4  502    0  0.19309243247E+02 -0.17626124401E+02 -0.22891422674E+01  0.26661907443E+02  0.47000000000E+01 0.  1.
         -5    1    4    4    0  502  0.18725317230E+02  0.49089280654E+02  0.24238420762E+03  0.24805763258E+03  0.47000000000E+01 0.  1.
          5    1    5    5  503    0  0.65449114369E+01 -0.64247620503E+02  0.11832272883E+03  0.13488124690E+03  0.47000000000E+01 0. -1.
         -5    1    5    5    0  503 -0.44579471913E+02  0.32784464250E+02  0.23012212756E+02  0.60114909533E+02  0.47000000000E+01 0. -1.
<mgrwt>
<rscale>  0 0.27412403E+03</rscale>
<asrwt>0</asrwt>
<pdfrwt beam="1">  1        2 0.65472744E-01 0.27412403E+03</pdfrwt>
<pdfrwt beam="2">  1       -2 0.67912072E-02 0.27412403E+03</pdfrwt>
<totfact> 0.90471476E+03</totfact>
</mgrwt>
</event>
<event>
 9    1  0.2074770E-002  0.2737310E+03  0.7818608E-02  0.1099163E+00
         -2   -1    0    0    0  501 -0.00000000000E+00  0.00000000000E+00  0.72392942378E+01  0.72392942378E+01  0.00000000000E+00 0. -1.
          2   -1    0    0  501    0  0.00000000000E+00 -0.00000000000E+00 -0.25875687686E+04  0.25875687686E+04  0.00000000000E+00 0. -1.
         36    2    1    2    0    0 -0.71054273576E-14  0.00000000000E+00 -0.25803294744E+04  0.25948080629E+04  0.27373104812E+03 0.  0.
         25    2    3    3    0    0 -0.31210972585E+02 -0.43534601978E+02 -0.14903091227E+04  0.14963374702E+04  0.12302502612E+03 0.  0.
         25    2    3    3    0    0  0.31210972585E+02  0.43534601978E+02 -0.10900203517E+04  0.10984705927E+04  0.12499555808E+03 0.  0.
          5    1    4    4  502    0  0.35113066290E+02 -0.55668463994E+02 -0.80741186206E+03  0.81010364170E+03  0.47000000000E+01 0.  1.
         -5    1    4    4    0  502 -0.66324038875E+02  0.12133862016E+02 -0.68289726067E+03  0.68623382850E+03  0.47000000000E+01 0.  1.
          5    1    5    5  503    0  0.24801903088E+02 -0.14412692470E+02 -0.87938321251E+03  0.87986350336E+03  0.47000000000E+01 0. -1.
         -5    1    5    5    0  503  0.64090694967E+01  0.57947294448E+02 -0.21063713916E+03  0.21860708931E+03  0.47000000000E+01 0. -1.
<mgrwt>
<rscale>  0 0.27373105E+03</rscale>
<asrwt>0</asrwt>
<pdfrwt beam="1">  1        2 0.39808735E+00 0.27373105E+03</pdfrwt>
<pdfrwt beam="2">  1       -2 0.11137380E-02 0.27373105E+03</pdfrwt>
<totfact> 0.65411864E+03</totfact>
</mgrwt>
</event>
<event>
 9    1  0.2074770E-002  0.2745861E+03  0.7818608E-02  0.1098683E+00
         -1   -1    0    0    0  501 -0.00000000000E+00  0.00000000000E+00  0.17110461697E+03  0.17110461697E+03  0.00000000000E+00 0. -1.
          1   -1    0    0  501    0  0.00000000000E+00 -0.00000000000E+00 -0.11016292882E+03  0.11016292882E+03  0.00000000000E+00 0. -1.
         36    2    1    2    0    0  0.00000000000E+00  0.00000000000E+00  0.60941688154E+02  0.28126754578E+03  0.27458613031E+03 0.  0.
         25    2    3    3    0    0 -0.62891322555E+01  0.17627964201E+02  0.36668973457E+02  0.13092154181E+03  0.12428007962E+03 0.  0.
         25    2    3    3    0    0  0.62891322555E+01 -0.17627964201E+02  0.24272714696E+02  0.15034600397E+03  0.14718851153E+03 0.  0.
          5    1    4    4  502    0 -0.18006116531E+02 -0.29320223840E+01  0.79533131228E+02  0.81733872725E+02  0.47000000000E+01 0. -1.
         -5    1    4    4    0  502  0.11716984276E+02  0.20559986585E+02 -0.42864157771E+02  0.49187669088E+02  0.47000000000E+01 0. -1.
          5    1    5    5  503    0 -0.14482057638E+02  0.49675124420E+02 -0.31166146092E+02  0.60586852054E+02  0.47000000000E+01 0.  1.
         -5    1    5    5    0  503  0.20771189894E+02 -0.67303088621E+02  0.55438860788E+02  0.89759151918E+02  0.47000000000E+01 0.  1.
<mgrwt>
<rscale>  0 0.27458613E+03</rscale>
<asrwt>0</asrwt>
<pdfrwt beam="1">  1        1 0.16948143E-01 0.27458613E+03</pdfrwt>
<pdfrwt beam="2">  1       -1 0.26323787E-01 0.27458613E+03</pdfrwt>
<totfact> 0.40247015E+03</totfact>
</mgrwt>
</event>
<event>
 9    1  0.2074770E-002  0.2755108E+03  0.7818608E-02  0.1098166E+00
          2   -1    0    0  501    0  0.00000000000E+00  0.00000000000E+00  0.11322373342E+04  0.11322373342E+04  0.00000000000E+00 0.  1.
         -2   -1    0    0    0  501 -0.00000000000E+00 -0.00000000000E+00 -0.16760225456E+02  0.16760225456E+02  0.00000000000E+00 0.  1.
         36    2    1    2    0    0  0.00000000000E+00  0.00000000000E+00  0.11154771087E+04  0.11489975596E+04  0.27551082004E+03 0.  0.
         25    2    3    3    0    0  0.54548875637E+01  0.33995053834E+02  0.37898613110E+03  0.40050921664E+03  0.12486683132E+03 0.  0.
         25    2    3    3    0    0 -0.54548875637E+01 -0.33995053834E+02  0.73649097761E+03  0.74848834298E+03  0.12895898572E+03 0.  0.
          5    1    4    4  502    0 -0.14159088090E+02  0.74912251428E+02  0.16654891075E+03  0.18322924128E+03  0.47000000000E+01 0. -1.
         -5    1    4    4    0  502  0.19613975654E+02 -0.40917197594E+02  0.21243722035E+03  0.21727997536E+03  0.47000000000E+01 0. -1.
          5    1    5    5  503    0  0.25168504616E+02 -0.35106285593E+02  0.78144253121E+02  0.89412075296E+02  0.47000000000E+01 0. -1.
         -5    1    5    5    0  503 -0.30623392180E+02  0.11112317594E+01  0.65834672449E+03  0.65907626769E+03  0.47000000000E+01 0. -1.
<mgrwt>
<rscale>  0 0.27551082E+03</rscale>
<asrwt>0</asrwt>
<pdfrwt beam="1">  1        2 0.17419030E+00 0.27551082E+03</pdfrwt>
<pdfrwt beam="2">  1       -2 0.25784971E-02 0.27551082E+03</pdfrwt>
<totfact> 0.11588648E+04</totfact>
</mgrwt>
</event>
<event>
 9    1  0.2074770E-002  0.2750912E+03  0.7818608E-02  0.1098401E+00
         -2   -1    0    0    0  501 -0.00000000000E+00  0.00000000000E+00  0.17693185911E+02  0.17693185911E+02  0.00000000000E+00 0. -1.
          2   -1    0    0  501    0  0.00000000000E+00 -0.00000000000E+00 -0.10692700062E+04  0.10692700062E+04  0.00000000000E+00 0. -1.
         36    2    1    2    0    0  0.00000000000E+00  0.00000000000E+00 -0.10515768203E+04  0.10869631921E+04  0.27509120676E+03 0.  0.
         25    2    3    3    0    0  0.20754900817E+02 -0.24461844647E+02 -0.67974258241E+03  0.69223920074E+03  0.12694874930E+03 0.  0.
         25    2    3    3    0    0 -0.20754900817E+02  0.24461844647E+02 -0.37183423788E+03  0.39472399137E+03  0.12851918594E+03 0.  0.
          5    1    4    4  502    0  0.46094429114E+02 -0.39154864479E+02 -0.15191922307E+03  0.16358282351E+03  0.47000000000E+01 0.  1.
         -5    1    4    4    0  502 -0.25339528297E+02  0.14693019831E+02 -0.52782335934E+03  0.52865637723E+03  0.47000000000E+01 0.  1.
          5    1    5    5  503    0  0.23208138237E+02 -0.44480921206E+02 -0.15143972064E+03  0.15960341168E+03  0.47000000000E+01 0. -1.
         -5    1    5    5    0  503 -0.43963039054E+02  0.68942765853E+02 -0.22039451724E+03  0.23512057969E+03  0.47000000000E+01 0. -1.
<mgrwt>
<rscale>  0 0.27509121E+03</rscale>
<asrwt>0</asrwt>
<pdfrwt beam="1">  1        2 0.16450309E+00 0.27509121E+03</pdfrwt>
<pdfrwt beam="2">  1       -2 0.27220284E-02 0.27509121E+03</pdfrwt>
<totfact> 0.11644511E+04</totfact>
</mgrwt>
</event>
<event>
 9    1  0.2074770E-002  0.2761341E+03  0.7818608E-02  0.1097819E+00
          2   -1    0    0  501    0  0.00000000000E+00  0.00000000000E+00  0.13226856294E+04  0.13226856294E+04  0.00000000000E+00 0.  1.
         -2   -1    0    0    0  501 -0.00000000000E+00 -0.00000000000E+00 -0.14411975564E+02  0.14411975564E+02  0.00000000000E+00 0.  1.
         36    2    1    2    0    0  0.71054273576E-14  0.00000000000E+00  0.13082736539E+04  0.13370976050E+04  0.27613411937E+03 0.  0.
         25    2    3    3    0    0  0.48714500718E+02 -0.55018673658E+01  0.42623478431E+03  0.44640695715E+03  0.12328709144E+03 0.  0.
         25    2    3    3    0    0 -0.48714500718E+02  0.55018673658E+01  0.88203886955E+03  0.89069064783E+03  0.11372725978E+03 0.  0.
          5    1    4    4  502    0 -0.33363350652E+01 -0.50500183703E+02  0.28185674467E+03  0.28640306248E+03  0.47000000000E+01 0. -1.
         -5    1    4    4    0  502  0.52050835783E+02  0.44998316337E+02  0.14437803964E+03  0.16000389467E+03  0.47000000000E+01 0. -1.
          5    1    5    5  503    0 -0.37899573166E+02 -0.23376838258E+02  0.82027927275E+03  0.82150047444E+03  0.47000000000E+01 0. -1.
         -5    1    5    5    0  503 -0.10814927551E+02  0.28878705624E+02  0.61759596799E+02  0.69190173386E+02  0.47000000000E+01 0. -1.
<mgrwt>
<rscale>  0 0.27613412E+03</rscale>
<asrwt>0</asrwt>
<pdfrwt beam="1">  1        2 0.20349000E+00 0.27613412E+03</pdfrwt>
<pdfrwt beam="2">  1       -2 0.22172281E-02 0.27613412E+03</pdfrwt>
<totfact> 0.11309365E+04</totfact>
</mgrwt>
</event>
<event>
 9    1  0.2074770E-002  0.2750965E+03  0.7818608E-02  0.1098398E+00
         -2   -1    0    0    0  501 -0.00000000000E+00  0.00000000000E+00  0.11405905418E+02  0.11405905418E+02  0.00000000000E+00 0.  1.
          2   -1    0    0  501    0  0.00000000000E+00 -0.00000000000E+00 -0.16587473022E+04  0.16587473022E+04  0.00000000000E+00 0.  1.
         36    2    1    2    0    0  0.00000000000E+00 -0.71054273576E-14 -0.16473413968E+04  0.16701532077E+04  0.27509645466E+03 0.  0.
         25    2    3    3    0    0  0.19515499870E+02 -0.50731827390E+02 -0.75225111011E+03  0.76525206917E+03  0.12951611349E+03 0.  0.
         25    2    3    3    0    0 -0.19515499870E+02  0.50731827390E+02 -0.89509028672E+03  0.90490113850E+03  0.12126366329E+03 0.  0.
          5    1    4    4  502    0  0.13933608218E+02 -0.78818869232E+02 -0.70675778010E+03  0.71129122679E+03  0.47000000000E+01 0.  1.
         -5    1    4    4    0  502  0.55818916526E+01  0.28087041842E+02 -0.45493330019E+02  0.53960842377E+02  0.47000000000E+01 0.  1.
          5    1    5    5  503    0 -0.14660961979E+02 -0.12808485130E+02 -0.23100443306E+02  0.30573216684E+02  0.47000000000E+01 0.  1.
         -5    1    5    5    0  503 -0.48545378914E+01  0.63540312520E+02 -0.87198984341E+03  0.87432792181E+03  0.47000000000E+01 0.  1.
<mgrwt>
<rscale>  0 0.27509645E+03</rscale>
<asrwt>0</asrwt>
<pdfrwt beam="1">  1        2 0.25519203E+00 0.27509645E+03</pdfrwt>
<pdfrwt beam="2">  1       -2 0.17547537E-02 0.27509645E+03</pdfrwt>
<totfact> 0.10527891E+04</totfact>
</mgrwt>
</event>
<event>
 9    1  0.2074770E-002  0.2741290E+03  0.7818608E-02  0.1098939E+00
         -1   -1    0    0    0  501 -0.00000000000E+00  0.00000000000E+00  0.38114340908E+02  0.38114340908E+02  0.00000000000E+00 0. -1.
          1   -1    0    0  501    0  0.00000000000E+00 -0.00000000000E+00 -0.49290314743E+03  0.49290314743E+03  0.00000000000E+00 0. -1.
         36    2    1    2    0    0  0.71054273576E-14 -0.71054273576E-14 -0.45478880653E+03  0.53101748834E+03  0.27412901048E+03 0.  0.
         25    2    3    3    0    0 -0.99876537860E+01  0.20567267989E+02 -0.31495916383E+03  0.33982786920E+03  0.12554258266E+03 0.  0.
         25    2    3    3    0    0  0.99876537860E+01 -0.20567267989E+02 -0.13982964269E+03  0.19118961915E+03  0.12836812592E+03 0.  0.
          5    1    4    4  502    0 -0.58920810668E+02 -0.18212619722E+02 -0.11907635237E+03  0.13418132933E+03  0.47000000000E+01 0. -1.
         -5    1    4    4    0  502  0.48933156882E+02  0.38779887711E+02 -0.19588281146E+03  0.20564653986E+03  0.47000000000E+01 0. -1.
          5    1    5    5  503    0 -0.37988620788E+02 -0.55662614222E+02 -0.53029950632E+02  0.85882056306E+02  0.47000000000E+01 0.  1.
         -5    1    5    5    0  503  0.47976274574E+02  0.35095346233E+02 -0.86799692062E+02  0.10530756284E+03  0.47000000000E+01 0.  1.
<mgrwt>
<rscale>  0 0.27412901E+03</rscale>
<asrwt>0</asrwt>
<pdfrwt beam="1">  1        1 0.75831244E-01 0.27412901E+03</pdfrwt>
<pdfrwt beam="2">  1       -1 0.58637455E-02 0.27412901E+03</pdfrwt>
<totfact> 0.63364551E+03</totfact>
</mgrwt>
</event>
<event>
 9    1  0.2074770E-002  0.2752938E+03  0.7818608E-02  0.1098287E+00
          1   -1    0    0  501    0  0.00000000000E+00  0.00000000000E+00  0.23115585624E+02  0.23115585624E+02  0.00000000000E+00 0. -1.
         -1   -1    0    0    0  501 -0.00000000000E+00 -0.00000000000E+00 -0.81964939670E+03  0.81964939670E+03  0.00000000000E+00 0. -1.
         36    2    1    2    0    0 -0.14210854715E-13 -0.35527136788E-14 -0.79653381108E+03  0.84276498233E+03  0.27529384891E+03 0.  0.
         25    2    3    3    0    0 -0.54468583207E+02 -0.21432362365E+02 -0.36585296643E+03  0.39134874564E+03  0.12601299518E+03 0.  0.
         25    2    3    3    0    0  0.54468583207E+02  0.21432362365E+02 -0.43068084465E+03  0.45141623669E+03  0.12191987568E+03 0.  0.
          5    1    4    4  502    0 -0.40304260538E+02 -0.69889329477E+02 -0.28206589503E+03  0.29341474218E+03  0.47000000000E+01 0.  1.
         -5    1    4    4    0  502 -0.14164322670E+02  0.48456967113E+02 -0.83787071400E+02  0.97934003453E+02  0.47000000000E+01 0.  1.
          5    1    5    5  503    0 -0.17489901481E+02 -0.10963243017E+02 -0.10074567631E+02  0.23445175713E+02  0.47000000000E+01 0.  1.
         -5    1    5    5    0  503  0.71958484689E+02  0.32395605381E+02 -0.42060627702E+03  0.42797106098E+03  0.47000000000E+01 0.  1.
<mgrwt>
<rscale>  0 0.27529385E+03</rscale>
<asrwt>0</asrwt>
<pdfrwt beam="1">  1        1 0.35562444E-02 0.27529385E+03</pdfrwt>
<pdfrwt beam="2">  1       -1 0.12609989E+00 0.27529385E+03</pdfrwt>
<totfact> 0.15726792E+03</totfact>
</mgrwt>
</event>
<event>
 9    1  0.2074770E-002  0.2746827E+03  0.7818608E-02  0.1098629E+00
         -2   -1    0    0    0  501 -0.00000000000E+00  0.00000000000E+00  0.23250386723E+02  0.23250386723E+02  0.00000000000E+00 0.  1.
          2   -1    0    0  501    0  0.00000000000E+00 -0.00000000000E+00 -0.81128283159E+03  0.81128283159E+03  0.00000000000E+00 0.  1.
         36    2    1    2    0    0  0.00000000000E+00  0.00000000000E+00 -0.78803244486E+03  0.83453321831E+03  0.27468265017E+03 0.  0.
         25    2    3    3    0    0  0.34863387542E+02 -0.74117679185E+02 -0.31729129478E+03  0.34390225526E+03  0.10433651934E+03 0.  0.
         25    2    3    3    0    0 -0.34863387542E+02  0.74117679185E+02 -0.47074115008E+03  0.49063096305E+03  0.11141196241E+03 0.  0.
          5    1    4    4  502    0 -0.34612293380E+02 -0.35662981225E+02 -0.16053866452E+03  0.16812082527E+03  0.47000000000E+01 0.  1.
         -5    1    4    4    0  502  0.69475680922E+02 -0.38454697960E+02 -0.15675263026E+03  0.17578142999E+03  0.47000000000E+01 0.  1.
          5    1    5    5  503    0 -0.18818384369E+02  0.10260678234E+03 -0.37906228908E+03  0.39318264506E+03  0.47000000000E+01 0. -1.
         -5    1    5    5    0  503 -0.16045003173E+02 -0.28489103155E+02 -0.91678861002E+02  0.97448317995E+02  0.47000000000E+01 0. -1.
<mgrwt>
<rscale>  0 0.27468265E+03</rscale>
<asrwt>0</asrwt>
<pdfrwt beam="1">  1        2 0.12481274E+00 0.27468265E+03</pdfrwt>
<pdfrwt beam="2">  1       -2 0.35769826E-02 0.27468265E+03</pdfrwt>
<totfact> 0.11295609E+04</totfact>
</mgrwt>
</event>
<event>
 9    1  0.2074770E-002  0.2777908E+03  0.7818608E-02  0.1096902E+00
          1   -1    0    0  501    0  0.00000000000E+00  0.00000000000E+00  0.21661232910E+04  0.21661232910E+04  0.00000000000E+00 0.  1.
         -1   -1    0    0    0  501 -0.00000000000E+00 -0.00000000000E+00 -0.89062046140E+01  0.89062046140E+01  0.00000000000E+00 0.  1.
         36    2    1    2    0    0  0.00000000000E+00  0.71054273576E-14  0.21572170864E+04  0.21750294957E+04  0.27779083678E+03 0.  0.
         25    2    3    3    0    0 -0.29426167830E+02 -0.33741024092E+02  0.14118903296E+04  0.14179802275E+04  0.12340691556E+03 0.  0.
         25    2    3    3    0    0  0.29426167830E+02  0.33741024092E+02  0.74532675685E+03  0.75704926814E+03  0.12492903528E+03 0.  0.
          5    1    4    4  502    0  0.34866471313E+02 -0.48472895504E+02  0.47539251471E+03  0.47915073355E+03  0.47000000000E+01 0.  1.
         -5    1    4    4    0  502 -0.64292639143E+02  0.14731871411E+02  0.93649781487E+03  0.93882949397E+03  0.47000000000E+01 0.  1.
          5    1    5    5  503    0  0.11079505798E+01  0.22633344664E+02  0.18653360742E+02  0.29724294982E+02  0.47000000000E+01 0. -1.
         -5    1    5    5    0  503  0.28318217251E+02  0.11107679428E+02  0.72667339611E+03  0.72732497316E+03  0.47000000000E+01 0. -1.
<mgrwt>
<rscale>  0 0.27779084E+03</rscale>
<asrwt>0</asrwt>
<pdfrwt beam="1">  1        1 0.33324932E+00 0.27779084E+03</pdfrwt>
<pdfrwt beam="2">  1       -1 0.13701870E-02 0.27779084E+03</pdfrwt>
<totfact> 0.31317982E+03</totfact>
</mgrwt>
</event>
<event>
 9    1  0.2074770E-002  0.2749544E+03  0.7818608E-02  0.1098477E+00
         -4   -1    0    0    0  501 -0.00000000000E+00  0.00000000000E+00  0.15176386235E+02  0.15176386235E+02  0.00000000000E+00 0.  1.
          4   -1    0    0  501    0  0.00000000000E+00 -0.00000000000E+00 -0.12453548078E+04  0.12453548078E+04  0.00000000000E+00 0.  1.
         36    2    1    2    0    0  0.71054273576E-14  0.00000000000E+00 -0.12301784216E+04  0.12605311940E+04  0.27495443668E+03 0.  0.
         25    2    3    3    0    0 -0.22540269867E+02  0.55686856096E+02 -0.51171134437E+03  0.52960588633E+03  0.12257571197E+03 0.  0.
         25    2    3    3    0    0  0.22540269867E+02 -0.55686856096E+02 -0.71846707719E+03  0.73092530771E+03  0.12019889654E+03 0.  0.
          5    1    4    4  502    0 -0.10885247227E+02  0.32779260970E+02 -0.49958701475E+03  0.50080160130E+03  0.47000000000E+01 0. -1.
         -5    1    4    4    0  502 -0.11655022640E+02  0.22907595126E+02 -0.12124329622E+02  0.28804285028E+02  0.47000000000E+01 0. -1.
          5    1    5    5  503    0  0.72039183434E+02 -0.37398970479E+02 -0.42159959791E+03  0.42936771875E+03  0.47000000000E+01 0.  1.
         -5    1    5    5    0  503 -0.49498913567E+02 -0.18287885616E+02 -0.29686747928E+03  0.30155758896E+03  0.47000000000E+01 0.  1.
<mgrwt>
<rscale>  0 0.27495444E+03</rscale>
<asrwt>0</asrwt>
<pdfrwt beam="1">  1        4 0.19159314E+00 0.27495444E+03</pdfrwt>
<pdfrwt beam="2">  1       -4 0.23348275E-02 0.27495444E+03</pdfrwt>
<totfact> 0.24352121E+02</totfact>
</mgrwt>
</event>
<event>
 9    1  0.2074770E-002  0.2749559E+03  0.7818608E-02  0.1098476E+00
          4   -1    0    0  501    0  0.00000000000E+00  0.00000000000E+00  0.66795330745E+02  0.66795330745E+02  0.00000000000E+00 0.  1.
         -4   -1    0    0    0  501 -0.00000000000E+00 -0.00000000000E+00 -0.28295672786E+03  0.28295672786E+03  0.00000000000E+00 0.  1.
         36    2    1    2    0    0  0.00000000000E+00  0.35527136788E-14 -0.21616139712E+03  0.34975205861E+03  0.27495591082E+03 0.  0.
         25    2    3    3    0    0  0.36025963149E+02 -0.50773120504E+01 -0.54496767729E+02  0.14214224629E+03  0.12613830255E+03 0.  0.
         25    2    3    3    0    0 -0.36025963149E+02  0.50773120504E+01 -0.16166462939E+03  0.20760981232E+03  0.12507091051E+03 0.  0.
          5    1    4    4  502    0  0.64570858458E+02 -0.17996217234E+02 -0.77807901152E+02  0.10280768006E+03  0.47000000000E+01 0. -1.
         -5    1    4    4    0  502 -0.28544895310E+02  0.12918905184E+02  0.23311133423E+02  0.39334566234E+02  0.47000000000E+01 0. -1.
          5    1    5    5  503    0  0.20513210765E+01 -0.56953081305E+02 -0.75757342174E+02  0.94916417345E+02  0.47000000000E+01 0.  1.
         -5    1    5    5    0  503 -0.38077284225E+02  0.62030393356E+02 -0.85907287217E+02  0.11269339497E+03  0.47000000000E+01 0.  1.
<mgrwt>
<rscale>  0 0.27495591E+03</rscale>
<asrwt>0</asrwt>
<pdfrwt beam="1">  1        4 0.10276205E-01 0.27495591E+03</pdfrwt>
<pdfrwt beam="2">  1       -4 0.43531804E-01 0.27495591E+03</pdfrwt>
<totfact> 0.69784800E+02</totfact>
</mgrwt>
</event>
<event>
 9    1  0.2074770E-002  0.2748208E+03  0.7818608E-02  0.1098552E+00
         -1   -1    0    0    0  501 -0.00000000000E+00  0.00000000000E+00  0.29138769392E+02  0.29138769392E+02  0.00000000000E+00 0. -1.
          1   -1    0    0  501    0  0.00000000000E+00 -0.00000000000E+00 -0.64798934627E+03  0.64798934627E+03  0.00000000000E+00 0. -1.
         36    2    1    2    0    0 -0.71054273576E-14  0.00000000000E+00 -0.61885057688E+03  0.67712811566E+03  0.27482075707E+03 0.  0.
         25    2    3    3    0    0  0.49284768276E+02  0.77684764439E+01 -0.24381132139E+03  0.27901310582E+03  0.12615472712E+03 0.  0.
         25    2    3    3    0    0 -0.49284768276E+02 -0.77684764439E+01 -0.37503925549E+03  0.39811500984E+03  0.12390230138E+03 0.  0.
          5    1    4    4  502    0 -0.32637037010E+02  0.36007316111E+02 -0.91760502280E+02  0.10394124676E+03  0.47000000000E+01 0.  1.
         -5    1    4    4    0  502  0.81921805286E+02 -0.28238839667E+02 -0.15205081911E+03  0.17507185907E+03  0.47000000000E+01 0.  1.
          5    1    5    5  503    0 -0.46986458215E+02  0.47897438494E+02 -0.12548765864E+03  0.14237673384E+03  0.47000000000E+01 0.  1.
         -5    1    5    5    0  503 -0.22983100606E+01 -0.55665914938E+02 -0.24955159686E+03  0.25573827600E+03  0.47000000000E+01 0.  1.
<mgrwt>
<rscale>  0 0.27482076E+03</rscale>
<asrwt>0</asrwt>
<pdfrwt beam="1">  1        1 0.99690663E-01 0.27482076E+03</pdfrwt>
<pdfrwt beam="2">  1       -1 0.44828879E-02 0.27482076E+03</pdfrwt>
<totfact> 0.65183886E+03</totfact>
</mgrwt>
</event>
<event>
 9    1  0.2074770E-002  0.2754224E+03  0.7818608E-02  0.1098216E+00
         -2   -1    0    0    0  501 -0.00000000000E+00  0.00000000000E+00  0.13222575528E+02  0.13222575528E+02  0.00000000000E+00 0.  1.
          2   -1    0    0  501    0  0.00000000000E+00 -0.00000000000E+00 -0.14342423283E+04  0.14342423283E+04  0.00000000000E+00 0.  1.
         36    2    1    2    0    0  0.00000000000E+00 -0.18873791419E-14 -0.14210197528E+04  0.14474649038E+04  0.27542242110E+03 0.  0.
         25    2    3    3    0    0 -0.13512102995E+02  0.32255568896E+00 -0.98880216637E+03  0.99703524433E+03  0.12714901985E+03 0.  0.
         25    2    3    3    0    0  0.13512102995E+02 -0.32255568896E+00 -0.43221758642E+03  0.45042965951E+03  0.12606409160E+03 0.  0.
          5    1    4    4  502    0  0.39445531894E+02 -0.84200456566E-01 -0.11596526471E+03  0.12258054370E+03  0.47000000000E+01 0.  1.
         -5    1    4    4    0  502 -0.52957634889E+02  0.40675614552E+00 -0.87283690167E+03  0.87445470063E+03  0.47000000000E+01 0.  1.
          5    1    5    5  503    0  0.57174116968E+02 -0.36766083788E+02 -0.27008094218E+03  0.27854340756E+03  0.47000000000E+01 0.  1.
         -5    1    5    5    0  503 -0.43662013973E+02  0.36443528099E+02 -0.16213664424E+03  0.17188625195E+03  0.47000000000E+01 0.  1.
<mgrwt>
<rscale>  0 0.27542242E+03</rscale>
<asrwt>0</asrwt>
<pdfrwt beam="1">  1        2 0.22065260E+00 0.27542242E+03</pdfrwt>
<pdfrwt beam="2">  1       -2 0.20342430E-02 0.27542242E+03</pdfrwt>
<totfact> 0.11160981E+04</totfact>
</mgrwt>
</event>
<event>
 9    1  0.2074770E-002  0.2744134E+03  0.7818608E-02  0.1098780E+00
         -2   -1    0    0    0  501 -0.00000000000E+00  0.00000000000E+00  0.54635205198E+03  0.54635205198E+03  0.00000000000E+00 0. -1.
          2   -1    0    0  501    0  0.00000000000E+00 -0.00000000000E+00 -0.34457054468E+02  0.34457054468E+02  0.00000000000E+00 0. -1.
         36    2    1    2    0    0 -0.71054273576E-14  0.00000000000E+00  0.51189499751E+03  0.58080910645E+03  0.27441342834E+03 0.  0.
         25    2    3    3    0    0 -0.38720704100E+02 -0.27850379410E+02  0.23023161733E+03  0.26748293420E+03  0.12753660614E+03 0.  0.
         25    2    3    3    0    0  0.38720704100E+02  0.27850379410E+02  0.28166338018E+03  0.31332617225E+03  0.12870156924E+03 0.  0.
          5    1    4    4  502    0 -0.34855705454E+02  0.17737417913E+01  0.23433219532E+03  0.23696357130E+03  0.47000000000E+01 0. -1.
         -5    1    4    4    0  502 -0.38649986455E+01 -0.29624121202E+02 -0.41005779842E+01  0.30519362892E+02  0.47000000000E+01 0. -1.
          5    1    5    5  503    0 -0.24873195901E+02  0.26375484515E+02  0.22517777250E+03  0.22812597679E+03  0.47000000000E+01 0.  1.
         -5    1    5    5    0  503  0.63593900001E+02  0.14748948953E+01  0.56485607679E+02  0.85200195464E+02  0.47000000000E+01 0.  1.
<mgrwt>
<rscale>  0 0.27441343E+03</rscale>
<asrwt>0</asrwt>
<pdfrwt beam="1">  1        2 0.53010857E-02 0.27441343E+03</pdfrwt>
<pdfrwt beam="2">  1       -2 0.84054156E-01 0.27441343E+03</pdfrwt>
<totfact> 0.18525200E+03</totfact>
</mgrwt>
</event>
<event>
 9    1  0.2074770E-002  0.2744017E+03  0.7818608E-02  0.1098787E+00
          1   -1    0    0  501    0  0.00000000000E+00  0.00000000000E+00  0.88852285152E+02  0.88852285152E+02  0.00000000000E+00 0. -1.
         -1   -1    0    0    0  501 -0.00000000000E+00 -0.00000000000E+00 -0.21185800774E+03  0.21185800774E+03  0.00000000000E+00 0. -1.
         36    2    1    2    0    0 -0.71054273576E-14  0.00000000000E+00 -0.12300572259E+03  0.30071029290E+03  0.27440166265E+03 0.  0.
         25    2    3    3    0    0 -0.51412173475E+02 -0.16837074335E+02 -0.74030347912E+02  0.15496894961E+03  0.12493271900E+03 0.  0.
         25    2    3    3    0    0  0.51412173475E+02  0.16837074335E+02 -0.48975374679E+02  0.14574134329E+03  0.12615567037E+03 0.  0.
          5    1    4    4  502    0 -0.55881345636E+02 -0.60945577121E+01 -0.10630308525E+03  0.12034244620E+03  0.47000000000E+01 0.  1.
         -5    1    4    4    0  502  0.44691721607E+01 -0.10742516623E+02  0.32272737335E+02  0.34626503408E+02  0.47000000000E+01 0.  1.
          5    1    5    5  503    0 -0.33583918757E+02 -0.22328786486E+02 -0.29098412544E+02  0.49952596705E+02  0.47000000000E+01 0. -1.
         -5    1    5    5    0  503  0.84996092231E+02  0.39165860821E+02 -0.19876962135E+02  0.95788746584E+02  0.47000000000E+01 0. -1.
<mgrwt>
<rscale>  0 0.27440166E+03</rscale>
<asrwt>0</asrwt>
<pdfrwt beam="1">  1        1 0.13669583E-01 0.27440166E+03</pdfrwt>
<pdfrwt beam="2">  1       -1 0.32593539E-01 0.27440166E+03</pdfrwt>
<totfact> 0.37131849E+03</totfact>
</mgrwt>
</event>
<event>
 9    1  0.2074770E-002  0.2794421E+03  0.7818608E-02  0.1095994E+00
         -2   -1    0    0    0  501 -0.00000000000E+00  0.00000000000E+00  0.12366056822E+02  0.12366056822E+02  0.00000000000E+00 0. -1.
          2   -1    0    0  501    0  0.00000000000E+00 -0.00000000000E+00 -0.15786741463E+04  0.15786741463E+04  0.00000000000E+00 0. -1.
         36    2    1    2    0    0  0.71054273576E-14  0.00000000000E+00 -0.15663080895E+04  0.15910402031E+04  0.27944211705E+03 0.  0.
         25    2    3    3    0    0 -0.57405535149E+02 -0.19657561532E+02 -0.78198697492E+03  0.79448063344E+03  0.12654656369E+03 0.  0.
         25    2    3    3    0    0  0.57405535149E+02  0.19657561532E+02 -0.78432111455E+03  0.79655956967E+03  0.12516278246E+03 0.  0.
          5    1    4    4  502    0 -0.48383967929E+02 -0.68745464563E+02 -0.59343941264E+03  0.59938249368E+03  0.47000000000E+01 0. -1.
         -5    1    4    4    0  502 -0.90215672196E+01  0.49087903032E+02 -0.18854756228E+03  0.19509813977E+03  0.47000000000E+01 0. -1.
          5    1    5    5  503    0  0.22542468464E+02  0.69771570092E+02 -0.32666672924E+03  0.33482753303E+03  0.47000000000E+01 0. -1.
         -5    1    5    5    0  503  0.34863066685E+02 -0.50114008561E+02 -0.45765438531E+03  0.46173203665E+03  0.47000000000E+01 0. -1.
<mgrwt>
<rscale>  0 0.27944212E+03</rscale>
<asrwt>0</asrwt>
<pdfrwt beam="1">  1        2 0.24287286E+00 0.27944212E+03</pdfrwt>
<pdfrwt beam="2">  1       -2 0.19024710E-02 0.27944212E+03</pdfrwt>
<totfact> 0.10311031E+04</totfact>
</mgrwt>
</event>
<event>
 9    1  0.2074770E-002  0.2839186E+03  0.7818608E-02  0.1093568E+00
          2   -1    0    0  501    0  0.00000000000E+00  0.00000000000E+00  0.56979501161E+03  0.56979501161E+03  0.00000000000E+00 0.  1.
         -2   -1    0    0    0  501 -0.00000000000E+00 -0.00000000000E+00 -0.35367890330E+02  0.35367890330E+02  0.00000000000E+00 0.  1.
         36    2    1    2    0    0  0.00000000000E+00 -0.71054273576E-14  0.53442712128E+03  0.60516290194E+03  0.28391863258E+03 0.  0.
         25    2    3    3    0    0  0.33228987146E+02  0.29127611498E+02  0.18880222927E+03  0.23203328022E+03  0.12743852641E+03 0.  0.
         25    2    3    3    0    0 -0.33228987146E+02 -0.29127611498E+02  0.34562489201E+03  0.37312962172E+03  0.13347870725E+03 0.  0.
          5    1    4    4  502    0  0.66773722294E+02  0.57050737765E+02  0.10142280876E+03  0.13424676087E+03  0.47000000000E+01 0.  1.
         -5    1    4    4    0  502 -0.33544735148E+02 -0.27923126267E+02  0.87379420509E+02  0.97786519343E+02  0.47000000000E+01 0.  1.
          5    1    5    5  503    0  0.49763421595E+02 -0.17392610495E+02  0.17731993537E+03  0.18504958932E+03  0.47000000000E+01 0.  1.
         -5    1    5    5    0  503 -0.82992408742E+02 -0.11735001003E+02  0.16830495664E+03  0.18808003240E+03  0.47000000000E+01 0.  1.
<mgrwt>
<rscale>  0 0.28391863E+03</rscale>
<asrwt>0</asrwt>
<pdfrwt beam="1">  1        2 0.87660764E-01 0.28391863E+03</pdfrwt>
<pdfrwt beam="2">  1       -2 0.54412143E-02 0.28391863E+03</pdfrwt>
<totfact> 0.91880302E+03</totfact>
</mgrwt>
</event>
<event>
 9    1  0.2074770E-002  0.2745712E+03  0.7818608E-02  0.1098692E+00
         -1   -1    0    0    0  501 -0.00000000000E+00  0.00000000000E+00  0.79984106914E+02  0.79984106914E+02  0.00000000000E+00 0.  1.
          1   -1    0    0  501    0  0.00000000000E+00 -0.00000000000E+00 -0.23563844128E+03  0.23563844128E+03  0.00000000000E+00 0.  1.
         36    2    1    2    0    0 -0.71054273576E-14  0.00000000000E+00 -0.15565433436E+03  0.31562254819E+03  0.27457115857E+03 0.  0.
         25    2    3    3    0    0 -0.12579345261E+02 -0.48509856510E+02 -0.10955037052E+03  0.17358443981E+03  0.12497530939E+03 0.  0.
         25    2    3    3    0    0  0.12579345261E+02  0.48509856510E+02 -0.46103963843E+02  0.14203810838E+03  0.12465072260E+03 0.  0.
          5    1    4    4  502    0  0.44734470758E+02 -0.56496592446E+02 -0.82169581934E+02  0.10939363796E+03  0.47000000000E+01 0.  1.
         -5    1    4    4    0  502 -0.57313816019E+02  0.79867359369E+01 -0.27380788585E+02  0.64190801842E+02  0.47000000000E+01 0.  1.
          5    1    5    5  503    0  0.45346101477E+02  0.30645068236E+01  0.24449986462E+02  0.51822311404E+02  0.47000000000E+01 0. -1.
         -5    1    5    5    0  503 -0.32766756216E+02  0.45445349686E+02 -0.70553950304E+02  0.90215796979E+02  0.47000000000E+01 0. -1.
<mgrwt>
<rscale>  0 0.27457116E+03</rscale>
<asrwt>0</asrwt>
<pdfrwt beam="1">  1        1 0.36252068E-01 0.27457116E+03</pdfrwt>
<pdfrwt beam="2">  1       -1 0.12305247E-01 0.27457116E+03</pdfrwt>
<totfact> 0.52055139E+03</totfact>
</mgrwt>
</event>
<event>
 9    1  0.2074770E-002  0.2754493E+03  0.7818608E-02  0.1098201E+00
         -1   -1    0    0    0  501 -0.00000000000E+00  0.00000000000E+00  0.30158072218E+02  0.30158072218E+02  0.00000000000E+00 0. -1.
          1   -1    0    0  501    0  0.00000000000E+00 -0.00000000000E+00 -0.62895528996E+03  0.62895528996E+03  0.00000000000E+00 0. -1.
         36    2    1    2    0    0 -0.71054273576E-14  0.35527136788E-14 -0.59879721774E+03  0.65911336218E+03  0.27544929883E+03 0.  0.
         25    2    3    3    0    0 -0.29169142587E+02  0.16273272359E+02 -0.19390459875E+03  0.23258548488E+03  0.12402159525E+03 0.  0.
         25    2    3    3    0    0  0.29169142587E+02 -0.16273272359E+02 -0.40489261899E+03  0.42652787730E+03  0.12989356768E+03 0.  0.
          5    1    4    4  502    0  0.50610519990E+01  0.65355979338E+02 -0.12484245906E+03  0.14108418716E+03  0.47000000000E+01 0. -1.
         -5    1    4    4    0  502 -0.34230194586E+02 -0.49082706979E+02 -0.69062139685E+02  0.91501297716E+02  0.47000000000E+01 0. -1.
          5    1    5    5  503    0 -0.51337196167E+02 -0.13259449692E+02 -0.17214289761E+03  0.18018487149E+03  0.47000000000E+01 0. -1.
         -5    1    5    5    0  503  0.80506338754E+02 -0.30138226677E+01 -0.23274972139E+03  0.24634300581E+03  0.47000000000E+01 0. -1.
<mgrwt>
<rscale>  0 0.27544930E+03</rscale>
<asrwt>0</asrwt>
<pdfrwt beam="1">  1        1 0.96762359E-01 0.27544930E+03</pdfrwt>
<pdfrwt beam="2">  1       -1 0.46397031E-02 0.27544930E+03</pdfrwt>
<totfact> 0.64592759E+03</totfact>
</mgrwt>
</event>
<event>
 9    1  0.2074770E-002  0.2745268E+03  0.7818608E-02  0.1098716E+00
          2   -1    0    0  501    0  0.00000000000E+00  0.00000000000E+00  0.11006682344E+04  0.11006682344E+04  0.00000000000E+00 0.  1.
         -2   -1    0    0    0  501 -0.00000000000E+00 -0.00000000000E+00 -0.17117996299E+02  0.17117996299E+02  0.00000000000E+00 0.  1.
         36    2    1    2    0    0 -0.71054273576E-14 -0.71054273576E-14  0.10835502381E+04  0.11177862307E+04  0.27452675470E+03 0.  0.
         25    2    3    3    0    0  0.37575706952E+02  0.22106464302E+02  0.44345445392E+03  0.46321811425E+03  0.12656436763E+03 0.  0.
         25    2    3    3    0    0 -0.37575706952E+02 -0.22106464302E+02  0.64009578414E+03  0.65456811641E+03  0.12975429327E+03 0.  0.
          5    1    4    4  502    0  0.40820755095E+02 -0.24177772078E+02  0.58581306077E+02  0.75529849271E+02  0.47000000000E+01 0.  1.
         -5    1    4    4    0  502 -0.32450481431E+01  0.46284236380E+02  0.38487314784E+03  0.38768826498E+03  0.47000000000E+01 0.  1.
          5    1    5    5  503    0  0.10152371298E+01 -0.46001205342E+02  0.56360688173E+03  0.56550150197E+03  0.47000000000E+01 0.  1.
         -5    1    5    5    0  503 -0.38590944082E+02  0.23894741041E+02  0.76488902411E+02  0.89066614433E+02  0.47000000000E+01 0.  1.
<mgrwt>
<rscale>  0 0.27452675E+03</rscale>
<asrwt>0</asrwt>
<pdfrwt beam="1">  1        2 0.16933352E+00 0.27452675E+03</pdfrwt>
<pdfrwt beam="2">  1       -2 0.26335388E-02 0.27452675E+03</pdfrwt>
<totfact> 0.11717336E+04</totfact>
</mgrwt>
</event>
<event>
 9    1  0.2074770E-002  0.2799763E+03  0.7818608E-02  0.1095702E+00
         -2   -1    0    0    0  501 -0.00000000000E+00  0.00000000000E+00  0.50446998666E+02  0.50446998666E+02  0.00000000000E+00 0.  1.
          2   -1    0    0  501    0  0.00000000000E+00 -0.00000000000E+00 -0.38846067594E+03  0.38846067594E+03  0.00000000000E+00 0.  1.
         36    2    1    2    0    0  0.00000000000E+00  0.71054273576E-14 -0.33801367727E+03  0.43890767460E+03  0.27997625043E+03 0.  0.
         25    2    3    3    0    0 -0.39912407336E+02  0.44351481162E+02 -0.12744937415E+03  0.18661887597E+03  0.12256919580E+03 0.  0.
         25    2    3    3    0    0  0.39912407336E+02 -0.44351481162E+02 -0.21056430312E+03  0.25228879863E+03  0.12550799984E+03 0.  0.
          5    1    4    4  502    0  0.39673324499E+02 -0.58074093164E+01 -0.25162683895E+02  0.47570467105E+02  0.47000000000E+01 0.  1.
         -5    1    4    4    0  502 -0.79585731835E+02  0.50158890479E+02 -0.10228669025E+03  0.13904840887E+03  0.47000000000E+01 0.  1.
          5    1    5    5  503    0  0.51139094382E+02 -0.72589119110E+02 -0.20147591312E+03  0.22022493218E+03  0.47000000000E+01 0. -1.
         -5    1    5    5    0  503 -0.11226687046E+02  0.28237637947E+02 -0.90883900064E+01  0.32063866451E+02  0.47000000000E+01 0. -1.
<mgrwt>
<rscale>  0 0.27997625E+03</rscale>
<asrwt>0</asrwt>
<pdfrwt beam="1">  1        2 0.59763181E-01 0.27997625E+03</pdfrwt>
<pdfrwt beam="2">  1       -2 0.77610767E-02 0.27997625E+03</pdfrwt>
<totfact> 0.81284785E+03</totfact>
</mgrwt>
</event>
<event>
 9    1  0.2074770E-002  0.2758775E+03  0.7818608E-02  0.1097962E+00
          1   -1    0    0  501    0  0.00000000000E+00  0.00000000000E+00  0.15341919774E+02  0.15341919774E+02  0.00000000000E+00 0. -1.
         -1   -1    0    0    0  501 -0.00000000000E+00 -0.00000000000E+00 -0.12402029228E+04  0.12402029228E+04  0.00000000000E+00 0. -1.
         36    2    1    2    0    0  0.71054273576E-14  0.00000000000E+00 -0.12248610030E+04  0.12555448425E+04  0.27587746371E+03 0.  0.
         25    2    3    3    0    0 -0.30710558859E+02  0.89617493160E+01 -0.87909958299E+03  0.88884737129E+03  0.12731897448E+03 0.  0.
         25    2    3    3    0    0  0.30710558859E+02 -0.89617493160E+01 -0.34576142000E+03  0.36669747125E+03  0.11786697791E+03 0.  0.
          5    1    4    4  502    0  0.43308605541E+02 -0.23185805962E+02 -0.39054209979E+03  0.39364760716E+03  0.47000000000E+01 0. -1.
         -5    1    4    4    0  502 -0.74019164400E+02  0.32147555278E+02 -0.48855748320E+03  0.49519976413E+03  0.47000000000E+01 0. -1.
          5    1    5    5  503    0  0.12039604611E+02  0.38271092751E+02 -0.40489446198E+02  0.57193652384E+02  0.47000000000E+01 0.  1.
         -5    1    5    5    0  503  0.18670954248E+02 -0.47232842067E+02 -0.30527197381E+03  0.30950381887E+03  0.47000000000E+01 0.  1.
<mgrwt>
<rscale>  0 0.27587746E+03</rscale>
<asrwt>0</asrwt>
<pdfrwt beam="1">  1        1 0.23602960E-02 0.27587746E+03</pdfrwt>
<pdfrwt beam="2">  1       -1 0.19080039E+00 0.27587746E+03</pdfrwt>
<totfact> 0.92163649E+02</totfact>
</mgrwt>
</event>
<event>
 9    1  0.2074770E-002  0.2759270E+03  0.7818608E-02  0.1097935E+00
          2   -1    0    0  501    0  0.00000000000E+00  0.00000000000E+00  0.26247506780E+02  0.26247506780E+02  0.00000000000E+00 0. -1.
         -2   -1    0    0    0  501 -0.00000000000E+00 -0.00000000000E+00 -0.72517070388E+03  0.72517070388E+03  0.00000000000E+00 0. -1.
         36    2    1    2    0    0  0.00000000000E+00  0.71054273576E-14 -0.69892319710E+03  0.75141821066E+03  0.27592696836E+03 0.  0.
         25    2    3    3    0    0  0.11219832928E+02 -0.22408776984E+02 -0.51446462431E+03  0.52673383515E+03  0.11021182102E+03 0.  0.
         25    2    3    3    0    0 -0.11219832928E+02  0.22408776984E+02 -0.18445857279E+03  0.22468437551E+03  0.12581758853E+03 0.  0.
          5    1    4    4  502    0  0.17211440754E+02 -0.65160710599E+02 -0.26249075072E+03  0.27104545027E+03  0.47000000000E+01 0.  1.
         -5    1    4    4    0  502 -0.59916078264E+01  0.42751933615E+02 -0.25197387359E+03  0.25568838488E+03  0.47000000000E+01 0.  1.
          5    1    5    5  503    0 -0.29273911946E+02  0.14342243559E+02 -0.19770121020E+03  0.20042584760E+03  0.47000000000E+01 0. -1.
         -5    1    5    5    0  503  0.18054079018E+02  0.80665334250E+01  0.13242637411E+02  0.24258527908E+02  0.47000000000E+01 0. -1.
<mgrwt>
<rscale>  0 0.27592697E+03</rscale>
<asrwt>0</asrwt>
<pdfrwt beam="1">  1        2 0.40380789E-02 0.27592697E+03</pdfrwt>
<pdfrwt beam="2">  1       -2 0.11156470E+00 0.27592697E+03</pdfrwt>
<totfact> 0.13849473E+03</totfact>
</mgrwt>
</event>
<event>
 9    1  0.2074770E-002  0.2743008E+03  0.7818608E-02  0.1098843E+00
         -2   -1    0    0    0  501 -0.00000000000E+00  0.00000000000E+00  0.76376901494E+01  0.76376901494E+01  0.00000000000E+00 0.  1.
          2   -1    0    0  501    0  0.00000000000E+00 -0.00000000000E+00 -0.24628171899E+04  0.24628171899E+04  0.00000000000E+00 0.  1.
         36    2    1    2    0    0 -0.88817841970E-15 -0.88817841970E-15 -0.24551794997E+04  0.24704548800E+04  0.27430081728E+03 0.  0.
         25    2    3    3    0    0 -0.10568825647E+01  0.32642958899E+01 -0.65650158582E+03  0.66759988795E+03  0.12117551559E+03 0.  0.
         25    2    3    3    0    0  0.10568825647E+01 -0.32642958899E+01 -0.17986779139E+04  0.18028549921E+04  0.12260551313E+03 0.  0.
          5    1    4    4  502    0  0.60439456137E+01  0.25810765206E+00  0.28595058557E+01  0.81769598189E+01  0.47000000000E+01 0.  1.
         -5    1    4    4    0  502 -0.71008281783E+01  0.30061882378E+01 -0.65936109168E+03  0.65942292813E+03  0.47000000000E+01 0.  1.
          5    1    5    5  503    0  0.48844758173E+02  0.98603175618E+01 -0.14246573905E+04  0.14255363224E+04  0.47000000000E+01 0. -1.
         -5    1    5    5    0  503 -0.47787875609E+02 -0.13124613452E+02 -0.37402052342E+03  0.37731866966E+03  0.47000000000E+01 0. -1.
<mgrwt>
<rscale>  0 0.27430082E+03</rscale>
<asrwt>0</asrwt>
<pdfrwt beam="1">  1        2 0.37889524E+00 0.27430082E+03</pdfrwt>
<pdfrwt beam="2">  1       -2 0.11750284E-02 0.27430082E+03</pdfrwt>
<totfact> 0.70854503E+03</totfact>
</mgrwt>
</event>
<event>
 9    1  0.2074770E-002  0.2767189E+03  0.7818608E-02  0.1097495E+00
         -2   -1    0    0    0  501 -0.00000000000E+00  0.00000000000E+00  0.74085606791E+02  0.74085606791E+02  0.00000000000E+00 0. -1.
          2   -1    0    0  501    0  0.00000000000E+00 -0.00000000000E+00 -0.25839479046E+03  0.25839479046E+03  0.00000000000E+00 0. -1.
         36    2    1    2    0    0  0.71054273576E-14  0.14210854715E-13 -0.18430918367E+03  0.33248039725E+03  0.27671888149E+03 0.  0.
         25    2    3    3    0    0  0.24195835645E+02  0.49053780049E+02 -0.71713694678E+02  0.15453320354E+03  0.12548284820E+03 0.  0.
         25    2    3    3    0    0 -0.24195835645E+02 -0.49053780049E+02 -0.11259548899E+03  0.17794719371E+03  0.12647429703E+03 0.  0.
          5    1    4    4  502    0  0.31411425368E+02  0.85635060077E+02 -0.25225990001E+02  0.94754850691E+02  0.47000000000E+01 0.  1.
         -5    1    4    4    0  502 -0.72155897238E+01 -0.36581280028E+02 -0.46487704677E+02  0.59778352852E+02  0.47000000000E+01 0.  1.
          5    1    5    5  503    0  0.38643046395E+02 -0.44222353427E+02 -0.95947674718E+02  0.11259195291E+03  0.47000000000E+01 0.  1.
         -5    1    5    5    0  503 -0.62838882040E+02 -0.48314266217E+01 -0.16647814274E+02  0.65355240795E+02  0.47000000000E+01 0.  1.
<mgrwt>
<rscale>  0 0.27671888E+03</rscale>
<asrwt>0</asrwt>
<pdfrwt beam="1">  1        2 0.39753045E-01 0.27671888E+03</pdfrwt>
<pdfrwt beam="2">  1       -2 0.11397786E-01 0.27671888E+03</pdfrwt>
<totfact> 0.68647218E+03</totfact>
</mgrwt>
</event>
<event>
 9    1  0.2074770E-002  0.2743419E+03  0.7818608E-02  0.1098820E+00
         -2   -1    0    0    0  501 -0.00000000000E+00  0.00000000000E+00  0.83199491687E+02  0.83199491687E+02  0.00000000000E+00 0.  1.
          2   -1    0    0  501    0  0.00000000000E+00 -0.00000000000E+00 -0.22615357847E+03  0.22615357847E+03  0.00000000000E+00 0.  1.
         36    2    1    2    0    0  0.00000000000E+00  0.00000000000E+00 -0.14295408678E+03  0.30935307015E+03  0.27434185077E+03 0.  0.
         25    2    3    3    0    0 -0.10715878990E+02  0.41847903936E+02 -0.28926141200E+02  0.13536894759E+03  0.12498781221E+03 0.  0.
         25    2    3    3    0    0  0.10715878990E+02 -0.41847903936E+02 -0.11402794558E+03  0.17398412256E+03  0.12410489677E+03 0.  0.
          5    1    4    4  502    0 -0.34833632044E+02  0.53645175153E+02  0.29728977694E+02  0.70690090206E+02  0.47000000000E+01 0.  1.
         -5    1    4    4    0  502  0.24117753053E+02 -0.11797271217E+02 -0.58655118894E+02  0.64678857387E+02  0.47000000000E+01 0.  1.
          5    1    5    5  503    0  0.24725952366E+02  0.17760983700E+01 -0.12426549655E+03  0.12680114700E+03  0.47000000000E+01 0. -1.
         -5    1    5    5    0  503 -0.14010073375E+02 -0.43624002306E+02  0.10237550974E+02  0.47182975564E+02  0.47000000000E+01 0. -1.
<mgrwt>
<rscale>  0 0.27434185E+03</rscale>
<asrwt>0</asrwt>
<pdfrwt beam="1">  1        2 0.34792858E-01 0.27434185E+03</pdfrwt>
<pdfrwt beam="2">  1       -2 0.12799922E-01 0.27434185E+03</pdfrwt>
<totfact> 0.65724120E+03</totfact>
</mgrwt>
</event>
<event>
 9    1  0.2074770E-002  0.2743291E+03  0.7818608E-02  0.1098827E+00
         -1   -1    0    0    0  501 -0.00000000000E+00  0.00000000000E+00  0.11474187476E+02  0.11474187476E+02  0.00000000000E+00 0. -1.
          1   -1    0    0  501    0  0.00000000000E+00 -0.00000000000E+00 -0.16396908706E+04  0.16396908706E+04  0.00000000000E+00 0. -1.
         36    2    1    2    0    0  0.71054273576E-14  0.35527136788E-14 -0.16282166832E+04  0.16511650581E+04  0.27432914867E+03 0.  0.
         25    2    3    3    0    0  0.48773170832E+02  0.17706342702E+02 -0.72464159075E+03  0.73718188670E+03  0.12505743586E+03 0.  0.
         25    2    3    3    0    0 -0.48773170832E+02 -0.17706342702E+02 -0.90357509241E+03  0.91398317142E+03  0.12737720849E+03 0.  0.
          5    1    4    4  502    0  0.85207436646E+02  0.22842097795E+02 -0.61780545453E+03  0.62408952750E+03  0.47000000000E+01 0. -1.
         -5    1    4    4    0  502 -0.36434265814E+02 -0.51357550925E+01 -0.10683613623E+03  0.11309235920E+03  0.47000000000E+01 0. -1.
          5    1    5    5  503    0 -0.88138655252E+02  0.91892735864E+01 -0.53542958050E+03  0.54273362801E+03  0.47000000000E+01 0. -1.
         -5    1    5    5    0  503  0.39365484421E+02 -0.26895616289E+02 -0.36814551191E+03  0.37124954341E+03  0.47000000000E+01 0. -1.
<mgrwt>
<rscale>  0 0.27432915E+03</rscale>
<asrwt>0</asrwt>
<pdfrwt beam="1">  1        1 0.25226025E+00 0.27432915E+03</pdfrwt>
<pdfrwt beam="2">  1       -1 0.17652588E-02 0.27432915E+03</pdfrwt>
<totfact> 0.47648947E+03</totfact>
</mgrwt>
</event>
<event>
 9    1  0.2074770E-002  0.2751441E+03  0.7818608E-02  0.1098371E+00
         -2   -1    0    0    0  501 -0.00000000000E+00  0.00000000000E+00  0.17615587019E+04  0.17615587019E+04  0.00000000000E+00 0.  1.
          2   -1    0    0  501    0  0.00000000000E+00 -0.00000000000E+00 -0.10743933539E+02  0.10743933539E+02  0.00000000000E+00 0.  1.
         36    2    1    2    0    0  0.71054273576E-14  0.35527136788E-14  0.17508147684E+04  0.17723026354E+04  0.27514410492E+03 0.  0.
         25    2    3    3    0    0 -0.51840348080E+02 -0.11218472400E+02  0.10351730039E+04  0.10440215368E+04  0.12483807715E+03 0.  0.
         25    2    3    3    0    0  0.51840348080E+02  0.11218472400E+02  0.71564176447E+03  0.72828109863E+03  0.12424551408E+03 0.  0.
          5    1    4    4  502    0 -0.69361220890E+02  0.22048839583E+02  0.33608885464E+03  0.34391123637E+03  0.47000000000E+01 0.  1.
         -5    1    4    4    0  502  0.17520872810E+02 -0.33267311983E+02  0.69908414926E+03  0.70011030043E+03  0.47000000000E+01 0.  1.
          5    1    5    5  503    0 -0.52416743192E+01  0.57511875876E+02  0.23542675243E+03  0.24245192673E+03  0.47000000000E+01 0. -1.
         -5    1    5    5    0  503  0.57082022399E+02 -0.46293403476E+02  0.48021501204E+03  0.48582917190E+03  0.47000000000E+01 0. -1.
<mgrwt>
<rscale>  0 0.27514410E+03</rscale>
<asrwt>0</asrwt>
<pdfrwt beam="1">  1        2 0.16529142E-02 0.27514410E+03</pdfrwt>
<pdfrwt beam="2">  1       -2 0.27100880E+00 0.27514410E+03</pdfrwt>
<totfact> 0.38568730E+02</totfact>
</mgrwt>
</event>
<event>
 9    1  0.2074770E-002  0.2746951E+03  0.7818608E-02  0.1098622E+00
          1   -1    0    0  501    0  0.00000000000E+00  0.00000000000E+00  0.21344855985E+04  0.21344855985E+04  0.00000000000E+00 0.  1.
         -1   -1    0    0    0  501 -0.00000000000E+00 -0.00000000000E+00 -0.88378883765E+01  0.88378883765E+01  0.00000000000E+00 0.  1.
         36    2    1    2    0    0 -0.71054273576E-14 -0.35527136788E-14  0.21256477101E+04  0.21433234869E+04  0.27469507066E+03 0.  0.
         25    2    3    3    0    0 -0.42848737255E+02 -0.13718940584E+02  0.10295078669E+04  0.10394118231E+04  0.13589064186E+03 0.  0.
         25    2    3    3    0    0  0.42848737255E+02  0.13718940584E+02  0.10961398433E+04  0.11039116638E+04  0.12277695926E+03 0.  0.
          5    1    4    4  502    0 -0.38086810917E+01  0.57804083168E+02  0.54341914250E+03  0.54651831855E+03  0.47000000000E+01 0. -1.
         -5    1    4    4    0  502 -0.39040056163E+02 -0.71523023753E+02  0.48608872435E+03  0.49289350458E+03  0.47000000000E+01 0. -1.
          5    1    5    5  503    0 -0.10173433167E+02 -0.28826942442E+02  0.84552167152E+02  0.90031385211E+02  0.47000000000E+01 0. -1.
         -5    1    5    5    0  503  0.53022170421E+02  0.42545883026E+02  0.10115876761E+04  0.10138802786E+04  0.47000000000E+01 0. -1.
<mgrwt>
<rscale>  0 0.27469507E+03</rscale>
<asrwt>0</asrwt>
<pdfrwt beam="1">  1        1 0.32838199E+00 0.27469507E+03</pdfrwt>
<pdfrwt beam="2">  1       -1 0.13596768E-02 0.27469507E+03</pdfrwt>
<totfact> 0.33213845E+03</totfact>
</mgrwt>
</event>
<event>
 9    1  0.2074770E-002  0.2754221E+03  0.7818608E-02  0.1098216E+00
         -3   -1    0    0    0  501 -0.00000000000E+00  0.00000000000E+00  0.15516736679E+03  0.15516736679E+03  0.00000000000E+00 0. -1.
          3   -1    0    0  501    0  0.00000000000E+00 -0.00000000000E+00 -0.12221858994E+03  0.12221858994E+03  0.00000000000E+00 0. -1.
         36    2    1    2    0    0  0.00000000000E+00  0.00000000000E+00  0.32948776847E+02  0.27738595673E+03  0.27542212528E+03 0.  0.
         25    2    3    3    0    0  0.14857462149E+02 -0.40329712728E+02 -0.39481059619E+02  0.13607780894E+03  0.12292756448E+03 0.  0.
         25    2    3    3    0    0 -0.14857462149E+02  0.40329712728E+02  0.72429836467E+02  0.14130814779E+03  0.11346665374E+03 0.  0.
          5    1    4    4  502    0  0.11053983005E+02  0.12026951861E+01  0.42390232398E+02  0.44075603442E+02  0.47000000000E+01 0. -1.
         -5    1    4    4    0  502  0.38034791434E+01 -0.41532407914E+02 -0.81871292017E+02  0.92002205502E+02  0.47000000000E+01 0. -1.
          5    1    5    5  503    0 -0.59874087687E+02  0.59770583886E+01  0.55562144625E+02  0.82035806320E+02  0.47000000000E+01 0.  1.
         -5    1    5    5    0  503  0.45016625538E+02  0.34352654339E+02  0.16867691842E+02  0.59272341468E+02  0.47000000000E+01 0.  1.
<mgrwt>
<rscale>  0 0.27542213E+03</rscale>
<asrwt>0</asrwt>
<pdfrwt beam="1">  1        3 0.18802860E-01 0.27542213E+03</pdfrwt>
<pdfrwt beam="2">  1       -3 0.23871903E-01 0.27542213E+03</pdfrwt>
<totfact> 0.10403387E+03</totfact>
</mgrwt>
</event>
<event>
 9    1  0.2074770E-002  0.2747487E+03  0.7818608E-02  0.1098592E+00
          3   -1    0    0  501    0  0.00000000000E+00  0.00000000000E+00  0.94249828774E+03  0.94249828774E+03  0.00000000000E+00 0.  1.
         -3   -1    0    0    0  501 -0.00000000000E+00 -0.00000000000E+00 -0.20023066082E+02  0.20023066082E+02  0.00000000000E+00 0.  1.
         36    2    1    2    0    0  0.00000000000E+00 -0.71054273576E-14  0.92247522166E+03  0.96252135383E+03  0.27474865239E+03 0.  0.
         25    2    3    3    0    0 -0.39409204788E+02 -0.18573007916E+02  0.57095081359E+03  0.58572196746E+03  0.12323696516E+03 0.  0.
         25    2    3    3    0    0  0.39409204788E+02  0.18573007916E+02  0.35152440807E+03  0.37679938636E+03  0.12849251360E+03 0.  0.
          5    1    4    4  502    0 -0.69133339162E+02 -0.41836482873E+02  0.25623216077E+03  0.26871308136E+03  0.47000000000E+01 0.  1.
         -5    1    4    4    0  502  0.29724134374E+02  0.23263474957E+02  0.31471865282E+03  0.31700888610E+03  0.47000000000E+01 0.  1.
          5    1    5    5  503    0  0.21446563833E+02 -0.47843384519E+02  0.23976128837E+03  0.24547201458E+03  0.47000000000E+01 0.  1.
         -5    1    5    5    0  503  0.17962640955E+02  0.66416392435E+02  0.11176311970E+03  0.13132737179E+03  0.47000000000E+01 0.  1.
<mgrwt>
<rscale>  0 0.27474865E+03</rscale>
<asrwt>0</asrwt>
<pdfrwt beam="1">  1        3 0.14499970E+00 0.27474865E+03</pdfrwt>
<pdfrwt beam="2">  1       -3 0.30804724E-02 0.27474865E+03</pdfrwt>
<totfact> 0.46330923E+02</totfact>
</mgrwt>
</event>
<event>
 9    1  0.2074770E-002  0.2763855E+03  0.7818608E-02  0.1097680E+00
         -2   -1    0    0    0  501 -0.00000000000E+00  0.00000000000E+00  0.40815280209E+02  0.40815280209E+02  0.00000000000E+00 0. -1.
          2   -1    0    0  501    0  0.00000000000E+00 -0.00000000000E+00 -0.46789423762E+03  0.46789423762E+03  0.00000000000E+00 0. -1.
         36    2    1    2    0    0  0.00000000000E+00  0.14210854715E-13 -0.42707895741E+03  0.50870951783E+03  0.27638548744E+03 0.  0.
         25    2    3    3    0    0  0.33194481101E+02 -0.42978898653E+02 -0.15149265265E+03  0.20053863582E+03  0.11965225173E+03 0.  0.
         25    2    3    3    0    0 -0.33194481101E+02  0.42978898653E+02 -0.27558630476E+03  0.30817088200E+03  0.12677705566E+03 0.  0.
          5    1    4    4  502    0 -0.13082838143E+01 -0.75396665933E+02 -0.12506560164E+03  0.14611592505E+03  0.47000000000E+01 0.  1.
         -5    1    4    4    0  502  0.34502764915E+02  0.32417767281E+02 -0.26427051012E+02  0.54422710769E+02  0.47000000000E+01 0.  1.
          5    1    5    5  503    0 -0.10547599320E+01  0.81440882393E+02 -0.12389039738E+03  0.14833964543E+03  0.47000000000E+01 0. -1.
         -5    1    5    5    0  503 -0.32139721169E+02 -0.38461983741E+02 -0.15169590738E+03  0.15983123657E+03  0.47000000000E+01 0. -1.
<mgrwt>
<rscale>  0 0.27638549E+03</rscale>
<asrwt>0</asrwt>
<pdfrwt beam="1">  1        2 0.71983731E-01 0.27638549E+03</pdfrwt>
<pdfrwt beam="2">  1       -2 0.62792737E-02 0.27638549E+03</pdfrwt>
<totfact> 0.92011453E+03</totfact>
</mgrwt>
</event>
<event>
 9    1  0.2074770E-002  0.2795006E+03  0.7818608E-02  0.1095962E+00
         -2   -1    0    0    0  501 -0.00000000000E+00  0.00000000000E+00  0.37493347634E+03  0.37493347634E+03  0.00000000000E+00 0. -1.
          2   -1    0    0  501    0  0.00000000000E+00 -0.00000000000E+00 -0.52089636840E+02  0.52089636840E+02  0.00000000000E+00 0. -1.
         36    2    1    2    0    0  0.00000000000E+00  0.35527136788E-14  0.32284383950E+03  0.42702311318E+03  0.27950061626E+03 0.  0.
         25    2    3    3    0    0  0.60498107404E+02  0.21643570945E+02  0.14609996385E+03  0.20187684291E+03  0.12361470425E+03 0.  0.
         25    2    3    3    0    0 -0.60498107404E+02 -0.21643570945E+02  0.17674387566E+03  0.22514627027E+03  0.12379006532E+03 0.  0.
          5    1    4    4  502    0  0.35142695903E+01  0.13612873169E+02 -0.20646374188E+02  0.25416985930E+02  0.47000000000E+01 0.  1.
         -5    1    4    4    0  502  0.56983837813E+02  0.80306977758E+01  0.16674633803E+03  0.17645985698E+03  0.47000000000E+01 0.  1.
          5    1    5    5  503    0 -0.69062271998E+02  0.37636365216E+02  0.11051820840E+03  0.13572935493E+03  0.47000000000E+01 0. -1.
         -5    1    5    5    0  503  0.85641645941E+01 -0.59279936161E+02  0.66225667257E+02  0.89416915346E+02  0.47000000000E+01 0. -1.
<mgrwt>
<rscale>  0 0.27950062E+03</rscale>
<asrwt>0</asrwt>
<pdfrwt beam="1">  1        2 0.80137905E-02 0.27950062E+03</pdfrwt>
<pdfrwt beam="2">  1       -2 0.57682072E-01 0.27950062E+03</pdfrwt>
<totfact> 0.24297219E+03</totfact>
</mgrwt>
</event>
<event>
 9    1  0.2074770E-002  0.2749357E+03  0.7818608E-02  0.1098488E+00
         -2   -1    0    0    0  501 -0.00000000000E+00  0.00000000000E+00  0.42698946954E+03  0.42698946954E+03  0.00000000000E+00 0. -1.
          2   -1    0    0  501    0  0.00000000000E+00 -0.00000000000E+00 -0.44257331496E+02  0.44257331496E+02  0.00000000000E+00 0. -1.
         36    2    1    2    0    0  0.26645352591E-14  0.00000000000E+00  0.38273213804E+03  0.47124680104E+03  0.27493573430E+03 0.  0.
         25    2    3    3    0    0  0.39780296572E+00  0.62532949700E+01  0.28322960835E+03  0.30947175969E+03  0.12455720396E+03 0.  0.
         25    2    3    3    0    0 -0.39780296572E+00 -0.62532949700E+01  0.99502529698E+02  0.16177504134E+03  0.12740152527E+03 0.  0.
          5    1    4    4  502    0  0.30333479508E+01 -0.53274946786E+02  0.70728548296E+02  0.88724510136E+02  0.47000000000E+01 0. -1.
         -5    1    4    4    0  502 -0.26355449850E+01  0.59528241756E+02  0.21250106005E+03  0.22074724956E+03  0.47000000000E+01 0. -1.
          5    1    5    5  503    0 -0.43888150965E+02 -0.49151055652E+02  0.46800733882E+02  0.80959216639E+02  0.47000000000E+01 0.  1.
         -5    1    5    5    0  503  0.43490347999E+02  0.42897760682E+02  0.52701795816E+02  0.80815824706E+02  0.47000000000E+01 0.  1.
<mgrwt>
<rscale>  0 0.27493573E+03</rscale>
<asrwt>0</asrwt>
<pdfrwt beam="1">  1        2 0.68088205E-02 0.27493573E+03</pdfrwt>
<pdfrwt beam="2">  1       -2 0.65690685E-01 0.27493573E+03</pdfrwt>
<totfact> 0.22824828E+03</totfact>
</mgrwt>
</event>
<event>
 9    1  0.2074770E-002  0.2761305E+03  0.7818608E-02  0.1097821E+00
          1   -1    0    0  501    0  0.00000000000E+00  0.00000000000E+00  0.10330288944E+04  0.10330288944E+04  0.00000000000E+00 0. -1.
         -1   -1    0    0    0  501 -0.00000000000E+00 -0.00000000000E+00 -0.18452548772E+02  0.18452548772E+02  0.00000000000E+00 0. -1.
         36    2    1    2    0    0  0.00000000000E+00  0.00000000000E+00  0.10145763456E+04  0.10514814431E+04  0.27613052027E+03 0.  0.
         25    2    3    3    0    0 -0.34345717261E+02  0.27318054038E+02  0.38123840535E+03  0.40435879769E+03  0.12742610088E+03 0.  0.
         25    2    3    3    0    0  0.34345717261E+02 -0.27318054038E+02  0.63333794025E+03  0.64712264545E+03  0.12539883304E+03 0.  0.
          5    1    4    4  502    0 -0.38797791455E+02 -0.28952070932E+02  0.30777871812E+03  0.31159801085E+03  0.47000000000E+01 0. -1.
         -5    1    4    4    0  502  0.44520741941E+01  0.56270124970E+02  0.73459687230E+02  0.92760786849E+02  0.47000000000E+01 0. -1.
          5    1    5    5  503    0 -0.34786846734E+01  0.97691128853E+01  0.53667739890E+03  0.53679815322E+03  0.47000000000E+01 0.  1.
         -5    1    5    5    0  503  0.37824401934E+02 -0.37087166923E+02  0.96660541354E+02  0.11032449223E+03  0.47000000000E+01 0.  1.
<mgrwt>
<rscale>  0 0.27613052E+03</rscale>
<asrwt>0</asrwt>
<pdfrwt beam="1">  1        1 0.15892748E+00 0.27613052E+03</pdfrwt>
<pdfrwt beam="2">  1       -1 0.28388545E-02 0.27613052E+03</pdfrwt>
<totfact> 0.61809782E+03</totfact>
</mgrwt>
</event>
<event>
 9    1  0.2074770E-002  0.2754452E+03  0.7818608E-02  0.1098203E+00
          1   -1    0    0  501    0  0.00000000000E+00  0.00000000000E+00  0.18837495811E+04  0.18837495811E+04  0.00000000000E+00 0.  1.
         -1   -1    0    0    0  501 -0.00000000000E+00 -0.00000000000E+00 -0.10069018436E+02  0.10069018436E+02  0.00000000000E+00 0.  1.
         36    2    1    2    0    0 -0.17763568394E-14  0.14210854715E-13  0.18736805627E+04  0.18938185995E+04  0.27544516158E+03 0.  0.
         25    2    3    3    0    0  0.33660592563E+01 -0.60221237548E+02  0.10029415167E+04  0.10122487775E+04  0.12295516995E+03 0.  0.
         25    2    3    3    0    0 -0.33660592563E+01  0.60221237548E+02  0.87073904593E+03  0.88156982200E+03  0.12385853687E+03 0.  0.
          5    1    4    4  502    0 -0.14820121753E+02  0.35674332953E+02  0.25546724606E+03  0.25841419823E+03  0.47000000000E+01 0. -1.
         -5    1    4    4    0  502  0.18186181009E+02 -0.95895570501E+02  0.74747427069E+03  0.75383457931E+03  0.47000000000E+01 0. -1.
          5    1    5    5  503    0 -0.27760480560E+02 -0.21234670788E+02  0.49707479472E+03  0.49832418873E+03  0.47000000000E+01 0.  1.
         -5    1    5    5    0  503  0.24394421304E+02  0.81455908336E+02  0.37366425121E+03  0.38324563327E+03  0.47000000000E+01 0.  1.
<mgrwt>
<rscale>  0 0.27544516E+03</rscale>
<asrwt>0</asrwt>
<pdfrwt beam="1">  1        1 0.28980735E+00 0.27544516E+03</pdfrwt>
<pdfrwt beam="2">  1       -1 0.15490813E-02 0.27544516E+03</pdfrwt>
<totfact> 0.39978089E+03</totfact>
</mgrwt>
</event>
<event>
 9    1  0.2074770E-002  0.2748622E+03  0.7818608E-02  0.1098529E+00
          2   -1    0    0  501    0  0.00000000000E+00  0.00000000000E+00  0.61570876152E+03  0.61570876152E+03  0.00000000000E+00 0.  1.
         -2   -1    0    0    0  501 -0.00000000000E+00 -0.00000000000E+00 -0.30675724706E+02  0.30675724706E+02  0.00000000000E+00 0.  1.
         36    2    1    2    0    0  0.00000000000E+00  0.14210854715E-13  0.58503303681E+03  0.64638448622E+03  0.27486223798E+03 0.  0.
         25    2    3    3    0    0  0.20673526284E+02 -0.65153092222E+02  0.30691505570E+03  0.33467971539E+03  0.11463568537E+03 0.  0.
         25    2    3    3    0    0 -0.20673526284E+02  0.65153092222E+02  0.27811798111E+03  0.31170477084E+03  0.12303630615E+03 0.  0.
          5    1    4    4  502    0  0.10836433640E+02 -0.74132537403E+01 -0.67958598783E+01  0.15513166554E+02  0.47000000000E+01 0.  1.
         -5    1    4    4    0  502  0.98370926444E+01 -0.57739838482E+02  0.31371091558E+03  0.31916654883E+03  0.47000000000E+01 0.  1.
          5    1    5    5  503    0  0.47188512136E+01 -0.29581065392E+02  0.22151678871E+02  0.37551216536E+02  0.47000000000E+01 0.  1.
         -5    1    5    5    0  503 -0.25392377498E+02  0.94734157614E+02  0.25596630224E+03  0.27415355430E+03  0.47000000000E+01 0.  1.
<mgrwt>
<rscale>  0 0.27486224E+03</rscale>
<asrwt>0</asrwt>
<pdfrwt beam="1">  1        2 0.94724416E-01 0.27486224E+03</pdfrwt>
<pdfrwt beam="2">  1       -2 0.47193427E-02 0.27486224E+03</pdfrwt>
<totfact> 0.10417275E+04</totfact>
</mgrwt>
</event>
<event>
 9    1  0.2074770E-002  0.2752233E+03  0.7818608E-02  0.1098327E+00
          2   -1    0    0  501    0  0.00000000000E+00  0.00000000000E+00  0.17581377695E+04  0.17581377695E+04  0.00000000000E+00 0. -1.
         -2   -1    0    0    0  501 -0.00000000000E+00 -0.00000000000E+00 -0.10771037116E+02  0.10771037116E+02  0.00000000000E+00 0. -1.
         36    2    1    2    0    0  0.14210854715E-13 -0.35527136788E-14  0.17473667324E+04  0.17689088067E+04  0.27522330694E+03 0.  0.
         25    2    3    3    0    0 -0.38651101690E+02 -0.31391381298E+02  0.66560794913E+03  0.67915452991E+03  0.12544961963E+03 0.  0.
         25    2    3    3    0    0  0.38651101690E+02  0.31391381298E+02  0.10817587833E+04  0.10897542768E+04  0.12199586870E+03 0.  0.
          5    1    4    4  502    0 -0.38562361822E+02  0.41988670776E+02  0.37760075809E+03  0.38190905558E+03  0.47000000000E+01 0.  1.
         -5    1    4    4    0  502 -0.88739867523E-01 -0.73380052075E+02  0.28800719104E+03  0.29724547432E+03  0.47000000000E+01 0.  1.
          5    1    5    5  503    0 -0.24708879880E+02  0.20552240834E+02  0.80238965535E+03  0.80304680583E+03  0.47000000000E+01 0.  1.
         -5    1    5    5    0  503  0.63359981570E+02  0.10839140465E+02  0.27936912795E+03  0.28670747092E+03  0.47000000000E+01 0.  1.
<mgrwt>
<rscale>  0 0.27522331E+03</rscale>
<asrwt>0</asrwt>
<pdfrwt beam="1">  1        2 0.27048251E+00 0.27522331E+03</pdfrwt>
<pdfrwt beam="2">  1       -2 0.16570840E-02 0.27522331E+03</pdfrwt>
<totfact> 0.10150396E+04</totfact>
</mgrwt>
</event>
<event>
 9    1  0.2074770E-002  0.2658825E+03  0.7818608E-02  0.1103660E+00
         -3   -1    0    0    0  501 -0.00000000000E+00  0.00000000000E+00  0.86627107236E+02  0.86627107236E+02  0.00000000000E+00 0. -1.
          3   -1    0    0  501    0  0.00000000000E+00 -0.00000000000E+00 -0.20401665192E+03  0.20401665192E+03  0.00000000000E+00 0. -1.
         36    2    1    2    0    0 -0.71054273576E-14 -0.35527136788E-14 -0.11738954468E+03  0.29064375915E+03  0.26588247316E+03 0.  0.
         25    2    3    3    0    0  0.31770597891E+02  0.90061195342E+01 -0.27249815737E+02  0.13435391741E+03  0.12734968232E+03 0.  0.
         25    2    3    3    0    0 -0.31770597891E+02 -0.90061195342E+01 -0.90139728945E+02  0.15628984174E+03  0.12333232673E+03 0.  0.
          5    1    4    4  502    0 -0.19640976287E+02  0.57049489600E+02 -0.18545348886E+02  0.63296383612E+02  0.47000000000E+01 0. -1.
         -5    1    4    4    0  502  0.51411574178E+02 -0.48043370065E+02 -0.87044668513E+01  0.71057533801E+02  0.47000000000E+01 0. -1.
          5    1    5    5  503    0 -0.45454788622E+02 -0.40881308604E+02 -0.18821998467E+01  0.61343719141E+02  0.47000000000E+01 0. -1.
         -5    1    5    5    0  503  0.13684190731E+02  0.31875189070E+02 -0.88257529099E+02  0.94946122600E+02  0.47000000000E+01 0. -1.
<mgrwt>
<rscale>  0 0.26588247E+03</rscale>
<asrwt>0</asrwt>
<pdfrwt beam="1">  1        3 0.31387177E-01 0.26588247E+03</pdfrwt>
<pdfrwt beam="2">  1       -3 0.13327247E-01 0.26588247E+03</pdfrwt>
<totfact> 0.11368699E+03</totfact>
</mgrwt>
</event>
<event>
 9    1  0.2074770E-002  0.2732419E+03  0.7818608E-02  0.1099438E+00
          1   -1    0    0  501    0  0.00000000000E+00  0.00000000000E+00  0.63077347146E+02  0.63077347146E+02  0.00000000000E+00 0. -1.
         -1   -1    0    0    0  501 -0.00000000000E+00 -0.00000000000E+00 -0.29591098197E+03  0.29591098197E+03  0.00000000000E+00 0. -1.
         36    2    1    2    0    0  0.00000000000E+00  0.14210854715E-13 -0.23283363483E+03  0.35898832912E+03  0.27324186893E+03 0.  0.
         25    2    3    3    0    0 -0.36838706340E+02  0.35825274497E+02 -0.15124492172E+03  0.20085432405E+03  0.12176572821E+03 0.  0.
         25    2    3    3    0    0  0.36838706340E+02 -0.35825274497E+02 -0.81588713108E+02  0.15813400507E+03  0.12533596800E+03 0.  0.
          5    1    4    4  502    0 -0.32714375176E+02 -0.34812904530E+02 -0.10698683035E+03  0.11726227242E+03  0.47000000000E+01 0.  1.
         -5    1    4    4    0  502 -0.41243311642E+01  0.70638179027E+02 -0.44258091371E+02  0.83592051629E+02  0.47000000000E+01 0.  1.
          5    1    5    5  503    0 -0.33291077628E+02 -0.36448602773E+02  0.11098741571E+01  0.49599579780E+02  0.47000000000E+01 0.  1.
         -5    1    5    5    0  503  0.70129783968E+02  0.62332827656E+00 -0.82698587265E+02  0.10853442529E+03  0.47000000000E+01 0.  1.
<mgrwt>
<rscale>  0 0.27324187E+03</rscale>
<asrwt>0</asrwt>
<pdfrwt beam="1">  1        1 0.97042073E-02 0.27324187E+03</pdfrwt>
<pdfrwt beam="2">  1       -1 0.45524766E-01 0.27324187E+03</pdfrwt>
<totfact> 0.32499845E+03</totfact>
</mgrwt>
</event>
<event>
 9    1  0.2074770E-002  0.2753045E+03  0.7818608E-02  0.1098282E+00
          1   -1    0    0  501    0  0.00000000000E+00  0.00000000000E+00  0.17559054386E+03  0.17559054386E+03  0.00000000000E+00 0. -1.
         -1   -1    0    0    0  501 -0.00000000000E+00 -0.00000000000E+00 -0.10791091144E+03  0.10791091144E+03  0.00000000000E+00 0. -1.
         36    2    1    2    0    0  0.71054273576E-14  0.17763568394E-14  0.67679632428E+02  0.28350145530E+03  0.27530445422E+03 0.  0.
         25    2    3    3    0    0 -0.38063832112E+02  0.22328816591E+01  0.41373546940E+02  0.13931907080E+03  0.12745270506E+03 0.  0.
         25    2    3    3    0    0  0.38063832112E+02 -0.22328816591E+01  0.26306085488E+02  0.14418238450E+03  0.13653830521E+03 0.  0.
          5    1    4    4  502    0  0.24122645955E+02  0.12059612627E+02 -0.32270341381E+02  0.42317859556E+02  0.47000000000E+01 0. -1.
         -5    1    4    4    0  502 -0.62186478067E+02 -0.98267309682E+01  0.73643888321E+02  0.97001211245E+02  0.47000000000E+01 0. -1.
          5    1    5    5  503    0 -0.18455044970E+02 -0.26626249093E+02 -0.41252869162E+02  0.52663412724E+02  0.47000000000E+01 0. -1.
         -5    1    5    5    0  503  0.56518877082E+02  0.24393367434E+02  0.67558954650E+02  0.91518971775E+02  0.47000000000E+01 0. -1.
<mgrwt>
<rscale>  0 0.27530445E+03</rscale>
<asrwt>0</asrwt>
<pdfrwt beam="1">  1        1 0.27013930E-01 0.27530445E+03</pdfrwt>
<pdfrwt beam="2">  1       -1 0.16601679E-01 0.27530445E+03</pdfrwt>
<totfact> 0.46974259E+03</totfact>
</mgrwt>
</event>
<event>
 9    1  0.2074770E-002  0.2817921E+03  0.7818608E-02  0.1094714E+00
          2   -1    0    0  501    0  0.00000000000E+00  0.00000000000E+00  0.59507068823E+03  0.59507068823E+03  0.00000000000E+00 0.  1.
         -2   -1    0    0    0  501 -0.00000000000E+00 -0.00000000000E+00 -0.33360237656E+02  0.33360237656E+02  0.00000000000E+00 0.  1.
         36    2    1    2    0    0  0.00000000000E+00 -0.14210854715E-13  0.56171045058E+03  0.62843092589E+03  0.28179211899E+03 0.  0.
         25    2    3    3    0    0  0.35120834816E+02  0.52096348524E+02  0.34075283168E+03  0.36833136718E+03  0.12493198621E+03 0.  0.
         25    2    3    3    0    0 -0.35120834816E+02 -0.52096348524E+02  0.22095761889E+03  0.26009955871E+03  0.12199183795E+03 0.  0.
          5    1    4    4  502    0 -0.11458045017E+02  0.14597988281E+01 -0.66619594559E+01  0.14138228744E+02  0.47000000000E+01 0. -1.
         -5    1    4    4    0  502  0.46578879833E+02  0.50636549696E+02  0.34741479114E+03  0.35419313843E+03  0.47000000000E+01 0. -1.
          5    1    5    5  503    0  0.17388463467E+02 -0.74443162869E+02  0.15401751735E+03  0.17201054855E+03  0.47000000000E+01 0. -1.
         -5    1    5    5    0  503 -0.52509298283E+02  0.22346814345E+02  0.66940101539E+02  0.88089010164E+02  0.47000000000E+01 0. -1.
<mgrwt>
<rscale>  0 0.28179212E+03</rscale>
<asrwt>0</asrwt>
<pdfrwt beam="1">  1        2 0.91549329E-01 0.28179212E+03</pdfrwt>
<pdfrwt beam="2">  1       -2 0.51323447E-02 0.28179212E+03</pdfrwt>
<totfact> 0.95511119E+03</totfact>
</mgrwt>
</event>
<event>
 9    1  0.2074770E-002  0.2716959E+03  0.7818608E-02  0.1100313E+00
         -4   -1    0    0    0  501 -0.00000000000E+00  0.00000000000E+00  0.38397209478E+03  0.38397209478E+03  0.00000000000E+00 0.  1.
          4   -1    0    0  501    0  0.00000000000E+00 -0.00000000000E+00 -0.48062527632E+02  0.48062527632E+02  0.00000000000E+00 0.  1.
         36    2    1    2    0    0 -0.35527136788E-14  0.00000000000E+00  0.33590956715E+03  0.43203462241E+03  0.27169592868E+03 0.  0.
         25    2    3    3    0    0 -0.19827022632E+02 -0.46654384635E+02  0.21496200423E+03  0.25347145459E+03  0.12437593254E+03 0.  0.
         25    2    3    3    0    0  0.19827022632E+02  0.46654384635E+02  0.12094756292E+03  0.17856316783E+03  0.12118890005E+03 0.  0.
          5    1    4    4  502    0  0.89762381210E+01  0.40838886508E+02  0.67654690734E+02  0.79672044534E+02  0.47000000000E+01 0.  1.
         -5    1    4    4    0  502 -0.28803260753E+02 -0.87493271143E+02  0.14730731350E+03  0.17379941005E+03  0.47000000000E+01 0.  1.
          5    1    5    5  503    0  0.33909986342E+02 -0.18653560424E+02 -0.14792355681E+01  0.39014364381E+02  0.47000000000E+01 0.  1.
         -5    1    5    5    0  503 -0.14082963710E+02  0.65307945060E+02  0.12242679849E+03  0.13954880344E+03  0.47000000000E+01 0.  1.
<mgrwt>
<rscale>  0 0.27169593E+03</rscale>
<asrwt>0</asrwt>
<pdfrwt beam="1">  1        4 0.73942353E-02 0.27169593E+03</pdfrwt>
<pdfrwt beam="2">  1       -4 0.59072628E-01 0.27169593E+03</pdfrwt>
<totfact> 0.64569787E+02</totfact>
</mgrwt>
</event>
<event>
 9    1  0.2074770E-002  0.2812843E+03  0.7818608E-02  0.1094990E+00
          2   -1    0    0  501    0  0.00000000000E+00  0.00000000000E+00  0.10099167930E+04  0.10099167930E+04  0.00000000000E+00 0.  1.
         -2   -1    0    0    0  501 -0.00000000000E+00 -0.00000000000E+00 -0.19585979602E+02  0.19585979602E+02  0.00000000000E+00 0.  1.
         36    2    1    2    0    0 -0.71054273576E-14  0.00000000000E+00  0.99033081337E+03  0.10295027726E+04  0.28128426694E+03 0.  0.
         25    2    3    3    0    0 -0.35651102508E+02  0.27020382775E+02  0.67629080925E+03  0.68790940497E+03  0.11768172571E+03 0.  0.
         25    2    3    3    0    0  0.35651102508E+02 -0.27020382775E+02  0.31404000412E+03  0.34159336761E+03  0.12674305666E+03 0.  0.
          5    1    4    4  502    0 -0.59219277421E+02  0.38203110829E+02  0.22464514990E+03  0.23548658957E+03  0.47000000000E+01 0.  1.
         -5    1    4    4    0  502  0.23568174913E+02 -0.11182728055E+02  0.45164565935E+03  0.45242281539E+03  0.47000000000E+01 0.  1.
          5    1    5    5  503    0 -0.45471206118E+02 -0.14103326295E+02  0.76702994750E+02  0.90398970138E+02  0.47000000000E+01 0.  1.
         -5    1    5    5    0  503  0.81122308625E+02 -0.12917056480E+02  0.23733700937E+03  0.25119439747E+03  0.47000000000E+01 0.  1.
<mgrwt>
<rscale>  0 0.28128427E+03</rscale>
<asrwt>0</asrwt>
<pdfrwt beam="1">  1        2 0.15537177E+00 0.28128427E+03</pdfrwt>
<pdfrwt beam="2">  1       -2 0.30132284E-02 0.28128427E+03</pdfrwt>
<totfact> 0.10877752E+04</totfact>
</mgrwt>
</event>
<event>
 9    1  0.2074770E-002  0.2748065E+03  0.7818608E-02  0.1098560E+00
         -2   -1    0    0    0  501 -0.00000000000E+00  0.00000000000E+00  0.54774030543E+02  0.54774030543E+02  0.00000000000E+00 0.  1.
          2   -1    0    0  501    0  0.00000000000E+00 -0.00000000000E+00 -0.34468244425E+03  0.34468244425E+03  0.00000000000E+00 0.  1.
         36    2    1    2    0    0  0.00000000000E+00 -0.35527136788E-14 -0.28990841370E+03  0.39945647479E+03  0.27480645355E+03 0.  0.
         25    2    3    3    0    0 -0.11674945170E+02  0.26436618085E+02 -0.21011146801E+03  0.24967084737E+03  0.13173269874E+03 0.  0.
         25    2    3    3    0    0  0.11674945170E+02 -0.26436618085E+02 -0.79796945697E+02  0.14978562742E+03  0.12342196935E+03 0.  0.
          5    1    4    4  502    0  0.24411220934E+01  0.44387667520E+01  0.18382679834E+02  0.19638600898E+02  0.47000000000E+01 0.  1.
         -5    1    4    4    0  502 -0.14116067263E+02  0.21997851333E+02 -0.22849414784E+03  0.23003224647E+03  0.47000000000E+01 0.  1.
          5    1    5    5  503    0  0.22781916231E+02 -0.71683287886E+02 -0.29138251978E+02  0.80799982658E+02  0.47000000000E+01 0.  1.
         -5    1    5    5    0  503 -0.11106971061E+02  0.45246669801E+02 -0.50658693719E+02  0.68985644764E+02  0.47000000000E+01 0.  1.
<mgrwt>
<rscale>  0 0.27480645E+03</rscale>
<asrwt>0</asrwt>
<pdfrwt beam="1">  1        2 0.53028067E-01 0.27480645E+03</pdfrwt>
<pdfrwt beam="2">  1       -2 0.84267742E-02 0.27480645E+03</pdfrwt>
<totfact> 0.81279767E+03</totfact>
</mgrwt>
</event>
<event>
 9    1  0.2074770E-002  0.2737374E+03  0.7818608E-02  0.1099159E+00
         -2   -1    0    0    0  501 -0.00000000000E+00  0.00000000000E+00  0.20125068012E+02  0.20125068012E+02  0.00000000000E+00 0. -1.
          2   -1    0    0  501    0  0.00000000000E+00 -0.00000000000E+00 -0.93083113856E+03  0.93083113856E+03  0.00000000000E+00 0. -1.
         36    2    1    2    0    0 -0.35527136788E-14  0.00000000000E+00 -0.91070607055E+03  0.95095620657E+03  0.27373739219E+03 0.  0.
         25    2    3    3    0    0 -0.14619448992E+02 -0.49833215483E+01 -0.28763763300E+03  0.31488959210E+03  0.12720646805E+03 0.  0.
         25    2    3    3    0    0  0.14619448992E+02  0.49833215483E+01 -0.62306843755E+03  0.63606661447E+03  0.12699566289E+03 0.  0.
          5    1    4    4  502    0 -0.18455720269E+02  0.39500015140E+02 -0.25657646109E+03  0.26029682133E+03  0.47000000000E+01 0. -1.
         -5    1    4    4    0  502  0.38362712769E+01 -0.44483336689E+02 -0.31061171907E+02  0.54592770771E+02  0.47000000000E+01 0. -1.
          5    1    5    5  503    0 -0.26301253740E+02 -0.42107799274E+02 -0.13338087526E+03  0.14239863269E+03  0.47000000000E+01 0.  1.
         -5    1    5    5    0  503  0.40920702731E+02  0.47091120822E+02 -0.48968756229E+03  0.49366798178E+03  0.47000000000E+01 0.  1.
<mgrwt>
<rscale>  0 0.27373739E+03</rscale>
<asrwt>0</asrwt>
<pdfrwt beam="1">  1        2 0.14320479E+00 0.27373739E+03</pdfrwt>
<pdfrwt beam="2">  1       -2 0.30961644E-02 0.27373739E+03</pdfrwt>
<totfact> 0.11689366E+04</totfact>
</mgrwt>
</event>
<event>
 9    1  0.2074770E-002  0.2735665E+03  0.7818608E-02  0.1099256E+00
          2   -1    0    0  501    0  0.00000000000E+00  0.00000000000E+00  0.28662244326E+04  0.28662244326E+04  0.00000000000E+00 0. -1.
         -2   -1    0    0    0  501 -0.00000000000E+00 -0.00000000000E+00 -0.65276336295E+01  0.65276336295E+01  0.00000000000E+00 0. -1.
         36    2    1    2    0    0  0.71054273576E-14  0.71054273576E-14  0.28596967990E+04  0.28727520663E+04  0.27356654032E+03 0.  0.
         25    2    3    3    0    0 -0.37253064180E+02 -0.22507524660E+02  0.11882838763E+04  0.11964567534E+04  0.13264920809E+03 0.  0.
         25    2    3    3    0    0  0.37253064180E+02  0.22507524660E+02  0.16714129227E+04  0.16762953129E+04  0.12020997709E+03 0.  0.
          5    1    4    4  502    0  0.22148797035E+01 -0.47713182185E+02  0.15872580597E+03  0.16582347520E+03  0.47000000000E+01 0. -1.
         -5    1    4    4    0  502 -0.39467943883E+02  0.25205657524E+02  0.10295580704E+04  0.10306332782E+04  0.47000000000E+01 0. -1.
          5    1    5    5  503    0 -0.36615395647E+02 -0.13535925230E+02  0.81103191346E+03  0.81198445990E+03  0.47000000000E+01 0. -1.
         -5    1    5    5    0  503  0.73868459826E+02  0.36043449891E+02  0.86038100920E+03  0.86431085301E+03  0.47000000000E+01 0. -1.
<mgrwt>
<rscale>  0 0.27356654E+03</rscale>
<asrwt>0</asrwt>
<pdfrwt beam="1">  1        2 0.44095660E+00 0.27356654E+03</pdfrwt>
<pdfrwt beam="2">  1       -2 0.10042536E-02 0.27356654E+03</pdfrwt>
<totfact> 0.52885371E+03</totfact>
</mgrwt>
</event>
<event>
 9    1  0.2074770E-002  0.2752854E+03  0.7818608E-02  0.1098292E+00
         -4   -1    0    0    0  501 -0.00000000000E+00  0.00000000000E+00  0.19452936430E+03  0.19452936430E+03  0.00000000000E+00 0.  1.
          4   -1    0    0  501    0  0.00000000000E+00 -0.00000000000E+00 -0.97391534999E+02  0.97391534999E+02  0.00000000000E+00 0.  1.
         36    2    1    2    0    0  0.00000000000E+00 -0.71054273576E-14  0.97137829302E+02  0.29192089930E+03  0.27528540384E+03 0.  0.
         25    2    3    3    0    0 -0.13204299699E+02  0.47270196427E+02  0.74691367370E+02  0.15671786950E+03  0.12873564099E+03 0.  0.
         25    2    3    3    0    0  0.13204299699E+02 -0.47270196427E+02  0.22446461931E+02  0.13520302980E+03  0.12396447319E+03 0.  0.
          5    1    4    4  502    0 -0.43554079358E+02  0.59228083085E+02 -0.15217297208E+01  0.73683982764E+02  0.47000000000E+01 0.  1.
         -5    1    4    4    0  502  0.30349779659E+02 -0.11957886658E+02  0.76213097091E+02  0.83033886738E+02  0.47000000000E+01 0.  1.
          5    1    5    5  503    0  0.48198779731E+02  0.59957684779E+01  0.46032830412E+02  0.67083403931E+02  0.47000000000E+01 0.  1.
         -5    1    5    5    0  503 -0.34994480033E+02 -0.53265964905E+02 -0.23586368481E+02  0.68119625866E+02  0.47000000000E+01 0.  1.
<mgrwt>
<rscale>  0 0.27528540E+03</rscale>
<asrwt>0</asrwt>
<pdfrwt beam="1">  1        4 0.14983313E-01 0.27528540E+03</pdfrwt>
<pdfrwt beam="2">  1       -4 0.29927595E-01 0.27528540E+03</pdfrwt>
<totfact> 0.75660270E+02</totfact>
</mgrwt>
</event>
<event>
 9    1  0.2074770E-002  0.2754627E+03  0.7818608E-02  0.1098193E+00
         -1   -1    0    0    0  501 -0.00000000000E+00  0.00000000000E+00  0.36094665783E+02  0.36094665783E+02  0.00000000000E+00 0. -1.
          1   -1    0    0  501    0  0.00000000000E+00 -0.00000000000E+00 -0.52556032012E+03  0.52556032012E+03  0.00000000000E+00 0. -1.
         36    2    1    2    0    0  0.00000000000E+00 -0.71054273576E-14 -0.48946565434E+03  0.56165498591E+03  0.27546269514E+03 0.  0.
         25    2    3    3    0    0 -0.37926742340E+02  0.54802468660E+02 -0.15595624653E+03  0.19916794936E+03  0.10442113227E+03 0.  0.
         25    2    3    3    0    0  0.37926742340E+02 -0.54802468660E+02 -0.33350940781E+03  0.36248703655E+03  0.12540565463E+03 0.  0.
          5    1    4    4  502    0 -0.55546314223E+02  0.30650910544E+01 -0.12323985820E+03  0.13529575181E+03  0.47000000000E+01 0.  1.
         -5    1    4    4    0  502  0.17619571883E+02  0.51737377606E+02 -0.32716388327E+02  0.63872197551E+02  0.47000000000E+01 0.  1.
          5    1    5    5  503    0 -0.19134175899E+02 -0.24562657817E+02 -0.26986386237E+03  0.27169474611E+03  0.47000000000E+01 0. -1.
         -5    1    5    5    0  503  0.57060918239E+02 -0.30239810843E+02 -0.63645545437E+02  0.90792290443E+02  0.47000000000E+01 0. -1.
<mgrwt>
<rscale>  0 0.27546270E+03</rscale>
<asrwt>0</asrwt>
<pdfrwt beam="1">  1        1 0.80855434E-01 0.27546270E+03</pdfrwt>
<pdfrwt beam="2">  1       -1 0.55530255E-02 0.27546270E+03</pdfrwt>
<totfact> 0.63146540E+03</totfact>
</mgrwt>
</event>
<event>
 9    1  0.2074770E-002  0.2765278E+03  0.7818608E-02  0.1097601E+00
          2   -1    0    0  501    0  0.00000000000E+00  0.00000000000E+00  0.31067519178E+03  0.31067519178E+03  0.00000000000E+00 0. -1.
         -2   -1    0    0    0  501 -0.00000000000E+00 -0.00000000000E+00 -0.61533403109E+02  0.61533403109E+02  0.00000000000E+00 0. -1.
         36    2    1    2    0    0  0.00000000000E+00  0.71054273576E-14  0.24914178867E+03  0.37220859489E+03  0.27652776940E+03 0.  0.
         25    2    3    3    0    0 -0.35173795719E+02 -0.43954243873E+02  0.11049702929E+03  0.17527061695E+03  0.12385888836E+03 0.  0.
         25    2    3    3    0    0  0.35173795719E+02  0.43954243873E+02  0.13864475939E+03  0.19693797794E+03  0.12803525448E+03 0.  0.
          5    1    4    4  502    0 -0.74439869990E+02 -0.34356700945E+02  0.34518358190E+02  0.89080212146E+02  0.47000000000E+01 0.  1.
         -5    1    4    4    0  502  0.39266074270E+02 -0.95975429280E+01  0.75978671096E+02  0.86190404804E+02  0.47000000000E+01 0.  1.
          5    1    5    5  503    0  0.16366533018E+02  0.61477322032E+02  0.86890382595E+01  0.64381005841E+02  0.47000000000E+01 0. -1.
         -5    1    5    5    0  503  0.18807262701E+02 -0.17523078159E+02  0.12995572113E+03  0.13255697210E+03  0.47000000000E+01 0. -1.
<mgrwt>
<rscale>  0 0.27652777E+03</rscale>
<asrwt>0</asrwt>
<pdfrwt beam="1">  1        2 0.47796183E-01 0.27652777E+03</pdfrwt>
<pdfrwt beam="2">  1       -2 0.94666775E-02 0.27652777E+03</pdfrwt>
<totfact> 0.75695008E+03</totfact>
</mgrwt>
</event>
<event>
 9    1  0.2074770E-002  0.2738011E+03  0.7818608E-02  0.1099124E+00
         -2   -1    0    0    0  501 -0.00000000000E+00  0.00000000000E+00  0.50675087997E+02  0.50675087997E+02  0.00000000000E+00 0. -1.
          2   -1    0    0  501    0  0.00000000000E+00 -0.00000000000E+00 -0.36984171177E+03  0.36984171177E+03  0.00000000000E+00 0. -1.
         36    2    1    2    0    0  0.71054273576E-14  0.00000000000E+00 -0.31916662377E+03  0.42051679977E+03  0.27380110510E+03 0.  0.
         25    2    3    3    0    0  0.51935049681E+02  0.58170066717E+01 -0.18420635077E+03  0.23398492955E+03  0.13448375603E+03 0.  0.
         25    2    3    3    0    0 -0.51935049681E+02 -0.58170066717E+01 -0.13496027300E+03  0.18653187022E+03  0.11768082413E+03 0.  0.
          5    1    4    4  502    0  0.89437296610E+02  0.34924780620E+02 -0.13158248234E+03  0.16295646653E+03  0.47000000000E+01 0.  1.
         -5    1    4    4    0  502 -0.37502246929E+02 -0.29107773948E+02 -0.52623868432E+02  0.71028463011E+02  0.47000000000E+01 0.  1.
          5    1    5    5  503    0  0.29089670817E+02 -0.17689152202E+02 -0.81958960051E+02  0.88873371639E+02  0.47000000000E+01 0.  1.
         -5    1    5    5    0  503 -0.81024720498E+02  0.11872145530E+02 -0.53001312949E+02  0.97658498584E+02  0.47000000000E+01 0.  1.
<mgrwt>
<rscale>  0 0.27380111E+03</rscale>
<asrwt>0</asrwt>
<pdfrwt beam="1">  1        2 0.56898726E-01 0.27380111E+03</pdfrwt>
<pdfrwt beam="2">  1       -2 0.77961672E-02 0.27380111E+03</pdfrwt>
<totfact> 0.85051755E+03</totfact>
</mgrwt>
</event>
<event>
 9    1  0.2074770E-002  0.2767195E+03  0.7818608E-02  0.1097494E+00
         -2   -1    0    0    0  501 -0.00000000000E+00  0.00000000000E+00  0.86978937447E+01  0.86978937447E+01  0.00000000000E+00 0. -1.
          2   -1    0    0  501    0  0.00000000000E+00 -0.00000000000E+00 -0.22009264076E+04  0.22009264076E+04  0.00000000000E+00 0. -1.
         36    2    1    2    0    0 -0.35527136788E-14  0.00000000000E+00 -0.21922285139E+04  0.22096243014E+04  0.27671952611E+03 0.  0.
         25    2    3    3    0    0  0.12958453246E+02  0.37291711111E+02 -0.10205424263E+04  0.10306851756E+04  0.13873173415E+03 0.  0.
         25    2    3    3    0    0 -0.12958453246E+02 -0.37291711111E+02 -0.11716860876E+04  0.11789391258E+04  0.12446116363E+03 0.  0.
          5    1    4    4  502    0 -0.17613639040E+02 -0.34105244295E+02 -0.69100699570E+03  0.69208826466E+03  0.47000000000E+01 0. -1.
         -5    1    4    4    0  502  0.30572092286E+02  0.71396955406E+02 -0.32953543057E+03  0.33859691089E+03  0.47000000000E+01 0. -1.
          5    1    5    5  503    0  0.19962479948E+02 -0.36065986951E+02 -0.12463102766E+03  0.13135539226E+03  0.47000000000E+01 0.  1.
         -5    1    5    5    0  503 -0.32920933194E+02 -0.12257241596E+01 -0.10470550599E+04  0.10475837335E+04  0.47000000000E+01 0.  1.
<mgrwt>
<rscale>  0 0.27671953E+03</rscale>
<asrwt>0</asrwt>
<pdfrwt beam="1">  1        2 0.33860432E+00 0.27671953E+03</pdfrwt>
<pdfrwt beam="2">  1       -2 0.13381365E-02 0.27671953E+03</pdfrwt>
<totfact> 0.81101700E+03</totfact>
</mgrwt>
</event>
<event>
 9    1  0.2074770E-002  0.2754319E+03  0.7818608E-02  0.1098210E+00
          1   -1    0    0  501    0  0.00000000000E+00  0.00000000000E+00  0.24511558885E+04  0.24511558885E+04  0.00000000000E+00 0. -1.
         -1   -1    0    0    0  501 -0.00000000000E+00 -0.00000000000E+00 -0.77374428584E+01  0.77374428584E+01  0.00000000000E+00 0. -1.
         36    2    1    2    0    0  0.00000000000E+00  0.17763568394E-14  0.24434184457E+04  0.24588933314E+04  0.27543186907E+03 0.  0.
         25    2    3    3    0    0  0.45300609293E+02 -0.33394663304E+01  0.89807604079E+03  0.90780974876E+03  0.12455788882E+03 0.  0.
         25    2    3    3    0    0 -0.45300609293E+02  0.33394663304E+01  0.15453424049E+04  0.15510835826E+04  0.12535483530E+03 0.  0.
          5    1    4    4  502    0 -0.37423175344E+02  0.41040599824E+01  0.48246945005E+03  0.48395888006E+03  0.47000000000E+01 0. -1.
         -5    1    4    4    0  502  0.82723784637E+02 -0.74435263128E+01  0.41560659074E+03  0.42385086869E+03  0.47000000000E+01 0. -1.
          5    1    5    5  503    0 -0.64824034364E+01 -0.45218821859E+02  0.24620505891E+03  0.25045116178E+03  0.47000000000E+01 0. -1.
         -5    1    5    5    0  503 -0.38818205856E+02  0.48558288190E+02  0.12991373460E+04  0.13006324208E+04  0.47000000000E+01 0. -1.
<mgrwt>
<rscale>  0 0.27543187E+03</rscale>
<asrwt>0</asrwt>
<pdfrwt beam="1">  1        1 0.37710029E+00 0.27543187E+03</pdfrwt>
<pdfrwt beam="2">  1       -1 0.11903778E-02 0.27543187E+03</pdfrwt>
<totfact> 0.24963275E+03</totfact>
</mgrwt>
</event>
<event>
 9    1  0.2074770E-002  0.2757491E+03  0.7818608E-02  0.1098034E+00
          2   -1    0    0  501    0  0.00000000000E+00  0.00000000000E+00  0.11653900095E+04  0.11653900095E+04  0.00000000000E+00 0. -1.
         -2   -1    0    0    0  501 -0.00000000000E+00 -0.00000000000E+00 -0.16311615845E+02  0.16311615845E+02  0.00000000000E+00 0. -1.
         36    2    1    2    0    0  0.71054273576E-14  0.00000000000E+00  0.11490783936E+04  0.11817016253E+04  0.27574911890E+03 0.  0.
         25    2    3    3    0    0 -0.48999353155E+02 -0.30127077993E+02  0.58214379951E+03  0.59802988011E+03  0.12425681772E+03 0.  0.
         25    2    3    3    0    0  0.48999353155E+02  0.30127077993E+02  0.56693459412E+03  0.58367174522E+03  0.12629051713E+03 0.  0.
          5    1    4    4  502    0 -0.13524589512E+02  0.16969881281E+02  0.47600217408E+03  0.47651972795E+03  0.47000000000E+01 0. -1.
         -5    1    4    4    0  502 -0.35474763643E+02 -0.47096959275E+02  0.10614162543E+03  0.12151015216E+03  0.47000000000E+01 0. -1.
          5    1    5    5  503    0 -0.10685148849E+02 -0.11329538143E+02  0.49713128158E+01  0.17009843961E+02  0.47000000000E+01 0.  1.
         -5    1    5    5    0  503  0.59684502005E+02  0.41456616136E+02  0.56196328130E+03  0.56666190126E+03  0.47000000000E+01 0.  1.
<mgrwt>
<rscale>  0 0.27574912E+03</rscale>
<asrwt>0</asrwt>
<pdfrwt beam="1">  1        2 0.17929070E+00 0.27574912E+03</pdfrwt>
<pdfrwt beam="2">  1       -2 0.25094803E-02 0.27574912E+03</pdfrwt>
<totfact> 0.11543744E+04</totfact>
</mgrwt>
</event>
<event>
 9    1  0.2074770E-002  0.2741555E+03  0.7818608E-02  0.1098925E+00
         -2   -1    0    0    0  501 -0.00000000000E+00  0.00000000000E+00  0.21914415831E+02  0.21914415831E+02  0.00000000000E+00 0.  1.
          2   -1    0    0  501    0  0.00000000000E+00 -0.00000000000E+00 -0.85744085604E+03  0.85744085604E+03  0.00000000000E+00 0.  1.
         36    2    1    2    0    0  0.00000000000E+00  0.00000000000E+00 -0.83552644021E+03  0.87935527187E+03  0.27415554322E+03 0.  0.
         25    2    3    3    0    0 -0.22354733995E+02  0.28363145576E+02 -0.51252445581E+03  0.53028672039E+03  0.13121922821E+03 0.  0.
         25    2    3    3    0    0  0.22354733995E+02 -0.28363145576E+02 -0.32300198440E+03  0.34906855149E+03  0.12733565704E+03 0.  0.
          5    1    4    4  502    0  0.35309213917E+02  0.11713512853E+02 -0.43570302531E+02  0.57483982408E+02  0.47000000000E+01 0. -1.
         -5    1    4    4    0  502 -0.57663947912E+02  0.16649632724E+02 -0.46895415328E+03  0.47280273798E+03  0.47000000000E+01 0. -1.
          5    1    5    5  503    0 -0.37510716041E+02  0.27027550948E+02 -0.16188327859E+03  0.16842157882E+03  0.47000000000E+01 0. -1.
         -5    1    5    5    0  503  0.59865450036E+02 -0.55390696525E+02 -0.16111870581E+03  0.18064697266E+03  0.47000000000E+01 0. -1.
<mgrwt>
<rscale>  0 0.27415554E+03</rscale>
<asrwt>0</asrwt>
<pdfrwt beam="1">  1        2 0.13191398E+00 0.27415554E+03</pdfrwt>
<pdfrwt beam="2">  1       -2 0.33714485E-02 0.27415554E+03</pdfrwt>
<totfact> 0.11487143E+04</totfact>
</mgrwt>
</event>
<event>
 9    1  0.2074770E-002  0.2746878E+03  0.7818608E-02  0.1098626E+00
          1   -1    0    0  501    0  0.00000000000E+00  0.00000000000E+00  0.12946200461E+04  0.12946200461E+04  0.00000000000E+00 0.  1.
         -1   -1    0    0    0  501 -0.00000000000E+00 -0.00000000000E+00 -0.14570563723E+02  0.14570563723E+02  0.00000000000E+00 0.  1.
         36    2    1    2    0    0  0.00000000000E+00 -0.35527136788E-14  0.12800494824E+04  0.13091906098E+04  0.27468777824E+03 0.  0.
         25    2    3    3    0    0 -0.44255675446E+02 -0.25186389497E+02  0.77249026106E+03  0.78405282946E+03  0.12411574005E+03 0.  0.
         25    2    3    3    0    0  0.44255675446E+02  0.25186389497E+02  0.50755922131E+03  0.52513778036E+03  0.12474135720E+03 0.  0.
          5    1    4    4  502    0 -0.83749381212E+02 -0.38249919048E+02  0.54518886079E+03  0.55292856599E+03  0.47000000000E+01 0.  1.
         -5    1    4    4    0  502  0.39493705765E+02  0.13063529551E+02  0.22730140027E+03  0.23112426347E+03  0.47000000000E+01 0.  1.
          5    1    5    5  503    0  0.78981207246E+02  0.76145959869E+01  0.20203331865E+03  0.21710726615E+03  0.47000000000E+01 0. -1.
         -5    1    5    5    0  503 -0.34725531799E+02  0.17571793510E+02  0.30552590267E+03  0.30803051421E+03  0.47000000000E+01 0. -1.
<mgrwt>
<rscale>  0 0.27468778E+03</rscale>
<asrwt>0</asrwt>
<pdfrwt beam="1">  1        1 0.19917222E+00 0.27468778E+03</pdfrwt>
<pdfrwt beam="2">  1       -1 0.22416262E-02 0.27468778E+03</pdfrwt>
<totfact> 0.57077707E+03</totfact>
</mgrwt>
</event>
<event>
 9    1  0.2074770E-002  0.2742833E+03  0.7818608E-02  0.1098853E+00
          4   -1    0    0  501    0  0.00000000000E+00  0.00000000000E+00  0.15600171854E+04  0.15600171854E+04  0.00000000000E+00 0.  1.
         -4   -1    0    0    0  501 -0.00000000000E+00 -0.00000000000E+00 -0.12056165795E+02  0.12056165795E+02  0.00000000000E+00 0.  1.
         36    2    1    2    0    0  0.00000000000E+00  0.71054273576E-14  0.15479610196E+04  0.15720733512E+04  0.27428325381E+03 0.  0.
         25    2    3    3    0    0  0.51638342739E+02  0.27284288438E+02  0.78170152808E+03  0.79365577113E+03  0.12418233852E+03 0.  0.
         25    2    3    3    0    0 -0.51638342739E+02 -0.27284288438E+02  0.76625949150E+03  0.77841758005E+03  0.12397326234E+03 0.  0.
          5    1    4    4  502    0  0.35633114676E+02  0.71131810009E+02  0.32835554195E+03  0.33788889474E+03  0.47000000000E+01 0.  1.
         -5    1    4    4    0  502  0.16005228063E+02 -0.43847521570E+02  0.45334598613E+03  0.45576687639E+03  0.47000000000E+01 0.  1.
          5    1    5    5  503    0 -0.39007890989E+02 -0.40353745389E+02  0.75376603189E+03  0.75586729070E+03  0.47000000000E+01 0.  1.
         -5    1    5    5    0  503 -0.12630451750E+02  0.13069456951E+02  0.12493459614E+02  0.22550289345E+02  0.47000000000E+01 0.  1.
<mgrwt>
<rscale>  0 0.27428325E+03</rscale>
<asrwt>0</asrwt>
<pdfrwt beam="1">  1        4 0.24000248E+00 0.27428325E+03</pdfrwt>
<pdfrwt beam="2">  1       -4 0.18547960E-02 0.27428325E+03</pdfrwt>
<totfact> 0.17496431E+02</totfact>
</mgrwt>
</event>
<event>
 9    1  0.2074770E-002  0.2749077E+03  0.7818608E-02  0.1098503E+00
         -2   -1    0    0    0  501 -0.00000000000E+00  0.00000000000E+00  0.43977641421E+02  0.43977641421E+02  0.00000000000E+00 0.  1.
          2   -1    0    0  501    0  0.00000000000E+00 -0.00000000000E+00 -0.42961732830E+03  0.42961732830E+03  0.00000000000E+00 0.  1.
         36    2    1    2    0    0  0.35527136788E-14  0.35527136788E-14 -0.38563968688E+03  0.47359496972E+03  0.27490767041E+03 0.  0.
         25    2    3    3    0    0 -0.22788550716E+02  0.23090527271E+02 -0.11806069216E+03  0.17531184029E+03  0.12547280111E+03 0.  0.
         25    2    3    3    0    0  0.22788550716E+02 -0.23090527271E+02 -0.26757899471E+03  0.29828312943E+03  0.12775686438E+03 0.  0.
          5    1    4    4  502    0 -0.48908769115E+02  0.18272672258E+02 -0.13406376086E+03  0.14394839431E+03  0.47000000000E+01 0. -1.
         -5    1    4    4    0  502  0.26120218399E+02  0.48178550132E+01  0.16003068697E+02  0.31363445982E+02  0.47000000000E+01 0. -1.
          5    1    5    5  503    0 -0.45584295201E+02  0.12594152820E+02 -0.58428244438E+02  0.75315937240E+02  0.47000000000E+01 0.  1.
         -5    1    5    5    0  503  0.68372845917E+02 -0.35684680091E+02 -0.20915075028E+03  0.22296719219E+03  0.47000000000E+01 0.  1.
<mgrwt>
<rscale>  0 0.27490767E+03</rscale>
<asrwt>0</asrwt>
<pdfrwt beam="1">  1        2 0.66094975E-01 0.27490767E+03</pdfrwt>
<pdfrwt beam="2">  1       -2 0.67657908E-02 0.27490767E+03</pdfrwt>
<totfact> 0.90070265E+03</totfact>
</mgrwt>
</event>
<event>
 9    1  0.2074770E-002  0.2750149E+03  0.7818608E-02  0.1098443E+00
         -1   -1    0    0    0  501 -0.00000000000E+00  0.00000000000E+00  0.13778991370E+02  0.13778991370E+02  0.00000000000E+00 0. -1.
          1   -1    0    0  501    0  0.00000000000E+00 -0.00000000000E+00 -0.13722557502E+04  0.13722557502E+04  0.00000000000E+00 0. -1.
         36    2    1    2    0    0 -0.35527136788E-14 -0.14210854715E-13 -0.13584767588E+04  0.13860347415E+04  0.27501490969E+03 0.  0.
         25    2    3    3    0    0 -0.90264462565E+01 -0.40041091794E+02 -0.90716425589E+03  0.91653174782E+03  0.12409146559E+03 0.  0.
         25    2    3    3    0    0  0.90264462565E+01  0.40041091794E+02 -0.45131250290E+03  0.46950299371E+03  0.12274086550E+03 0.  0.
          5    1    4    4  502    0  0.31625183385E+02  0.16020342923E+02 -0.62255591840E+03  0.62358220400E+03  0.47000000000E+01 0. -1.
         -5    1    4    4    0  502 -0.40651629642E+02 -0.56061434717E+02 -0.28460833749E+03  0.29294954382E+03  0.47000000000E+01 0. -1.
          5    1    5    5  503    0  0.63483637572E+02  0.48629349095E+01 -0.24580381417E+03  0.25395949566E+03  0.47000000000E+01 0.  1.
         -5    1    5    5    0  503 -0.54457191316E+02  0.35178156884E+02 -0.20550868872E+03  0.21554349804E+03  0.47000000000E+01 0.  1.
<mgrwt>
<rscale>  0 0.27501491E+03</rscale>
<asrwt>0</asrwt>
<pdfrwt beam="1">  1        1 0.21111634E+00 0.27501491E+03</pdfrwt>
<pdfrwt beam="2">  1       -1 0.21198441E-02 0.27501491E+03</pdfrwt>
<totfact> 0.54860661E+03</totfact>
</mgrwt>
</event>
<event>
 9    1  0.2074770E-002  0.2760398E+03  0.7818608E-02  0.1097872E+00
          2   -1    0    0  501    0  0.00000000000E+00  0.00000000000E+00  0.95775112723E+03  0.95775112723E+03  0.00000000000E+00 0. -1.
         -2   -1    0    0    0  501 -0.00000000000E+00 -0.00000000000E+00 -0.19889814900E+02  0.19889814900E+02  0.00000000000E+00 0. -1.
         36    2    1    2    0    0 -0.10658141036E-13  0.35527136788E-14  0.93786131233E+03  0.97764094213E+03  0.27603979887E+03 0.  0.
         25    2    3    3    0    0  0.30929005694E+02 -0.67420903563E+01  0.65255152962E+03  0.66496622090E+03  0.12391334454E+03 0.  0.
         25    2    3    3    0    0 -0.30929005694E+02  0.67420903563E+01  0.28530978271E+03  0.31267472123E+03  0.12394252704E+03 0.  0.
          5    1    4    4  502    0 -0.15625860344E+02 -0.18341411681E+02  0.23220088515E+02  0.33791084691E+02  0.47000000000E+01 0. -1.
         -5    1    4    4    0  502  0.46554866038E+02  0.11599321325E+02  0.62933144111E+03  0.63117513621E+03  0.47000000000E+01 0. -1.
          5    1    5    5  503    0 -0.10792542214E+02 -0.34662735993E+02  0.16927637355E+02  0.40331366706E+02  0.47000000000E+01 0.  1.
         -5    1    5    5    0  503 -0.20136463481E+02  0.41404826350E+02  0.26838214536E+03  0.27234335452E+03  0.47000000000E+01 0.  1.
<mgrwt>
<rscale>  0 0.27603980E+03</rscale>
<asrwt>0</asrwt>
<pdfrwt beam="1">  1        2 0.14734629E+00 0.27603980E+03</pdfrwt>
<pdfrwt beam="2">  1       -2 0.30599723E-02 0.27603980E+03</pdfrwt>
<totfact> 0.11443429E+04</totfact>
</mgrwt>
</event>
<event>
 9    1  0.2074770E-002  0.2744395E+03  0.7818608E-02  0.1098765E+00
         -1   -1    0    0    0  501 -0.00000000000E+00  0.00000000000E+00  0.29915793254E+02  0.29915793254E+02  0.00000000000E+00 0.  1.
          1   -1    0    0  501    0  0.00000000000E+00 -0.00000000000E+00 -0.62940875994E+03  0.62940875994E+03  0.00000000000E+00 0.  1.
         36    2    1    2    0    0 -0.53290705182E-14  0.00000000000E+00 -0.59949296669E+03  0.65932455320E+03  0.27443951854E+03 0.  0.
         25    2    3    3    0    0  0.36955298344E+01 -0.40927691477E+02 -0.40825121149E+03  0.42864698731E+03  0.12401796311E+03 0.  0.
         25    2    3    3    0    0 -0.36955298344E+01  0.40927691477E+02 -0.19124175520E+03  0.23067756589E+03  0.12227018280E+03 0.  0.
          5    1    4    4  502    0  0.38249490889E+02 -0.48999980995E+02 -0.37381502619E+03  0.37897728889E+03  0.47000000000E+01 0.  1.
         -5    1    4    4    0  502 -0.34553961055E+02  0.80722895174E+01 -0.34436185304E+02  0.49669698418E+02  0.47000000000E+01 0.  1.
          5    1    5    5  503    0  0.95655683974E+01 -0.19177240712E+01  0.15592582620E+02  0.18984109069E+02  0.47000000000E+01 0. -1.
         -5    1    5    5    0  503 -0.13261098232E+02  0.42845415549E+02 -0.20683433782E+03  0.21169345682E+03  0.47000000000E+01 0. -1.
<mgrwt>
<rscale>  0 0.27443952E+03</rscale>
<asrwt>0</asrwt>
<pdfrwt beam="1">  1        1 0.96832119E-01 0.27443952E+03</pdfrwt>
<pdfrwt beam="2">  1       -1 0.46024297E-02 0.27443952E+03</pdfrwt>
<totfact> 0.65302782E+03</totfact>
</mgrwt>
</event>
<event>
 9    1  0.2074770E-002  0.2752557E+03  0.7818608E-02  0.1098309E+00
          2   -1    0    0  501    0  0.00000000000E+00  0.00000000000E+00  0.28134332775E+04  0.28134332775E+04  0.00000000000E+00 0. -1.
         -2   -1    0    0    0  501 -0.00000000000E+00 -0.00000000000E+00 -0.67324957801E+01  0.67324957801E+01  0.00000000000E+00 0. -1.
         36    2    1    2    0    0  0.00000000000E+00 -0.71054273576E-14  0.28067007818E+04  0.28201657733E+04  0.27525571870E+03 0.  0.
         25    2    3    3    0    0 -0.40782016542E+02 -0.34472152823E+02  0.11978896779E+04  0.12053421059E+04  0.12271271117E+03 0.  0.
         25    2    3    3    0    0  0.40782016542E+02  0.34472152823E+02  0.16088111038E+04  0.16148236675E+04  0.12857218587E+03 0.  0.
          5    1    4    4  502    0  0.34283754482E+02  0.20660136919E+02  0.39757844258E+03  0.39961597201E+03  0.47000000000E+01 0. -1.
         -5    1    4    4    0  502 -0.75065771024E+02 -0.55132289741E+02  0.80031123535E+03  0.80572613386E+03  0.47000000000E+01 0. -1.
          5    1    5    5  503    0  0.24163410405E+02 -0.48405653041E+02  0.67720227303E+03  0.67937617433E+03  0.47000000000E+01 0. -1.
         -5    1    5    5    0  503  0.16618606137E+02  0.82877805864E+02  0.93160883081E+03  0.93544749314E+03  0.47000000000E+01 0. -1.
<mgrwt>
<rscale>  0 0.27525572E+03</rscale>
<asrwt>0</asrwt>
<pdfrwt beam="1">  1        2 0.43283495E+00 0.27525572E+03</pdfrwt>
<pdfrwt beam="2">  1       -2 0.10357708E-02 0.27525572E+03</pdfrwt>
<totfact> 0.54224961E+03</totfact>
</mgrwt>
</event>
