<event>
 4    1  0.1733772E-004  0.2556370E+03  0.7818608E-02  0.1109793E+00
         -1   -1    0    0    0  501 -0.00000000000E+00  0.00000000000E+00  0.19782398051E+03  0.19782398051E+03  0.00000000000E+00 0. -1.
          1   -1    0    0  501    0  0.00000000000E+00 -0.00000000000E+00 -0.82586412572E+02  0.82586412572E+02  0.00000000000E+00 0. -1.
         25    1    1    2    0    0 -0.25239959110E+02 -0.12381029638E+02  0.94771888100E+02  0.15547365116E+03  0.12000000000E+03 0.  0.
         25    1    1    2    0    0  0.25239959110E+02  0.12381029638E+02  0.20465679837E+02  0.12493674192E+03  0.12000000000E+03 0.  0.
<mgrwt>
<rscale>  0 0.25563703E+03</rscale>
<asrwt>0</asrwt>
<pdfrwt beam="1">  1        1 0.12705602E-01 0.25563703E+03</pdfrwt>
<pdfrwt beam="2">  1       -1 0.30434458E-01 0.25563703E+03</pdfrwt>
<totfact> 0.45884166E+03</totfact>
</mgrwt>
</event>
<event>
 4    1  0.1733772E-004  0.2551982E+03  0.7818608E-02  0.1110063E+00
         -1   -1    0    0    0  501 -0.00000000000E+00  0.00000000000E+00  0.10379716044E+03  0.10379716044E+03  0.00000000000E+00 0.  1.
          1   -1    0    0  501    0  0.00000000000E+00 -0.00000000000E+00 -0.15685911182E+03  0.15685911182E+03  0.00000000000E+00 0.  1.
         25    1    1    2    0    0  0.22635684185E+02  0.16350134117E+02  0.73727740109E+01  0.12342632977E+03  0.12000000000E+03 0.  0.
         25    1    1    2    0    0 -0.22635684185E+02 -0.16350134117E+02 -0.60434725388E+02  0.13722994249E+03  0.12000000000E+03 0.  0.
<mgrwt>
<rscale>  0 0.25519820E+03</rscale>
<asrwt>0</asrwt>
<pdfrwt beam="1">  1        1 0.24132171E-01 0.25519820E+03</pdfrwt>
<pdfrwt beam="2">  1       -1 0.15968794E-01 0.25519820E+03</pdfrwt>
<totfact> 0.57530290E+03</totfact>
</mgrwt>
</event>
<event>
 4    1  0.1733772E-004  0.3208623E+03  0.7818608E-02  0.1075253E+00
         -1   -1    0    0    0  501 -0.00000000000E+00  0.00000000000E+00  0.51891371994E+02  0.51891371994E+02  0.00000000000E+00 0. -1.
          1   -1    0    0  501    0  0.00000000000E+00 -0.00000000000E+00 -0.49600051716E+03  0.49600051716E+03  0.00000000000E+00 0. -1.
         25    1    1    2    0    0 -0.10508379337E+03  0.44589866840E+01 -0.19370385742E+03  0.25096547685E+03  0.12000000000E+03 0.  0.
         25    1    1    2    0    0  0.10508379337E+03 -0.44589866840E+01 -0.25040528775E+03  0.29692641230E+03  0.12000000000E+03 0.  0.
<mgrwt>
<rscale>  0 0.32086226E+03</rscale>
<asrwt>0</asrwt>
<pdfrwt beam="1">  1        1 0.76307771E-01 0.32086226E+03</pdfrwt>
<pdfrwt beam="2">  1       -1 0.79832881E-02 0.32086226E+03</pdfrwt>
<totfact> 0.39464468E+03</totfact>
</mgrwt>
</event>
<event>
 4    1  0.1733772E-004  0.3156371E+03  0.7818608E-02  0.1077675E+00
         -1   -1    0    0    0  501 -0.00000000000E+00  0.00000000000E+00  0.30567059573E+02  0.30567059573E+02  0.00000000000E+00 0. -1.
          1   -1    0    0  501    0  0.00000000000E+00 -0.00000000000E+00 -0.81482145393E+03  0.81482145393E+03  0.00000000000E+00 0. -1.
         25    1    1    2    0    0  0.90244763668E+02  0.37206082885E+02 -0.30835475122E+03  0.34497980024E+03  0.12000000000E+03 0.  0.
         25    1    1    2    0    0 -0.90244763668E+02 -0.37206082885E+02 -0.47589964314E+03  0.50040871326E+03  0.12000000000E+03 0.  0.
<mgrwt>
<rscale>  0 0.31563711E+03</rscale>
<asrwt>0</asrwt>
<pdfrwt beam="1">  1        1 0.12535714E+00 0.31563711E+03</pdfrwt>
<pdfrwt beam="2">  1       -1 0.47026250E-02 0.31563711E+03</pdfrwt>
<totfact> 0.43293728E+03</totfact>
</mgrwt>
</event>
<event>
 4    1  0.1733772E-004  0.2680584E+03  0.7818608E-02  0.1102396E+00
         -1   -1    0    0    0  501 -0.00000000000E+00  0.00000000000E+00  0.30705527696E+02  0.30705527696E+02  0.00000000000E+00 0.  1.
          1   -1    0    0  501    0  0.00000000000E+00 -0.00000000000E+00 -0.58503571307E+03  0.58503571307E+03  0.00000000000E+00 0.  1.
         25    1    1    2    0    0 -0.31139965467E+02 -0.38699935988E+02 -0.20110396596E+03  0.23939546282E+03  0.12000000000E+03 0.  0.
         25    1    1    2    0    0  0.31139965467E+02  0.38699935988E+02 -0.35322621941E+03  0.37634577794E+03  0.12000000000E+03 0.  0.
<mgrwt>
<rscale>  0 0.26805843E+03</rscale>
<asrwt>0</asrwt>
<pdfrwt beam="1">  1        1 0.90005491E-01 0.26805843E+03</pdfrwt>
<pdfrwt beam="2">  1       -1 0.47239275E-02 0.26805843E+03</pdfrwt>
<totfact> 0.69492941E+03</totfact>
</mgrwt>
</event>
<event>
 4    1  0.1733772E-004  0.2618586E+03  0.7818608E-02  0.1106032E+00
          2   -1    0    0  501    0  0.00000000000E+00  0.00000000000E+00  0.14286825301E+04  0.14286825301E+04  0.00000000000E+00 0. -1.
         -2   -1    0    0    0  501 -0.00000000000E+00 -0.00000000000E+00 -0.11998804774E+02  0.11998804774E+02  0.00000000000E+00 0. -1.
         25    1    1    2    0    0 -0.16102648348E+02  0.20025481347E+01  0.43440223267E+03  0.45096408419E+03  0.12000000000E+03 0.  0.
         25    1    1    2    0    0  0.16102648348E+02 -0.20025481347E+01  0.98228149267E+03  0.98971725070E+03  0.12000000000E+03 0.  0.
<mgrwt>
<rscale>  0 0.26185861E+03</rscale>
<asrwt>0</asrwt>
<pdfrwt beam="1">  1        2 0.21979718E+00 0.26185861E+03</pdfrwt>
<pdfrwt beam="2">  1       -2 0.18459711E-02 0.26185861E+03</pdfrwt>
<totfact> 0.12946001E+04</totfact>
</mgrwt>
</event>
<event>
 4    1  0.1733772E-004  0.3138659E+03  0.7818608E-02  0.1078508E+00
          1   -1    0    0  501    0  0.00000000000E+00  0.00000000000E+00  0.12926324929E+03  0.12926324929E+03  0.00000000000E+00 0. -1.
         -1   -1    0    0    0  501 -0.00000000000E+00 -0.00000000000E+00 -0.19052554810E+03  0.19052554810E+03  0.00000000000E+00 0. -1.
         25    1    1    2    0    0 -0.85893447468E+02  0.49585602123E+02 -0.50791797652E+02  0.16375659671E+03  0.12000000000E+03 0.  0.
         25    1    1    2    0    0  0.85893447468E+02 -0.49585602123E+02 -0.10470501157E+02  0.15603220068E+03  0.12000000000E+03 0.  0.
<mgrwt>
<rscale>  0 0.31386590E+03</rscale>
<asrwt>0</asrwt>
<pdfrwt beam="1">  1        1 0.19886654E-01 0.31386590E+03</pdfrwt>
<pdfrwt beam="2">  1       -1 0.29311623E-01 0.31386590E+03</pdfrwt>
<totfact> 0.27363401E+03</totfact>
</mgrwt>
</event>
<event>
 4    1  0.1733772E-004  0.2899576E+03  0.7818608E-02  0.1090371E+00
          3   -1    0    0  501    0  0.00000000000E+00  0.00000000000E+00  0.84050616442E+03  0.84050616442E+03  0.00000000000E+00 0. -1.
         -3   -1    0    0    0  501 -0.00000000000E+00 -0.00000000000E+00 -0.25007375435E+02  0.25007375435E+02  0.00000000000E+00 0. -1.
         25    1    1    2    0    0  0.15777218667E+02 -0.32896480391E+02  0.19069179799E+03  0.22824211021E+03  0.12000000000E+03 0.  0.
         25    1    1    2    0    0 -0.15777218667E+02  0.32896480391E+02  0.62480699099E+03  0.63727142965E+03  0.12000000000E+03 0.  0.
<mgrwt>
<rscale>  0 0.28995761E+03</rscale>
<asrwt>0</asrwt>
<pdfrwt beam="1">  1        3 0.12930862E+00 0.28995761E+03</pdfrwt>
<pdfrwt beam="2">  1       -3 0.38472892E-02 0.28995761E+03</pdfrwt>
<totfact> 0.43543085E+02</totfact>
</mgrwt>
</event>
<event>
 4    1  0.1733772E-004  0.2575834E+03  0.7818608E-02  0.1108604E+00
         -2   -1    0    0    0  501 -0.00000000000E+00  0.00000000000E+00  0.16258452031E+03  0.16258452031E+03  0.00000000000E+00 0.  1.
          2   -1    0    0  501    0  0.00000000000E+00 -0.00000000000E+00 -0.10202260416E+03  0.10202260416E+03  0.00000000000E+00 0.  1.
         25    1    1    2    0    0  0.43545356059E+02 -0.12919961557E+02  0.18833822347E+02  0.12968360076E+03  0.12000000000E+03 0.  0.
         25    1    1    2    0    0 -0.43545356059E+02  0.12919961557E+02  0.41728093803E+02  0.13492352372E+03  0.12000000000E+03 0.  0.
<mgrwt>
<rscale>  0 0.25758335E+03</rscale>
<asrwt>0</asrwt>
<pdfrwt beam="1">  1        2 0.15695785E-01 0.25758335E+03</pdfrwt>
<pdfrwt beam="2">  1       -2 0.25013003E-01 0.25758335E+03</pdfrwt>
<totfact> 0.51885734E+03</totfact>
</mgrwt>
</event>
<event>
 4    1  0.1733772E-004  0.3747015E+03  0.7818608E-02  0.1052910E+00
         -1   -1    0    0    0  501 -0.00000000000E+00  0.00000000000E+00  0.11066620897E+03  0.11066620897E+03  0.00000000000E+00 0.  1.
          1   -1    0    0  501    0  0.00000000000E+00 -0.00000000000E+00 -0.31717264740E+03  0.31717264740E+03  0.00000000000E+00 0.  1.
         25    1    1    2    0    0 -0.44851077402E+02 -0.75888169637E+02 -0.23308721372E+03  0.27658684465E+03  0.12000000000E+03 0.  0.
         25    1    1    2    0    0  0.44851077402E+02  0.75888169637E+02  0.26580775288E+02  0.15125201172E+03  0.12000000000E+03 0.  0.
<mgrwt>
<rscale>  0 0.37470145E+03</rscale>
<asrwt>0</asrwt>
<pdfrwt beam="1">  1        1 0.48795792E-01 0.37470145E+03</pdfrwt>
<pdfrwt beam="2">  1       -1 0.17025570E-01 0.37470145E+03</pdfrwt>
<totfact> 0.21486158E+03</totfact>
</mgrwt>
</event>
<event>
 4    1  0.1733772E-004  0.2767848E+03  0.7818608E-02  0.1097458E+00
         -1   -1    0    0    0  501 -0.00000000000E+00  0.00000000000E+00  0.12874517484E+02  0.12874517484E+02  0.00000000000E+00 0. -1.
          1   -1    0    0  501    0  0.00000000000E+00 -0.00000000000E+00 -0.14876251940E+04  0.14876251940E+04  0.00000000000E+00 0. -1.
         25    1    1    2    0    0  0.33164660453E+01 -0.66889926493E+02 -0.82599051959E+03  0.83734437340E+03  0.12000000000E+03 0.  0.
         25    1    1    2    0    0 -0.33164660453E+01  0.66889926493E+02 -0.64876015695E+03  0.66315533811E+03  0.12000000000E+03 0.  0.
<mgrwt>
<rscale>  0 0.27678480E+03</rscale>
<asrwt>0</asrwt>
<pdfrwt beam="1">  1        1 0.22886555E+00 0.27678480E+03</pdfrwt>
<pdfrwt beam="2">  1       -1 0.19806938E-02 0.27678480E+03</pdfrwt>
<totfact> 0.50727549E+03</totfact>
</mgrwt>
</event>
<event>
 4    1  0.1733772E-004  0.3741715E+03  0.7818608E-02  0.1053109E+00
         -2   -1    0    0    0  501 -0.00000000000E+00  0.00000000000E+00  0.17442914700E+02  0.17442914700E+02  0.00000000000E+00 0.  1.
          2   -1    0    0  501    0  0.00000000000E+00 -0.00000000000E+00 -0.20066077010E+04  0.20066077010E+04  0.00000000000E+00 0.  1.
         25    1    1    2    0    0  0.48995491410E+00 -0.40661843175E+02 -0.17391876929E+04  0.17437968507E+04  0.12000000000E+03 0.  0.
         25    1    1    2    0    0 -0.48995491410E+00  0.40661843175E+02 -0.24997709342E+03  0.28025376497E+03  0.12000000000E+03 0.  0.
<mgrwt>
<rscale>  0 0.37417155E+03</rscale>
<asrwt>0</asrwt>
<pdfrwt beam="1">  1        2 0.30870872E+00 0.37417155E+03</pdfrwt>
<pdfrwt beam="2">  1       -2 0.26835267E-02 0.37417155E+03</pdfrwt>
<totfact> 0.36761850E+03</totfact>
</mgrwt>
</event>
<event>
 4    1  0.1733772E-004  0.2455147E+03  0.7818608E-02  0.1116173E+00
         -1   -1    0    0    0  501 -0.00000000000E+00  0.00000000000E+00  0.16463480993E+03  0.16463480993E+03  0.00000000000E+00 0. -1.
          1   -1    0    0  501    0  0.00000000000E+00 -0.00000000000E+00 -0.91532102148E+02  0.91532102148E+02  0.00000000000E+00 0. -1.
         25    1    1    2    0    0 -0.13372166098E+02 -0.14064759349E+02  0.18699430869E+02  0.12298902795E+03  0.12000000000E+03 0.  0.
         25    1    1    2    0    0  0.13372166098E+02  0.14064759349E+02  0.54403276915E+02  0.13317788413E+03  0.12000000000E+03 0.  0.
<mgrwt>
<rscale>  0 0.24551473E+03</rscale>
<asrwt>0</asrwt>
<pdfrwt beam="1">  1        1 0.14081862E-01 0.24551473E+03</pdfrwt>
<pdfrwt beam="2">  1       -1 0.25328432E-01 0.24551473E+03</pdfrwt>
<totfact> 0.54478843E+03</totfact>
</mgrwt>
</event>
<event>
 4    1  0.1733772E-004  0.2582206E+03  0.7818608E-02  0.1108217E+00
         -2   -1    0    0    0  501 -0.00000000000E+00  0.00000000000E+00  0.17082653817E+02  0.17082653817E+02  0.00000000000E+00 0. -1.
          2   -1    0    0  501    0  0.00000000000E+00 -0.00000000000E+00 -0.97581267156E+03  0.97581267156E+03  0.00000000000E+00 0. -1.
         25    1    1    2    0    0 -0.42542923859E+02  0.20512213227E+02 -0.50332207379E+03  0.51958037032E+03  0.12000000000E+03 0.  0.
         25    1    1    2    0    0  0.42542923859E+02 -0.20512213227E+02 -0.45540794396E+03  0.47331495506E+03  0.12000000000E+03 0.  0.
<mgrwt>
<rscale>  0 0.25822060E+03</rscale>
<asrwt>0</asrwt>
<pdfrwt beam="1">  1        2 0.15012503E+00 0.25822060E+03</pdfrwt>
<pdfrwt beam="2">  1       -2 0.26281005E-02 0.25822060E+03</pdfrwt>
<totfact> 0.13944662E+04</totfact>
</mgrwt>
</event>
<event>
 4    1  0.1733772E-004  0.2857365E+03  0.7818608E-02  0.1092596E+00
         -2   -1    0    0    0  501 -0.00000000000E+00  0.00000000000E+00  0.71056413141E+02  0.71056413141E+02  0.00000000000E+00 0.  1.
          2   -1    0    0  501    0  0.00000000000E+00 -0.00000000000E+00 -0.28725533994E+03  0.28725533994E+03  0.00000000000E+00 0.  1.
         25    1    1    2    0    0  0.33153845695E+02  0.43131191346E+02 -0.38824317431E+02  0.13735648793E+03  0.12000000000E+03 0.  0.
         25    1    1    2    0    0 -0.33153845695E+02 -0.43131191346E+02 -0.17737460937E+03  0.22095526516E+03  0.12000000000E+03 0.  0.
<mgrwt>
<rscale>  0 0.28573648E+03</rscale>
<asrwt>0</asrwt>
<pdfrwt beam="1">  1        2 0.44193129E-01 0.28573648E+03</pdfrwt>
<pdfrwt beam="2">  1       -2 0.10931756E-01 0.28573648E+03</pdfrwt>
<totfact> 0.65566304E+03</totfact>
</mgrwt>
</event>
<event>
 4    1  0.1733772E-004  0.3397699E+03  0.7818608E-02  0.1066894E+00
         -1   -1    0    0    0  501 -0.00000000000E+00  0.00000000000E+00  0.36448482492E+02  0.36448482492E+02  0.00000000000E+00 0. -1.
          1   -1    0    0  501    0  0.00000000000E+00 -0.00000000000E+00 -0.79182722149E+03  0.79182722149E+03  0.00000000000E+00 0. -1.
         25    1    1    2    0    0 -0.10982701997E+03 -0.11661688191E+02 -0.49365403372E+03  0.51989640727E+03  0.12000000000E+03 0.  0.
         25    1    1    2    0    0  0.10982701997E+03  0.11661688191E+02 -0.26172470528E+03  0.30837929671E+03  0.12000000000E+03 0.  0.
<mgrwt>
<rscale>  0 0.33976993E+03</rscale>
<asrwt>0</asrwt>
<pdfrwt beam="1">  1        1 0.12181956E+00 0.33976993E+03</pdfrwt>
<pdfrwt beam="2">  1       -1 0.56074593E-02 0.33976993E+03</pdfrwt>
<totfact> 0.34751098E+03</totfact>
</mgrwt>
</event>
<event>
 4    1  0.1733772E-004  0.2625632E+03  0.7818608E-02  0.1105613E+00
         -4   -1    0    0    0  501 -0.00000000000E+00  0.00000000000E+00  0.13133420015E+03  0.13133420015E+03  0.00000000000E+00 0. -1.
          4   -1    0    0  501    0  0.00000000000E+00 -0.00000000000E+00 -0.13122897315E+03  0.13122897315E+03  0.00000000000E+00 0. -1.
         25    1    1    2    0    0  0.22989246492E+02 -0.92487393305E+01 -0.47072835541E+02  0.13126270026E+03  0.12000000000E+03 0.  0.
         25    1    1    2    0    0 -0.22989246492E+02  0.92487393305E+01  0.47178062542E+02  0.13130047303E+03  0.12000000000E+03 0.  0.
<mgrwt>
<rscale>  0 0.26256315E+03</rscale>
<asrwt>0</asrwt>
<pdfrwt beam="1">  1        4 0.20189073E-01 0.26256315E+03</pdfrwt>
<pdfrwt beam="2">  1       -4 0.20205262E-01 0.26256315E+03</pdfrwt>
<totfact> 0.91555151E+02</totfact>
</mgrwt>
</event>
<event>
 4    1  0.1733772E-004  0.2921538E+03  0.7818608E-02  0.1089230E+00
         -1   -1    0    0    0  501 -0.00000000000E+00  0.00000000000E+00  0.19784969920E+02  0.19784969920E+02  0.00000000000E+00 0.  1.
          1   -1    0    0  501    0  0.00000000000E+00 -0.00000000000E+00 -0.10785185705E+04  0.10785185705E+04  0.00000000000E+00 0.  1.
         25    1    1    2    0    0  0.55715876116E+02  0.55277064604E+02 -0.63426802478E+03  0.65027358856E+03  0.12000000000E+03 0.  0.
         25    1    1    2    0    0 -0.55715876116E+02 -0.55277064604E+02 -0.42446557580E+03  0.44802995186E+03  0.12000000000E+03 0.  0.
<mgrwt>
<rscale>  0 0.29215378E+03</rscale>
<asrwt>0</asrwt>
<pdfrwt beam="1">  1        1 0.16592586E+00 0.29215378E+03</pdfrwt>
<pdfrwt beam="2">  1       -1 0.30438429E-02 0.29215378E+03</pdfrwt>
<totfact> 0.51692166E+03</totfact>
</mgrwt>
</event>
<event>
 4    1  0.1733772E-004  0.2557404E+03  0.7818608E-02  0.1109730E+00
         -4   -1    0    0    0  501 -0.00000000000E+00  0.00000000000E+00  0.42128595251E+02  0.42128595251E+02  0.00000000000E+00 0.  1.
          4   -1    0    0  501    0  0.00000000000E+00 -0.00000000000E+00 -0.38811613383E+03  0.38811613383E+03  0.00000000000E+00 0.  1.
         25    1    1    2    0    0  0.34391174995E+02 -0.83617429202E+01 -0.21744460953E+03  0.25086815238E+03  0.12000000000E+03 0.  0.
         25    1    1    2    0    0 -0.34391174995E+02  0.83617429202E+01 -0.12854292904E+03  0.17937657670E+03  0.12000000000E+03 0.  0.
<mgrwt>
<rscale>  0 0.25574040E+03</rscale>
<asrwt>0</asrwt>
<pdfrwt beam="1">  1        4 0.59710176E-01 0.25574040E+03</pdfrwt>
<pdfrwt beam="2">  1       -4 0.64813222E-02 0.25574040E+03</pdfrwt>
<totfact> 0.77825091E+02</totfact>
</mgrwt>
</event>
<event>
 4    1  0.1733772E-004  0.3138668E+03  0.7818608E-02  0.1078507E+00
         -2   -1    0    0    0  501 -0.00000000000E+00  0.00000000000E+00  0.24275952870E+02  0.24275952870E+02  0.00000000000E+00 0.  1.
          2   -1    0    0  501    0  0.00000000000E+00 -0.00000000000E+00 -0.10145059532E+04  0.10145059532E+04  0.00000000000E+00 0.  1.
         25    1    1    2    0    0  0.71936433865E+02  0.19345333604E+02 -0.26872577615E+03  0.30358299560E+03  0.12000000000E+03 0.  0.
         25    1    1    2    0    0 -0.71936433865E+02 -0.19345333604E+02 -0.72150422420E+03  0.73519891049E+03  0.12000000000E+03 0.  0.
<mgrwt>
<rscale>  0 0.31386684E+03</rscale>
<asrwt>0</asrwt>
<pdfrwt beam="1">  1        2 0.15607782E+00 0.31386684E+03</pdfrwt>
<pdfrwt beam="2">  1       -2 0.37347624E-02 0.31386684E+03</pdfrwt>
<totfact> 0.78579571E+03</totfact>
</mgrwt>
</event>
<event>
 4    1  0.1733772E-004  0.3151296E+03  0.7818608E-02  0.1077913E+00
          1   -1    0    0  501    0  0.00000000000E+00  0.00000000000E+00  0.52753721557E+03  0.52753721557E+03  0.00000000000E+00 0. -1.
         -1   -1    0    0    0  501 -0.00000000000E+00 -0.00000000000E+00 -0.47061446398E+02  0.47061446398E+02  0.00000000000E+00 0. -1.
         25    1    1    2    0    0  0.74308972522E+02 -0.22316007286E+02  0.36128067094E+03  0.38851454383E+03  0.12000000000E+03 0.  0.
         25    1    1    2    0    0 -0.74308972522E+02  0.22316007286E+02  0.11919509824E+03  0.18608411814E+03  0.12000000000E+03 0.  0.
<mgrwt>
<rscale>  0 0.31512959E+03</rscale>
<asrwt>0</asrwt>
<pdfrwt beam="1">  1        1 0.81159568E-01 0.31512959E+03</pdfrwt>
<pdfrwt beam="2">  1       -1 0.72402229E-02 0.31512959E+03</pdfrwt>
<totfact> 0.42173090E+03</totfact>
</mgrwt>
</event>
<event>
 4    1  0.1733772E-004  0.4553112E+03  0.7818608E-02  0.1026150E+00
         -2   -1    0    0    0  501 -0.00000000000E+00  0.00000000000E+00  0.31245608666E+03  0.31245608666E+03  0.00000000000E+00 0.  1.
          2   -1    0    0  501    0  0.00000000000E+00 -0.00000000000E+00 -0.16586997111E+03  0.16586997111E+03  0.00000000000E+00 0.  1.
         25    1    1    2    0    0  0.28058288863E+02 -0.28112061106E+02 -0.12561729052E+03  0.17820566554E+03  0.12000000000E+03 0.  0.
         25    1    1    2    0    0 -0.28058288863E+02  0.28112061106E+02  0.27220340608E+03  0.30012039223E+03  0.12000000000E+03 0.  0.
<mgrwt>
<rscale>  0 0.45531124E+03</rscale>
<asrwt>0</asrwt>
<pdfrwt beam="1">  1        2 0.25518457E-01 0.45531124E+03</pdfrwt>
<pdfrwt beam="2">  1       -2 0.48070167E-01 0.45531124E+03</pdfrwt>
<totfact> 0.87972152E+02</totfact>
</mgrwt>
</event>
<event>
 4    1  0.1733772E-004  0.2535214E+03  0.7818608E-02  0.1111099E+00
         -2   -1    0    0    0  501 -0.00000000000E+00  0.00000000000E+00  0.33310550553E+03  0.33310550553E+03  0.00000000000E+00 0.  1.
          2   -1    0    0  501    0  0.00000000000E+00 -0.00000000000E+00 -0.48237811286E+02  0.48237811286E+02  0.00000000000E+00 0.  1.
         25    1    1    2    0    0 -0.11815288326E+02  0.37386843657E+02  0.12522400444E+03  0.17781571473E+03  0.12000000000E+03 0.  0.
         25    1    1    2    0    0  0.11815288326E+02 -0.37386843657E+02  0.15964368981E+03  0.20352760209E+03  0.12000000000E+03 0.  0.
<mgrwt>
<rscale>  0 0.25352144E+03</rscale>
<asrwt>0</asrwt>
<pdfrwt beam="1">  1        2 0.74212019E-02 0.25352144E+03</pdfrwt>
<pdfrwt beam="2">  1       -2 0.51247000E-01 0.25352144E+03</pdfrwt>
<totfact> 0.33959201E+03</totfact>
</mgrwt>
</event>
<event>
 4    1  0.1733772E-004  0.2587404E+03  0.7818608E-02  0.1107902E+00
         -2   -1    0    0    0  501 -0.00000000000E+00  0.00000000000E+00  0.21800544736E+02  0.21800544736E+02  0.00000000000E+00 0.  1.
          2   -1    0    0  501    0  0.00000000000E+00 -0.00000000000E+00 -0.76771699673E+03  0.76771699673E+03  0.00000000000E+00 0.  1.
         25    1    1    2    0    0 -0.37797273566E+02 -0.21968031841E+02 -0.43589532247E+03  0.45422016739E+03  0.12000000000E+03 0.  0.
         25    1    1    2    0    0  0.37797273566E+02  0.21968031841E+02 -0.31002112953E+03  0.33529737408E+03  0.12000000000E+03 0.  0.
<mgrwt>
<rscale>  0 0.25874040E+03</rscale>
<asrwt>0</asrwt>
<pdfrwt beam="1">  1        2 0.11811032E+00 0.25874040E+03</pdfrwt>
<pdfrwt beam="2">  1       -2 0.33539295E-02 0.25874040E+03</pdfrwt>
<totfact> 0.13306039E+04</totfact>
</mgrwt>
</event>
<event>
 4    1  0.1733772E-004  0.3579257E+03  0.7818608E-02  0.1059408E+00
          2   -1    0    0  501    0  0.00000000000E+00  0.00000000000E+00  0.40580202075E+03  0.40580202075E+03  0.00000000000E+00 0. -1.
         -2   -1    0    0    0  501 -0.00000000000E+00 -0.00000000000E+00 -0.78924450410E+02  0.78924450410E+02  0.00000000000E+00 0. -1.
         25    1    1    2    0    0  0.99984315411E+02 -0.87019619957E+02  0.15308738630E+03  0.23538272118E+03  0.12000000000E+03 0.  0.
         25    1    1    2    0    0 -0.99984315411E+02  0.87019619957E+02  0.17379018405E+03  0.24934374998E+03  0.12000000000E+03 0.  0.
<mgrwt>
<rscale>  0 0.35792570E+03</rscale>
<asrwt>0</asrwt>
<pdfrwt beam="1">  1        2 0.62431079E-01 0.35792570E+03</pdfrwt>
<pdfrwt beam="2">  1       -2 0.12142223E-01 0.35792570E+03</pdfrwt>
<totfact> 0.38263705E+03</totfact>
</mgrwt>
</event>
<event>
 4    1  0.1733772E-004  0.2933067E+03  0.7818608E-02  0.1088635E+00
         -1   -1    0    0    0  501 -0.00000000000E+00  0.00000000000E+00  0.23698441754E+02  0.23698441754E+02  0.00000000000E+00 0. -1.
          1   -1    0    0  501    0  0.00000000000E+00 -0.00000000000E+00 -0.90753683106E+03  0.90753683106E+03  0.00000000000E+00 0. -1.
         25    1    1    2    0    0  0.75688154561E+01  0.81929809556E+02 -0.50024060267E+03  0.52097067213E+03  0.12000000000E+03 0.  0.
         25    1    1    2    0    0 -0.75688154561E+01 -0.81929809556E+02 -0.38359778663E+03  0.41026460068E+03  0.12000000000E+03 0.  0.
<mgrwt>
<rscale>  0 0.29330672E+03</rscale>
<asrwt>0</asrwt>
<pdfrwt beam="1">  1        1 0.13962106E+00 0.29330672E+03</pdfrwt>
<pdfrwt beam="2">  1       -1 0.36459138E-02 0.29330672E+03</pdfrwt>
<totfact> 0.53228915E+03</totfact>
</mgrwt>
</event>
<event>
 4    1  0.1733772E-004  0.3004537E+03  0.7818608E-02  0.1085014E+00
          2   -1    0    0  501    0  0.00000000000E+00  0.00000000000E+00  0.12833847346E+04  0.12833847346E+04  0.00000000000E+00 0.  1.
         -2   -1    0    0    0  501 -0.00000000000E+00 -0.00000000000E+00 -0.17584831326E+02  0.17584831326E+02  0.00000000000E+00 0.  1.
         25    1    1    2    0    0 -0.33135494159E+02 -0.68358377663E+02  0.84490615077E+03  0.85675972850E+03  0.12000000000E+03 0.  0.
         25    1    1    2    0    0  0.33135494159E+02  0.68358377663E+02  0.42089375252E+03  0.44420983745E+03  0.12000000000E+03 0.  0.
<mgrwt>
<rscale>  0 0.30045368E+03</rscale>
<asrwt>0</asrwt>
<pdfrwt beam="1">  1        2 0.19744373E+00 0.30045368E+03</pdfrwt>
<pdfrwt beam="2">  1       -2 0.27053597E-02 0.30045368E+03</pdfrwt>
<totfact> 0.88722470E+03</totfact>
</mgrwt>
</event>
<event>
 4    1  0.1733772E-004  0.2759558E+03  0.7818608E-02  0.1097919E+00
         -1   -1    0    0    0  501 -0.00000000000E+00  0.00000000000E+00  0.68087656384E+01  0.68087656384E+01  0.00000000000E+00 0.  1.
          1   -1    0    0  501    0  0.00000000000E+00 -0.00000000000E+00 -0.27960866891E+04  0.27960866891E+04  0.00000000000E+00 0.  1.
         25    1    1    2    0    0  0.94044737793E+01  0.38317361526E+02 -0.19584450758E+04  0.19625146571E+04  0.12000000000E+03 0.  0.
         25    1    1    2    0    0 -0.94044737793E+01 -0.38317361526E+02 -0.83083284759E+03  0.84038079759E+03  0.12000000000E+03 0.  0.
<mgrwt>
<rscale>  0 0.27595579E+03</rscale>
<asrwt>0</asrwt>
<pdfrwt beam="1">  1        1 0.43016698E+00 0.27595579E+03</pdfrwt>
<pdfrwt beam="2">  1       -1 0.10475029E-02 0.27595579E+03</pdfrwt>
<totfact> 0.17612103E+03</totfact>
</mgrwt>
</event>
<event>
 4    1  0.1733772E-004  0.2725743E+03  0.7818608E-02  0.1099815E+00
         -2   -1    0    0    0  501 -0.00000000000E+00  0.00000000000E+00  0.24496150945E+02  0.24496150945E+02  0.00000000000E+00 0. -1.
          2   -1    0    0  501    0  0.00000000000E+00 -0.00000000000E+00 -0.75824947785E+03  0.75824947785E+03  0.00000000000E+00 0. -1.
         25    1    1    2    0    0  0.14182389404E+02  0.25635978948E+02 -0.53223767249E+03  0.54638382444E+03  0.12000000000E+03 0.  0.
         25    1    1    2    0    0 -0.14182389404E+02 -0.25635978948E+02 -0.20151565441E+03  0.23636180435E+03  0.12000000000E+03 0.  0.
<mgrwt>
<rscale>  0 0.27257435E+03</rscale>
<asrwt>0</asrwt>
<pdfrwt beam="1">  1        2 0.11665376E+00 0.27257435E+03</pdfrwt>
<pdfrwt beam="2">  1       -2 0.37686387E-02 0.27257435E+03</pdfrwt>
<totfact> 0.11373600E+04</totfact>
</mgrwt>
</event>
<event>
 4    1  0.1733772E-004  0.5222749E+03  0.7818608E-02  0.1008123E+00
          1   -1    0    0  501    0  0.00000000000E+00  0.00000000000E+00  0.64156514795E+03  0.64156514795E+03  0.00000000000E+00 0.  1.
         -1   -1    0    0    0  501 -0.00000000000E+00 -0.00000000000E+00 -0.10629126542E+03  0.10629126542E+03  0.00000000000E+00 0.  1.
         25    1    1    2    0    0  0.12393320677E+02 -0.22843979342E+03  0.32224624439E+03  0.41301449810E+03  0.12000000000E+03 0.  0.
         25    1    1    2    0    0 -0.12393320677E+02  0.22843979342E+03  0.21302763814E+03  0.33484191528E+03  0.12000000000E+03 0.  0.
<mgrwt>
<rscale>  0 0.52227491E+03</rscale>
<asrwt>0</asrwt>
<pdfrwt beam="1">  1        1 0.98702328E-01 0.52227491E+03</pdfrwt>
<pdfrwt beam="2">  1       -1 0.16352503E-01 0.52227491E+03</pdfrwt>
<totfact> 0.89312983E+02</totfact>
</mgrwt>
</event>
<event>
 4    1  0.1733772E-004  0.2556085E+03  0.7818608E-02  0.1109811E+00
         -1   -1    0    0    0  501 -0.00000000000E+00  0.00000000000E+00  0.15294650059E+03  0.15294650059E+03  0.00000000000E+00 0. -1.
          1   -1    0    0  501    0  0.00000000000E+00 -0.00000000000E+00 -0.10679500621E+03  0.10679500621E+03  0.00000000000E+00 0. -1.
         25    1    1    2    0    0  0.11448814637E+02  0.10171292593E+02 -0.18814496879E+02  0.12242759429E+03  0.12000000000E+03 0.  0.
         25    1    1    2    0    0 -0.11448814637E+02 -0.10171292593E+02  0.64965991259E+02  0.13731391251E+03  0.12000000000E+03 0.  0.
<mgrwt>
<rscale>  0 0.25560847E+03</rscale>
<asrwt>0</asrwt>
<pdfrwt beam="1">  1        1 0.16430001E-01 0.25560847E+03</pdfrwt>
<pdfrwt beam="2">  1       -1 0.23530231E-01 0.25560847E+03</pdfrwt>
<totfact> 0.50375163E+03</totfact>
</mgrwt>
</event>
<event>
 4    1  0.1733772E-004  0.3256666E+03  0.7818608E-02  0.1073071E+00
         -2   -1    0    0    0  501 -0.00000000000E+00  0.00000000000E+00  0.17301434338E+03  0.17301434338E+03  0.00000000000E+00 0. -1.
          2   -1    0    0  501    0  0.00000000000E+00 -0.00000000000E+00 -0.15325135938E+03  0.15325135938E+03  0.00000000000E+00 0. -1.
         25    1    1    2    0    0  0.39085448428E+02 -0.47465127260E+02  0.10134057615E+03  0.16867282816E+03  0.12000000000E+03 0.  0.
         25    1    1    2    0    0 -0.39085448428E+02  0.47465127260E+02 -0.81577592150E+02  0.15759287460E+03  0.12000000000E+03 0.  0.
<mgrwt>
<rscale>  0 0.32566660E+03</rscale>
<asrwt>0</asrwt>
<pdfrwt beam="1">  1        2 0.23577132E-01 0.32566660E+03</pdfrwt>
<pdfrwt beam="2">  1       -2 0.26617591E-01 0.32566660E+03</pdfrwt>
<totfact> 0.29268229E+03</totfact>
</mgrwt>
</event>
<event>
 4    1  0.1733772E-004  0.2540900E+03  0.7818608E-02  0.1110747E+00
          2   -1    0    0  501    0  0.00000000000E+00  0.00000000000E+00  0.78187689084E+03  0.78187689084E+03  0.00000000000E+00 0. -1.
         -2   -1    0    0    0  501 -0.00000000000E+00 -0.00000000000E+00 -0.20643196044E+02  0.20643196044E+02  0.00000000000E+00 0. -1.
         25    1    1    2    0    0 -0.20349854642E+02  0.22783706169E+02  0.29088113489E+03  0.31614086811E+03  0.12000000000E+03 0.  0.
         25    1    1    2    0    0  0.20349854642E+02 -0.22783706169E+02  0.47035255990E+03  0.48637921878E+03  0.12000000000E+03 0.  0.
<mgrwt>
<rscale>  0 0.25409005E+03</rscale>
<asrwt>0</asrwt>
<pdfrwt beam="1">  1        2 0.12028873E+00 0.25409005E+03</pdfrwt>
<pdfrwt beam="2">  1       -2 0.31758769E-02 0.25409005E+03</pdfrwt>
<totfact> 0.14095320E+04</totfact>
</mgrwt>
</event>
<event>
 4    1  0.1733772E-004  0.3948034E+03  0.7818608E-02  0.1045594E+00
          2   -1    0    0  501    0  0.00000000000E+00  0.00000000000E+00  0.15186403592E+04  0.15186403592E+04  0.00000000000E+00 0.  1.
         -2   -1    0    0    0  501 -0.00000000000E+00 -0.00000000000E+00 -0.25659420004E+02  0.25659420004E+02  0.00000000000E+00 0.  1.
         25    1    1    2    0    0  0.48101366468E+02 -0.44087370463E+01  0.13297502001E+04  0.13360272352E+04  0.12000000000E+03 0.  0.
         25    1    1    2    0    0 -0.48101366468E+02  0.44087370463E+01  0.16323073910E+03  0.20827254405E+03  0.12000000000E+03 0.  0.
<mgrwt>
<rscale>  0 0.39480340E+03</rscale>
<asrwt>0</asrwt>
<pdfrwt beam="1">  1        2 0.23363691E+00 0.39480340E+03</pdfrwt>
<pdfrwt beam="2">  1       -2 0.39476043E-02 0.39480340E+03</pdfrwt>
<totfact> 0.37426991E+03</totfact>
</mgrwt>
</event>
<event>
 4    1  0.1733772E-004  0.2929202E+03  0.7818608E-02  0.1088834E+00
         -3   -1    0    0    0  501 -0.00000000000E+00  0.00000000000E+00  0.13250471451E+03  0.13250471451E+03  0.00000000000E+00 0. -1.
          3   -1    0    0  501    0  0.00000000000E+00 -0.00000000000E+00 -0.16188525031E+03  0.16188525031E+03  0.00000000000E+00 0. -1.
         25    1    1    2    0    0  0.39360512181E+01 -0.47426897033E+01 -0.98851562262E+02  0.15559439889E+03  0.12000000000E+03 0.  0.
         25    1    1    2    0    0 -0.39360512181E+01  0.47426897033E+01  0.69471026456E+02  0.13879556593E+03  0.12000000000E+03 0.  0.
<mgrwt>
<rscale>  0 0.29292019E+03</rscale>
<asrwt>0</asrwt>
<pdfrwt beam="1">  1        3 0.24905423E-01 0.29292019E+03</pdfrwt>
<pdfrwt beam="2">  1       -3 0.20385341E-01 0.29292019E+03</pdfrwt>
<totfact> 0.83957843E+02</totfact>
</mgrwt>
</event>
<event>
 4    1  0.1733772E-004  0.3381727E+03  0.7818608E-02  0.1067577E+00
         -3   -1    0    0    0  501 -0.00000000000E+00  0.00000000000E+00  0.10428980627E+04  0.10428980627E+04  0.00000000000E+00 0. -1.
          3   -1    0    0  501    0  0.00000000000E+00 -0.00000000000E+00 -0.27414173165E+02  0.27414173165E+02  0.00000000000E+00 0. -1.
         25    1    1    2    0    0  0.12362379352E+02 -0.89275435961E+02  0.75427102492E+03  0.76905637694E+03  0.12000000000E+03 0.  0.
         25    1    1    2    0    0 -0.12362379352E+02  0.89275435961E+02  0.26121286458E+03  0.30125585888E+03  0.12000000000E+03 0.  0.
<mgrwt>
<rscale>  0 0.33817267E+03</rscale>
<asrwt>0</asrwt>
<pdfrwt beam="1">  1        3 0.42175659E-02 0.33817267E+03</pdfrwt>
<pdfrwt beam="2">  1       -3 0.16044582E+00 0.33817267E+03</pdfrwt>
<totfact> 0.22075460E+02</totfact>
</mgrwt>
</event>
<event>
 4    1  0.1733772E-004  0.2824710E+03  0.7818608E-02  0.1094347E+00
          3   -1    0    0  501    0  0.00000000000E+00  0.00000000000E+00  0.24415886566E+03  0.24415886566E+03  0.00000000000E+00 0.  1.
         -3   -1    0    0    0  501 -0.00000000000E+00 -0.00000000000E+00 -0.81698734343E+02  0.81698734343E+02  0.00000000000E+00 0.  1.
         25    1    1    2    0    0 -0.17433626260E+02 -0.31694525806E+02  0.15633793624E+03  0.20037471047E+03  0.12000000000E+03 0.  0.
         25    1    1    2    0    0  0.17433626260E+02  0.31694525806E+02  0.61221950749E+01  0.12548288952E+03  0.12000000000E+03 0.  0.
<mgrwt>
<rscale>  0 0.28247103E+03</rscale>
<asrwt>0</asrwt>
<pdfrwt beam="1">  1        3 0.37562902E-01 0.28247103E+03</pdfrwt>
<pdfrwt beam="2">  1       -3 0.12569036E-01 0.28247103E+03</pdfrwt>
<totfact> 0.89836655E+02</totfact>
</mgrwt>
</event>
<event>
 4    1  0.1733772E-004  0.2814140E+03  0.7818608E-02  0.1094919E+00
          4   -1    0    0  501    0  0.00000000000E+00  0.00000000000E+00  0.10906264844E+04  0.10906264844E+04  0.00000000000E+00 0.  1.
         -4   -1    0    0    0  501 -0.00000000000E+00 -0.00000000000E+00 -0.18153292783E+02  0.18153292783E+02  0.00000000000E+00 0.  1.
         25    1    1    2    0    0 -0.18451951853E+02 -0.31072271702E+02  0.28418236750E+03  0.31058908319E+03  0.12000000000E+03 0.  0.
         25    1    1    2    0    0  0.18451951853E+02  0.31072271702E+02  0.78829082409E+03  0.79819069397E+03  0.12000000000E+03 0.  0.
<mgrwt>
<rscale>  0 0.28141401E+03</rscale>
<asrwt>0</asrwt>
<pdfrwt beam="1">  1        4 0.16778864E+00 0.28141401E+03</pdfrwt>
<pdfrwt beam="2">  1       -4 0.27928151E-02 0.28141401E+03</pdfrwt>
<totfact> 0.26642231E+02</totfact>
</mgrwt>
</event>
<event>
 4    1  0.1733772E-004  0.3039429E+03  0.7818608E-02  0.1083286E+00
         -2   -1    0    0    0  501 -0.00000000000E+00  0.00000000000E+00  0.19250315934E+03  0.19250315934E+03  0.00000000000E+00 0.  1.
          2   -1    0    0  501    0  0.00000000000E+00 -0.00000000000E+00 -0.11997371900E+03  0.11997371900E+03  0.00000000000E+00 0.  1.
         25    1    1    2    0    0  0.60105643532E+02 -0.53717103379E+02 -0.11924649278E+02  0.14505313799E+03  0.12000000000E+03 0.  0.
         25    1    1    2    0    0 -0.60105643532E+02  0.53717103379E+02  0.84454089621E+02  0.16742374035E+03  0.12000000000E+03 0.  0.
<mgrwt>
<rscale>  0 0.30394289E+03</rscale>
<asrwt>0</asrwt>
<pdfrwt beam="1">  1        2 0.18457495E-01 0.30394289E+03</pdfrwt>
<pdfrwt beam="2">  1       -2 0.29615871E-01 0.30394289E+03</pdfrwt>
<totfact> 0.31901175E+03</totfact>
</mgrwt>
</event>
<event>
 4    1  0.1733772E-004  0.2987619E+03  0.7818608E-02  0.1085861E+00
         -2   -1    0    0    0  501 -0.00000000000E+00  0.00000000000E+00  0.10886995929E+04  0.10886995929E+04  0.00000000000E+00 0.  1.
          2   -1    0    0  501    0  0.00000000000E+00 -0.00000000000E+00 -0.20496628686E+02  0.20496628686E+02  0.00000000000E+00 0.  1.
         25    1    1    2    0    0 -0.68102456247E+02 -0.57074675996E+02  0.55037290613E+03  0.57026818164E+03  0.12000000000E+03 0.  0.
         25    1    1    2    0    0  0.68102456247E+02  0.57074675996E+02  0.51783005807E+03  0.53892803994E+03  0.12000000000E+03 0.  0.
<mgrwt>
<rscale>  0 0.29876192E+03</rscale>
<asrwt>0</asrwt>
<pdfrwt beam="1">  1        2 0.31533283E-02 0.29876192E+03</pdfrwt>
<pdfrwt beam="2">  1       -2 0.16749220E+00 0.29876192E+03</pdfrwt>
<totfact> 0.69495547E+02</totfact>
</mgrwt>
</event>
<event>
 4    1  0.1733772E-004  0.2811324E+03  0.7818608E-02  0.1095072E+00
          2   -1    0    0  501    0  0.00000000000E+00  0.00000000000E+00  0.45261094051E+03  0.45261094051E+03  0.00000000000E+00 0. -1.
         -2   -1    0    0    0  501 -0.00000000000E+00 -0.00000000000E+00 -0.43655269088E+02  0.43655269088E+02  0.00000000000E+00 0. -1.
         25    1    1    2    0    0 -0.16097709295E+02  0.27814266875E+01  0.33044205178E+03  0.35193582108E+03  0.12000000000E+03 0.  0.
         25    1    1    2    0    0  0.16097709295E+02 -0.27814266875E+01  0.78513619646E+02  0.14433038852E+03  0.12000000000E+03 0.  0.
<mgrwt>
<rscale>  0 0.28113237E+03</rscale>
<asrwt>0</asrwt>
<pdfrwt beam="1">  1        2 0.69632449E-01 0.28113237E+03</pdfrwt>
<pdfrwt beam="2">  1       -2 0.67161956E-02 0.28113237E+03</pdfrwt>
<totfact> 0.86101164E+03</totfact>
</mgrwt>
</event>
<event>
 4    1  0.1733772E-004  0.2443948E+03  0.7818608E-02  0.1116899E+00
          2   -1    0    0  501    0  0.00000000000E+00  0.00000000000E+00  0.53160268131E+02  0.53160268131E+02  0.00000000000E+00 0.  1.
         -2   -1    0    0    0  501 -0.00000000000E+00 -0.00000000000E+00 -0.28089040714E+03  0.28089040714E+03  0.00000000000E+00 0.  1.
         25    1    1    2    0    0 -0.10930330765E+02  0.16535363701E+02 -0.97731685923E+02  0.15602683364E+03  0.12000000000E+03 0.  0.
         25    1    1    2    0    0  0.10930330765E+02 -0.16535363701E+02 -0.12999845309E+03  0.17802384163E+03  0.12000000000E+03 0.  0.
<mgrwt>
<rscale>  0 0.24439484E+03</rscale>
<asrwt>0</asrwt>
<pdfrwt beam="1">  1        2 0.81785027E-02 0.24439484E+03</pdfrwt>
<pdfrwt beam="2">  1       -2 0.43213909E-01 0.24439484E+03</pdfrwt>
<totfact> 0.41919949E+03</totfact>
</mgrwt>
</event>
<event>
 4    1  0.1733772E-004  0.2647524E+03  0.7818608E-02  0.1104321E+00
          3   -1    0    0  501    0  0.00000000000E+00  0.00000000000E+00  0.13022915416E+02  0.13022915416E+02  0.00000000000E+00 0.  1.
         -3   -1    0    0    0  501 -0.00000000000E+00 -0.00000000000E+00 -0.13455866904E+04  0.13455866904E+04  0.00000000000E+00 0.  1.
         25    1    1    2    0    0 -0.13112863957E+02  0.49035478043E+02 -0.54625934430E+03  0.56158320536E+03  0.12000000000E+03 0.  0.
         25    1    1    2    0    0  0.13112863957E+02 -0.49035478043E+02 -0.78630443066E+03  0.79702640043E+03  0.12000000000E+03 0.  0.
<mgrwt>
<rscale>  0 0.26475243E+03</rscale>
<asrwt>0</asrwt>
<pdfrwt beam="1">  1        3 0.20035259E-02 0.26475243E+03</pdfrwt>
<pdfrwt beam="2">  1       -3 0.20701329E+00 0.26475243E+03</pdfrwt>
<totfact> 0.34707694E+02</totfact>
</mgrwt>
</event>
<event>
 4    1  0.1733772E-004  0.2559722E+03  0.7818608E-02  0.1109588E+00
         -2   -1    0    0    0  501 -0.00000000000E+00  0.00000000000E+00  0.15931407026E+02  0.15931407026E+02  0.00000000000E+00 0. -1.
          2   -1    0    0  501    0  0.00000000000E+00 -0.00000000000E+00 -0.10281855397E+04  0.10281855397E+04  0.00000000000E+00 0. -1.
         25    1    1    2    0    0 -0.26188428085E+02 -0.21978696903E+02 -0.38992529197E+03  0.40940277258E+03  0.12000000000E+03 0.  0.
         25    1    1    2    0    0  0.26188428085E+02  0.21978696903E+02 -0.62232884070E+03  0.63471417414E+03  0.12000000000E+03 0.  0.
<mgrwt>
<rscale>  0 0.25597220E+03</rscale>
<asrwt>0</asrwt>
<pdfrwt beam="1">  1        2 0.15818241E+00 0.25597220E+03</pdfrwt>
<pdfrwt beam="2">  1       -2 0.24509854E-02 0.25597220E+03</pdfrwt>
<totfact> 0.14357583E+04</totfact>
</mgrwt>
</event>
<event>
 4    1  0.1733772E-004  0.2829795E+03  0.7818608E-02  0.1094073E+00
         -2   -1    0    0    0  501 -0.00000000000E+00  0.00000000000E+00  0.57083347289E+02  0.57083347289E+02  0.00000000000E+00 0. -1.
          2   -1    0    0  501    0  0.00000000000E+00 -0.00000000000E+00 -0.35070384081E+03  0.35070384081E+03  0.00000000000E+00 0. -1.
         25    1    1    2    0    0 -0.48716079294E+02 -0.22023499285E+02 -0.71089238537E+02  0.14937192085E+03  0.12000000000E+03 0.  0.
         25    1    1    2    0    0  0.48716079294E+02  0.22023499285E+02 -0.22253125498E+03  0.25841526725E+03  0.12000000000E+03 0.  0.
<mgrwt>
<rscale>  0 0.28297950E+03</rscale>
<asrwt>0</asrwt>
<pdfrwt beam="1">  1        2 0.53954436E-01 0.28297950E+03</pdfrwt>
<pdfrwt beam="2">  1       -2 0.87820536E-02 0.28297950E+03</pdfrwt>
<totfact> 0.74844535E+03</totfact>
</mgrwt>
</event>
<event>
 4    1  0.1733772E-004  0.2438881E+03  0.7818608E-02  0.1117229E+00
          1   -1    0    0  501    0  0.00000000000E+00  0.00000000000E+00  0.56843997779E+02  0.56843997779E+02  0.00000000000E+00 0. -1.
         -1   -1    0    0    0  501 -0.00000000000E+00 -0.00000000000E+00 -0.26159939595E+03  0.26159939595E+03  0.00000000000E+00 0. -1.
         25    1    1    2    0    0  0.11029077851E+02 -0.16742607479E+02 -0.91579043674E+02  0.15227828704E+03  0.12000000000E+03 0.  0.
         25    1    1    2    0    0 -0.11029077851E+02  0.16742607479E+02 -0.11317635449E+03  0.16616510669E+03  0.12000000000E+03 0.  0.
<mgrwt>
<rscale>  0 0.24388813E+03</rscale>
<asrwt>0</asrwt>
<pdfrwt beam="1">  1        1 0.87452302E-02 0.24388813E+03</pdfrwt>
<pdfrwt beam="2">  1       -1 0.40246062E-01 0.24388813E+03</pdfrwt>
<totfact> 0.46476533E+03</totfact>
</mgrwt>
</event>
<event>
 4    1  0.1733772E-004  0.2868976E+03  0.7818608E-02  0.1091980E+00
         -2   -1    0    0    0  501 -0.00000000000E+00  0.00000000000E+00  0.65212316762E+01  0.65212316762E+01  0.00000000000E+00 0.  1.
          2   -1    0    0  501    0  0.00000000000E+00 -0.00000000000E+00 -0.31554712370E+04  0.31554712370E+04  0.00000000000E+00 0.  1.
         25    1    1    2    0    0 -0.13780339178E+02 -0.61816899392E+02 -0.20874502789E+04  0.20918556101E+04  0.12000000000E+03 0.  0.
         25    1    1    2    0    0  0.13780339178E+02  0.61816899392E+02 -0.10614997264E+04  0.10701368585E+04  0.12000000000E+03 0.  0.
<mgrwt>
<rscale>  0 0.28689761E+03</rscale>
<asrwt>0</asrwt>
<pdfrwt beam="1">  1        2 0.48545621E+00 0.28689761E+03</pdfrwt>
<pdfrwt beam="2">  1       -2 0.10032683E-02 0.28689761E+03</pdfrwt>
<totfact> 0.35601076E+03</totfact>
</mgrwt>
</event>
<event>
 4    1  0.1733772E-004  0.2592624E+03  0.7818608E-02  0.1107587E+00
         -1   -1    0    0    0  501 -0.00000000000E+00  0.00000000000E+00  0.12811178217E+02  0.12811178217E+02  0.00000000000E+00 0.  1.
          1   -1    0    0  501    0  0.00000000000E+00 -0.00000000000E+00 -0.13116861029E+04  0.13116861029E+04  0.00000000000E+00 0.  1.
         25    1    1    2    0    0 -0.12728283829E+02  0.11975390636E+02 -0.88348265199E+03  0.89176623370E+03  0.12000000000E+03 0.  0.
         25    1    1    2    0    0  0.12728283829E+02 -0.11975390636E+02 -0.41539227269E+03  0.43273104742E+03  0.12000000000E+03 0.  0.
<mgrwt>
<rscale>  0 0.25926237E+03</rscale>
<asrwt>0</asrwt>
<pdfrwt beam="1">  1        1 0.20179778E+00 0.25926237E+03</pdfrwt>
<pdfrwt beam="2">  1       -1 0.19709513E-02 0.25926237E+03</pdfrwt>
<totfact> 0.67014010E+03</totfact>
</mgrwt>
</event>
<event>
 4    1  0.1733772E-004  0.3663732E+03  0.7818608E-02  0.1056088E+00
          1   -1    0    0  501    0  0.00000000000E+00  0.00000000000E+00  0.74352196292E+03  0.74352196292E+03  0.00000000000E+00 0. -1.
         -1   -1    0    0    0  501 -0.00000000000E+00 -0.00000000000E+00 -0.45132941684E+02  0.45132941684E+02  0.00000000000E+00 0. -1.
         25    1    1    2    0    0  0.11047654013E+03  0.50899148591E+01  0.17004491622E+03  0.23568251247E+03  0.12000000000E+03 0.  0.
         25    1    1    2    0    0 -0.11047654013E+03 -0.50899148591E+01  0.52834410502E+03  0.55297239214E+03  0.12000000000E+03 0.  0.
<mgrwt>
<rscale>  0 0.36637322E+03</rscale>
<asrwt>0</asrwt>
<pdfrwt beam="1">  1        1 0.11438799E+00 0.36637322E+03</pdfrwt>
<pdfrwt beam="2">  1       -1 0.69435300E-02 0.36637322E+03</pdfrwt>
<totfact> 0.27653937E+03</totfact>
</mgrwt>
</event>
<event>
 4    1  0.1733772E-004  0.3587260E+03  0.7818608E-02  0.1059089E+00
         -3   -1    0    0    0  501 -0.00000000000E+00  0.00000000000E+00  0.10119871441E+03  0.10119871441E+03  0.00000000000E+00 0.  1.
          3   -1    0    0  501    0  0.00000000000E+00 -0.00000000000E+00 -0.31790023148E+03  0.31790023148E+03  0.00000000000E+00 0.  1.
         25    1    1    2    0    0 -0.41379399107E+02  0.11832432930E+03 -0.55348214141E+02  0.18214369707E+03  0.12000000000E+03 0.  0.
         25    1    1    2    0    0  0.41379399107E+02 -0.11832432930E+03 -0.16135330293E+03  0.23695524881E+03  0.12000000000E+03 0.  0.
<mgrwt>
<rscale>  0 0.35872605E+03</rscale>
<asrwt>0</asrwt>
<pdfrwt beam="1">  1        3 0.48907728E-01 0.35872605E+03</pdfrwt>
<pdfrwt beam="2">  1       -3 0.15569033E-01 0.35872605E+03</pdfrwt>
<totfact> 0.37711681E+02</totfact>
</mgrwt>
</event>
<event>
 4    1  0.1733772E-004  0.3278204E+03  0.7818608E-02  0.1072105E+00
         -1   -1    0    0    0  501 -0.00000000000E+00  0.00000000000E+00  0.18211208754E+03  0.18211208754E+03  0.00000000000E+00 0. -1.
          1   -1    0    0  501    0  0.00000000000E+00 -0.00000000000E+00 -0.14752757822E+03  0.14752757822E+03  0.00000000000E+00 0. -1.
         25    1    1    2    0    0 -0.54138616850E+02  0.43685215374E+02 -0.70526063315E+02  0.15560627713E+03  0.12000000000E+03 0.  0.
         25    1    1    2    0    0  0.54138616850E+02 -0.43685215374E+02  0.10511057263E+03  0.17403338862E+03  0.12000000000E+03 0.  0.
<mgrwt>
<rscale>  0 0.32782041E+03</rscale>
<asrwt>0</asrwt>
<pdfrwt beam="1">  1        1 0.22696550E-01 0.32782041E+03</pdfrwt>
<pdfrwt beam="2">  1       -1 0.28017244E-01 0.32782041E+03</pdfrwt>
<totfact> 0.24932972E+03</totfact>
</mgrwt>
</event>
<event>
 4    1  0.1733772E-004  0.2507992E+03  0.7818608E-02  0.1112801E+00
         -1   -1    0    0    0  501 -0.00000000000E+00  0.00000000000E+00  0.14489735108E+03  0.14489735108E+03  0.00000000000E+00 0. -1.
          1   -1    0    0  501    0  0.00000000000E+00 -0.00000000000E+00 -0.10852553606E+03  0.10852553606E+03  0.00000000000E+00 0. -1.
         25    1    1    2    0    0  0.93094546776E+01 -0.65291384948E+00  0.53738787451E+02  0.13181407178E+03  0.12000000000E+03 0.  0.
         25    1    1    2    0    0 -0.93094546776E+01  0.65291384948E+00 -0.17366972428E+02  0.12160881536E+03  0.12000000000E+03 0.  0.
<mgrwt>
<rscale>  0 0.25079922E+03</rscale>
<asrwt>0</asrwt>
<pdfrwt beam="1">  1        1 0.16696236E-01 0.25079922E+03</pdfrwt>
<pdfrwt beam="2">  1       -1 0.22291900E-01 0.25079922E+03</pdfrwt>
<totfact> 0.53882681E+03</totfact>
</mgrwt>
</event>
<event>
 4    1  0.1733772E-004  0.3149018E+03  0.7818608E-02  0.1078020E+00
         -2   -1    0    0    0  501 -0.00000000000E+00  0.00000000000E+00  0.18070547099E+03  0.18070547099E+03  0.00000000000E+00 0.  1.
          2   -1    0    0  501    0  0.00000000000E+00 -0.00000000000E+00 -0.13718889152E+03  0.13718889152E+03  0.00000000000E+00 0.  1.
         25    1    1    2    0    0 -0.61896200689E+02  0.25643784978E+02  0.99313106584E+02  0.16956366506E+03  0.12000000000E+03 0.  0.
         25    1    1    2    0    0  0.61896200689E+02 -0.25643784978E+02 -0.55796527111E+02  0.14833069745E+03  0.12000000000E+03 0.  0.
<mgrwt>
<rscale>  0 0.31490178E+03</rscale>
<asrwt>0</asrwt>
<pdfrwt beam="1">  1        2 0.21105983E-01 0.31490178E+03</pdfrwt>
<pdfrwt beam="2">  1       -2 0.27800842E-01 0.31490178E+03</pdfrwt>
<totfact> 0.30677255E+03</totfact>
</mgrwt>
</event>
<event>
 4    1  0.1733772E-004  0.2510253E+03  0.7818608E-02  0.1112659E+00
         -1   -1    0    0    0  501 -0.00000000000E+00  0.00000000000E+00  0.13459267682E+02  0.13459267682E+02  0.00000000000E+00 0.  1.
          1   -1    0    0  501    0  0.00000000000E+00 -0.00000000000E+00 -0.11704516983E+04  0.11704516983E+04  0.00000000000E+00 0.  1.
         25    1    1    2    0    0  0.50196154711E+01 -0.35496629179E+02 -0.61744941135E+03  0.63002300180E+03  0.12000000000E+03 0.  0.
         25    1    1    2    0    0 -0.50196154711E+01  0.35496629179E+02 -0.53954301922E+03  0.55388796414E+03  0.12000000000E+03 0.  0.
<mgrwt>
<rscale>  0 0.25102528E+03</rscale>
<asrwt>0</asrwt>
<pdfrwt beam="1">  1        1 0.18006948E+00 0.25102528E+03</pdfrwt>
<pdfrwt beam="2">  1       -1 0.20706567E-02 0.25102528E+03</pdfrwt>
<totfact> 0.78019776E+03</totfact>
</mgrwt>
</event>
<event>
 4    1  0.1733772E-004  0.3430351E+03  0.7818608E-02  0.1065511E+00
         -2   -1    0    0    0  501 -0.00000000000E+00  0.00000000000E+00  0.23733897131E+02  0.23733897131E+02  0.00000000000E+00 0. -1.
          2   -1    0    0  501    0  0.00000000000E+00 -0.00000000000E+00 -0.12395044866E+04  0.12395044866E+04  0.00000000000E+00 0. -1.
         25    1    1    2    0    0  0.33167379266E+02 -0.92723325865E+02 -0.87649784450E+03  0.89013828230E+03  0.12000000000E+03 0.  0.
         25    1    1    2    0    0 -0.33167379266E+02  0.92723325865E+02 -0.33927274496E+03  0.37310010142E+03  0.12000000000E+03 0.  0.
<mgrwt>
<rscale>  0 0.34303511E+03</rscale>
<asrwt>0</asrwt>
<pdfrwt beam="1">  1        2 0.19069302E+00 0.34303511E+03</pdfrwt>
<pdfrwt beam="2">  1       -2 0.36513684E-02 0.34303511E+03</pdfrwt>
<totfact> 0.60058265E+03</totfact>
</mgrwt>
</event>
<event>
 4    1  0.1733772E-004  0.2586798E+03  0.7818608E-02  0.1107939E+00
          2   -1    0    0  501    0  0.00000000000E+00  0.00000000000E+00  0.21290393282E+04  0.21290393282E+04  0.00000000000E+00 0. -1.
         -2   -1    0    0    0  501 -0.00000000000E+00 -0.00000000000E+00 -0.78574424903E+01  0.78574424903E+01  0.00000000000E+00 0. -1.
         25    1    1    2    0    0 -0.10938435276E+02  0.46501721449E+02  0.11170699302E+04  0.11245120223E+04  0.12000000000E+03 0.  0.
         25    1    1    2    0    0  0.10938435276E+02 -0.46501721449E+02  0.10041119555E+04  0.10123847483E+04  0.12000000000E+03 0.  0.
<mgrwt>
<rscale>  0 0.25867976E+03</rscale>
<asrwt>0</asrwt>
<pdfrwt beam="1">  1        2 0.32754405E+00 0.25867976E+03</pdfrwt>
<pdfrwt beam="2">  1       -2 0.12088390E-02 0.25867976E+03</pdfrwt>
<totfact> 0.10262243E+04</totfact>
</mgrwt>
</event>
<event>
 4    1  0.1733772E-004  0.2482377E+03  0.7818608E-02  0.1114424E+00
          2   -1    0    0  501    0  0.00000000000E+00  0.00000000000E+00  0.17278915463E+04  0.17278915463E+04  0.00000000000E+00 0. -1.
         -2   -1    0    0    0  501 -0.00000000000E+00 -0.00000000000E+00 -0.89157695510E+01  0.89157695510E+01  0.00000000000E+00 0. -1.
         25    1    1    2    0    0  0.10804944093E+02 -0.13722104496E+02  0.10446573720E+04  0.10516720344E+04  0.12000000000E+03 0.  0.
         25    1    1    2    0    0 -0.10804944093E+02  0.13722104496E+02  0.67431840476E+03  0.68513528150E+03  0.12000000000E+03 0.  0.
<mgrwt>
<rscale>  0 0.24823765E+03</rscale>
<asrwt>0</asrwt>
<pdfrwt beam="1">  1        2 0.26582920E+00 0.24823765E+03</pdfrwt>
<pdfrwt beam="2">  1       -2 0.13716582E-02 0.24823765E+03</pdfrwt>
<totfact> 0.13848003E+04</totfact>
</mgrwt>
</event>
<event>
 4    1  0.1733772E-004  0.2431876E+03  0.7818608E-02  0.1117687E+00
         -2   -1    0    0    0  501 -0.00000000000E+00  0.00000000000E+00  0.45482317820E+02  0.45482317820E+02  0.00000000000E+00 0.  1.
          2   -1    0    0  501    0  0.00000000000E+00 -0.00000000000E+00 -0.32507248873E+03  0.32507248873E+03  0.00000000000E+00 0.  1.
         25    1    1    2    0    0  0.94403352603E+01  0.17068240614E+02 -0.13652507997E+03  0.18281012617E+03  0.12000000000E+03 0.  0.
         25    1    1    2    0    0 -0.94403352603E+01 -0.17068240614E+02 -0.14306509094E+03  0.18774468039E+03  0.12000000000E+03 0.  0.
<mgrwt>
<rscale>  0 0.24318758E+03</rscale>
<asrwt>0</asrwt>
<pdfrwt beam="1">  1        2 0.50011151E-01 0.24318758E+03</pdfrwt>
<pdfrwt beam="2">  1       -2 0.69972798E-02 0.24318758E+03</pdfrwt>
<totfact> 0.11499352E+04</totfact>
</mgrwt>
</event>
<event>
 4    1  0.1733772E-004  0.2489591E+03  0.7818608E-02  0.1113964E+00
          3   -1    0    0  501    0  0.00000000000E+00  0.00000000000E+00  0.13297750423E+03  0.13297750423E+03  0.00000000000E+00 0.  1.
         -3   -1    0    0    0  501 -0.00000000000E+00 -0.00000000000E+00 -0.11652461806E+03  0.11652461806E+03  0.00000000000E+00 0.  1.
         25    1    1    2    0    0 -0.21199901461E+01 -0.32996787931E+02  0.68557903970E+01  0.12466067637E+03  0.12000000000E+03 0.  0.
         25    1    1    2    0    0  0.21199901461E+01  0.32996787931E+02  0.95970957786E+01  0.12484144592E+03  0.12000000000E+03 0.  0.
<mgrwt>
<rscale>  0 0.24895906E+03</rscale>
<asrwt>0</asrwt>
<pdfrwt beam="1">  1        3 0.20458077E-01 0.24895906E+03</pdfrwt>
<pdfrwt beam="2">  1       -3 0.17926864E-01 0.24895906E+03</pdfrwt>
<totfact> 0.14764205E+03</totfact>
</mgrwt>
</event>
<event>
 4    1  0.1733772E-004  0.2502241E+03  0.7818608E-02  0.1113163E+00
         -2   -1    0    0    0  501 -0.00000000000E+00  0.00000000000E+00  0.18010040838E+02  0.18010040838E+02  0.00000000000E+00 0. -1.
          2   -1    0    0  501    0  0.00000000000E+00 -0.00000000000E+00 -0.86912801430E+03  0.86912801430E+03  0.00000000000E+00 0. -1.
         25    1    1    2    0    0 -0.42261484684E+01  0.32138776154E+02 -0.37513612639E+03  0.39519346475E+03  0.12000000000E+03 0.  0.
         25    1    1    2    0    0  0.42261484684E+01 -0.32138776154E+02 -0.47598184707E+03  0.49194459038E+03  0.12000000000E+03 0.  0.
<mgrwt>
<rscale>  0 0.25022415E+03</rscale>
<asrwt>0</asrwt>
<pdfrwt beam="1">  1        2 0.13371197E+00 0.25022415E+03</pdfrwt>
<pdfrwt beam="2">  1       -2 0.27707761E-02 0.25022415E+03</pdfrwt>
<totfact> 0.15057707E+04</totfact>
</mgrwt>
</event>
<event>
 4    1  0.1733772E-004  0.2561030E+03  0.7818608E-02  0.1109507E+00
          4   -1    0    0  501    0  0.00000000000E+00  0.00000000000E+00  0.83425043145E+02  0.83425043145E+02  0.00000000000E+00 0. -1.
         -4   -1    0    0    0  501 -0.00000000000E+00 -0.00000000000E+00 -0.19654995091E+03  0.19654995091E+03  0.00000000000E+00 0. -1.
         25    1    1    2    0    0 -0.18446343761E+02  0.30280168030E+01 -0.10093868721E+03  0.15791787441E+03  0.12000000000E+03 0.  0.
         25    1    1    2    0    0  0.18446343761E+02 -0.30280168030E+01 -0.12186220557E+02  0.12205711964E+03  0.12000000000E+03 0.  0.
<mgrwt>
<rscale>  0 0.25610301E+03</rscale>
<asrwt>0</asrwt>
<pdfrwt beam="1">  1        4 0.12834622E-01 0.25610301E+03</pdfrwt>
<pdfrwt beam="2">  1       -4 0.30238454E-01 0.25610301E+03</pdfrwt>
<totfact> 0.96229966E+02</totfact>
</mgrwt>
</event>
<event>
 4    1  0.1733772E-004  0.2836074E+03  0.7818608E-02  0.1093735E+00
          1   -1    0    0  501    0  0.00000000000E+00  0.00000000000E+00  0.61087732829E+02  0.61087732829E+02  0.00000000000E+00 0.  1.
         -1   -1    0    0    0  501 -0.00000000000E+00 -0.00000000000E+00 -0.32917070589E+03  0.32917070589E+03  0.00000000000E+00 0.  1.
         25    1    1    2    0    0  0.38221870421E+02  0.98643363571E+01 -0.22268821643E+03  0.25602394077E+03  0.12000000000E+03 0.  0.
         25    1    1    2    0    0 -0.38221870421E+02 -0.98643363571E+01 -0.45394756632E+02  0.13423449795E+03  0.12000000000E+03 0.  0.
<mgrwt>
<rscale>  0 0.28360742E+03</rscale>
<asrwt>0</asrwt>
<pdfrwt beam="1">  1        1 0.93981129E-02 0.28360742E+03</pdfrwt>
<pdfrwt beam="2">  1       -1 0.50641646E-01 0.28360742E+03</pdfrwt>
<totfact> 0.27935593E+03</totfact>
</mgrwt>
</event>
<event>
 4    1  0.1733772E-004  0.3128634E+03  0.7818608E-02  0.1078981E+00
          2   -1    0    0  501    0  0.00000000000E+00  0.00000000000E+00  0.45417082898E+03  0.45417082898E+03  0.00000000000E+00 0.  1.
         -2   -1    0    0    0  501 -0.00000000000E+00 -0.00000000000E+00 -0.53880323047E+02  0.53880323047E+02  0.00000000000E+00 0.  1.
         25    1    1    2    0    0 -0.44803216048E+02 -0.61425512771E+02  0.93778938098E+02  0.17022018393E+03  0.12000000000E+03 0.  0.
         25    1    1    2    0    0  0.44803216048E+02  0.61425512771E+02  0.30651156784E+03  0.33783096810E+03  0.12000000000E+03 0.  0.
<mgrwt>
<rscale>  0 0.31286336E+03</rscale>
<asrwt>0</asrwt>
<pdfrwt beam="1">  1        2 0.69872433E-01 0.31286336E+03</pdfrwt>
<pdfrwt beam="2">  1       -2 0.82892808E-02 0.31286336E+03</pdfrwt>
<totfact> 0.62003190E+03</totfact>
</mgrwt>
</event>
<event>
 4    1  0.1733772E-004  0.2401303E+03  0.7818608E-02  0.1119706E+00
         -1   -1    0    0    0  501 -0.00000000000E+00  0.00000000000E+00  0.42956066978E+03  0.42956066978E+03  0.00000000000E+00 0. -1.
          1   -1    0    0  501    0  0.00000000000E+00 -0.00000000000E+00 -0.33559028538E+02  0.33559028538E+02  0.00000000000E+00 0. -1.
         25    1    1    2    0    0  0.27986674475E+01  0.45204678257E+00  0.19268332551E+03  0.22701299702E+03  0.12000000000E+03 0.  0.
         25    1    1    2    0    0 -0.27986674475E+01 -0.45204678257E+00  0.20331831573E+03  0.23610670129E+03  0.12000000000E+03 0.  0.
<mgrwt>
<rscale>  0 0.24013029E+03</rscale>
<asrwt>0</asrwt>
<pdfrwt beam="1">  1        1 0.51629277E-02 0.24013029E+03</pdfrwt>
<pdfrwt beam="2">  1       -1 0.66086253E-01 0.24013029E+03</pdfrwt>
<totfact> 0.37926752E+03</totfact>
</mgrwt>
</event>
<event>
 4    1  0.1733772E-004  0.2773050E+03  0.7818608E-02  0.1097170E+00
         -2   -1    0    0    0  501 -0.00000000000E+00  0.00000000000E+00  0.86987740459E+02  0.86987740459E+02  0.00000000000E+00 0.  1.
          2   -1    0    0  501    0  0.00000000000E+00 -0.00000000000E+00 -0.22100260316E+03  0.22100260316E+03  0.00000000000E+00 0.  1.
         25    1    1    2    0    0  0.65503051205E+02 -0.94324609698E+01 -0.43580863907E+02  0.14380164372E+03  0.12000000000E+03 0.  0.
         25    1    1    2    0    0 -0.65503051205E+02  0.94324609698E+01 -0.90433998791E+02  0.16418869990E+03  0.12000000000E+03 0.  0.
<mgrwt>
<rscale>  0 0.27730501E+03</rscale>
<asrwt>0</asrwt>
<pdfrwt beam="1">  1        2 0.34000400E-01 0.27730501E+03</pdfrwt>
<pdfrwt beam="2">  1       -2 0.13382729E-01 0.27730501E+03</pdfrwt>
<totfact> 0.62701102E+03</totfact>
</mgrwt>
</event>
<event>
 4    1  0.1733772E-004  0.2778208E+03  0.7818608E-02  0.1096885E+00
          2   -1    0    0  501    0  0.00000000000E+00  0.00000000000E+00  0.36810775917E+03  0.36810775917E+03  0.00000000000E+00 0.  1.
         -2   -1    0    0    0  501 -0.00000000000E+00 -0.00000000000E+00 -0.52419702936E+02  0.52419702936E+02  0.00000000000E+00 0.  1.
         25    1    1    2    0    0 -0.25310712710E+02  0.61626274103E+02  0.19022617293E+03  0.23457286012E+03  0.12000000000E+03 0.  0.
         25    1    1    2    0    0  0.25310712710E+02 -0.61626274103E+02  0.12546188331E+03  0.18595460199E+03  0.12000000000E+03 0.  0.
<mgrwt>
<rscale>  0 0.27782080E+03</rscale>
<asrwt>0</asrwt>
<pdfrwt beam="1">  1        2 0.56631961E-01 0.27782080E+03</pdfrwt>
<pdfrwt beam="2">  1       -2 0.80645699E-02 0.27782080E+03</pdfrwt>
<totfact> 0.81130270E+03</totfact>
</mgrwt>
</event>
<event>
 4    1  0.1733772E-004  0.3186123E+03  0.7818608E-02  0.1076290E+00
          1   -1    0    0  501    0  0.00000000000E+00  0.00000000000E+00  0.66987857017E+03  0.66987857017E+03  0.00000000000E+00 0.  1.
         -1   -1    0    0    0  501 -0.00000000000E+00 -0.00000000000E+00 -0.37885143069E+02  0.37885143069E+02  0.00000000000E+00 0.  1.
         25    1    1    2    0    0 -0.87812581328E+01  0.98448946313E+02  0.23875283483E+03  0.28490739138E+03  0.12000000000E+03 0.  0.
         25    1    1    2    0    0  0.87812581328E+01 -0.98448946313E+02  0.39324059227E+03  0.42285632186E+03  0.12000000000E+03 0.  0.
<mgrwt>
<rscale>  0 0.31861228E+03</rscale>
<asrwt>0</asrwt>
<pdfrwt beam="1">  1        1 0.10305823E+00 0.31861228E+03</pdfrwt>
<pdfrwt beam="2">  1       -1 0.58284840E-02 0.31861228E+03</pdfrwt>
<totfact> 0.42031917E+03</totfact>
</mgrwt>
</event>
<event>
 4    1  0.1733772E-004  0.2619993E+03  0.7818608E-02  0.1105948E+00
          1   -1    0    0  501    0  0.00000000000E+00  0.00000000000E+00  0.20261555889E+03  0.20261555889E+03  0.00000000000E+00 0.  1.
         -1   -1    0    0    0  501 -0.00000000000E+00 -0.00000000000E+00 -0.84696913480E+02  0.84696913480E+02  0.00000000000E+00 0.  1.
         25    1    1    2    0    0  0.49776324103E+02 -0.16762008550E+02  0.57308893285E+02  0.14297886774E+03  0.12000000000E+03 0.  0.
         25    1    1    2    0    0 -0.49776324103E+02  0.16762008550E+02  0.60609752127E+02  0.14433360463E+03  0.12000000000E+03 0.  0.
<mgrwt>
<rscale>  0 0.26199933E+03</rscale>
<asrwt>0</asrwt>
<pdfrwt beam="1">  1        1 0.31171624E-01 0.26199933E+03</pdfrwt>
<pdfrwt beam="2">  1       -1 0.13030294E-01 0.26199933E+03</pdfrwt>
<totfact> 0.57443201E+03</totfact>
</mgrwt>
</event>
<event>
 4    1  0.1733772E-004  0.5254183E+03  0.7818608E-02  0.1007349E+00
         -1   -1    0    0    0  501 -0.00000000000E+00  0.00000000000E+00  0.64541328128E+03  0.64541328128E+03  0.00000000000E+00 0.  1.
          1   -1    0    0  501    0  0.00000000000E+00 -0.00000000000E+00 -0.10693318633E+03  0.10693318633E+03  0.00000000000E+00 0.  1.
         25    1    1    2    0    0 -0.22750514825E+03  0.84377778035E+01  0.19365647557E+03  0.32207548665E+03  0.12000000000E+03 0.  0.
         25    1    1    2    0    0  0.22750514825E+03 -0.84377778035E+01  0.34482361938E+03  0.43027098096E+03  0.12000000000E+03 0.  0.
<mgrwt>
<rscale>  0 0.52541830E+03</rscale>
<asrwt>0</asrwt>
<pdfrwt beam="1">  1        1 0.16451260E-01 0.52541830E+03</pdfrwt>
<pdfrwt beam="2">  1       -1 0.99294349E-01 0.52541830E+03</pdfrwt>
<totfact> 0.33561575E+02</totfact>
</mgrwt>
</event>
<event>
 4    1  0.1733772E-004  0.3082167E+03  0.7818608E-02  0.1081204E+00
         -2   -1    0    0    0  501 -0.00000000000E+00  0.00000000000E+00  0.89205381057E+02  0.89205381057E+02  0.00000000000E+00 0.  1.
          2   -1    0    0  501    0  0.00000000000E+00 -0.00000000000E+00 -0.26623264967E+03  0.26623264967E+03  0.00000000000E+00 0.  1.
         25    1    1    2    0    0  0.37907793786E+02  0.22760403706E+02 -0.18767846217E+03  0.22710843659E+03  0.12000000000E+03 0.  0.
         25    1    1    2    0    0 -0.37907793786E+02 -0.22760403706E+02  0.10651193562E+02  0.12832959414E+03  0.12000000000E+03 0.  0.
<mgrwt>
<rscale>  0 0.30821671E+03</rscale>
<asrwt>0</asrwt>
<pdfrwt beam="1">  1        2 0.40958869E-01 0.30821671E+03</pdfrwt>
<pdfrwt beam="2">  1       -2 0.13723905E-01 0.30821671E+03</pdfrwt>
<totfact> 0.49331076E+03</totfact>
</mgrwt>
</event>
<event>
 4    1  0.1733772E-004  0.4349669E+03  0.7818608E-02  0.1032302E+00
          1   -1    0    0  501    0  0.00000000000E+00  0.00000000000E+00  0.87406544978E+02  0.87406544978E+02  0.00000000000E+00 0. -1.
         -1   -1    0    0    0  501 -0.00000000000E+00 -0.00000000000E+00 -0.54113851950E+03  0.54113851950E+03  0.00000000000E+00 0. -1.
         25    1    1    2    0    0 -0.65330767994E+02 -0.15642706285E+03 -0.13364668310E+03  0.24697969783E+03  0.12000000000E+03 0.  0.
         25    1    1    2    0    0  0.65330767994E+02  0.15642706285E+03 -0.32008529143E+03  0.38156536665E+03  0.12000000000E+03 0.  0.
<mgrwt>
<rscale>  0 0.43496689E+03</rscale>
<asrwt>0</asrwt>
<pdfrwt beam="1">  1        1 0.13447161E-01 0.43496689E+03</pdfrwt>
<pdfrwt beam="2">  1       -1 0.83252080E-01 0.43496689E+03</pdfrwt>
<totfact> 0.64744649E+02</totfact>
</mgrwt>
</event>
<event>
 4    1  0.1733772E-004  0.3418915E+03  0.7818608E-02  0.1065993E+00
          2   -1    0    0  501    0  0.00000000000E+00  0.00000000000E+00  0.10098503099E+04  0.10098503099E+04  0.00000000000E+00 0. -1.
         -2   -1    0    0    0  501 -0.00000000000E+00 -0.00000000000E+00 -0.28937409907E+02  0.28937409907E+02  0.00000000000E+00 0. -1.
         25    1    1    2    0    0  0.10233232730E+03  0.48891563794E+02  0.62497571324E+03  0.64641854271E+03  0.12000000000E+03 0.  0.
         25    1    1    2    0    0 -0.10233232730E+03 -0.48891563794E+02  0.35593718673E+03  0.39236917707E+03  0.12000000000E+03 0.  0.
<mgrwt>
<rscale>  0 0.34189152E+03</rscale>
<asrwt>0</asrwt>
<pdfrwt beam="1">  1        2 0.15536156E+00 0.34189152E+03</pdfrwt>
<pdfrwt beam="2">  1       -2 0.44519100E-02 0.34189152E+03</pdfrwt>
<totfact> 0.60736662E+03</totfact>
</mgrwt>
</event>
<event>
 4    1  0.1733772E-004  0.3256226E+03  0.7818608E-02  0.1073090E+00
          2   -1    0    0  501    0  0.00000000000E+00  0.00000000000E+00  0.19120215654E+04  0.19120215654E+04  0.00000000000E+00 0. -1.
         -2   -1    0    0    0  501 -0.00000000000E+00 -0.00000000000E+00 -0.13863608425E+02  0.13863608425E+02  0.00000000000E+00 0. -1.
         25    1    1    2    0    0  0.96924540522E+02 -0.48019983091E+02  0.82972488581E+03  0.84530685048E+03  0.12000000000E+03 0.  0.
         25    1    1    2    0    0 -0.96924540522E+02  0.48019983091E+02  0.10684330712E+04  0.10805783233E+04  0.12000000000E+03 0.  0.
<mgrwt>
<rscale>  0 0.32562259E+03</rscale>
<asrwt>0</asrwt>
<pdfrwt beam="1">  1        2 0.29415695E+00 0.32562259E+03</pdfrwt>
<pdfrwt beam="2">  1       -2 0.21328644E-02 0.32562259E+03</pdfrwt>
<totfact> 0.58137815E+03</totfact>
</mgrwt>
</event>
<event>
 4    1  0.1733772E-004  0.3247559E+03  0.7818608E-02  0.1073481E+00
          2   -1    0    0  501    0  0.00000000000E+00  0.00000000000E+00  0.14166300367E+03  0.14166300367E+03  0.00000000000E+00 0.  1.
         -2   -1    0    0    0  501 -0.00000000000E+00 -0.00000000000E+00 -0.18612199275E+03  0.18612199275E+03  0.00000000000E+00 0.  1.
         25    1    1    2    0    0  0.10207699044E+03  0.28177441215E+02  0.54658344776E+01  0.16013605315E+03  0.12000000000E+03 0.  0.
         25    1    1    2    0    0 -0.10207699044E+03 -0.28177441215E+02 -0.49924823560E+02  0.16764894327E+03  0.12000000000E+03 0.  0.
<mgrwt>
<rscale>  0 0.32475591E+03</rscale>
<asrwt>0</asrwt>
<pdfrwt beam="1">  1        2 0.21794308E-01 0.32475591E+03</pdfrwt>
<pdfrwt beam="2">  1       -2 0.28634153E-01 0.32475591E+03</pdfrwt>
<totfact> 0.28059033E+03</totfact>
</mgrwt>
</event>
<event>
 4    1  0.1733772E-004  0.3585979E+03  0.7818608E-02  0.1059140E+00
         -1   -1    0    0    0  501 -0.00000000000E+00  0.00000000000E+00  0.82844899014E+02  0.82844899014E+02  0.00000000000E+00 0. -1.
          1   -1    0    0  501    0  0.00000000000E+00 -0.00000000000E+00 -0.38805181764E+03  0.38805181764E+03  0.00000000000E+00 0. -1.
         25    1    1    2    0    0 -0.29613170687E+02 -0.11230790605E+03 -0.23829269234E+03  0.29098696339E+03  0.12000000000E+03 0.  0.
         25    1    1    2    0    0  0.29613170687E+02  0.11230790605E+03 -0.66914226287E+02  0.17990975327E+03  0.12000000000E+03 0.  0.
<mgrwt>
<rscale>  0 0.35859790E+03</rscale>
<asrwt>0</asrwt>
<pdfrwt beam="1">  1        1 0.59700279E-01 0.35859790E+03</pdfrwt>
<pdfrwt beam="2">  1       -1 0.12745369E-01 0.35859790E+03</pdfrwt>
<totfact> 0.26336285E+03</totfact>
</mgrwt>
</event>
<event>
 4    1  0.1733772E-004  0.3045202E+03  0.7818608E-02  0.1083003E+00
          2   -1    0    0  501    0  0.00000000000E+00  0.00000000000E+00  0.82353030095E+03  0.82353030095E+03  0.00000000000E+00 0.  1.
         -2   -1    0    0    0  501 -0.00000000000E+00 -0.00000000000E+00 -0.28150913738E+02  0.28150913738E+02  0.00000000000E+00 0.  1.
         25    1    1    2    0    0 -0.72677148214E+01 -0.71678867482E+02  0.23005787993E+03  0.26929037829E+03  0.12000000000E+03 0.  0.
         25    1    1    2    0    0  0.72677148214E+01  0.71678867482E+02  0.56532150728E+03  0.58239083640E+03  0.12000000000E+03 0.  0.
<mgrwt>
<rscale>  0 0.30452015E+03</rscale>
<asrwt>0</asrwt>
<pdfrwt beam="1">  1        2 0.12669695E+00 0.30452015E+03</pdfrwt>
<pdfrwt beam="2">  1       -2 0.43309104E-02 0.30452015E+03</pdfrwt>
<totfact> 0.83338344E+03</totfact>
</mgrwt>
</event>
<event>
 4    1  0.1733772E-004  0.2522734E+03  0.7818608E-02  0.1111876E+00
         -2   -1    0    0    0  501 -0.00000000000E+00  0.00000000000E+00  0.49418217818E+03  0.49418217818E+03  0.00000000000E+00 0.  1.
          2   -1    0    0  501    0  0.00000000000E+00 -0.00000000000E+00 -0.32195548098E+02  0.32195548098E+02  0.00000000000E+00 0.  1.
         25    1    1    2    0    0 -0.55116345270E+01 -0.16794450007E+02  0.15877277943E+03  0.19980297084E+03  0.12000000000E+03 0.  0.
         25    1    1    2    0    0  0.55116345270E+01  0.16794450007E+02  0.30321385065E+03  0.32657475544E+03  0.12000000000E+03 0.  0.
<mgrwt>
<rscale>  0 0.25227339E+03</rscale>
<asrwt>0</asrwt>
<pdfrwt beam="1">  1        2 0.49531616E-02 0.25227339E+03</pdfrwt>
<pdfrwt beam="2">  1       -2 0.76028022E-01 0.25227339E+03</pdfrwt>
<totfact> 0.25208997E+03</totfact>
</mgrwt>
</event>
<event>
 4    1  0.1733772E-004  0.3321137E+03  0.7818608E-02  0.1070205E+00
          1   -1    0    0  501    0  0.00000000000E+00  0.00000000000E+00  0.17566836369E+04  0.17566836369E+04  0.00000000000E+00 0.  1.
         -1   -1    0    0    0  501 -0.00000000000E+00 -0.00000000000E+00 -0.15697123480E+02  0.15697123480E+02  0.00000000000E+00 0.  1.
         25    1    1    2    0    0 -0.57746438407E+02  0.99195984928E+02  0.87380624039E+03  0.88944468087E+03  0.12000000000E+03 0.  0.
         25    1    1    2    0    0  0.57746438407E+02 -0.99195984928E+02  0.86718027298E+03  0.88293607947E+03  0.12000000000E+03 0.  0.
<mgrwt>
<rscale>  0 0.33211372E+03</rscale>
<asrwt>0</asrwt>
<pdfrwt beam="1">  1        1 0.27025887E+00 0.33211372E+03</pdfrwt>
<pdfrwt beam="2">  1       -1 0.24149435E-02 0.33211372E+03</pdfrwt>
<totfact> 0.25207556E+03</totfact>
</mgrwt>
</event>
<event>
 4    1  0.1733772E-004  0.2890472E+03  0.7818608E-02  0.1090848E+00
         -2   -1    0    0    0  501 -0.00000000000E+00  0.00000000000E+00  0.65305038249E+02  0.65305038249E+02  0.00000000000E+00 0. -1.
          2   -1    0    0  501    0  0.00000000000E+00 -0.00000000000E+00 -0.31983859204E+03  0.31983859204E+03  0.00000000000E+00 0. -1.
         25    1    1    2    0    0  0.15879548779E+02 -0.87611053737E+01 -0.23183006604E+03  0.26167555590E+03  0.12000000000E+03 0.  0.
         25    1    1    2    0    0 -0.15879548779E+02  0.87611053737E+01 -0.22703487752E+02  0.12346807439E+03  0.12000000000E+03 0.  0.
<mgrwt>
<rscale>  0 0.28904720E+03</rscale>
<asrwt>0</asrwt>
<pdfrwt beam="1">  1        2 0.49205937E-01 0.28904720E+03</pdfrwt>
<pdfrwt beam="2">  1       -2 0.10046929E-01 0.28904720E+03</pdfrwt>
<totfact> 0.66855135E+03</totfact>
</mgrwt>
</event>
<event>
 4    1  0.1733772E-004  0.4574264E+03  0.7818608E-02  0.1025530E+00
          1   -1    0    0  501    0  0.00000000000E+00  0.00000000000E+00  0.34330227026E+03  0.34330227026E+03  0.00000000000E+00 0. -1.
         -1   -1    0    0    0  501 -0.00000000000E+00 -0.00000000000E+00 -0.15237219902E+03  0.15237219902E+03  0.00000000000E+00 0. -1.
         25    1    1    2    0    0 -0.91456962740E+02 -0.54839121319E+02 -0.81061329969E+02  0.17984060853E+03  0.12000000000E+03 0.  0.
         25    1    1    2    0    0  0.91456962740E+02  0.54839121319E+02  0.27199140121E+03  0.31583386074E+03  0.12000000000E+03 0.  0.
<mgrwt>
<rscale>  0 0.45742637E+03</rscale>
<asrwt>0</asrwt>
<pdfrwt beam="1">  1        1 0.52815734E-01 0.45742637E+03</pdfrwt>
<pdfrwt beam="2">  1       -1 0.23441877E-01 0.45742637E+03</pdfrwt>
<totfact> 0.11485214E+03</totfact>
</mgrwt>
</event>
<event>
 4    1  0.1733772E-004  0.2615892E+03  0.7818608E-02  0.1106192E+00
          2   -1    0    0  501    0  0.00000000000E+00  0.00000000000E+00  0.11964549238E+03  0.11964549238E+03  0.00000000000E+00 0.  1.
         -2   -1    0    0    0  501 -0.00000000000E+00 -0.00000000000E+00 -0.14298266022E+03  0.14298266022E+03  0.00000000000E+00 0.  1.
         25    1    1    2    0    0 -0.34325219295E+02  0.38474361883E+02 -0.46599142456E+01  0.13069128511E+03  0.12000000000E+03 0.  0.
         25    1    1    2    0    0  0.34325219295E+02 -0.38474361883E+02 -0.18677253598E+02  0.13193686749E+03  0.12000000000E+03 0.  0.
<mgrwt>
<rscale>  0 0.26158923E+03</rscale>
<asrwt>0</asrwt>
<pdfrwt beam="1">  1        2 0.18406999E-01 0.26158923E+03</pdfrwt>
<pdfrwt beam="2">  1       -2 0.21997332E-01 0.26158923E+03</pdfrwt>
<totfact> 0.53954336E+03</totfact>
</mgrwt>
</event>
<event>
 4    1  0.1733772E-004  0.2958664E+03  0.7818608E-02  0.1087325E+00
         -1   -1    0    0    0  501 -0.00000000000E+00  0.00000000000E+00  0.42652566569E+02  0.42652566569E+02  0.00000000000E+00 0.  1.
          1   -1    0    0  501    0  0.00000000000E+00 -0.00000000000E+00 -0.51308108200E+03  0.51308108200E+03  0.00000000000E+00 0.  1.
         25    1    1    2    0    0  0.22869348477E+02  0.82887418264E+02 -0.21730662247E+03  0.26270801163E+03  0.12000000000E+03 0.  0.
         25    1    1    2    0    0 -0.22869348477E+02 -0.82887418264E+02 -0.25312189296E+03  0.29302563694E+03  0.12000000000E+03 0.  0.
<mgrwt>
<rscale>  0 0.29586636E+03</rscale>
<asrwt>0</asrwt>
<pdfrwt beam="1">  1        1 0.78935557E-01 0.29586636E+03</pdfrwt>
<pdfrwt beam="2">  1       -1 0.65619328E-02 0.29586636E+03</pdfrwt>
<totfact> 0.50776845E+03</totfact>
</mgrwt>
</event>
<event>
 4    1  0.1733772E-004  0.2950438E+03  0.7818608E-02  0.1087745E+00
          1   -1    0    0  501    0  0.00000000000E+00  0.00000000000E+00  0.54226210619E+03  0.54226210619E+03  0.00000000000E+00 0. -1.
         -1   -1    0    0    0  501 -0.00000000000E+00 -0.00000000000E+00 -0.40133199081E+02  0.40133199081E+02  0.00000000000E+00 0. -1.
         25    1    1    2    0    0  0.55628322561E+02 -0.65271085696E+02  0.24552050387E+03  0.28641777654E+03  0.12000000000E+03 0.  0.
         25    1    1    2    0    0 -0.55628322561E+02  0.65271085696E+02  0.25660840324E+03  0.29597752872E+03  0.12000000000E+03 0.  0.
<mgrwt>
<rscale>  0 0.29504381E+03</rscale>
<asrwt>0</asrwt>
<pdfrwt beam="1">  1        1 0.83424934E-01 0.29504381E+03</pdfrwt>
<pdfrwt beam="2">  1       -1 0.61743387E-02 0.29504381E+03</pdfrwt>
<totfact> 0.51680493E+03</totfact>
</mgrwt>
</event>
<event>
 4    1  0.1733772E-004  0.2645727E+03  0.7818608E-02  0.1104427E+00
         -2   -1    0    0    0  501 -0.00000000000E+00  0.00000000000E+00  0.12923828505E+02  0.12923828505E+02  0.00000000000E+00 0. -1.
          2   -1    0    0  501    0  0.00000000000E+00 -0.00000000000E+00 -0.13540629380E+04  0.13540629380E+04  0.00000000000E+00 0. -1.
         25    1    1    2    0    0 -0.17506034723E+02 -0.52418614627E+02 -0.63571593983E+03  0.64929879760E+03  0.12000000000E+03 0.  0.
         25    1    1    2    0    0  0.17506034723E+02  0.52418614627E+02 -0.70542316968E+03  0.71768796892E+03  0.12000000000E+03 0.  0.
<mgrwt>
<rscale>  0 0.26457269E+03</rscale>
<asrwt>0</asrwt>
<pdfrwt beam="1">  1        2 0.20831735E+00 0.26457269E+03</pdfrwt>
<pdfrwt beam="2">  1       -2 0.19882815E-02 0.26457269E+03</pdfrwt>
<totfact> 0.12747509E+04</totfact>
</mgrwt>
</event>
<event>
 4    1  0.1733772E-004  0.2551574E+03  0.7818608E-02  0.1110088E+00
         -2   -1    0    0    0  501 -0.00000000000E+00  0.00000000000E+00  0.12338011102E+02  0.12338011102E+02  0.00000000000E+00 0. -1.
          2   -1    0    0  501    0  0.00000000000E+00 -0.00000000000E+00 -0.13192020671E+04  0.13192020671E+04  0.00000000000E+00 0. -1.
         25    1    1    2    0    0  0.29250395427E+02 -0.13449502312E+02 -0.50219847182E+03  0.51733913427E+03  0.12000000000E+03 0.  0.
         25    1    1    2    0    0 -0.29250395427E+02  0.13449502312E+02 -0.80466558421E+03  0.81420094397E+03  0.12000000000E+03 0.  0.
<mgrwt>
<rscale>  0 0.25515744E+03</rscale>
<asrwt>0</asrwt>
<pdfrwt beam="1">  1        2 0.20295405E+00 0.25515744E+03</pdfrwt>
<pdfrwt beam="2">  1       -2 0.18981567E-02 0.25515744E+03</pdfrwt>
<totfact> 0.14244625E+04</totfact>
</mgrwt>
</event>
<event>
 4    1  0.1733772E-004  0.2769146E+03  0.7818608E-02  0.1097386E+00
          2   -1    0    0  501    0  0.00000000000E+00  0.00000000000E+00  0.72332561692E+03  0.72332561692E+03  0.00000000000E+00 0. -1.
         -2   -1    0    0    0  501 -0.00000000000E+00 -0.00000000000E+00 -0.26503168012E+02  0.26503168012E+02  0.00000000000E+00 0. -1.
         25    1    1    2    0    0 -0.41790146088E+02 -0.16415691496E+02  0.49052624376E+03  0.50698312305E+03  0.12000000000E+03 0.  0.
         25    1    1    2    0    0  0.41790146088E+02  0.16415691496E+02  0.20629620515E+03  0.24284566188E+03  0.12000000000E+03 0.  0.
<mgrwt>
<rscale>  0 0.27691457E+03</rscale>
<asrwt>0</asrwt>
<pdfrwt beam="1">  1        2 0.11128085E+00 0.27691457E+03</pdfrwt>
<pdfrwt beam="2">  1       -2 0.40774110E-02 0.27691457E+03</pdfrwt>
<totfact> 0.10716938E+04</totfact>
</mgrwt>
</event>
<event>
 4    1  0.1733772E-004  0.2618784E+03  0.7818608E-02  0.1106020E+00
          2   -1    0    0  501    0  0.00000000000E+00  0.00000000000E+00  0.17332934770E+04  0.17332934770E+04  0.00000000000E+00 0. -1.
         -2   -1    0    0    0  501 -0.00000000000E+00 -0.00000000000E+00 -0.98916154622E+01  0.98916154622E+01  0.00000000000E+00 0. -1.
         25    1    1    2    0    0 -0.32277562677E+02  0.85316374815E+01  0.11304807205E+04  0.11373219814E+04  0.12000000000E+03 0.  0.
         25    1    1    2    0    0  0.32277562677E+02 -0.85316374815E+01  0.59292114105E+03  0.60586311110E+03  0.12000000000E+03 0.  0.
<mgrwt>
<rscale>  0 0.26187839E+03</rscale>
<asrwt>0</asrwt>
<pdfrwt beam="1">  1        2 0.26666029E+00 0.26187839E+03</pdfrwt>
<pdfrwt beam="2">  1       -2 0.15217884E-02 0.26187839E+03</pdfrwt>
<totfact> 0.11838058E+04</totfact>
</mgrwt>
</event>
<event>
 4    1  0.1733772E-004  0.3997619E+03  0.7818608E-02  0.1043862E+00
          2   -1    0    0  501    0  0.00000000000E+00  0.00000000000E+00  0.18442276566E+04  0.18442276566E+04  0.00000000000E+00 0.  1.
         -2   -1    0    0    0  501 -0.00000000000E+00 -0.00000000000E+00 -0.21663483802E+02  0.21663483802E+02  0.00000000000E+00 0.  1.
         25    1    1    2    0    0 -0.73108322384E+02 -0.96237345935E+01  0.24930279720E+03  0.28633778612E+03  0.12000000000E+03 0.  0.
         25    1    1    2    0    0  0.73108322384E+02  0.96237345935E+01  0.15732613756E+04  0.15795533542E+04  0.12000000000E+03 0.  0.
<mgrwt>
<rscale>  0 0.39976191E+03</rscale>
<asrwt>0</asrwt>
<pdfrwt beam="1">  1        2 0.28372721E+00 0.39976191E+03</pdfrwt>
<pdfrwt beam="2">  1       -2 0.33328451E-02 0.39976191E+03</pdfrwt>
<totfact> 0.32359969E+03</totfact>
</mgrwt>
</event>
<event>
 4    1  0.1733772E-004  0.2720725E+03  0.7818608E-02  0.1100099E+00
          2   -1    0    0  501    0  0.00000000000E+00  0.00000000000E+00  0.18288264959E+03  0.18288264959E+03  0.00000000000E+00 0.  1.
         -2   -1    0    0    0  501 -0.00000000000E+00 -0.00000000000E+00 -0.10118985082E+03  0.10118985082E+03  0.00000000000E+00 0.  1.
         25    1    1    2    0    0  0.94351319310E+01 -0.57043568184E+02  0.69684849232E+02  0.15032953335E+03  0.12000000000E+03 0.  0.
         25    1    1    2    0    0 -0.94351319310E+01  0.57043568184E+02  0.12007949544E+02  0.13374296706E+03  0.12000000000E+03 0.  0.
<mgrwt>
<rscale>  0 0.27207255E+03</rscale>
<asrwt>0</asrwt>
<pdfrwt beam="1">  1        2 0.28135792E-01 0.27207255E+03</pdfrwt>
<pdfrwt beam="2">  1       -2 0.15567669E-01 0.27207255E+03</pdfrwt>
<totfact> 0.60110109E+03</totfact>
</mgrwt>
</event>
<event>
 4    1  0.1733772E-004  0.3440934E+03  0.7818608E-02  0.1065066E+00
          1   -1    0    0  501    0  0.00000000000E+00  0.00000000000E+00  0.24457720211E+03  0.24457720211E+03  0.00000000000E+00 0.  1.
         -1   -1    0    0    0  501 -0.00000000000E+00 -0.00000000000E+00 -0.12102542761E+03  0.12102542761E+03  0.00000000000E+00 0.  1.
         25    1    1    2    0    0 -0.29930127444E+02  0.11856646559E+03  0.45102902346E+02  0.17716684535E+03  0.12000000000E+03 0.  0.
         25    1    1    2    0    0  0.29930127444E+02 -0.11856646559E+03  0.78448872150E+02  0.18843578437E+03  0.12000000000E+03 0.  0.
<mgrwt>
<rscale>  0 0.34409336E+03</rscale>
<asrwt>0</asrwt>
<pdfrwt beam="1">  1        1 0.37627262E-01 0.34409336E+03</pdfrwt>
<pdfrwt beam="2">  1       -1 0.18619297E-01 0.34409336E+03</pdfrwt>
<totfact> 0.25810438E+03</totfact>
</mgrwt>
</event>
<event>
 4    1  0.1733772E-004  0.3228865E+03  0.7818608E-02  0.1074328E+00
          2   -1    0    0  501    0  0.00000000000E+00  0.00000000000E+00  0.23978331999E+04  0.23978331999E+04  0.00000000000E+00 0.  1.
         -2   -1    0    0    0  501 -0.00000000000E+00 -0.00000000000E+00 -0.10869784367E+02  0.10869784367E+02  0.00000000000E+00 0.  1.
         25    1    1    2    0    0 -0.25066005862E+01  0.66107907257E+02  0.18303056070E+04  0.18354277848E+04  0.12000000000E+03 0.  0.
         25    1    1    2    0    0  0.25066005862E+01 -0.66107907257E+02  0.55665780859E+03  0.57327519946E+03  0.12000000000E+03 0.  0.
<mgrwt>
<rscale>  0 0.32288654E+03</rscale>
<asrwt>0</asrwt>
<pdfrwt beam="1">  1        2 0.36889699E+00 0.32288654E+03</pdfrwt>
<pdfrwt beam="2">  1       -2 0.16722764E-02 0.32288654E+03</pdfrwt>
<totfact> 0.45794858E+03</totfact>
</mgrwt>
</event>
<event>
 4    1  0.1733772E-004  0.2532623E+03  0.7818608E-02  0.1111260E+00
         -1   -1    0    0    0  501 -0.00000000000E+00  0.00000000000E+00  0.23171482193E+03  0.23171482193E+03  0.00000000000E+00 0.  1.
          1   -1    0    0  501    0  0.00000000000E+00 -0.00000000000E+00 -0.69203401245E+02  0.69203401245E+02  0.00000000000E+00 0.  1.
         25    1    1    2    0    0 -0.99502196517E+01 -0.38182172866E+02  0.91787504779E+02  0.15614682587E+03  0.12000000000E+03 0.  0.
         25    1    1    2    0    0  0.99502196517E+01  0.38182172866E+02  0.70723915902E+02  0.14477139730E+03  0.12000000000E+03 0.  0.
<mgrwt>
<rscale>  0 0.25326234E+03</rscale>
<asrwt>0</asrwt>
<pdfrwt beam="1">  1        1 0.10646677E-01 0.25326234E+03</pdfrwt>
<pdfrwt beam="2">  1       -1 0.35648434E-01 0.25326234E+03</pdfrwt>
<totfact> 0.44210125E+03</totfact>
</mgrwt>
</event>
<event>
 4    1  0.1733772E-004  0.3096491E+03  0.7818608E-02  0.1080514E+00
          4   -1    0    0  501    0  0.00000000000E+00  0.00000000000E+00  0.43839451147E+03  0.43839451147E+03  0.00000000000E+00 0.  1.
         -4   -1    0    0    0  501 -0.00000000000E+00 -0.00000000000E+00 -0.54678232492E+02  0.54678232492E+02  0.00000000000E+00 0.  1.
         25    1    1    2    0    0 -0.38151121998E+02  0.90024044030E+02  0.19709126682E+03  0.25060886670E+03  0.12000000000E+03 0.  0.
         25    1    1    2    0    0  0.38151121998E+02 -0.90024044030E+02  0.18662501216E+03  0.24246387726E+03  0.12000000000E+03 0.  0.
<mgrwt>
<rscale>  0 0.30964907E+03</rscale>
<asrwt>0</asrwt>
<pdfrwt beam="1">  1        4 0.67445307E-01 0.30964907E+03</pdfrwt>
<pdfrwt beam="2">  1       -4 0.84120361E-02 0.30964907E+03</pdfrwt>
<totfact> 0.39833573E+02</totfact>
</mgrwt>
</event>
<event>
 4    1  0.1733772E-004  0.4128714E+03  0.7818608E-02  0.1039412E+00
          2   -1    0    0  501    0  0.00000000000E+00  0.00000000000E+00  0.64320916629E+03  0.64320916629E+03  0.00000000000E+00 0.  1.
         -2   -1    0    0    0  501 -0.00000000000E+00 -0.00000000000E+00 -0.66254812781E+02  0.66254812781E+02  0.00000000000E+00 0.  1.
         25    1    1    2    0    0  0.13945307533E+03  0.10471973851E+02  0.12857793730E+03  0.22469781578E+03  0.12000000000E+03 0.  0.
         25    1    1    2    0    0 -0.13945307533E+03 -0.10471973851E+02  0.44837641621E+03  0.48476616329E+03  0.12000000000E+03 0.  0.
<mgrwt>
<rscale>  0 0.41287142E+03</rscale>
<asrwt>0</asrwt>
<pdfrwt beam="1">  1        2 0.98955252E-01 0.41287142E+03</pdfrwt>
<pdfrwt beam="2">  1       -2 0.10193049E-01 0.41287142E+03</pdfrwt>
<totfact> 0.30073736E+03</totfact>
</mgrwt>
</event>
<event>
 4    1  0.1733772E-004  0.2956018E+03  0.7818608E-02  0.1087460E+00
         -1   -1    0    0    0  501 -0.00000000000E+00  0.00000000000E+00  0.39838969359E+02  0.39838969359E+02  0.00000000000E+00 0.  1.
          1   -1    0    0  501    0  0.00000000000E+00 -0.00000000000E+00 -0.54833527613E+03  0.54833527613E+03  0.00000000000E+00 0.  1.
         25    1    1    2    0    0 -0.18760168658E+02  0.81293453143E+02 -0.21044907766E+03  0.25622135692E+03  0.12000000000E+03 0.  0.
         25    1    1    2    0    0  0.18760168658E+02 -0.81293453143E+02 -0.29804722911E+03  0.33195288857E+03  0.12000000000E+03 0.  0.
<mgrwt>
<rscale>  0 0.29560184E+03</rscale>
<asrwt>0</asrwt>
<pdfrwt beam="1">  1        1 0.84359263E-01 0.29560184E+03</pdfrwt>
<pdfrwt beam="2">  1       -1 0.61290730E-02 0.29560184E+03</pdfrwt>
<totfact> 0.51476714E+03</totfact>
</mgrwt>
</event>
<event>
 4    1  0.1733772E-004  0.3066169E+03  0.7818608E-02  0.1081979E+00
         -1   -1    0    0    0  501 -0.00000000000E+00  0.00000000000E+00  0.12634274594E+02  0.12634274594E+02  0.00000000000E+00 0.  1.
          1   -1    0    0  501    0  0.00000000000E+00 -0.00000000000E+00 -0.18602953685E+04  0.18602953685E+04  0.00000000000E+00 0.  1.
         25    1    1    2    0    0 -0.74228373757E+02 -0.58967725688E+02 -0.85791719226E+03  0.87144073403E+03  0.12000000000E+03 0.  0.
         25    1    1    2    0    0  0.74228373757E+02  0.58967725688E+02 -0.98974390165E+03  0.10014889091E+04  0.12000000000E+03 0.  0.
<mgrwt>
<rscale>  0 0.30661691E+03</rscale>
<asrwt>0</asrwt>
<pdfrwt beam="1">  1        1 0.28619918E+00 0.30661691E+03</pdfrwt>
<pdfrwt beam="2">  1       -1 0.19437353E-02 0.30661691E+03</pdfrwt>
<totfact> 0.29707932E+03</totfact>
</mgrwt>
</event>
<event>
 4    1  0.1733772E-004  0.2625195E+03  0.7818608E-02  0.1105639E+00
         -2   -1    0    0    0  501 -0.00000000000E+00  0.00000000000E+00  0.12582462124E+02  0.12582462124E+02  0.00000000000E+00 0.  1.
          2   -1    0    0  501    0  0.00000000000E+00 -0.00000000000E+00 -0.13692970645E+04  0.13692970645E+04  0.00000000000E+00 0.  1.
         25    1    1    2    0    0  0.25065252834E+02 -0.16492068517E+02 -0.90954268590E+03  0.91791511192E+03  0.12000000000E+03 0.  0.
         25    1    1    2    0    0 -0.25065252834E+02  0.16492068517E+02 -0.44717191649E+03  0.46396441471E+03  0.12000000000E+03 0.  0.
<mgrwt>
<rscale>  0 0.26251955E+03</rscale>
<asrwt>0</asrwt>
<pdfrwt beam="1">  1        2 0.21066106E+00 0.26251955E+03</pdfrwt>
<pdfrwt beam="2">  1       -2 0.19357636E-02 0.26251955E+03</pdfrwt>
<totfact> 0.13004452E+04</totfact>
</mgrwt>
</event>
<event>
 4    1  0.1733772E-004  0.3685013E+03  0.7818608E-02  0.1055268E+00
         -1   -1    0    0    0  501 -0.00000000000E+00  0.00000000000E+00  0.97770504406E+02  0.97770504406E+02  0.00000000000E+00 0. -1.
          1   -1    0    0  501    0  0.00000000000E+00 -0.00000000000E+00 -0.34722429541E+03  0.34722429541E+03  0.00000000000E+00 0. -1.
         25    1    1    2    0    0  0.32259797881E+02  0.13209706590E+03 -0.16400510079E+03  0.24451585319E+03  0.12000000000E+03 0.  0.
         25    1    1    2    0    0 -0.32259797881E+02 -0.13209706590E+03 -0.85448690215E+02  0.20047894662E+03  0.12000000000E+03 0.  0.
<mgrwt>
<rscale>  0 0.36850126E+03</rscale>
<asrwt>0</asrwt>
<pdfrwt beam="1">  1        1 0.53419122E-01 0.36850126E+03</pdfrwt>
<pdfrwt beam="2">  1       -1 0.15041616E-01 0.36850126E+03</pdfrwt>
<totfact> 0.23355359E+03</totfact>
</mgrwt>
</event>
<event>
 4    1  0.1733772E-004  0.2530750E+03  0.7818608E-02  0.1111377E+00
          1   -1    0    0  501    0  0.00000000000E+00  0.00000000000E+00  0.76289145860E+03  0.76289145860E+03  0.00000000000E+00 0. -1.
         -1   -1    0    0    0  501 -0.00000000000E+00 -0.00000000000E+00 -0.20988233736E+02  0.20988233736E+02  0.00000000000E+00 0. -1.
         25    1    1    2    0    0  0.22739873007E+02  0.30234393228E+01  0.26890108417E+03  0.29535408593E+03  0.12000000000E+03 0.  0.
         25    1    1    2    0    0 -0.22739873007E+02 -0.30234393228E+01  0.47300214070E+03  0.48852560641E+03  0.12000000000E+03 0.  0.
<mgrwt>
<rscale>  0 0.25307504E+03</rscale>
<asrwt>0</asrwt>
<pdfrwt beam="1">  1        1 0.11736790E+00 0.25307504E+03</pdfrwt>
<pdfrwt beam="2">  1       -1 0.32289596E-02 0.25307504E+03</pdfrwt>
<totfact> 0.83348212E+03</totfact>
</mgrwt>
</event>
<event>
 4    1  0.1733772E-004  0.3301077E+03  0.7818608E-02  0.1071089E+00
         -4   -1    0    0    0  501 -0.00000000000E+00  0.00000000000E+00  0.33357611943E+03  0.33357611943E+03  0.00000000000E+00 0.  1.
          4   -1    0    0  501    0  0.00000000000E+00 -0.00000000000E+00 -0.81668833208E+02  0.81668833208E+02  0.00000000000E+00 0.  1.
         25    1    1    2    0    0 -0.10183131475E+03  0.16638753694E+02  0.67002082799E+02  0.17185966335E+03  0.12000000000E+03 0.  0.
         25    1    1    2    0    0  0.10183131475E+03 -0.16638753694E+02  0.18490520342E+03  0.24338528929E+03  0.12000000000E+03 0.  0.
<mgrwt>
<rscale>  0 0.33010769E+03</rscale>
<asrwt>0</asrwt>
<pdfrwt beam="1">  1        4 0.12564436E-01 0.33010769E+03</pdfrwt>
<pdfrwt beam="2">  1       -4 0.51319402E-01 0.33010769E+03</pdfrwt>
<totfact> 0.36094752E+02</totfact>
</mgrwt>
</event>
<event>
 4    1  0.1733772E-004  0.2914923E+03  0.7818608E-02  0.1089573E+00
          2   -1    0    0  501    0  0.00000000000E+00  0.00000000000E+00  0.14771844421E+04  0.14771844421E+04  0.00000000000E+00 0. -1.
         -2   -1    0    0    0  501 -0.00000000000E+00 -0.00000000000E+00 -0.14380017818E+02  0.14380017818E+02  0.00000000000E+00 0. -1.
         25    1    1    2    0    0 -0.14051673756E+02 -0.69734390945E+02  0.94738568476E+03  0.95760115419E+03  0.12000000000E+03 0.  0.
         25    1    1    2    0    0  0.14051673756E+02  0.69734390945E+02  0.51541873952E+03  0.53396330573E+03  0.12000000000E+03 0.  0.
<mgrwt>
<rscale>  0 0.29149229E+03</rscale>
<asrwt>0</asrwt>
<pdfrwt beam="1">  1        2 0.22725902E+00 0.29149229E+03</pdfrwt>
<pdfrwt beam="2">  1       -2 0.22123116E-02 0.29149229E+03</pdfrwt>
<totfact> 0.93601968E+03</totfact>
</mgrwt>
</event>
<event>
 4    1  0.1733772E-004  0.3204059E+03  0.7818608E-02  0.1075463E+00
         -2   -1    0    0    0  501 -0.00000000000E+00  0.00000000000E+00  0.30688948442E+03  0.30688948442E+03  0.00000000000E+00 0.  1.
          2   -1    0    0  501    0  0.00000000000E+00 -0.00000000000E+00 -0.83629402016E+02  0.83629402016E+02  0.00000000000E+00 0.  1.
         25    1    1    2    0    0  0.31898138596E+02  0.79069867581E+02  0.18867147120E+03  0.23930411457E+03  0.12000000000E+03 0.  0.
         25    1    1    2    0    0 -0.31898138596E+02 -0.79069867581E+02  0.34588611202E+02  0.15121477186E+03  0.12000000000E+03 0.  0.
<mgrwt>
<rscale>  0 0.32040589E+03</rscale>
<asrwt>0</asrwt>
<pdfrwt beam="1">  1        2 0.12866062E-01 0.32040589E+03</pdfrwt>
<pdfrwt beam="2">  1       -2 0.47213766E-01 0.32040589E+03</pdfrwt>
<totfact> 0.20262045E+03</totfact>
</mgrwt>
</event>
<event>
 4    1  0.1733772E-004  0.2816582E+03  0.7818608E-02  0.1094787E+00
          2   -1    0    0  501    0  0.00000000000E+00  0.00000000000E+00  0.21905477264E+03  0.21905477264E+03  0.00000000000E+00 0. -1.
         -2   -1    0    0    0  501 -0.00000000000E+00 -0.00000000000E+00 -0.90538251947E+02  0.90538251947E+02  0.00000000000E+00 0. -1.
         25    1    1    2    0    0  0.44885529724E+02 -0.13854939177E+02  0.12669096063E+03  0.18071322482E+03  0.12000000000E+03 0.  0.
         25    1    1    2    0    0 -0.44885529724E+02  0.13854939177E+02  0.18255600585E+01  0.12887979977E+03  0.12000000000E+03 0.  0.
<mgrwt>
<rscale>  0 0.28165821E+03</rscale>
<asrwt>0</asrwt>
<pdfrwt beam="1">  1        2 0.33700734E-01 0.28165821E+03</pdfrwt>
<pdfrwt beam="2">  1       -2 0.13928962E-01 0.28165821E+03</pdfrwt>
<totfact> 0.59329227E+03</totfact>
</mgrwt>
</event>
<event>
 4    1  0.1733772E-004  0.2898909E+03  0.7818608E-02  0.1090406E+00
          2   -1    0    0  501    0  0.00000000000E+00  0.00000000000E+00  0.64709610150E+03  0.64709610150E+03  0.00000000000E+00 0.  1.
         -2   -1    0    0    0  501 -0.00000000000E+00 -0.00000000000E+00 -0.32466856625E+02  0.32466856625E+02  0.00000000000E+00 0.  1.
         25    1    1    2    0    0 -0.16586702650E+02 -0.79227176003E+02  0.32503038052E+03  0.35580445807E+03  0.12000000000E+03 0.  0.
         25    1    1    2    0    0  0.16586702650E+02  0.79227176003E+02  0.28959886436E+03  0.32375850006E+03  0.12000000000E+03 0.  0.
<mgrwt>
<rscale>  0 0.28989085E+03</rscale>
<asrwt>0</asrwt>
<pdfrwt beam="1">  1        2 0.99553237E-01 0.28989085E+03</pdfrwt>
<pdfrwt beam="2">  1       -2 0.49949015E-02 0.28989085E+03</pdfrwt>
<totfact> 0.90298880E+03</totfact>
</mgrwt>
</event>
<event>
 4    1  0.1733772E-004  0.3318801E+03  0.7818608E-02  0.1070308E+00
          2   -1    0    0  501    0  0.00000000000E+00  0.00000000000E+00  0.13394554529E+04  0.13394554529E+04  0.00000000000E+00 0.  1.
         -2   -1    0    0    0  501 -0.00000000000E+00 -0.00000000000E+00 -0.20557687017E+02  0.20557687017E+02  0.00000000000E+00 0.  1.
         25    1    1    2    0    0 -0.61548976910E+01  0.11279035563E+03  0.57992853036E+03  0.60289024491E+03  0.12000000000E+03 0.  0.
         25    1    1    2    0    0  0.61548976910E+01 -0.11279035563E+03  0.73896923557E+03  0.75712289505E+03  0.12000000000E+03 0.  0.
<mgrwt>
<rscale>  0 0.33188013E+03</rscale>
<asrwt>0</asrwt>
<pdfrwt beam="1">  1        2 0.20607000E+00 0.33188013E+03</pdfrwt>
<pdfrwt beam="2">  1       -2 0.31627221E-02 0.33188013E+03</pdfrwt>
<totfact> 0.65499961E+03</totfact>
</mgrwt>
</event>
<event>
 4    1  0.1733772E-004  0.2974414E+03  0.7818608E-02  0.1086527E+00
          1   -1    0    0  501    0  0.00000000000E+00  0.00000000000E+00  0.14274401867E+04  0.14274401867E+04  0.00000000000E+00 0.  1.
         -1   -1    0    0    0  501 -0.00000000000E+00 -0.00000000000E+00 -0.15494767455E+02  0.15494767455E+02  0.00000000000E+00 0.  1.
         25    1    1    2    0    0  0.43009030733E+02 -0.72234721719E+02  0.82967453212E+03  0.84251258804E+03  0.12000000000E+03 0.  0.
         25    1    1    2    0    0 -0.43009030733E+02  0.72234721719E+02  0.58227088715E+03  0.60042236614E+03  0.12000000000E+03 0.  0.
<mgrwt>
<rscale>  0 0.29744145E+03</rscale>
<asrwt>0</asrwt>
<pdfrwt beam="1">  1        1 0.21960608E+00 0.29744145E+03</pdfrwt>
<pdfrwt beam="2">  1       -1 0.23838115E-02 0.29744145E+03</pdfrwt>
<totfact> 0.42425093E+03</totfact>
</mgrwt>
</event>
<event>
 4    1  0.1733772E-004  0.2496790E+03  0.7818608E-02  0.1113508E+00
         -2   -1    0    0    0  501 -0.00000000000E+00  0.00000000000E+00  0.18894204205E+02  0.18894204205E+02  0.00000000000E+00 0. -1.
          2   -1    0    0  501    0  0.00000000000E+00 -0.00000000000E+00 -0.82485111588E+03  0.82485111588E+03  0.00000000000E+00 0. -1.
         25    1    1    2    0    0 -0.14973545460E+01  0.13491139486E+02 -0.50987679053E+03  0.52398339138E+03  0.12000000000E+03 0.  0.
         25    1    1    2    0    0  0.14973545460E+01 -0.13491139486E+02 -0.29608012114E+03  0.31976192870E+03  0.12000000000E+03 0.  0.
<mgrwt>
<rscale>  0 0.24967904E+03</rscale>
<asrwt>0</asrwt>
<pdfrwt beam="1">  1        2 0.12690015E+00 0.24967904E+03</pdfrwt>
<pdfrwt beam="2">  1       -2 0.29068011E-02 0.24967904E+03</pdfrwt>
<totfact> 0.15009113E+04</totfact>
</mgrwt>
</event>
<event>
 4    1  0.1733772E-004  0.2688408E+03  0.7818608E-02  0.1101945E+00
         -2   -1    0    0    0  501 -0.00000000000E+00  0.00000000000E+00  0.11222396390E+02  0.11222396390E+02  0.00000000000E+00 0. -1.
          2   -1    0    0  501    0  0.00000000000E+00 -0.00000000000E+00 -0.16100701211E+04  0.16100701211E+04  0.00000000000E+00 0. -1.
         25    1    1    2    0    0 -0.37686942367E+02  0.29676304927E+02 -0.10224657546E+04  0.10306004114E+04  0.12000000000E+03 0.  0.
         25    1    1    2    0    0  0.37686942367E+02 -0.29676304927E+02 -0.57638197006E+03  0.59069210601E+03  0.12000000000E+03 0.  0.
<mgrwt>
<rscale>  0 0.26884081E+03</rscale>
<asrwt>0</asrwt>
<pdfrwt beam="1">  1        2 0.24770313E+00 0.26884081E+03</pdfrwt>
<pdfrwt beam="2">  1       -2 0.17265223E-02 0.26884081E+03</pdfrwt>
<totfact> 0.11434095E+04</totfact>
</mgrwt>
</event>
<event>
 4    1  0.1733772E-004  0.2913386E+03  0.7818608E-02  0.1089652E+00
          1   -1    0    0  501    0  0.00000000000E+00  0.00000000000E+00  0.20106730009E+04  0.20106730009E+04  0.00000000000E+00 0. -1.
         -1   -1    0    0    0  501 -0.00000000000E+00 -0.00000000000E+00 -0.10553456907E+02  0.10553456907E+02  0.00000000000E+00 0. -1.
         25    1    1    2    0    0  0.70317435960E+02 -0.24026165256E+02  0.12499865636E+04  0.12579301283E+04  0.12000000000E+03 0.  0.
         25    1    1    2    0    0 -0.70317435960E+02  0.24026165256E+02  0.75013298030E+03  0.76329632945E+03  0.12000000000E+03 0.  0.
<mgrwt>
<rscale>  0 0.29133864E+03</rscale>
<asrwt>0</asrwt>
<pdfrwt beam="1">  1        1 0.30933400E+00 0.29133864E+03</pdfrwt>
<pdfrwt beam="2">  1       -1 0.16236104E-02 0.29133864E+03</pdfrwt>
<totfact> 0.30867656E+03</totfact>
</mgrwt>
</event>
<event>
 4    1  0.1733772E-004  0.7231656E+03  0.7818608E-02  0.9678416E-01
         -2   -1    0    0    0  501 -0.00000000000E+00  0.00000000000E+00  0.51340974768E+03  0.51340974768E+03  0.00000000000E+00 0. -1.
          2   -1    0    0  501    0  0.00000000000E+00 -0.00000000000E+00 -0.25465455403E+03  0.25465455403E+03  0.00000000000E+00 0. -1.
         25    1    1    2    0    0  0.23567309999E+03 -0.21209114831E+03  0.26295438414E+03  0.42903318448E+03  0.12000000000E+03 0.  0.
         25    1    1    2    0    0 -0.23567309999E+03  0.21209114831E+03 -0.41991904896E+01  0.33903111723E+03  0.12000000000E+03 0.  0.
<mgrwt>
<rscale>  0 0.72316563E+03</rscale>
<asrwt>0</asrwt>
<pdfrwt beam="1">  1        2 0.39177624E-01 0.72316563E+03</pdfrwt>
<pdfrwt beam="2">  1       -2 0.78986115E-01 0.72316563E+03</pdfrwt>
<totfact> 0.18930854E+02</totfact>
</mgrwt>
</event>
<event>
 4    1  0.1733772E-004  0.2917655E+03  0.7818608E-02  0.1089431E+00
          2   -1    0    0  501    0  0.00000000000E+00  0.00000000000E+00  0.55241752224E+03  0.55241752224E+03  0.00000000000E+00 0. -1.
         -2   -1    0    0    0  501 -0.00000000000E+00 -0.00000000000E+00 -0.38524809099E+02  0.38524809099E+02  0.00000000000E+00 0. -1.
         25    1    1    2    0    0  0.24589863446E+02 -0.34116944939E+02  0.40177534530E+03  0.42141672417E+03  0.12000000000E+03 0.  0.
         25    1    1    2    0    0 -0.24589863446E+02  0.34116944939E+02  0.11211736784E+03  0.16952560718E+03  0.12000000000E+03 0.  0.
<mgrwt>
<rscale>  0 0.29176552E+03</rscale>
<asrwt>0</asrwt>
<pdfrwt beam="1">  1        2 0.84987305E-01 0.29176552E+03</pdfrwt>
<pdfrwt beam="2">  1       -2 0.59268941E-02 0.29176552E+03</pdfrwt>
<totfact> 0.83590589E+03</totfact>
</mgrwt>
</event>
<event>
 4    1  0.1733772E-004  0.2493496E+03  0.7818608E-02  0.1113717E+00
          2   -1    0    0  501    0  0.00000000000E+00  0.00000000000E+00  0.14279559384E+04  0.14279559384E+04  0.00000000000E+00 0.  1.
         -2   -1    0    0    0  501 -0.00000000000E+00 -0.00000000000E+00 -0.10885353893E+02  0.10885353893E+02  0.00000000000E+00 0.  1.
         25    1    1    2    0    0  0.58201645277E+01  0.32211418607E+02  0.65945114197E+03  0.67107917450E+03  0.12000000000E+03 0.  0.
         25    1    1    2    0    0 -0.58201645277E+01 -0.32211418607E+02  0.75761944251E+03  0.76776211776E+03  0.12000000000E+03 0.  0.
<mgrwt>
<rscale>  0 0.24934960E+03</rscale>
<asrwt>0</asrwt>
<pdfrwt beam="1">  1        2 0.21968538E+00 0.24934960E+03</pdfrwt>
<pdfrwt beam="2">  1       -2 0.16746710E-02 0.24934960E+03</pdfrwt>
<totfact> 0.14922472E+04</totfact>
</mgrwt>
</event>
<event>
 4    1  0.1733772E-004  0.2709537E+03  0.7818608E-02  0.1100735E+00
         -2   -1    0    0    0  501 -0.00000000000E+00  0.00000000000E+00  0.65113149947E+02  0.65113149947E+02  0.00000000000E+00 0. -1.
          2   -1    0    0  501    0  0.00000000000E+00 -0.00000000000E+00 -0.28187828021E+03  0.28187828021E+03  0.00000000000E+00 0. -1.
         25    1    1    2    0    0 -0.50719085399E+02 -0.15058384071E+02 -0.15190141307E+03  0.20068188719E+03  0.12000000000E+03 0.  0.
         25    1    1    2    0    0  0.50719085399E+02  0.15058384071E+02 -0.64863717196E+02  0.14630954297E+03  0.12000000000E+03 0.  0.
<mgrwt>
<rscale>  0 0.27095374E+03</rscale>
<asrwt>0</asrwt>
<pdfrwt beam="1">  1        2 0.43365889E-01 0.27095374E+03</pdfrwt>
<pdfrwt beam="2">  1       -2 0.10017408E-01 0.27095374E+03</pdfrwt>
<totfact> 0.76772759E+03</totfact>
</mgrwt>
</event>
<event>
 4    1  0.1733772E-004  0.2524340E+03  0.7818608E-02  0.1111776E+00
          4   -1    0    0  501    0  0.00000000000E+00  0.00000000000E+00  0.13122495242E+02  0.13122495242E+02  0.00000000000E+00 0.  1.
         -4   -1    0    0    0  501 -0.00000000000E+00 -0.00000000000E+00 -0.12140019484E+04  0.12140019484E+04  0.00000000000E+00 0.  1.
         25    1    1    2    0    0  0.26936085000E+02  0.23397107586E+02 -0.52239450098E+03  0.53718617999E+03  0.12000000000E+03 0.  0.
         25    1    1    2    0    0 -0.26936085000E+02 -0.23397107586E+02 -0.67848495222E+03  0.68993826370E+03  0.12000000000E+03 0.  0.
<mgrwt>
<rscale>  0 0.25243403E+03</rscale>
<asrwt>0</asrwt>
<pdfrwt beam="1">  1        4 0.20188456E-02 0.25243403E+03</pdfrwt>
<pdfrwt beam="2">  1       -4 0.18676951E+00 0.25243403E+03</pdfrwt>
<totfact> 0.32531486E+02</totfact>
</mgrwt>
</event>
<event>
 4    1  0.1733772E-004  0.2757793E+03  0.7818608E-02  0.1098017E+00
         -2   -1    0    0    0  501 -0.00000000000E+00  0.00000000000E+00  0.52096924405E+02  0.52096924405E+02  0.00000000000E+00 0.  1.
          2   -1    0    0  501    0  0.00000000000E+00 -0.00000000000E+00 -0.36496499103E+03  0.36496499103E+03  0.00000000000E+00 0.  1.
         25    1    1    2    0    0 -0.15713325808E+02 -0.26680218321E+02 -0.24786037596E+03  0.27711641711E+03  0.12000000000E+03 0.  0.
         25    1    1    2    0    0  0.15713325808E+02  0.26680218321E+02 -0.65007690665E+02  0.13994549833E+03  0.12000000000E+03 0.  0.
<mgrwt>
<rscale>  0 0.27577929E+03</rscale>
<asrwt>0</asrwt>
<pdfrwt beam="1">  1        2 0.56148461E-01 0.27577929E+03</pdfrwt>
<pdfrwt beam="2">  1       -2 0.80149114E-02 0.27577929E+03</pdfrwt>
<totfact> 0.82657706E+03</totfact>
</mgrwt>
</event>
<event>
 4    1  0.1733772E-004  0.3218281E+03  0.7818608E-02  0.1074811E+00
          2   -1    0    0  501    0  0.00000000000E+00  0.00000000000E+00  0.90531521960E+03  0.90531521960E+03  0.00000000000E+00 0.  1.
         -2   -1    0    0    0  501 -0.00000000000E+00 -0.00000000000E+00 -0.28601448709E+02  0.28601448709E+02  0.00000000000E+00 0.  1.
         25    1    1    2    0    0 -0.31890212038E+02  0.10690745326E+02  0.14295924043E+03  0.18965395351E+03  0.12000000000E+03 0.  0.
         25    1    1    2    0    0  0.31890212038E+02 -0.10690745326E+02  0.73375453047E+03  0.74426271480E+03  0.12000000000E+03 0.  0.
<mgrwt>
<rscale>  0 0.32182807E+03</rscale>
<asrwt>0</asrwt>
<pdfrwt beam="1">  1        2 0.13927924E+00 0.32182807E+03</pdfrwt>
<pdfrwt beam="2">  1       -2 0.44002236E-02 0.32182807E+03</pdfrwt>
<totfact> 0.71883357E+03</totfact>
</mgrwt>
</event>
<event>
 4    1  0.1733772E-004  0.5748290E+03  0.7818608E-02  0.9959049E-01
         -1   -1    0    0    0  501 -0.00000000000E+00  0.00000000000E+00  0.33608443802E+02  0.33608443802E+02  0.00000000000E+00 0.  1.
          1   -1    0    0  501    0  0.00000000000E+00 -0.00000000000E+00 -0.24579271890E+04  0.24579271890E+04  0.00000000000E+00 0.  1.
         25    1    1    2    0    0  0.18999965475E+03  0.40862030524E+02 -0.19683531972E+04  0.19815609714E+04  0.12000000000E+03 0.  0.
         25    1    1    2    0    0 -0.18999965475E+03 -0.40862030524E+02 -0.45596554804E+03  0.50997466147E+03  0.12000000000E+03 0.  0.
<mgrwt>
<rscale>  0 0.57482905E+03</rscale>
<asrwt>0</asrwt>
<pdfrwt beam="1">  1        1 0.37814280E+00 0.57482905E+03</pdfrwt>
<pdfrwt beam="2">  1       -1 0.51705277E-02 0.57482905E+03</pdfrwt>
<totfact> 0.27059664E+02</totfact>
</mgrwt>
</event>
<event>
 4    1  0.1733772E-004  0.2615817E+03  0.7818608E-02  0.1106197E+00
          1   -1    0    0  501    0  0.00000000000E+00  0.00000000000E+00  0.17810027587E+04  0.17810027587E+04  0.00000000000E+00 0.  1.
         -1   -1    0    0    0  501 -0.00000000000E+00 -0.00000000000E+00 -0.96048397773E+01  0.96048397773E+01  0.00000000000E+00 0.  1.
         25    1    1    2    0    0 -0.13676426821E+02  0.38766797031E+02  0.11039276888E+04  0.11111913658E+04  0.12000000000E+03 0.  0.
         25    1    1    2    0    0  0.13676426821E+02 -0.38766797031E+02  0.66747023011E+03  0.67941623272E+03  0.12000000000E+03 0.  0.
<mgrwt>
<rscale>  0 0.26158170E+03</rscale>
<asrwt>0</asrwt>
<pdfrwt beam="1">  1        1 0.27400016E+00 0.26158170E+03</pdfrwt>
<pdfrwt beam="2">  1       -1 0.14776691E-02 0.26158170E+03</pdfrwt>
<totfact> 0.49921560E+03</totfact>
</mgrwt>
</event>
<event>
 4    1  0.1733772E-004  0.3839144E+03  0.7818608E-02  0.1049496E+00
          1   -1    0    0  501    0  0.00000000000E+00  0.00000000000E+00  0.30567030070E+03  0.30567030070E+03  0.00000000000E+00 0. -1.
         -1   -1    0    0    0  501 -0.00000000000E+00 -0.00000000000E+00 -0.12054679739E+03  0.12054679739E+03  0.00000000000E+00 0. -1.
         25    1    1    2    0    0  0.13462210536E+03  0.11398837471E+02  0.20660223796E+02  0.18187877720E+03  0.12000000000E+03 0.  0.
         25    1    1    2    0    0 -0.13462210536E+03 -0.11398837471E+02  0.16446327951E+03  0.24433832089E+03  0.12000000000E+03 0.  0.
<mgrwt>
<rscale>  0 0.38391445E+03</rscale>
<asrwt>0</asrwt>
<pdfrwt beam="1">  1        1 0.47026200E-01 0.38391445E+03</pdfrwt>
<pdfrwt beam="2">  1       -1 0.18545661E-01 0.38391445E+03</pdfrwt>
<totfact> 0.19608122E+03</totfact>
</mgrwt>
</event>
<event>
 4    1  0.1733772E-004  0.3384019E+03  0.7818608E-02  0.1067479E+00
         -2   -1    0    0    0  501 -0.00000000000E+00  0.00000000000E+00  0.84094253912E+02  0.84094253912E+02  0.00000000000E+00 0.  1.
          2   -1    0    0  501    0  0.00000000000E+00 -0.00000000000E+00 -0.34043903667E+03  0.34043903667E+03  0.00000000000E+00 0.  1.
         25    1    1    2    0    0 -0.11998122906E+02  0.50767098239E+02 -0.26275019645E+03  0.29352839548E+03  0.12000000000E+03 0.  0.
         25    1    1    2    0    0  0.11998122906E+02 -0.50767098239E+02  0.64054136927E+01  0.13100489511E+03  0.12000000000E+03 0.  0.
<mgrwt>
<rscale>  0 0.33840193E+03</rscale>
<asrwt>0</asrwt>
<pdfrwt beam="1">  1        2 0.52375237E-01 0.33840193E+03</pdfrwt>
<pdfrwt beam="2">  1       -2 0.12937577E-01 0.33840193E+03</pdfrwt>
<totfact> 0.41746728E+03</totfact>
</mgrwt>
</event>
<event>
 4    1  0.1733772E-004  0.2477663E+03  0.7818608E-02  0.1114725E+00
          2   -1    0    0  501    0  0.00000000000E+00  0.00000000000E+00  0.13267177379E+04  0.13267177379E+04  0.00000000000E+00 0.  1.
         -2   -1    0    0    0  501 -0.00000000000E+00 -0.00000000000E+00 -0.11567669800E+02  0.11567669800E+02  0.00000000000E+00 0.  1.
         25    1    1    2    0    0 -0.10464700965E+02 -0.16210074734E+02  0.52808141218E+03  0.54188767690E+03  0.12000000000E+03 0.  0.
         25    1    1    2    0    0  0.10464700965E+02  0.16210074734E+02  0.78706865596E+03  0.79639773084E+03  0.12000000000E+03 0.  0.
<mgrwt>
<rscale>  0 0.24776628E+03</rscale>
<asrwt>0</asrwt>
<pdfrwt beam="1">  1        2 0.20411030E+00 0.24776628E+03</pdfrwt>
<pdfrwt beam="2">  1       -2 0.17796426E-02 0.24776628E+03</pdfrwt>
<totfact> 0.15492656E+04</totfact>
</mgrwt>
</event>
<event>
 4    1  0.1733772E-004  0.2502759E+03  0.7818608E-02  0.1113131E+00
          1   -1    0    0  501    0  0.00000000000E+00  0.00000000000E+00  0.12174404017E+04  0.12174404017E+04  0.00000000000E+00 0. -1.
         -1   -1    0    0    0  501 -0.00000000000E+00 -0.00000000000E+00 -0.12862650622E+02  0.12862650622E+02  0.00000000000E+00 0. -1.
         25    1    1    2    0    0  0.31762177947E+02 -0.14177754181E+02  0.63693240032E+03  0.64907066429E+03  0.12000000000E+03 0.  0.
         25    1    1    2    0    0 -0.31762177947E+02  0.14177754181E+02  0.56764535074E+03  0.58123238801E+03  0.12000000000E+03 0.  0.
<mgrwt>
<rscale>  0 0.25027593E+03</rscale>
<asrwt>0</asrwt>
<pdfrwt beam="1">  1        1 0.18729843E+00 0.25027593E+03</pdfrwt>
<pdfrwt beam="2">  1       -1 0.19788703E-02 0.25027593E+03</pdfrwt>
<totfact> 0.77282152E+03</totfact>
</mgrwt>
</event>
<event>
 4    1  0.1733772E-004  0.2729496E+03  0.7818608E-02  0.1099603E+00
          1   -1    0    0  501    0  0.00000000000E+00  0.00000000000E+00  0.10607023964E+04  0.10607023964E+04  0.00000000000E+00 0. -1.
         -1   -1    0    0    0  501 -0.00000000000E+00 -0.00000000000E+00 -0.17559467434E+02  0.17559467434E+02  0.00000000000E+00 0. -1.
         25    1    1    2    0    0  0.39191731129E+02  0.51511897102E+02  0.54524157314E+03  0.56203010632E+03  0.12000000000E+03 0.  0.
         25    1    1    2    0    0 -0.39191731129E+02 -0.51511897102E+02  0.49790135585E+03  0.51623175754E+03  0.12000000000E+03 0.  0.
<mgrwt>
<rscale>  0 0.27294959E+03</rscale>
<asrwt>0</asrwt>
<pdfrwt beam="1">  1        1 0.16318493E+00 0.27294959E+03</pdfrwt>
<pdfrwt beam="2">  1       -1 0.27014574E-02 0.27294959E+03</pdfrwt>
<totfact> 0.63438232E+03</totfact>
</mgrwt>
</event>
<event>
 4    1  0.1733772E-004  0.2955419E+03  0.7818608E-02  0.1087491E+00
         -2   -1    0    0    0  501 -0.00000000000E+00  0.00000000000E+00  0.22226671619E+02  0.22226671619E+02  0.00000000000E+00 0. -1.
          2   -1    0    0  501    0  0.00000000000E+00 -0.00000000000E+00 -0.98243501076E+03  0.98243501076E+03  0.00000000000E+00 0. -1.
         25    1    1    2    0    0 -0.12484838538E+02  0.34409034947E+02 -0.21468168818E+03  0.24865252888E+03  0.12000000000E+03 0.  0.
         25    1    1    2    0    0  0.12484838538E+02 -0.34409034947E+02 -0.74552665095E+03  0.75600915349E+03  0.12000000000E+03 0.  0.
<mgrwt>
<rscale>  0 0.29554195E+03</rscale>
<asrwt>0</asrwt>
<pdfrwt beam="1">  1        2 0.15114385E+00 0.29554195E+03</pdfrwt>
<pdfrwt beam="2">  1       -2 0.34194880E-02 0.29554195E+03</pdfrwt>
<totfact> 0.93749046E+03</totfact>
</mgrwt>
</event>
<event>
 4    1  0.1733772E-004  0.2462484E+03  0.7818608E-02  0.1115699E+00
         -2   -1    0    0    0  501 -0.00000000000E+00  0.00000000000E+00  0.46593032124E+02  0.46593032124E+02  0.00000000000E+00 0. -1.
          2   -1    0    0  501    0  0.00000000000E+00 -0.00000000000E+00 -0.32536131595E+03  0.32536131595E+03  0.00000000000E+00 0. -1.
         25    1    1    2    0    0 -0.44947710803E+01 -0.24676619406E+02 -0.15663488599E+03  0.19890607337E+03  0.12000000000E+03 0.  0.
         25    1    1    2    0    0  0.44947710803E+01  0.24676619406E+02 -0.12213339783E+03  0.17304827470E+03  0.12000000000E+03 0.  0.
<mgrwt>
<rscale>  0 0.24624841E+03</rscale>
<asrwt>0</asrwt>
<pdfrwt beam="1">  1        2 0.50055587E-01 0.24624841E+03</pdfrwt>
<pdfrwt beam="2">  1       -2 0.71681588E-02 0.24624841E+03</pdfrwt>
<totfact> 0.11074346E+04</totfact>
</mgrwt>
</event>
<event>
 4    1  0.1733772E-004  0.4310495E+03  0.7818608E-02  0.1033529E+00
         -1   -1    0    0    0  501 -0.00000000000E+00  0.00000000000E+00  0.17868416626E+03  0.17868416626E+03  0.00000000000E+00 0. -1.
          1   -1    0    0  501    0  0.00000000000E+00 -0.00000000000E+00 -0.25996101870E+03  0.25996101870E+03  0.00000000000E+00 0. -1.
         25    1    1    2    0    0  0.12876209182E+03  0.75742447794E+02 -0.14103967196E+03  0.23792600479E+03  0.12000000000E+03 0.  0.
         25    1    1    2    0    0 -0.12876209182E+03 -0.75742447794E+02  0.59762819519E+02  0.20071918016E+03  0.12000000000E+03 0.  0.
<mgrwt>
<rscale>  0 0.43104950E+03</rscale>
<asrwt>0</asrwt>
<pdfrwt beam="1">  1        1 0.39994003E-01 0.43104950E+03</pdfrwt>
<pdfrwt beam="2">  1       -1 0.27489872E-01 0.43104950E+03</pdfrwt>
<totfact> 0.12526286E+03</totfact>
</mgrwt>
</event>
<event>
 4    1  0.1733772E-004  0.3735571E+03  0.7818608E-02  0.1053341E+00
         -1   -1    0    0    0  501 -0.00000000000E+00  0.00000000000E+00  0.35335632086E+03  0.35335632086E+03  0.00000000000E+00 0. -1.
          1   -1    0    0  501    0  0.00000000000E+00 -0.00000000000E+00 -0.98728179293E+02  0.98728179293E+02  0.00000000000E+00 0. -1.
         25    1    1    2    0    0  0.50752289777E+01 -0.57280883034E+02 -0.31308953438E+02  0.13670079764E+03  0.12000000000E+03 0.  0.
         25    1    1    2    0    0 -0.50752289777E+01  0.57280883034E+02  0.28593709501E+03  0.31538370251E+03  0.12000000000E+03 0.  0.
<mgrwt>
<rscale>  0 0.37355710E+03</rscale>
<asrwt>0</asrwt>
<pdfrwt beam="1">  1        1 0.15188951E-01 0.37355710E+03</pdfrwt>
<pdfrwt beam="2">  1       -1 0.54362510E-01 0.37355710E+03</pdfrwt>
<totfact> 0.12920054E+03</totfact>
</mgrwt>
</event>
<event>
 4    1  0.1733772E-004  0.3338593E+03  0.7818608E-02  0.1069442E+00
          2   -1    0    0  501    0  0.00000000000E+00  0.00000000000E+00  0.10602027012E+04  0.10602027012E+04  0.00000000000E+00 0. -1.
         -2   -1    0    0    0  501 -0.00000000000E+00 -0.00000000000E+00 -0.26283186361E+02  0.26283186361E+02  0.00000000000E+00 0. -1.
         25    1    1    2    0    0  0.74693995740E+02  0.23748878741E+02  0.23848586857E+03  0.27824218183E+03  0.12000000000E+03 0.  0.
         25    1    1    2    0    0 -0.74693995740E+02 -0.23748878741E+02  0.79543364631E+03  0.80824370578E+03  0.12000000000E+03 0.  0.
<mgrwt>
<rscale>  0 0.33385928E+03</rscale>
<asrwt>0</asrwt>
<pdfrwt beam="1">  1        2 0.16310807E+00 0.33385928E+03</pdfrwt>
<pdfrwt beam="2">  1       -2 0.40435680E-02 0.33385928E+03</pdfrwt>
<totfact> 0.65467502E+03</totfact>
</mgrwt>
</event>
<event>
 4    1  0.1733772E-004  0.3172953E+03  0.7818608E-02  0.1076901E+00
         -1   -1    0    0    0  501 -0.00000000000E+00  0.00000000000E+00  0.18914557886E+03  0.18914557886E+03  0.00000000000E+00 0.  1.
          1   -1    0    0  501    0  0.00000000000E+00 -0.00000000000E+00 -0.13306726288E+03  0.13306726288E+03  0.00000000000E+00 0.  1.
         25    1    1    2    0    0 -0.15901274418E+02  0.35936710995E+02  0.12557344371E+03  0.17808140692E+03  0.12000000000E+03 0.  0.
         25    1    1    2    0    0  0.15901274418E+02 -0.35936710995E+02 -0.69495127736E+02  0.14413143482E+03  0.12000000000E+03 0.  0.
<mgrwt>
<rscale>  0 0.31729535E+03</rscale>
<asrwt>0</asrwt>
<pdfrwt beam="1">  1        1 0.20471887E-01 0.31729535E+03</pdfrwt>
<pdfrwt beam="2">  1       -1 0.29099320E-01 0.31729535E+03</pdfrwt>
<totfact> 0.26689523E+03</totfact>
</mgrwt>
</event>
<event>
 4    1  0.1733772E-004  0.2768272E+03  0.7818608E-02  0.1097435E+00
         -1   -1    0    0    0  501 -0.00000000000E+00  0.00000000000E+00  0.26802733424E+02  0.26802733424E+02  0.00000000000E+00 0.  1.
          1   -1    0    0  501    0  0.00000000000E+00 -0.00000000000E+00 -0.71478975648E+03  0.71478975648E+03  0.00000000000E+00 0.  1.
         25    1    1    2    0    0 -0.67599212158E+01  0.33972240800E+02 -0.18418838923E+03  0.22254251820E+03  0.12000000000E+03 0.  0.
         25    1    1    2    0    0  0.67599212158E+01 -0.33972240800E+02 -0.50379863383E+03  0.51904997171E+03  0.12000000000E+03 0.  0.
<mgrwt>
<rscale>  0 0.27682716E+03</rscale>
<asrwt>0</asrwt>
<pdfrwt beam="1">  1        1 0.10996766E+00 0.27682716E+03</pdfrwt>
<pdfrwt beam="2">  1       -1 0.41234974E-02 0.27682716E+03</pdfrwt>
<totfact> 0.64079950E+03</totfact>
</mgrwt>
</event>
<event>
 4    1  0.1733772E-004  0.6687752E+03  0.7818608E-02  0.9772173E-01
         -1   -1    0    0    0  501 -0.00000000000E+00  0.00000000000E+00  0.27905804606E+03  0.27905804606E+03  0.00000000000E+00 0.  1.
          1   -1    0    0  501    0  0.00000000000E+00 -0.00000000000E+00 -0.40068753804E+03  0.40068753804E+03  0.00000000000E+00 0.  1.
         25    1    1    2    0    0  0.53343564401E+01  0.29746798801E+03  0.35069467987E+02  0.32271586083E+03  0.12000000000E+03 0.  0.
         25    1    1    2    0    0 -0.53343564401E+01 -0.29746798801E+03 -0.15669895997E+03  0.35702972327E+03  0.12000000000E+03 0.  0.
<mgrwt>
<rscale>  0 0.66877524E+03</rscale>
<asrwt>0</asrwt>
<pdfrwt beam="1">  1        1 0.61644236E-01 0.66877524E+03</pdfrwt>
<pdfrwt beam="2">  1       -1 0.42932007E-01 0.66877524E+03</pdfrwt>
<totfact> 0.32420299E+02</totfact>
</mgrwt>
</event>
<event>
 4    1  0.1733772E-004  0.2647772E+03  0.7818608E-02  0.1104306E+00
          2   -1    0    0  501    0  0.00000000000E+00  0.00000000000E+00  0.43595400535E+03  0.43595400535E+03  0.00000000000E+00 0.  1.
         -2   -1    0    0    0  501 -0.00000000000E+00 -0.00000000000E+00 -0.40203203809E+02  0.40203203809E+02  0.00000000000E+00 0.  1.
         25    1    1    2    0    0  0.14335806327E+02 -0.53366629390E+02  0.21326508797E+03  0.25086950836E+03  0.12000000000E+03 0.  0.
         25    1    1    2    0    0 -0.14335806327E+02  0.53366629390E+02  0.18248571357E+03  0.22528770080E+03  0.12000000000E+03 0.  0.
<mgrwt>
<rscale>  0 0.26477725E+03</rscale>
<asrwt>0</asrwt>
<pdfrwt beam="1">  1        2 0.67069844E-01 0.26477725E+03</pdfrwt>
<pdfrwt beam="2">  1       -2 0.61851086E-02 0.26477725E+03</pdfrwt>
<totfact> 0.10162488E+04</totfact>
</mgrwt>
</event>
<event>
 4    1  0.1733772E-004  0.2790923E+03  0.7818608E-02  0.1096186E+00
          2   -1    0    0  501    0  0.00000000000E+00  0.00000000000E+00  0.14271901299E+04  0.14271901299E+04  0.00000000000E+00 0. -1.
         -2   -1    0    0    0  501 -0.00000000000E+00 -0.00000000000E+00 -0.13644384585E+02  0.13644384585E+02  0.00000000000E+00 0. -1.
         25    1    1    2    0    0  0.39871215286E+02  0.22683067976E+02  0.42547679288E+03  0.44444880094E+03  0.12000000000E+03 0.  0.
         25    1    1    2    0    0 -0.39871215286E+02 -0.22683067976E+02  0.98806895246E+03  0.99638571357E+03  0.12000000000E+03 0.  0.
<mgrwt>
<rscale>  0 0.27909232E+03</rscale>
<asrwt>0</asrwt>
<pdfrwt beam="1">  1        2 0.21956759E+00 0.27909232E+03</pdfrwt>
<pdfrwt beam="2">  1       -2 0.20991372E-02 0.27909232E+03</pdfrwt>
<totfact> 0.10753577E+04</totfact>
</mgrwt>
</event>
<event>
 4    1  0.1733772E-004  0.3522956E+03  0.7818608E-02  0.1061677E+00
         -1   -1    0    0    0  501 -0.00000000000E+00  0.00000000000E+00  0.11993635272E+04  0.11993635272E+04  0.00000000000E+00 0. -1.
          1   -1    0    0  501    0  0.00000000000E+00 -0.00000000000E+00 -0.25870430716E+02  0.25870430716E+02  0.00000000000E+00 0. -1.
         25    1    1    2    0    0 -0.50237537643E+02 -0.11347750314E+02  0.99789151943E+03  0.10063995559E+04  0.12000000000E+03 0.  0.
         25    1    1    2    0    0  0.50237537643E+02  0.11347750314E+02  0.17560157702E+03  0.21883440195E+03  0.12000000000E+03 0.  0.
<mgrwt>
<rscale>  0 0.35229562E+03</rscale>
<asrwt>0</asrwt>
<pdfrwt beam="1">  1        1 0.39800672E-02 0.35229562E+03</pdfrwt>
<pdfrwt beam="2">  1       -1 0.18451742E+00 0.35229562E+03</pdfrwt>
<totfact> 0.48722165E+02</totfact>
</mgrwt>
</event>
<event>
 4    1  0.1733772E-004  0.3381554E+03  0.7818608E-02  0.1067584E+00
          1   -1    0    0  501    0  0.00000000000E+00  0.00000000000E+00  0.16393173647E+03  0.16393173647E+03  0.00000000000E+00 0. -1.
         -1   -1    0    0    0  501 -0.00000000000E+00 -0.00000000000E+00 -0.17438518641E+03  0.17438518641E+03  0.00000000000E+00 0. -1.
         25    1    1    2    0    0  0.87675945524E+02 -0.44202666310E+02 -0.72685333450E+02  0.17124282417E+03  0.12000000000E+03 0.  0.
         25    1    1    2    0    0 -0.87675945524E+02  0.44202666310E+02  0.62231883507E+02  0.16707409870E+03  0.12000000000E+03 0.  0.
<mgrwt>
<rscale>  0 0.33815539E+03</rscale>
<asrwt>0</asrwt>
<pdfrwt beam="1">  1        1 0.25220267E-01 0.33815539E+03</pdfrwt>
<pdfrwt beam="2">  1       -1 0.26828490E-01 0.33815539E+03</pdfrwt>
<totfact> 0.23446004E+03</totfact>
</mgrwt>
</event>
<event>
 4    1  0.1733772E-004  0.3634426E+03  0.7818608E-02  0.1057229E+00
         -2   -1    0    0    0  501 -0.00000000000E+00  0.00000000000E+00  0.20527109163E+02  0.20527109163E+02  0.00000000000E+00 0.  1.
          2   -1    0    0  501    0  0.00000000000E+00 -0.00000000000E+00 -0.16087327987E+04  0.16087327987E+04  0.00000000000E+00 0.  1.
         25    1    1    2    0    0 -0.34144992850E+02  0.82658463281E+02 -0.12561702471E+04  0.12650541458E+04  0.12000000000E+03 0.  0.
         25    1    1    2    0    0  0.34144992850E+02 -0.82658463281E+02 -0.33203544240E+03  0.36420576204E+03  0.12000000000E+03 0.  0.
<mgrwt>
<rscale>  0 0.36344262E+03</rscale>
<asrwt>0</asrwt>
<pdfrwt beam="1">  1        2 0.24749741E+00 0.36344262E+03</pdfrwt>
<pdfrwt beam="2">  1       -2 0.31580161E-02 0.36344262E+03</pdfrwt>
<totfact> 0.46898362E+03</totfact>
</mgrwt>
</event>
<event>
 4    1  0.1733772E-004  0.2949065E+03  0.7818608E-02  0.1087815E+00
          1   -1    0    0  501    0  0.00000000000E+00  0.00000000000E+00  0.41462023724E+02  0.41462023724E+02  0.00000000000E+00 0.  1.
         -1   -1    0    0    0  501 -0.00000000000E+00 -0.00000000000E+00 -0.52439451277E+03  0.52439451277E+03  0.00000000000E+00 0.  1.
         25    1    1    2    0    0 -0.33196520186E+01  0.67572062150E+02 -0.34236951621E+03  0.36904456276E+03  0.12000000000E+03 0.  0.
         25    1    1    2    0    0  0.33196520186E+01 -0.67572062150E+02 -0.14056297284E+03  0.19681197374E+03  0.12000000000E+03 0.  0.
<mgrwt>
<rscale>  0 0.29490648E+03</rscale>
<asrwt>0</asrwt>
<pdfrwt beam="1">  1        1 0.63787728E-02 0.29490648E+03</pdfrwt>
<pdfrwt beam="2">  1       -1 0.80676080E-01 0.29490648E+03</pdfrwt>
<totfact> 0.19037418E+03</totfact>
</mgrwt>
</event>
<event>
 4    1  0.1733772E-004  0.3641336E+03  0.7818608E-02  0.1056959E+00
          2   -1    0    0  501    0  0.00000000000E+00  0.00000000000E+00  0.33476862357E+03  0.33476862357E+03  0.00000000000E+00 0.  1.
         -2   -1    0    0    0  501 -0.00000000000E+00 -0.00000000000E+00 -0.99018599802E+02  0.99018599802E+02  0.00000000000E+00 0.  1.
         25    1    1    2    0    0  0.78106515983E+02  0.64579970057E+02  0.22755822443E+03  0.27650306667E+03  0.12000000000E+03 0.  0.
         25    1    1    2    0    0 -0.78106515983E+02 -0.64579970057E+02  0.81917993327E+01  0.15728415670E+03  0.12000000000E+03 0.  0.
<mgrwt>
<rscale>  0 0.36413360E+03</rscale>
<asrwt>0</asrwt>
<pdfrwt beam="1">  1        2 0.51502864E-01 0.36413360E+03</pdfrwt>
<pdfrwt beam="2">  1       -2 0.15233631E-01 0.36413360E+03</pdfrwt>
<totfact> 0.32513406E+03</totfact>
</mgrwt>
</event>
<event>
 4    1  0.1733772E-004  0.3532185E+03  0.7818608E-02  0.1061302E+00
         -1   -1    0    0    0  501 -0.00000000000E+00  0.00000000000E+00  0.44883067804E+02  0.44883067804E+02  0.00000000000E+00 0. -1.
          1   -1    0    0  501    0  0.00000000000E+00 -0.00000000000E+00 -0.69493537234E+03  0.69493537234E+03  0.00000000000E+00 0. -1.
         25    1    1    2    0    0 -0.93059034832E+02 -0.88872815612E+02 -0.29309127527E+03  0.34184917282E+03  0.12000000000E+03 0.  0.
         25    1    1    2    0    0  0.93059034832E+02  0.88872815612E+02 -0.35696102926E+03  0.39796926732E+03  0.12000000000E+03 0.  0.
<mgrwt>
<rscale>  0 0.35321852E+03</rscale>
<asrwt>0</asrwt>
<pdfrwt beam="1">  1        1 0.10691314E+00 0.35321852E+03</pdfrwt>
<pdfrwt beam="2">  1       -1 0.69050872E-02 0.35321852E+03</pdfrwt>
<totfact> 0.30833012E+03</totfact>
</mgrwt>
</event>
<event>
 4    1  0.1733772E-004  0.2690149E+03  0.7818608E-02  0.1101845E+00
         -2   -1    0    0    0  501 -0.00000000000E+00  0.00000000000E+00  0.13715598610E+03  0.13715598610E+03  0.00000000000E+00 0. -1.
          2   -1    0    0  501    0  0.00000000000E+00 -0.00000000000E+00 -0.13191004752E+03  0.13191004752E+03  0.00000000000E+00 0. -1.
         25    1    1    2    0    0  0.24324094603E+02 -0.53624946563E+02 -0.12378421186E+02  0.13424053703E+03  0.12000000000E+03 0.  0.
         25    1    1    2    0    0 -0.24324094603E+02  0.53624946563E+02  0.17624359765E+02  0.13482549658E+03  0.12000000000E+03 0.  0.
<mgrwt>
<rscale>  0 0.26901489E+03</rscale>
<asrwt>0</asrwt>
<pdfrwt beam="1">  1        2 0.20293853E-01 0.26901489E+03</pdfrwt>
<pdfrwt beam="2">  1       -2 0.21100921E-01 0.26901489E+03</pdfrwt>
<totfact> 0.51877854E+03</totfact>
</mgrwt>
</event>
<event>
 4    1  0.1733772E-004  0.2555164E+03  0.7818608E-02  0.1109867E+00
         -2   -1    0    0    0  501 -0.00000000000E+00  0.00000000000E+00  0.61698728062E+02  0.61698728062E+02  0.00000000000E+00 0.  1.
          2   -1    0    0  501    0  0.00000000000E+00 -0.00000000000E+00 -0.26454601181E+03  0.26454601181E+03  0.00000000000E+00 0.  1.
         25    1    1    2    0    0 -0.33079093662E+02  0.25731071023E+02 -0.11786610282E+03  0.17334570271E+03  0.12000000000E+03 0.  0.
         25    1    1    2    0    0  0.33079093662E+02 -0.25731071023E+02 -0.84981180930E+02  0.15289903716E+03  0.12000000000E+03 0.  0.
<mgrwt>
<rscale>  0 0.25551636E+03</rscale>
<asrwt>0</asrwt>
<pdfrwt beam="1">  1        2 0.40699386E-01 0.25551636E+03</pdfrwt>
<pdfrwt beam="2">  1       -2 0.94921121E-02 0.25551636E+03</pdfrwt>
<totfact> 0.89300077E+03</totfact>
</mgrwt>
</event>
<event>
 4    1  0.1733772E-004  0.2540693E+03  0.7818608E-02  0.1110760E+00
         -2   -1    0    0    0  501 -0.00000000000E+00  0.00000000000E+00  0.21335418363E+02  0.21335418363E+02  0.00000000000E+00 0. -1.
          2   -1    0    0  501    0  0.00000000000E+00 -0.00000000000E+00 -0.75638556600E+03  0.75638556600E+03  0.00000000000E+00 0. -1.
         25    1    1    2    0    0  0.27720256456E+02 -0.20819422413E+02 -0.29666031258E+03  0.32188383313E+03  0.12000000000E+03 0.  0.
         25    1    1    2    0    0 -0.27720256456E+02  0.20819422413E+02 -0.43838983505E+03  0.45583715123E+03  0.12000000000E+03 0.  0.
<mgrwt>
<rscale>  0 0.25406930E+03</rscale>
<asrwt>0</asrwt>
<pdfrwt beam="1">  1        2 0.11636699E+00 0.25406930E+03</pdfrwt>
<pdfrwt beam="2">  1       -2 0.32823726E-02 0.25406930E+03</pdfrwt>
<totfact> 0.13987367E+04</totfact>
</mgrwt>
</event>
<event>
 4    1  0.1733772E-004  0.4699876E+03  0.7818608E-02  0.1021924E+00
          2   -1    0    0  501    0  0.00000000000E+00  0.00000000000E+00  0.18884919970E+03  0.18884919970E+03  0.00000000000E+00 0. -1.
         -2   -1    0    0    0  501 -0.00000000000E+00 -0.00000000000E+00 -0.29241370734E+03  0.29241370734E+03  0.00000000000E+00 0. -1.
         25    1    1    2    0    0  0.22683782934E+02  0.11209883982E+03  0.11877102426E+03  0.20392954690E+03  0.12000000000E+03 0.  0.
         25    1    1    2    0    0 -0.22683782934E+02 -0.11209883982E+03 -0.22233553190E+03  0.27733336013E+03  0.12000000000E+03 0.  0.
<mgrwt>
<rscale>  0 0.46998764E+03</rscale>
<asrwt>0</asrwt>
<pdfrwt beam="1">  1        2 0.29053723E-01 0.46998764E+03</pdfrwt>
<pdfrwt beam="2">  1       -2 0.44986724E-01 0.46998764E+03</pdfrwt>
<totfact> 0.86725140E+02</totfact>
</mgrwt>
</event>
<event>
 4    1  0.1733772E-004  0.2830793E+03  0.7818608E-02  0.1094019E+00
         -2   -1    0    0    0  501 -0.00000000000E+00  0.00000000000E+00  0.27343041940E+03  0.27343041940E+03  0.00000000000E+00 0. -1.
          2   -1    0    0  501    0  0.00000000000E+00 -0.00000000000E+00 -0.73267147800E+02  0.73267147800E+02  0.00000000000E+00 0. -1.
         25    1    1    2    0    0  0.46555969219E+02 -0.14861273970E+02  0.16985026834E+03  0.21362918665E+03  0.12000000000E+03 0.  0.
         25    1    1    2    0    0 -0.46555969219E+02  0.14861273970E+02  0.30313003252E+02  0.13306838054E+03  0.12000000000E+03 0.  0.
<mgrwt>
<rscale>  0 0.28307926E+03</rscale>
<asrwt>0</asrwt>
<pdfrwt beam="1">  1        2 0.11271869E-01 0.28307926E+03</pdfrwt>
<pdfrwt beam="2">  1       -2 0.42066218E-01 0.28307926E+03</pdfrwt>
<totfact> 0.29750767E+03</totfact>
</mgrwt>
</event>
<event>
 4    1  0.1733772E-004  0.2441099E+03  0.7818608E-02  0.1117085E+00
         -1   -1    0    0    0  501 -0.00000000000E+00  0.00000000000E+00  0.13928804723E+03  0.13928804723E+03  0.00000000000E+00 0. -1.
          1   -1    0    0  501    0  0.00000000000E+00 -0.00000000000E+00 -0.10695396921E+03  0.10695396921E+03  0.00000000000E+00 0. -1.
         25    1    1    2    0    0  0.17016991482E+02 -0.12088385614E+02  0.82433396827E+01  0.12208054601E+03  0.12000000000E+03 0.  0.
         25    1    1    2    0    0 -0.17016991482E+02  0.12088385614E+02  0.24090738331E+02  0.12416147043E+03  0.12000000000E+03 0.  0.
<mgrwt>
<rscale>  0 0.24410989E+03</rscale>
<asrwt>0</asrwt>
<pdfrwt beam="1">  1        1 0.16454457E-01 0.24410989E+03</pdfrwt>
<pdfrwt beam="2">  1       -1 0.21428930E-01 0.24410989E+03</pdfrwt>
<totfact> 0.58518727E+03</totfact>
</mgrwt>
</event>
<event>
 4    1  0.1733772E-004  0.3301386E+03  0.7818608E-02  0.1071076E+00
         -2   -1    0    0    0  501 -0.00000000000E+00  0.00000000000E+00  0.27059604746E+02  0.27059604746E+02  0.00000000000E+00 0.  1.
          2   -1    0    0  501    0  0.00000000000E+00 -0.00000000000E+00 -0.10069572862E+04  0.10069572862E+04  0.00000000000E+00 0.  1.
         25    1    1    2    0    0 -0.46742391219E+02 -0.82616315142E+00 -0.81336186027E+03  0.82349441372E+03  0.12000000000E+03 0.  0.
         25    1    1    2    0    0  0.46742391219E+02  0.82616315142E+00 -0.16653582120E+03  0.21052247725E+03  0.12000000000E+03 0.  0.
<mgrwt>
<rscale>  0 0.33013855E+03</rscale>
<asrwt>0</asrwt>
<pdfrwt beam="1">  1        2 0.15491649E+00 0.33013855E+03</pdfrwt>
<pdfrwt beam="2">  1       -2 0.41630166E-02 0.33013855E+03</pdfrwt>
<totfact> 0.67482475E+03</totfact>
</mgrwt>
</event>
<event>
 4    1  0.1733772E-004  0.2798444E+03  0.7818608E-02  0.1095774E+00
         -2   -1    0    0    0  501 -0.00000000000E+00  0.00000000000E+00  0.39995162188E+02  0.39995162188E+02  0.00000000000E+00 0.  1.
          2   -1    0    0  501    0  0.00000000000E+00 -0.00000000000E+00 -0.48951458380E+03  0.48951458380E+03  0.00000000000E+00 0.  1.
         25    1    1    2    0    0 -0.69962951765E+02 -0.10701348391E+02 -0.20017026709E+03  0.24388003056E+03  0.12000000000E+03 0.  0.
         25    1    1    2    0    0  0.69962951765E+02  0.10701348391E+02 -0.24934915452E+03  0.28562971543E+03  0.12000000000E+03 0.  0.
<mgrwt>
<rscale>  0 0.27984435E+03</rscale>
<asrwt>0</asrwt>
<pdfrwt beam="1">  1        2 0.75309934E-01 0.27984435E+03</pdfrwt>
<pdfrwt beam="2">  1       -2 0.61531020E-02 0.27984435E+03</pdfrwt>
<totfact> 0.90323748E+03</totfact>
</mgrwt>
</event>
<event>
 4    1  0.1733772E-004  0.3486055E+03  0.7818608E-02  0.1063189E+00
         -2   -1    0    0    0  501 -0.00000000000E+00  0.00000000000E+00  0.28695452264E+02  0.28695452264E+02  0.00000000000E+00 0. -1.
          2   -1    0    0  501    0  0.00000000000E+00 -0.00000000000E+00 -0.10587546496E+04  0.10587546496E+04  0.00000000000E+00 0. -1.
         25    1    1    2    0    0  0.46135277004E+02 -0.11365030274E+03 -0.61049577526E+03  0.63415293637E+03  0.12000000000E+03 0.  0.
         25    1    1    2    0    0 -0.46135277004E+02  0.11365030274E+03 -0.41956342204E+03  0.45329716545E+03  0.12000000000E+03 0.  0.
<mgrwt>
<rscale>  0 0.34860547E+03</rscale>
<asrwt>0</asrwt>
<pdfrwt beam="1">  1        2 0.16288532E+00 0.34860547E+03</pdfrwt>
<pdfrwt beam="2">  1       -2 0.44146852E-02 0.34860547E+03</pdfrwt>
<totfact> 0.57454742E+03</totfact>
</mgrwt>
</event>
<event>
 4    1  0.1733772E-004  0.2437126E+03  0.7818608E-02  0.1117344E+00
          1   -1    0    0  501    0  0.00000000000E+00  0.00000000000E+00  0.35751826289E+03  0.35751826289E+03  0.00000000000E+00 0.  1.
         -1   -1    0    0    0  501 -0.00000000000E+00 -0.00000000000E+00 -0.41533434927E+02  0.41533434927E+02  0.00000000000E+00 0.  1.
         25    1    1    2    0    0  0.12610103416E+02  0.80981733091E+01  0.18251860040E+03  0.21894664786E+03  0.12000000000E+03 0.  0.
         25    1    1    2    0    0 -0.12610103416E+02 -0.80981733091E+01  0.13346622757E+03  0.18010504996E+03  0.12000000000E+03 0.  0.
<mgrwt>
<rscale>  0 0.24371263E+03</rscale>
<asrwt>0</asrwt>
<pdfrwt beam="1">  1        1 0.55002808E-01 0.24371263E+03</pdfrwt>
<pdfrwt beam="2">  1       -1 0.63897595E-02 0.24371263E+03</pdfrwt>
<totfact> 0.83892535E+03</totfact>
</mgrwt>
</event>
<event>
 4    1  0.1733772E-004  0.2527429E+03  0.7818608E-02  0.1111584E+00
         -2   -1    0    0    0  501 -0.00000000000E+00  0.00000000000E+00  0.12349609615E+02  0.12349609615E+02  0.00000000000E+00 0.  1.
          2   -1    0    0  501    0  0.00000000000E+00 -0.00000000000E+00 -0.12931379844E+04  0.12931379844E+04  0.00000000000E+00 0.  1.
         25    1    1    2    0    0  0.40818760830E+01  0.27867140489E+02 -0.49645891104E+03  0.51153170926E+03  0.12000000000E+03 0.  0.
         25    1    1    2    0    0 -0.40818760830E+01 -0.27867140489E+02 -0.78432946378E+03  0.79395588479E+03  0.12000000000E+03 0.  0.
<mgrwt>
<rscale>  0 0.25274295E+03</rscale>
<asrwt>0</asrwt>
<pdfrwt beam="1">  1        2 0.19894426E+00 0.25274295E+03</pdfrwt>
<pdfrwt beam="2">  1       -2 0.18999403E-02 0.25274295E+03</pdfrwt>
<totfact> 0.14699080E+04</totfact>
</mgrwt>
</event>
<event>
 4    1  0.1733772E-004  0.2562450E+03  0.7818608E-02  0.1109421E+00
         -4   -1    0    0    0  501 -0.00000000000E+00  0.00000000000E+00  0.64034133705E+03  0.64034133705E+03  0.00000000000E+00 0. -1.
          4   -1    0    0  501    0  0.00000000000E+00 -0.00000000000E+00 -0.25635348711E+02  0.25635348711E+02  0.00000000000E+00 0. -1.
         25    1    1    2    0    0  0.13211229532E+01  0.24090050170E+02  0.40574772250E+03  0.42380808180E+03  0.12000000000E+03 0.  0.
         25    1    1    2    0    0 -0.13211229532E+01 -0.24090050170E+02  0.20895826584E+03  0.24216860396E+03  0.12000000000E+03 0.  0.
<mgrwt>
<rscale>  0 0.25624499E+03</rscale>
<asrwt>0</asrwt>
<pdfrwt beam="1">  1        4 0.39439003E-02 0.25624499E+03</pdfrwt>
<pdfrwt beam="2">  1       -4 0.98514040E-01 0.25624499E+03</pdfrwt>
<totfact> 0.57393699E+02</totfact>
</mgrwt>
</event>
<event>
 4    1  0.1733772E-004  0.2549784E+03  0.7818608E-02  0.1110198E+00
         -1   -1    0    0    0  501 -0.00000000000E+00  0.00000000000E+00  0.27279573228E+02  0.27279573228E+02  0.00000000000E+00 0.  1.
          1   -1    0    0  501    0  0.00000000000E+00 -0.00000000000E+00 -0.59581189649E+03  0.59581189649E+03  0.00000000000E+00 0.  1.
         25    1    1    2    0    0  0.39540364908E+02 -0.16339427144E+02 -0.29600533182E+03  0.32225699961E+03  0.12000000000E+03 0.  0.
         25    1    1    2    0    0 -0.39540364908E+02  0.16339427144E+02 -0.27252699145E+03  0.30083447011E+03  0.12000000000E+03 0.  0.
<mgrwt>
<rscale>  0 0.25497839E+03</rscale>
<asrwt>0</asrwt>
<pdfrwt beam="1">  1        1 0.91663378E-01 0.25497839E+03</pdfrwt>
<pdfrwt beam="2">  1       -1 0.41968570E-02 0.25497839E+03</pdfrwt>
<totfact> 0.80698441E+03</totfact>
</mgrwt>
</event>
<event>
 4    1  0.1733772E-004  0.2811112E+03  0.7818608E-02  0.1095084E+00
         -1   -1    0    0    0  501 -0.00000000000E+00  0.00000000000E+00  0.46255302538E+02  0.46255302538E+02  0.00000000000E+00 0. -1.
          1   -1    0    0  501    0  0.00000000000E+00 -0.00000000000E+00 -0.42710512517E+03  0.42710512517E+03  0.00000000000E+00 0. -1.
         25    1    1    2    0    0 -0.22485482956E+02  0.67852892735E+02 -0.21684990881E+03  0.25794087491E+03  0.12000000000E+03 0.  0.
         25    1    1    2    0    0  0.22485482956E+02 -0.67852892735E+02 -0.16399991382E+03  0.21541955280E+03  0.12000000000E+03 0.  0.
<mgrwt>
<rscale>  0 0.28111120E+03</rscale>
<asrwt>0</asrwt>
<pdfrwt beam="1">  1        1 0.65708479E-01 0.28111120E+03</pdfrwt>
<pdfrwt beam="2">  1       -1 0.71162006E-02 0.28111120E+03</pdfrwt>
<totfact> 0.57066411E+03</totfact>
</mgrwt>
</event>
<event>
 4    1  0.1733772E-004  0.2519464E+03  0.7818608E-02  0.1112081E+00
          2   -1    0    0  501    0  0.00000000000E+00  0.00000000000E+00  0.45065489192E+03  0.45065489192E+03  0.00000000000E+00 0.  1.
         -2   -1    0    0    0  501 -0.00000000000E+00 -0.00000000000E+00 -0.35213760324E+02  0.35213760324E+02  0.00000000000E+00 0.  1.
         25    1    1    2    0    0  0.33625083152E+02  0.19006819898E+01  0.24301689197E+03  0.27311438737E+03  0.12000000000E+03 0.  0.
         25    1    1    2    0    0 -0.33625083152E+02 -0.19006819898E+01  0.17242423963E+03  0.21275426487E+03  0.12000000000E+03 0.  0.
<mgrwt>
<rscale>  0 0.25194645E+03</rscale>
<asrwt>0</asrwt>
<pdfrwt beam="1">  1        2 0.69331518E-01 0.25194645E+03</pdfrwt>
<pdfrwt beam="2">  1       -2 0.54175019E-02 0.25194645E+03</pdfrwt>
<totfact> 0.11974470E+04</totfact>
</mgrwt>
</event>
<event>
 4    1  0.1733772E-004  0.3660331E+03  0.7818608E-02  0.1056220E+00
         -2   -1    0    0    0  501 -0.00000000000E+00  0.00000000000E+00  0.92754269829E+01  0.92754269829E+01  0.00000000000E+00 0.  1.
          2   -1    0    0  501    0  0.00000000000E+00 -0.00000000000E+00 -0.36111605980E+04  0.36111605980E+04  0.00000000000E+00 0.  1.
         25    1    1    2    0    0  0.13786330761E+03  0.91352297484E+01 -0.17781450641E+04  0.17875373039E+04  0.12000000000E+03 0.  0.
         25    1    1    2    0    0 -0.13786330761E+03 -0.91352297484E+01 -0.18237401069E+04  0.18328987210E+04  0.12000000000E+03 0.  0.
<mgrwt>
<rscale>  0 0.36603309E+03</rscale>
<asrwt>0</asrwt>
<pdfrwt beam="1">  1        2 0.55556293E+00 0.36603309E+03</pdfrwt>
<pdfrwt beam="2">  1       -2 0.14269894E-02 0.36603309E+03</pdfrwt>
<totfact> 0.10655385E+03</totfact>
</mgrwt>
</event>
<event>
 4    1  0.1733772E-004  0.3342912E+03  0.7818608E-02  0.1069254E+00
          1   -1    0    0  501    0  0.00000000000E+00  0.00000000000E+00  0.12011820232E+04  0.12011820232E+04  0.00000000000E+00 0. -1.
         -1   -1    0    0    0  501 -0.00000000000E+00 -0.00000000000E+00 -0.23258467464E+02  0.23258467464E+02  0.00000000000E+00 0. -1.
         25    1    1    2    0    0 -0.47189335190E+02  0.94110814332E+02  0.40751563923E+03  0.43766731080E+03  0.12000000000E+03 0.  0.
         25    1    1    2    0    0  0.47189335190E+02 -0.94110814332E+02  0.77040791649E+03  0.78677317984E+03  0.12000000000E+03 0.  0.
<mgrwt>
<rscale>  0 0.33429121E+03</rscale>
<asrwt>0</asrwt>
<pdfrwt beam="1">  1        1 0.18479719E+00 0.33429121E+03</pdfrwt>
<pdfrwt beam="2">  1       -1 0.35782267E-02 0.33429121E+03</pdfrwt>
<totfact> 0.33255821E+03</totfact>
</mgrwt>
</event>
<event>
 4    1  0.1733772E-004  0.3074528E+03  0.7818608E-02  0.1081573E+00
         -1   -1    0    0    0  501 -0.00000000000E+00  0.00000000000E+00  0.74176721129E+02  0.74176721129E+02  0.00000000000E+00 0.  1.
          1   -1    0    0  501    0  0.00000000000E+00 -0.00000000000E+00 -0.31858780674E+03  0.31858780674E+03  0.00000000000E+00 0.  1.
         25    1    1    2    0    0  0.79842258580E+02  0.42275851027E+02 -0.80422691254E+02  0.17038146350E+03  0.12000000000E+03 0.  0.
         25    1    1    2    0    0 -0.79842258580E+02 -0.42275851027E+02 -0.16398839435E+03  0.22238306437E+03  0.12000000000E+03 0.  0.
<mgrwt>
<rscale>  0 0.30745275E+03</rscale>
<asrwt>0</asrwt>
<pdfrwt beam="1">  1        1 0.49013508E-01 0.30745275E+03</pdfrwt>
<pdfrwt beam="2">  1       -1 0.11411803E-01 0.30745275E+03</pdfrwt>
<totfact> 0.40191095E+03</totfact>
</mgrwt>
</event>
<event>
 4    1  0.1733772E-004  0.2738164E+03  0.7818608E-02  0.1099115E+00
         -3   -1    0    0    0  501 -0.00000000000E+00  0.00000000000E+00  0.20378689835E+02  0.20378689835E+02  0.00000000000E+00 0. -1.
          3   -1    0    0  501    0  0.00000000000E+00 -0.00000000000E+00 -0.91977716011E+03  0.91977716011E+03  0.00000000000E+00 0. -1.
         25    1    1    2    0    0  0.22739981624E+02 -0.39009501135E+02 -0.61454447156E+03  0.62777683572E+03  0.12000000000E+03 0.  0.
         25    1    1    2    0    0 -0.22739981624E+02  0.39009501135E+02 -0.28485399871E+03  0.31237901422E+03  0.12000000000E+03 0.  0.
<mgrwt>
<rscale>  0 0.27381639E+03</rscale>
<asrwt>0</asrwt>
<pdfrwt beam="1">  1        3 0.14150417E+00 0.27381639E+03</pdfrwt>
<pdfrwt beam="2">  1       -3 0.31351833E-02 0.27381639E+03</pdfrwt>
<totfact> 0.47889292E+02</totfact>
</mgrwt>
</event>
<event>
 4    1  0.1733772E-004  0.2680935E+03  0.7818608E-02  0.1102376E+00
          2   -1    0    0  501    0  0.00000000000E+00  0.00000000000E+00  0.19379028680E+04  0.19379028680E+04  0.00000000000E+00 0. -1.
         -2   -1    0    0    0  501 -0.00000000000E+00 -0.00000000000E+00 -0.92721553242E+01  0.92721553242E+01  0.00000000000E+00 0. -1.
         25    1    1    2    0    0  0.59960902687E+01 -0.17579028269E+02  0.13766849106E+04  0.13820297820E+04  0.12000000000E+03 0.  0.
         25    1    1    2    0    0 -0.59960902687E+01  0.17579028269E+02  0.55194580210E+03  0.56514524133E+03  0.12000000000E+03 0.  0.
<mgrwt>
<rscale>  0 0.26809354E+03</rscale>
<asrwt>0</asrwt>
<pdfrwt beam="1">  1        2 0.29813858E+00 0.26809354E+03</pdfrwt>
<pdfrwt beam="2">  1       -2 0.14264870E-02 0.26809354E+03</pdfrwt>
<totfact> 0.10167035E+04</totfact>
</mgrwt>
</event>
<event>
 4    1  0.1733772E-004  0.2560453E+03  0.7818608E-02  0.1109543E+00
          2   -1    0    0  501    0  0.00000000000E+00  0.00000000000E+00  0.14925600649E+04  0.14925600649E+04  0.00000000000E+00 0. -1.
         -2   -1    0    0    0  501 -0.00000000000E+00 -0.00000000000E+00 -0.10980998010E+02  0.10980998010E+02  0.00000000000E+00 0. -1.
         25    1    1    2    0    0  0.41286039613E+02  0.47843755054E+01  0.64567277336E+03  0.65804312744E+03  0.12000000000E+03 0.  0.
         25    1    1    2    0    0 -0.41286039613E+02 -0.47843755054E+01  0.83590629348E+03  0.84549793542E+03  0.12000000000E+03 0.  0.
<mgrwt>
<rscale>  0 0.25604530E+03</rscale>
<asrwt>0</asrwt>
<pdfrwt beam="1">  1        2 0.22962446E+00 0.25604530E+03</pdfrwt>
<pdfrwt beam="2">  1       -2 0.16893855E-02 0.25604530E+03</pdfrwt>
<totfact> 0.13613567E+04</totfact>
</mgrwt>
</event>
<event>
 4    1  0.1733772E-004  0.2499795E+03  0.7818608E-02  0.1113318E+00
          2   -1    0    0  501    0  0.00000000000E+00  0.00000000000E+00  0.51974460189E+03  0.51974460189E+03  0.00000000000E+00 0.  1.
         -2   -1    0    0    0  501 -0.00000000000E+00 -0.00000000000E+00 -0.30057910261E+02  0.30057910261E+02  0.00000000000E+00 0.  1.
         25    1    1    2    0    0 -0.13631310127E+02  0.29312252279E+02  0.27413868633E+03  0.30099342201E+03  0.12000000000E+03 0.  0.
         25    1    1    2    0    0  0.13631310127E+02 -0.29312252279E+02  0.21554800529E+03  0.24880909014E+03  0.12000000000E+03 0.  0.
<mgrwt>
<rscale>  0 0.24997949E+03</rscale>
<asrwt>0</asrwt>
<pdfrwt beam="1">  1        2 0.79960701E-01 0.24997949E+03</pdfrwt>
<pdfrwt beam="2">  1       -2 0.46242943E-02 0.24997949E+03</pdfrwt>
<totfact> 0.12990339E+04</totfact>
</mgrwt>
</event>
<event>
 4    1  0.1733772E-004  0.2899583E+03  0.7818608E-02  0.1090371E+00
         -2   -1    0    0    0  501 -0.00000000000E+00  0.00000000000E+00  0.22434952934E+02  0.22434952934E+02  0.00000000000E+00 0.  1.
          2   -1    0    0  501    0  0.00000000000E+00 -0.00000000000E+00 -0.93688432124E+03  0.93688432124E+03  0.00000000000E+00 0.  1.
         25    1    1    2    0    0  0.11137101785E+02 -0.60354714410E+02 -0.28053149556E+03  0.31123085738E+03  0.12000000000E+03 0.  0.
         25    1    1    2    0    0 -0.11137101785E+02  0.60354714410E+02 -0.63391787275E+03  0.64808841679E+03  0.12000000000E+03 0.  0.
<mgrwt>
<rscale>  0 0.28995831E+03</rscale>
<asrwt>0</asrwt>
<pdfrwt beam="1">  1        2 0.14413604E+00 0.28995831E+03</pdfrwt>
<pdfrwt beam="2">  1       -2 0.34515314E-02 0.28995831E+03</pdfrwt>
<totfact> 0.98678643E+03</totfact>
</mgrwt>
</event>
<event>
 4    1  0.1733772E-004  0.2679451E+03  0.7818608E-02  0.1102461E+00
          4   -1    0    0  501    0  0.00000000000E+00  0.00000000000E+00  0.56233850260E+03  0.56233850260E+03  0.00000000000E+00 0.  1.
         -4   -1    0    0    0  501 -0.00000000000E+00 -0.00000000000E+00 -0.31917875161E+02  0.31917875161E+02  0.00000000000E+00 0.  1.
         25    1    1    2    0    0  0.27437984097E+02  0.15352277431E+02  0.15299356695E+03  0.19696590295E+03  0.12000000000E+03 0.  0.
         25    1    1    2    0    0 -0.27437984097E+02 -0.15352277431E+02  0.37742706049E+03  0.39729047482E+03  0.12000000000E+03 0.  0.
<mgrwt>
<rscale>  0 0.26794514E+03</rscale>
<asrwt>0</asrwt>
<pdfrwt beam="1">  1        4 0.86513609E-01 0.26794514E+03</pdfrwt>
<pdfrwt beam="2">  1       -4 0.49104427E-02 0.26794514E+03</pdfrwt>
<totfact> 0.54689166E+02</totfact>
</mgrwt>
</event>
<event>
 4    1  0.1733772E-004  0.2819749E+03  0.7818608E-02  0.1094615E+00
         -1   -1    0    0    0  501 -0.00000000000E+00  0.00000000000E+00  0.55732953256E+02  0.55732953256E+02  0.00000000000E+00 0.  1.
          1   -1    0    0  501    0  0.00000000000E+00 -0.00000000000E+00 -0.35665532908E+03  0.35665532908E+03  0.00000000000E+00 0.  1.
         25    1    1    2    0    0 -0.12102695957E+02 -0.23317734119E+02 -0.49270728211E+02  0.13235481341E+03  0.12000000000E+03 0.  0.
         25    1    1    2    0    0  0.12102695957E+02  0.23317734119E+02 -0.25165164762E+03  0.28003346893E+03  0.12000000000E+03 0.  0.
<mgrwt>
<rscale>  0 0.28197486E+03</rscale>
<asrwt>0</asrwt>
<pdfrwt beam="1">  1        1 0.54870051E-01 0.28197486E+03</pdfrwt>
<pdfrwt beam="2">  1       -1 0.85743004E-02 0.28197486E+03</pdfrwt>
<totfact> 0.54092283E+03</totfact>
</mgrwt>
</event>
<event>
 4    1  0.1733772E-004  0.3836340E+03  0.7818608E-02  0.1049599E+00
          2   -1    0    0  501    0  0.00000000000E+00  0.00000000000E+00  0.43643536991E+03  0.43643536991E+03  0.00000000000E+00 0.  1.
         -2   -1    0    0    0  501 -0.00000000000E+00 -0.00000000000E+00 -0.84305194225E+02  0.84305194225E+02  0.00000000000E+00 0.  1.
         25    1    1    2    0    0 -0.11532630112E+03  0.94829980105E+02  0.18969909560E+03  0.26958973966E+03  0.12000000000E+03 0.  0.
         25    1    1    2    0    0  0.11532630112E+03 -0.94829980105E+02  0.16243108009E+03  0.25115082448E+03  0.12000000000E+03 0.  0.
<mgrwt>
<rscale>  0 0.38363404E+03</rscale>
<asrwt>0</asrwt>
<pdfrwt beam="1">  1        2 0.67143902E-01 0.38363404E+03</pdfrwt>
<pdfrwt beam="2">  1       -2 0.12970030E-01 0.38363404E+03</pdfrwt>
<totfact> 0.31738441E+03</totfact>
</mgrwt>
</event>
<event>
 4    1  0.1733772E-004  0.3291749E+03  0.7818608E-02  0.1071503E+00
          2   -1    0    0  501    0  0.00000000000E+00  0.00000000000E+00  0.17120872043E+04  0.17120872043E+04  0.00000000000E+00 0. -1.
         -2   -1    0    0    0  501 -0.00000000000E+00 -0.00000000000E+00 -0.15822225293E+02  0.15822225293E+02  0.00000000000E+00 0. -1.
         25    1    1    2    0    0 -0.49623458917E+02  0.61252735125E+02  0.12705113859E+04  0.12785982821E+04  0.12000000000E+03 0.  0.
         25    1    1    2    0    0  0.49623458917E+02 -0.61252735125E+02  0.42575359307E+03  0.44931114748E+03  0.12000000000E+03 0.  0.
<mgrwt>
<rscale>  0 0.32917490E+03</rscale>
<asrwt>0</asrwt>
<pdfrwt beam="1">  1        2 0.26339788E+00 0.32917490E+03</pdfrwt>
<pdfrwt beam="2">  1       -2 0.24341899E-02 0.32917490E+03</pdfrwt>
<totfact> 0.60957830E+03</totfact>
</mgrwt>
</event>
<event>
 4    1  0.1733772E-004  0.2474429E+03  0.7818608E-02  0.1114932E+00
         -1   -1    0    0    0  501 -0.00000000000E+00  0.00000000000E+00  0.80912695969E+02  0.80912695969E+02  0.00000000000E+00 0. -1.
          1   -1    0    0  501    0  0.00000000000E+00 -0.00000000000E+00 -0.18917921838E+03  0.18917921838E+03  0.00000000000E+00 0. -1.
         25    1    1    2    0    0 -0.16821145295E+02 -0.20285453002E+01 -0.26955761770E+02  0.12415183856E+03  0.12000000000E+03 0.  0.
         25    1    1    2    0    0  0.16821145295E+02  0.20285453002E+01 -0.81310760638E+02  0.14594007579E+03  0.12000000000E+03 0.  0.
<mgrwt>
<rscale>  0 0.24744293E+03</rscale>
<asrwt>0</asrwt>
<pdfrwt beam="1">  1        1 0.29104495E-01 0.24744293E+03</pdfrwt>
<pdfrwt beam="2">  1       -1 0.12448107E-01 0.24744293E+03</pdfrwt>
<totfact> 0.67127025E+03</totfact>
</mgrwt>
</event>
<event>
 4    1  0.1733772E-004  0.2652657E+03  0.7818608E-02  0.1104020E+00
          2   -1    0    0  501    0  0.00000000000E+00  0.00000000000E+00  0.76134473827E+03  0.76134473827E+03  0.00000000000E+00 0.  1.
         -2   -1    0    0    0  501 -0.00000000000E+00 -0.00000000000E+00 -0.23105799820E+02  0.23105799820E+02  0.00000000000E+00 0.  1.
         25    1    1    2    0    0  0.48929336821E+02  0.17011902406E+01  0.28576426370E+03  0.31378047814E+03  0.12000000000E+03 0.  0.
         25    1    1    2    0    0 -0.48929336821E+02 -0.17011902406E+01  0.45247467475E+03  0.47067005996E+03  0.12000000000E+03 0.  0.
<mgrwt>
<rscale>  0 0.26526575E+03</rscale>
<asrwt>0</asrwt>
<pdfrwt beam="1">  1        2 0.11712994E+00 0.26526575E+03</pdfrwt>
<pdfrwt beam="2">  1       -2 0.35547390E-02 0.26526575E+03</pdfrwt>
<totfact> 0.12338640E+04</totfact>
</mgrwt>
</event>
<event>
 4    1  0.1733772E-004  0.2711316E+03  0.7818608E-02  0.1100634E+00
          3   -1    0    0  501    0  0.00000000000E+00  0.00000000000E+00  0.55883886248E+03  0.55883886248E+03  0.00000000000E+00 0.  1.
         -3   -1    0    0    0  501 -0.00000000000E+00 -0.00000000000E+00 -0.32886208398E+02  0.32886208398E+02  0.00000000000E+00 0.  1.
         25    1    1    2    0    0 -0.22021711383E+01  0.23616506455E+02  0.39052239282E+03  0.40923138715E+03  0.12000000000E+03 0.  0.
         25    1    1    2    0    0  0.22021711383E+01 -0.23616506455E+02  0.13543026126E+03  0.18249368372E+03  0.12000000000E+03 0.  0.
<mgrwt>
<rscale>  0 0.27113164E+03</rscale>
<asrwt>0</asrwt>
<pdfrwt beam="1">  1        3 0.85975203E-01 0.27113164E+03</pdfrwt>
<pdfrwt beam="2">  1       -3 0.50594171E-02 0.27113164E+03</pdfrwt>
<totfact> 0.72274056E+02</totfact>
</mgrwt>
</event>
<event>
 4    1  0.1733772E-004  0.3427305E+03  0.7818608E-02  0.1065639E+00
          3   -1    0    0  501    0  0.00000000000E+00  0.00000000000E+00  0.15662580996E+04  0.15662580996E+04  0.00000000000E+00 0.  1.
         -3   -1    0    0    0  501 -0.00000000000E+00 -0.00000000000E+00 -0.18749172036E+02  0.18749172036E+02  0.00000000000E+00 0.  1.
         25    1    1    2    0    0 -0.55668632923E+02 -0.79877431135E+02  0.11163106840E+04  0.11269556086E+04  0.12000000000E+03 0.  0.
         25    1    1    2    0    0  0.55668632923E+02  0.79877431135E+02  0.43119824358E+03  0.45805166298E+03  0.12000000000E+03 0.  0.
<mgrwt>
<rscale>  0 0.34273046E+03</rscale>
<asrwt>0</asrwt>
<pdfrwt beam="1">  1        3 0.24096268E+00 0.34273046E+03</pdfrwt>
<pdfrwt beam="2">  1       -3 0.28844892E-02 0.34273046E+03</pdfrwt>
<totfact> 0.12841794E+02</totfact>
</mgrwt>
</event>
<event>
 4    1  0.1733772E-004  0.1585607E+04  0.7818608E-02  0.8829439E-01
          2   -1    0    0  501    0  0.00000000000E+00  0.00000000000E+00  0.13009024747E+04  0.13009024747E+04  0.00000000000E+00 0.  1.
         -2   -1    0    0    0  501 -0.00000000000E+00 -0.00000000000E+00 -0.48315479888E+03  0.48315479888E+03  0.00000000000E+00 0.  1.
         25    1    1    2    0    0  0.34014183706E+03 -0.70594891852E+03  0.39900519553E+03  0.88750520614E+03  0.12000000000E+03 0.  0.
         25    1    1    2    0    0 -0.34014183706E+03  0.70594891852E+03  0.41874248034E+03  0.89655206749E+03  0.12000000000E+03 0.  0.
<mgrwt>
<rscale>  0 0.15856069E+04</rscale>
<asrwt>0</asrwt>
<pdfrwt beam="1">  1        2 0.20013884E+00 0.15856069E+04</pdfrwt>
<pdfrwt beam="2">  1       -2 0.74331508E-01 0.15856069E+04</pdfrwt>
<totfact> 0.25819211E+01</totfact>
</mgrwt>
</event>
<event>
 4    1  0.1733772E-004  0.2921871E+03  0.7818608E-02  0.1089213E+00
          3   -1    0    0  501    0  0.00000000000E+00  0.00000000000E+00  0.23709272393E+04  0.23709272393E+04  0.00000000000E+00 0.  1.
         -3   -1    0    0    0  501 -0.00000000000E+00 -0.00000000000E+00 -0.90021001594E+01  0.90021001594E+01  0.00000000000E+00 0.  1.
         25    1    1    2    0    0 -0.51387788538E+02  0.65440909889E+02  0.12174864126E+04  0.12262122094E+04  0.12000000000E+03 0.  0.
         25    1    1    2    0    0  0.51387788538E+02 -0.65440909889E+02  0.11444387265E+04  0.11537171301E+04  0.12000000000E+03 0.  0.
<mgrwt>
<rscale>  0 0.29218709E+03</rscale>
<asrwt>0</asrwt>
<pdfrwt beam="1">  1        3 0.36475754E+00 0.29218709E+03</pdfrwt>
<pdfrwt beam="2">  1       -3 0.13849404E-02 0.29218709E+03</pdfrwt>
<totfact> 0.86511165E+01</totfact>
</mgrwt>
</event>
<event>
 4    1  0.1733772E-004  0.2519456E+03  0.7818608E-02  0.1112081E+00
         -2   -1    0    0    0  501 -0.00000000000E+00  0.00000000000E+00  0.86614164453E+01  0.86614164453E+01  0.00000000000E+00 0.  1.
          2   -1    0    0  501    0  0.00000000000E+00 -0.00000000000E+00 -0.18321647811E+04  0.18321647811E+04  0.00000000000E+00 0.  1.
         25    1    1    2    0    0  0.68288611794E+01  0.12094486805E+02 -0.11727699577E+04  0.11789750988E+04  0.12000000000E+03 0.  0.
         25    1    1    2    0    0 -0.68288611794E+01 -0.12094486805E+02 -0.65073340698E+03  0.66185109875E+03  0.12000000000E+03 0.  0.
<mgrwt>
<rscale>  0 0.25194557E+03</rscale>
<asrwt>0</asrwt>
<pdfrwt beam="1">  1        2 0.28187208E+00 0.25194557E+03</pdfrwt>
<pdfrwt beam="2">  1       -2 0.13325229E-02 0.25194557E+03</pdfrwt>
<totfact> 0.12742754E+04</totfact>
</mgrwt>
</event>
<event>
 4    1  0.1733772E-004  0.3302034E+03  0.7818608E-02  0.1071047E+00
          1   -1    0    0  501    0  0.00000000000E+00  0.00000000000E+00  0.11552358492E+03  0.11552358492E+03  0.00000000000E+00 0. -1.
         -1   -1    0    0    0  501 -0.00000000000E+00 -0.00000000000E+00 -0.23595672026E+03  0.23595672026E+03  0.00000000000E+00 0. -1.
         25    1    1    2    0    0 -0.61086458297E+02 -0.47880018891E+02 -0.14821467537E+03  0.20589230581E+03  0.12000000000E+03 0.  0.
         25    1    1    2    0    0  0.61086458297E+02  0.47880018891E+02  0.27781540022E+02  0.14558799938E+03  0.12000000000E+03 0.  0.
<mgrwt>
<rscale>  0 0.33020337E+03</rscale>
<asrwt>0</asrwt>
<pdfrwt beam="1">  1        1 0.17772859E-01 0.33020337E+03</pdfrwt>
<pdfrwt beam="2">  1       -1 0.36301034E-01 0.33020337E+03</pdfrwt>
<totfact> 0.21903503E+03</totfact>
</mgrwt>
</event>
<event>
 4    1  0.1733772E-004  0.3290792E+03  0.7818608E-02  0.1071545E+00
          2   -1    0    0  501    0  0.00000000000E+00  0.00000000000E+00  0.58495415334E+03  0.58495415334E+03  0.00000000000E+00 0. -1.
         -2   -1    0    0    0  501 -0.00000000000E+00 -0.00000000000E+00 -0.46282742495E+02  0.46282742495E+02  0.00000000000E+00 0. -1.
         25    1    1    2    0    0 -0.35666757122E+02  0.87276695586E+02  0.38733087600E+03  0.41631063722E+03  0.12000000000E+03 0.  0.
         25    1    1    2    0    0  0.35666757122E+02 -0.87276695586E+02  0.15134053484E+03  0.21492625861E+03  0.12000000000E+03 0.  0.
<mgrwt>
<rscale>  0 0.32907922E+03</rscale>
<asrwt>0</asrwt>
<pdfrwt beam="1">  1        2 0.89992941E-01 0.32907922E+03</pdfrwt>
<pdfrwt beam="2">  1       -2 0.71204223E-02 0.32907922E+03</pdfrwt>
<totfact> 0.59126650E+03</totfact>
</mgrwt>
</event>
<event>
 4    1  0.1733772E-004  0.2907634E+03  0.7818608E-02  0.1089951E+00
         -1   -1    0    0    0  501 -0.00000000000E+00  0.00000000000E+00  0.40146292765E+03  0.40146292765E+03  0.00000000000E+00 0. -1.
          1   -1    0    0  501    0  0.00000000000E+00 -0.00000000000E+00 -0.52647067074E+02  0.52647067074E+02  0.00000000000E+00 0. -1.
         25    1    1    2    0    0 -0.30002829062E+02 -0.44406110535E+02  0.27148732668E+03  0.30162466901E+03  0.12000000000E+03 0.  0.
         25    1    1    2    0    0  0.30002829062E+02  0.44406110535E+02  0.77328533892E+02  0.15248532572E+03  0.12000000000E+03 0.  0.
<mgrwt>
<rscale>  0 0.29076345E+03</rscale>
<asrwt>0</asrwt>
<pdfrwt beam="1">  1        1 0.80995490E-02 0.29076345E+03</pdfrwt>
<pdfrwt beam="2">  1       -1 0.61763525E-01 0.29076345E+03</pdfrwt>
<totfact> 0.23466089E+03</totfact>
</mgrwt>
</event>
<event>
 4    1  0.1733772E-004  0.2587242E+03  0.7818608E-02  0.1107912E+00
          2   -1    0    0  501    0  0.00000000000E+00  0.00000000000E+00  0.10423697007E+04  0.10423697007E+04  0.00000000000E+00 0.  1.
         -2   -1    0    0    0  501 -0.00000000000E+00 -0.00000000000E+00 -0.16054341282E+02  0.16054341282E+02  0.00000000000E+00 0.  1.
         25    1    1    2    0    0  0.47405621327E+02  0.76664963529E+01  0.49132158220E+03  0.50803835016E+03  0.12000000000E+03 0.  0.
         25    1    1    2    0    0 -0.47405621327E+02 -0.76664963529E+01  0.53499377726E+03  0.55038569186E+03  0.12000000000E+03 0.  0.
<mgrwt>
<rscale>  0 0.25872425E+03</rscale>
<asrwt>0</asrwt>
<pdfrwt beam="1">  1        2 0.16036452E+00 0.25872425E+03</pdfrwt>
<pdfrwt beam="2">  1       -2 0.24698995E-02 0.25872425E+03</pdfrwt>
<totfact> 0.13924861E+04</totfact>
</mgrwt>
</event>
<event>
 4    1  0.1733772E-004  0.2910577E+03  0.7818608E-02  0.1089798E+00
          2   -1    0    0  501    0  0.00000000000E+00  0.00000000000E+00  0.21089426053E+04  0.21089426053E+04  0.00000000000E+00 0. -1.
         -2   -1    0    0    0  501 -0.00000000000E+00 -0.00000000000E+00 -0.10042302860E+02  0.10042302860E+02  0.00000000000E+00 0. -1.
         25    1    1    2    0    0  0.16670459627E+02  0.65819290566E+02  0.71042316939E+03  0.72367890866E+03  0.12000000000E+03 0.  0.
         25    1    1    2    0    0 -0.16670459627E+02 -0.65819290566E+02  0.13884771331E+04  0.13953059995E+04  0.12000000000E+03 0.  0.
<mgrwt>
<rscale>  0 0.29105766E+03</rscale>
<asrwt>0</asrwt>
<pdfrwt beam="1">  1        2 0.32445236E+00 0.29105766E+03</pdfrwt>
<pdfrwt beam="2">  1       -2 0.15449713E-02 0.29105766E+03</pdfrwt>
<totfact> 0.73556799E+03</totfact>
</mgrwt>
</event>
<event>
 4    1  0.1733772E-004  0.2761152E+03  0.7818608E-02  0.1097830E+00
          1   -1    0    0  501    0  0.00000000000E+00  0.00000000000E+00  0.18224088144E+04  0.18224088144E+04  0.00000000000E+00 0.  1.
         -1   -1    0    0    0  501 -0.00000000000E+00 -0.00000000000E+00 -0.10458632343E+02  0.10458632343E+02  0.00000000000E+00 0.  1.
         25    1    1    2    0    0 -0.12926378184E+02 -0.53539865870E+02  0.11736701844E+04  0.11810737954E+04  0.12000000000E+03 0.  0.
         25    1    1    2    0    0  0.12926378184E+02  0.53539865870E+02  0.63827999770E+03  0.65179365136E+03  0.12000000000E+03 0.  0.
<mgrwt>
<rscale>  0 0.27611522E+03</rscale>
<asrwt>0</asrwt>
<pdfrwt beam="1">  1        1 0.28037033E+00 0.27611522E+03</pdfrwt>
<pdfrwt beam="2">  1       -1 0.16090218E-02 0.27611522E+03</pdfrwt>
<totfact> 0.41461145E+03</totfact>
</mgrwt>
</event>
<event>
 4    1  0.1733772E-004  0.2592671E+03  0.7818608E-02  0.1107584E+00
          2   -1    0    0  501    0  0.00000000000E+00  0.00000000000E+00  0.65390206076E+03  0.65390206076E+03  0.00000000000E+00 0.  1.
         -2   -1    0    0    0  501 -0.00000000000E+00 -0.00000000000E+00 -0.25699351212E+02  0.25699351212E+02  0.00000000000E+00 0.  1.
         25    1    1    2    0    0  0.34769937482E+01 -0.19936354095E+01  0.44221525504E+03  0.45822526759E+03  0.12000000000E+03 0.  0.
         25    1    1    2    0    0 -0.34769937482E+01  0.19936354095E+01  0.18598745451E+03  0.22137614439E+03  0.12000000000E+03 0.  0.
<mgrwt>
<rscale>  0 0.25926711E+03</rscale>
<asrwt>0</asrwt>
<pdfrwt beam="1">  1        2 0.10060030E+00 0.25926711E+03</pdfrwt>
<pdfrwt beam="2">  1       -2 0.39537468E-02 0.25926711E+03</pdfrwt>
<totfact> 0.12645057E+04</totfact>
</mgrwt>
</event>
<event>
 4    1  0.1733772E-004  0.3946543E+03  0.7818608E-02  0.1045647E+00
         -2   -1    0    0    0  501 -0.00000000000E+00  0.00000000000E+00  0.18872276921E+02  0.18872276921E+02  0.00000000000E+00 0.  1.
          2   -1    0    0  501    0  0.00000000000E+00 -0.00000000000E+00 -0.20632378225E+04  0.20632378225E+04  0.00000000000E+00 0.  1.
         25    1    1    2    0    0  0.12036523090E+02  0.51334786039E+02 -0.18003894674E+04  0.18051543902E+04  0.12000000000E+03 0.  0.
         25    1    1    2    0    0 -0.12036523090E+02 -0.51334786039E+02 -0.24397607820E+03  0.27695570924E+03  0.12000000000E+03 0.  0.
<mgrwt>
<rscale>  0 0.39465426E+03</rscale>
<asrwt>0</asrwt>
<pdfrwt beam="1">  1        2 0.31742094E+00 0.39465426E+03</pdfrwt>
<pdfrwt beam="2">  1       -2 0.29034296E-02 0.39465426E+03</pdfrwt>
<totfact> 0.30447013E+03</totfact>
</mgrwt>
</event>
<event>
 4    1  0.1733772E-004  0.2639039E+03  0.7818608E-02  0.1104820E+00
         -1   -1    0    0    0  501 -0.00000000000E+00  0.00000000000E+00  0.29140703702E+03  0.29140703702E+03  0.00000000000E+00 0.  1.
          1   -1    0    0  501    0  0.00000000000E+00 -0.00000000000E+00 -0.59749128769E+02  0.59749128769E+02  0.00000000000E+00 0.  1.
         25    1    1    2    0    0  0.13057389260E+02 -0.35050473183E+02  0.62400147984E+02  0.14033107123E+03  0.12000000000E+03 0.  0.
         25    1    1    2    0    0 -0.13057389260E+02  0.35050473183E+02  0.16925776027E+03  0.21082509456E+03  0.12000000000E+03 0.  0.
<mgrwt>
<rscale>  0 0.26390390E+03</rscale>
<asrwt>0</asrwt>
<pdfrwt beam="1">  1        1 0.91921739E-02 0.26390390E+03</pdfrwt>
<pdfrwt beam="2">  1       -1 0.44831851E-01 0.26390390E+03</pdfrwt>
<totfact> 0.35912222E+03</totfact>
</mgrwt>
</event>
<event>
 4    1  0.1733772E-004  0.2525513E+03  0.7818608E-02  0.1111703E+00
          3   -1    0    0  501    0  0.00000000000E+00  0.00000000000E+00  0.29549828168E+02  0.29549828168E+02  0.00000000000E+00 0.  1.
         -3   -1    0    0    0  501 -0.00000000000E+00 -0.00000000000E+00 -0.53961539607E+03  0.53961539607E+03  0.00000000000E+00 0.  1.
         25    1    1    2    0    0 -0.25900728819E+01 -0.39223047266E+02 -0.25363203477E+03  0.28332731067E+03  0.12000000000E+03 0.  0.
         25    1    1    2    0    0  0.25900728819E+01  0.39223047266E+02 -0.25643353314E+03  0.28583791357E+03  0.12000000000E+03 0.  0.
<mgrwt>
<rscale>  0 0.25255132E+03</rscale>
<asrwt>0</asrwt>
<pdfrwt beam="1">  1        3 0.45461276E-02 0.25255132E+03</pdfrwt>
<pdfrwt beam="2">  1       -3 0.83017750E-01 0.25255132E+03</pdfrwt>
<totfact> 0.91777740E+02</totfact>
</mgrwt>
</event>
<event>
 4    1  0.1733772E-004  0.2966594E+03  0.7818608E-02  0.1086923E+00
         -3   -1    0    0    0  501 -0.00000000000E+00  0.00000000000E+00  0.80869427938E+02  0.80869427938E+02  0.00000000000E+00 0. -1.
          3   -1    0    0  501    0  0.00000000000E+00 -0.00000000000E+00 -0.27206456988E+03  0.27206456988E+03  0.00000000000E+00 0. -1.
         25    1    1    2    0    0  0.68250030755E+02  0.13689514509E+02 -0.15805636142E+03  0.21030283615E+03  0.12000000000E+03 0.  0.
         25    1    1    2    0    0 -0.68250030755E+02 -0.13689514509E+02 -0.33138780521E+02  0.14263116167E+03  0.12000000000E+03 0.  0.
<mgrwt>
<rscale>  0 0.29665944E+03</rscale>
<asrwt>0</asrwt>
<pdfrwt beam="1">  1        3 0.41856087E-01 0.29665944E+03</pdfrwt>
<pdfrwt beam="2">  1       -3 0.12441451E-01 0.29665944E+03</pdfrwt>
<totfact> 0.74409308E+02</totfact>
</mgrwt>
</event>
<event>
 4    1  0.1733772E-004  0.3809637E+03  0.7818608E-02  0.1050578E+00
          2   -1    0    0  501    0  0.00000000000E+00  0.00000000000E+00  0.89069179433E+03  0.89069179433E+03  0.00000000000E+00 0. -1.
         -2   -1    0    0    0  501 -0.00000000000E+00 -0.00000000000E+00 -0.40736120525E+02  0.40736120525E+02  0.00000000000E+00 0. -1.
         25    1    1    2    0    0 -0.67710414292E+02  0.13083963238E+03  0.45774519627E+03  0.49561514738E+03  0.12000000000E+03 0.  0.
         25    1    1    2    0    0  0.67710414292E+02 -0.13083963238E+03  0.39221047753E+03  0.43581276747E+03  0.12000000000E+03 0.  0.
<mgrwt>
<rscale>  0 0.38096366E+03</rscale>
<asrwt>0</asrwt>
<pdfrwt beam="1">  1        2 0.13702949E+00 0.38096366E+03</pdfrwt>
<pdfrwt beam="2">  1       -2 0.62670961E-02 0.38096366E+03</pdfrwt>
<totfact> 0.42833463E+03</totfact>
</mgrwt>
</event>
<event>
 4    1  0.1733772E-004  0.3397320E+03  0.7818608E-02  0.1066910E+00
          1   -1    0    0  501    0  0.00000000000E+00  0.00000000000E+00  0.29793072674E+02  0.29793072674E+02  0.00000000000E+00 0.  1.
         -1   -1    0    0    0  501 -0.00000000000E+00 -0.00000000000E+00 -0.96849562757E+03  0.96849562757E+03  0.00000000000E+00 0.  1.
         25    1    1    2    0    0 -0.44195687533E+02  0.69480723251E+02 -0.72675814694E+03  0.74118704377E+03  0.12000000000E+03 0.  0.
         25    1    1    2    0    0  0.44195687533E+02 -0.69480723251E+02 -0.21194440795E+03  0.25710165647E+03  0.12000000000E+03 0.  0.
<mgrwt>
<rscale>  0 0.33973202E+03</rscale>
<asrwt>0</asrwt>
<pdfrwt beam="1">  1        1 0.45835514E-02 0.33973202E+03</pdfrwt>
<pdfrwt beam="2">  1       -1 0.14899927E+00 0.33973202E+03</pdfrwt>
<totfact> 0.72440558E+02</totfact>
</mgrwt>
</event>
<event>
 4    1  0.1733772E-004  0.2881432E+03  0.7818608E-02  0.1091323E+00
          1   -1    0    0  501    0  0.00000000000E+00  0.00000000000E+00  0.74387555853E+03  0.74387555853E+03  0.00000000000E+00 0. -1.
         -1   -1    0    0    0  501 -0.00000000000E+00 -0.00000000000E+00 -0.27903352943E+02  0.27903352943E+02  0.00000000000E+00 0. -1.
         25    1    1    2    0    0 -0.79686825363E+02  0.80842151605E+00  0.35143697676E+03  0.37981389168E+03  0.12000000000E+03 0.  0.
         25    1    1    2    0    0  0.79686825363E+02 -0.80842151605E+00  0.36453522883E+03  0.39196501979E+03  0.12000000000E+03 0.  0.
<mgrwt>
<rscale>  0 0.28814317E+03</rscale>
<asrwt>0</asrwt>
<pdfrwt beam="1">  1        1 0.11444238E+00 0.28814317E+03</pdfrwt>
<pdfrwt beam="2">  1       -1 0.42928241E-02 0.28814317E+03</pdfrwt>
<totfact> 0.56937123E+03</totfact>
</mgrwt>
</event>
<event>
 4    1  0.1733772E-004  0.2814843E+03  0.7818608E-02  0.1094881E+00
          2   -1    0    0  501    0  0.00000000000E+00  0.00000000000E+00  0.22526409511E+04  0.22526409511E+04  0.00000000000E+00 0.  1.
         -2   -1    0    0    0  501 -0.00000000000E+00 -0.00000000000E+00 -0.87933908366E+01  0.87933908366E+01  0.00000000000E+00 0.  1.
         25    1    1    2    0    0 -0.61847859832E+01  0.45187563889E+02  0.15854064791E+04  0.15905954456E+04  0.12000000000E+03 0.  0.
         25    1    1    2    0    0  0.61847859832E+01 -0.45187563889E+02  0.65844108108E+03  0.67083889628E+03  0.12000000000E+03 0.  0.
<mgrwt>
<rscale>  0 0.28148430E+03</rscale>
<asrwt>0</asrwt>
<pdfrwt beam="1">  1        2 0.34655969E+00 0.28148430E+03</pdfrwt>
<pdfrwt beam="2">  1       -2 0.13528312E-02 0.28148430E+03</pdfrwt>
<totfact> 0.74909578E+03</totfact>
</mgrwt>
</event>
<event>
 4    1  0.1733772E-004  0.3082339E+03  0.7818608E-02  0.1081195E+00
          1   -1    0    0  501    0  0.00000000000E+00  0.00000000000E+00  0.24645310502E+04  0.24645310502E+04  0.00000000000E+00 0. -1.
         -1   -1    0    0    0  501 -0.00000000000E+00 -0.00000000000E+00 -0.96375475167E+01  0.96375475167E+01  0.00000000000E+00 0. -1.
         25    1    1    2    0    0  0.64105966799E+02  0.70241463940E+02  0.10864384639E+04  0.10971745413E+04  0.12000000000E+03 0.  0.
         25    1    1    2    0    0 -0.64105966799E+02 -0.70241463940E+02  0.13684550388E+04  0.13769940565E+04  0.12000000000E+03 0.  0.
<mgrwt>
<rscale>  0 0.30823391E+03</rscale>
<asrwt>0</asrwt>
<pdfrwt beam="1">  1        1 0.37915812E+00 0.30823391E+03</pdfrwt>
<pdfrwt beam="2">  1       -1 0.14827016E-02 0.30823391E+03</pdfrwt>
<totfact> 0.17730482E+03</totfact>
</mgrwt>
</event>
<event>
 4    1  0.1733772E-004  0.2443120E+03  0.7818608E-02  0.1116953E+00
         -2   -1    0    0    0  501 -0.00000000000E+00  0.00000000000E+00  0.56059456897E+03  0.56059456897E+03  0.00000000000E+00 0.  1.
          2   -1    0    0  501    0  0.00000000000E+00 -0.00000000000E+00 -0.26618331634E+02  0.26618331634E+02  0.00000000000E+00 0.  1.
         25    1    1    2    0    0  0.47228276011E+01 -0.11475566977E+02  0.31310210911E+03  0.33553975095E+03  0.12000000000E+03 0.  0.
         25    1    1    2    0    0 -0.47228276011E+01  0.11475566977E+02  0.22087412823E+03  0.25167314966E+03  0.12000000000E+03 0.  0.
<mgrwt>
<rscale>  0 0.24431203E+03</rscale>
<asrwt>0</asrwt>
<pdfrwt beam="1">  1        2 0.40951284E-02 0.24431203E+03</pdfrwt>
<pdfrwt beam="2">  1       -2 0.86245310E-01 0.24431203E+03</pdfrwt>
<totfact> 0.24540123E+03</totfact>
</mgrwt>
</event>
<event>
 4    1  0.1733772E-004  0.2770767E+03  0.7818608E-02  0.1097296E+00
         -2   -1    0    0    0  501 -0.00000000000E+00  0.00000000000E+00  0.39551030510E+02  0.39551030510E+02  0.00000000000E+00 0. -1.
          2   -1    0    0  501    0  0.00000000000E+00 -0.00000000000E+00 -0.48526853151E+03  0.48526853151E+03  0.00000000000E+00 0. -1.
         25    1    1    2    0    0  0.61442934754E+02  0.28915020087E+02 -0.19733658029E+03  0.24073437341E+03  0.12000000000E+03 0.  0.
         25    1    1    2    0    0 -0.61442934754E+02 -0.28915020087E+02 -0.24838092071E+03  0.28408518862E+03  0.12000000000E+03 0.  0.
<mgrwt>
<rscale>  0 0.27707667E+03</rscale>
<asrwt>0</asrwt>
<pdfrwt beam="1">  1        2 0.74656693E-01 0.27707667E+03</pdfrwt>
<pdfrwt beam="2">  1       -2 0.60847743E-02 0.27707667E+03</pdfrwt>
<totfact> 0.92748510E+03</totfact>
</mgrwt>
</event>
<event>
 4    1  0.1733772E-004  0.2572107E+03  0.7818608E-02  0.1108831E+00
         -2   -1    0    0    0  501 -0.00000000000E+00  0.00000000000E+00  0.12387765229E+03  0.12387765229E+03  0.00000000000E+00 0. -1.
          2   -1    0    0  501    0  0.00000000000E+00 -0.00000000000E+00 -0.13351344747E+03  0.13351344747E+03  0.00000000000E+00 0. -1.
         25    1    1    2    0    0  0.40335786601E+01 -0.45797207120E+02  0.25305129944E+00  0.12850571183E+03  0.12000000000E+03 0.  0.
         25    1    1    2    0    0 -0.40335786601E+01  0.45797207120E+02 -0.98888464800E+01  0.12888538793E+03  0.12000000000E+03 0.  0.
<mgrwt>
<rscale>  0 0.25721067E+03</rscale>
<asrwt>0</asrwt>
<pdfrwt beam="1">  1        2 0.20540530E-01 0.25721067E+03</pdfrwt>
<pdfrwt beam="2">  1       -2 0.19058101E-01 0.25721067E+03</pdfrwt>
<totfact> 0.60795084E+03</totfact>
</mgrwt>
</event>
<event>
 4    1  0.1733772E-004  0.2549994E+03  0.7818608E-02  0.1110185E+00
          2   -1    0    0  501    0  0.00000000000E+00  0.00000000000E+00  0.14016691079E+04  0.14016691079E+04  0.00000000000E+00 0.  1.
         -2   -1    0    0    0  501 -0.00000000000E+00 -0.00000000000E+00 -0.11597724572E+02  0.11597724572E+02  0.00000000000E+00 0.  1.
         25    1    1    2    0    0 -0.31095284562E+02  0.19253786611E+02  0.82124145430E+03  0.83076780828E+03  0.12000000000E+03 0.  0.
         25    1    1    2    0    0  0.31095284562E+02 -0.19253786611E+02  0.56882992901E+03  0.58249902417E+03  0.12000000000E+03 0.  0.
<mgrwt>
<rscale>  0 0.25499939E+03</rscale>
<asrwt>0</asrwt>
<pdfrwt beam="1">  1        2 0.21564127E+00 0.25499939E+03</pdfrwt>
<pdfrwt beam="2">  1       -2 0.17842664E-02 0.25499939E+03</pdfrwt>
<totfact> 0.14062020E+04</totfact>
</mgrwt>
</event>
<event>
 4    1  0.1733772E-004  0.2760417E+03  0.7818608E-02  0.1097871E+00
          2   -1    0    0  501    0  0.00000000000E+00  0.00000000000E+00  0.58546692830E+03  0.58546692830E+03  0.00000000000E+00 0.  1.
         -2   -1    0    0    0  501 -0.00000000000E+00 -0.00000000000E+00 -0.32537719199E+02  0.32537719199E+02  0.00000000000E+00 0.  1.
         25    1    1    2    0    0  0.18529813823E+01  0.22403679788E+02  0.42059243396E+03  0.43795359789E+03  0.12000000000E+03 0.  0.
         25    1    1    2    0    0 -0.18529813823E+01 -0.22403679788E+02  0.13233677515E+03  0.18005104961E+03  0.12000000000E+03 0.  0.
<mgrwt>
<rscale>  0 0.27604173E+03</rscale>
<asrwt>0</asrwt>
<pdfrwt beam="1">  1        2 0.90071827E-01 0.27604173E+03</pdfrwt>
<pdfrwt beam="2">  1       -2 0.50058034E-02 0.27604173E+03</pdfrwt>
<totfact> 0.10101771E+04</totfact>
</mgrwt>
</event>
<event>
 4    1  0.1733772E-004  0.3703396E+03  0.7818608E-02  0.1054563E+00
          1   -1    0    0  501    0  0.00000000000E+00  0.00000000000E+00  0.40164107858E+03  0.40164107858E+03  0.00000000000E+00 0. -1.
         -1   -1    0    0    0  501 -0.00000000000E+00 -0.00000000000E+00 -0.85369396032E+02  0.85369396032E+02  0.00000000000E+00 0. -1.
         25    1    1    2    0    0 -0.17483352261E+02  0.88149894488E+02  0.30105679398E+03  0.33632018183E+03  0.12000000000E+03 0.  0.
         25    1    1    2    0    0  0.17483352261E+02 -0.88149894488E+02  0.15214888568E+02  0.15069029278E+03  0.12000000000E+03 0.  0.
<mgrwt>
<rscale>  0 0.37033961E+03</rscale>
<asrwt>0</asrwt>
<pdfrwt beam="1">  1        1 0.61790934E-01 0.37033961E+03</pdfrwt>
<pdfrwt beam="2">  1       -1 0.13133753E-01 0.37033961E+03</pdfrwt>
<totfact> 0.24029962E+03</totfact>
</mgrwt>
</event>
<event>
 4    1  0.1733772E-004  0.2998282E+03  0.7818608E-02  0.1085327E+00
          2   -1    0    0  501    0  0.00000000000E+00  0.00000000000E+00  0.19706541352E+04  0.19706541352E+04  0.00000000000E+00 0. -1.
         -2   -1    0    0    0  501 -0.00000000000E+00 -0.00000000000E+00 -0.11404453598E+02  0.11404453598E+02  0.00000000000E+00 0. -1.
         25    1    1    2    0    0  0.57580175113E+02  0.23234454686E+02  0.55024213628E+03  0.56658779106E+03  0.12000000000E+03 0.  0.
         25    1    1    2    0    0 -0.57580175113E+02 -0.23234454686E+02  0.14090075453E+04  0.14154707977E+04  0.12000000000E+03 0.  0.
<mgrwt>
<rscale>  0 0.29982818E+03</rscale>
<asrwt>0</asrwt>
<pdfrwt beam="1">  1        2 0.30317729E+00 0.29982818E+03</pdfrwt>
<pdfrwt beam="2">  1       -2 0.17545329E-02 0.29982818E+03</pdfrwt>
<totfact> 0.72214563E+03</totfact>
</mgrwt>
</event>
<event>
 4    1  0.1733772E-004  0.4426766E+03  0.7818608E-02  0.1029929E+00
         -2   -1    0    0    0  501 -0.00000000000E+00  0.00000000000E+00  0.73139336393E+02  0.73139336393E+02  0.00000000000E+00 0.  1.
          2   -1    0    0  501    0  0.00000000000E+00 -0.00000000000E+00 -0.66982630733E+03  0.66982630733E+03  0.00000000000E+00 0.  1.
         25    1    1    2    0    0  0.63455704287E+02 -0.41232366666E+02 -0.13202423640E+02  0.14248171271E+03  0.12000000000E+03 0.  0.
         25    1    1    2    0    0 -0.63455704287E+02  0.41232366666E+02 -0.58348454730E+03  0.60048393101E+03  0.12000000000E+03 0.  0.
<mgrwt>
<rscale>  0 0.44267664E+03</rscale>
<asrwt>0</asrwt>
<pdfrwt beam="1">  1        2 0.10305020E+00 0.44267664E+03</pdfrwt>
<pdfrwt beam="2">  1       -2 0.11252206E-01 0.44267664E+03</pdfrwt>
<totfact> 0.24413627E+03</totfact>
</mgrwt>
</event>
<event>
 4    1  0.1733772E-004  0.2460218E+03  0.7818608E-02  0.1115845E+00
          2   -1    0    0  501    0  0.00000000000E+00  0.00000000000E+00  0.27906784557E+03  0.27906784557E+03  0.00000000000E+00 0. -1.
         -2   -1    0    0    0  501 -0.00000000000E+00 -0.00000000000E+00 -0.54222216401E+02  0.54222216401E+02  0.00000000000E+00 0. -1.
         25    1    1    2    0    0 -0.10258620402E+02 -0.18734450191E+02  0.13490697555E+03  0.18181339601E+03  0.12000000000E+03 0.  0.
         25    1    1    2    0    0  0.10258620402E+02  0.18734450191E+02  0.89938653625E+02  0.15147666597E+03  0.12000000000E+03 0.  0.
<mgrwt>
<rscale>  0 0.24602176E+03</rscale>
<asrwt>0</asrwt>
<pdfrwt beam="1">  1        2 0.42933514E-01 0.24602176E+03</pdfrwt>
<pdfrwt beam="2">  1       -2 0.83418796E-02 0.24602176E+03</pdfrwt>
<totfact> 0.10312482E+04</totfact>
</mgrwt>
</event>
<event>
 4    1  0.1733772E-004  0.2546743E+03  0.7818608E-02  0.1110386E+00
         -1   -1    0    0    0  501 -0.00000000000E+00  0.00000000000E+00  0.41641438058E+02  0.41641438058E+02  0.00000000000E+00 0. -1.
          1   -1    0    0  501    0  0.00000000000E+00 -0.00000000000E+00 -0.38938971951E+03  0.38938971951E+03  0.00000000000E+00 0. -1.
         25    1    1    2    0    0  0.72708936345E+01  0.87067872510E+01 -0.10437781166E+03  0.15944717497E+03  0.12000000000E+03 0.  0.
         25    1    1    2    0    0 -0.72708936345E+01 -0.87067872510E+01 -0.24337046979E+03  0.27158398260E+03  0.12000000000E+03 0.  0.
<mgrwt>
<rscale>  0 0.25467429E+03</rscale>
<asrwt>0</asrwt>
<pdfrwt beam="1">  1        1 0.59906110E-01 0.25467429E+03</pdfrwt>
<pdfrwt beam="2">  1       -1 0.64063751E-02 0.25467429E+03</pdfrwt>
<totfact> 0.75102295E+03</totfact>
</mgrwt>
</event>
<event>
 4    1  0.1733772E-004  0.2941377E+03  0.7818608E-02  0.1088208E+00
          2   -1    0    0  501    0  0.00000000000E+00  0.00000000000E+00  0.15836118573E+03  0.15836118573E+03  0.00000000000E+00 0.  1.
         -2   -1    0    0    0  501 -0.00000000000E+00 -0.00000000000E+00 -0.13658178194E+03  0.13658178194E+03  0.00000000000E+00 0.  1.
         25    1    1    2    0    0  0.16521757983E+02 -0.47808699864E+02 -0.57639270074E+02  0.14241111517E+03  0.12000000000E+03 0.  0.
         25    1    1    2    0    0 -0.16521757983E+02  0.47808699864E+02  0.79418673858E+02  0.15253185250E+03  0.12000000000E+03 0.  0.
<mgrwt>
<rscale>  0 0.29413774E+03</rscale>
<asrwt>0</asrwt>
<pdfrwt beam="1">  1        2 0.24363259E-01 0.29413774E+03</pdfrwt>
<pdfrwt beam="2">  1       -2 0.21012582E-01 0.29413774E+03</pdfrwt>
<totfact> 0.42607801E+03</totfact>
</mgrwt>
</event>
<event>
 4    1  0.1733772E-004  0.2424945E+03  0.7818608E-02  0.1118142E+00
          1   -1    0    0  501    0  0.00000000000E+00  0.00000000000E+00  0.31797103739E+03  0.31797103739E+03  0.00000000000E+00 0.  1.
         -1   -1    0    0    0  501 -0.00000000000E+00 -0.00000000000E+00 -0.46233445267E+02  0.46233445267E+02  0.00000000000E+00 0.  1.
         25    1    1    2    0    0 -0.16356186236E+02 -0.50744171776E+01  0.13172232816E+03  0.17900850895E+03  0.12000000000E+03 0.  0.
         25    1    1    2    0    0  0.16356186236E+02  0.50744171776E+01  0.14001526396E+03  0.18519597371E+03  0.12000000000E+03 0.  0.
<mgrwt>
<rscale>  0 0.24249451E+03</rscale>
<asrwt>0</asrwt>
<pdfrwt beam="1">  1        1 0.48918620E-01 0.24249451E+03</pdfrwt>
<pdfrwt beam="2">  1       -1 0.71128379E-02 0.24249451E+03</pdfrwt>
<totfact> 0.82686902E+03</totfact>
</mgrwt>
</event>
<event>
 4    1  0.1733772E-004  0.3350717E+03  0.7818608E-02  0.1068915E+00
          1   -1    0    0  501    0  0.00000000000E+00  0.00000000000E+00  0.65046128748E+03  0.65046128748E+03  0.00000000000E+00 0. -1.
         -1   -1    0    0    0  501 -0.00000000000E+00 -0.00000000000E+00 -0.43151320272E+02  0.43151320272E+02  0.00000000000E+00 0. -1.
         25    1    1    2    0    0  0.92824532194E+02 -0.28663319197E+02  0.43829183866E+03  0.46469098924E+03  0.12000000000E+03 0.  0.
         25    1    1    2    0    0 -0.92824532194E+02  0.28663319197E+02  0.16901812855E+03  0.22892161851E+03  0.12000000000E+03 0.  0.
<mgrwt>
<rscale>  0 0.33507171E+03</rscale>
<asrwt>0</asrwt>
<pdfrwt beam="1">  1        1 0.10007096E+00 0.33507171E+03</pdfrwt>
<pdfrwt beam="2">  1       -1 0.66386651E-02 0.33507171E+03</pdfrwt>
<totfact> 0.36018161E+03</totfact>
</mgrwt>
</event>
<event>
 4    1  0.1733772E-004  0.2831492E+03  0.7818608E-02  0.1093981E+00
         -2   -1    0    0    0  501 -0.00000000000E+00  0.00000000000E+00  0.39305251687E+02  0.39305251687E+02  0.00000000000E+00 0. -1.
          2   -1    0    0  501    0  0.00000000000E+00 -0.00000000000E+00 -0.50994137307E+03  0.50994137307E+03  0.00000000000E+00 0. -1.
         25    1    1    2    0    0 -0.67503451017E+02 -0.24077311273E+02 -0.19164327540E+03  0.23719944735E+03  0.12000000000E+03 0.  0.
         25    1    1    2    0    0  0.67503451017E+02  0.24077311273E+02 -0.27899284599E+03  0.31204717741E+03  0.12000000000E+03 0.  0.
<mgrwt>
<rscale>  0 0.28314925E+03</rscale>
<asrwt>0</asrwt>
<pdfrwt beam="1">  1        2 0.78452513E-01 0.28314925E+03</pdfrwt>
<pdfrwt beam="2">  1       -2 0.60469623E-02 0.28314925E+03</pdfrwt>
<totfact> 0.88657418E+03</totfact>
</mgrwt>
</event>
<event>
 4    1  0.1733772E-004  0.3096012E+03  0.7818608E-02  0.1080537E+00
          1   -1    0    0  501    0  0.00000000000E+00  0.00000000000E+00  0.50911362257E+03  0.50911362257E+03  0.00000000000E+00 0. -1.
         -1   -1    0    0    0  501 -0.00000000000E+00 -0.00000000000E+00 -0.47068508018E+02  0.47068508018E+02  0.00000000000E+00 0. -1.
         25    1    1    2    0    0  0.85191917803E+02 -0.35980169974E+01  0.14500649526E+03  0.20663371519E+03  0.12000000000E+03 0.  0.
         25    1    1    2    0    0 -0.85191917803E+02  0.35980169974E+01  0.31703861928E+03  0.34954841539E+03  0.12000000000E+03 0.  0.
<mgrwt>
<rscale>  0 0.30960115E+03</rscale>
<asrwt>0</asrwt>
<pdfrwt beam="1">  1        1 0.78325169E-01 0.30960115E+03</pdfrwt>
<pdfrwt beam="2">  1       -1 0.72413093E-02 0.30960115E+03</pdfrwt>
<totfact> 0.44212036E+03</totfact>
</mgrwt>
</event>
<event>
 4    1  0.1733772E-004  0.3407906E+03  0.7818608E-02  0.1066460E+00
         -2   -1    0    0    0  501 -0.00000000000E+00  0.00000000000E+00  0.16086804677E+02  0.16086804677E+02  0.00000000000E+00 0. -1.
          2   -1    0    0  501    0  0.00000000000E+00 -0.00000000000E+00 -0.18048679760E+04  0.18048679760E+04  0.00000000000E+00 0. -1.
         25    1    1    2    0    0 -0.64508428515E+02 -0.72539946740E+02 -0.12801170882E+04  0.12893886694E+04  0.12000000000E+03 0.  0.
         25    1    1    2    0    0  0.64508428515E+02  0.72539946740E+02 -0.50866408315E+03  0.53156611132E+03  0.12000000000E+03 0.  0.
<mgrwt>
<rscale>  0 0.34079060E+03</rscale>
<asrwt>0</asrwt>
<pdfrwt beam="1">  1        2 0.27767204E+00 0.34079060E+03</pdfrwt>
<pdfrwt beam="2">  1       -2 0.24748926E-02 0.34079060E+03</pdfrwt>
<totfact> 0.53109859E+03</totfact>
</mgrwt>
</event>
<event>
 4    1  0.1733772E-004  0.3264261E+03  0.7818608E-02  0.1072729E+00
         -2   -1    0    0    0  501 -0.00000000000E+00  0.00000000000E+00  0.20016208625E+03  0.20016208625E+03  0.00000000000E+00 0. -1.
          2   -1    0    0  501    0  0.00000000000E+00 -0.00000000000E+00 -0.13308465664E+03  0.13308465664E+03  0.00000000000E+00 0. -1.
         25    1    1    2    0    0 -0.98492677072E+02  0.20434680403E+02  0.80545562147E+02  0.17608512482E+03  0.12000000000E+03 0.  0.
         25    1    1    2    0    0  0.98492677072E+02 -0.20434680403E+02 -0.13468132539E+02  0.15716161807E+03  0.12000000000E+03 0.  0.
<mgrwt>
<rscale>  0 0.32642612E+03</rscale>
<asrwt>0</asrwt>
<pdfrwt beam="1">  1        2 0.20474563E-01 0.32642612E+03</pdfrwt>
<pdfrwt beam="2">  1       -2 0.30794167E-01 0.32642612E+03</pdfrwt>
<totfact> 0.26403518E+03</totfact>
</mgrwt>
</event>
<event>
 4    1  0.1733772E-004  0.2544772E+03  0.7818608E-02  0.1110508E+00
         -2   -1    0    0    0  501 -0.00000000000E+00  0.00000000000E+00  0.61114405819E+02  0.61114405819E+02  0.00000000000E+00 0. -1.
          2   -1    0    0  501    0  0.00000000000E+00 -0.00000000000E+00 -0.26490739631E+03  0.26490739631E+03  0.00000000000E+00 0. -1.
         25    1    1    2    0    0  0.21379180567E+02  0.22983852838E+02 -0.65562321760E+02  0.14029877009E+03  0.12000000000E+03 0.  0.
         25    1    1    2    0    0 -0.21379180567E+02 -0.22983852838E+02 -0.13823066873E+03  0.18572303204E+03  0.12000000000E+03 0.  0.
<mgrwt>
<rscale>  0 0.25447717E+03</rscale>
<asrwt>0</asrwt>
<pdfrwt beam="1">  1        2 0.40754985E-01 0.25447717E+03</pdfrwt>
<pdfrwt beam="2">  1       -2 0.94022162E-02 0.25447717E+03</pdfrwt>
<totfact> 0.90503580E+03</totfact>
</mgrwt>
</event>
<event>
 4    1  0.1733772E-004  0.3044053E+03  0.7818608E-02  0.1083059E+00
         -2   -1    0    0    0  501 -0.00000000000E+00  0.00000000000E+00  0.51335176201E+01  0.51335176201E+01  0.00000000000E+00 0. -1.
          2   -1    0    0  501    0  0.00000000000E+00 -0.00000000000E+00 -0.45126277623E+04  0.45126277623E+04  0.00000000000E+00 0. -1.
         25    1    1    2    0    0 -0.87637880138E+02 -0.32888712711E+02 -0.22256321369E+04  0.22308295484E+04  0.12000000000E+03 0.  0.
         25    1    1    2    0    0  0.87637880138E+02  0.32888712711E+02 -0.22818621078E+04  0.22869317315E+04  0.12000000000E+03 0.  0.
<mgrwt>
<rscale>  0 0.30440535E+03</rscale>
<asrwt>0</asrwt>
<pdfrwt beam="1">  1        2 0.69424939E+00 0.30440535E+03</pdfrwt>
<pdfrwt beam="2">  1       -2 0.78977312E-03 0.30440535E+03</pdfrwt>
<totfact> 0.49192389E+02</totfact>
</mgrwt>
</event>
<event>
 4    1  0.1733772E-004  0.2406255E+03  0.7818608E-02  0.1119377E+00
         -2   -1    0    0    0  501 -0.00000000000E+00  0.00000000000E+00  0.79348739039E+01  0.79348739039E+01  0.00000000000E+00 0.  1.
          2   -1    0    0  501    0  0.00000000000E+00 -0.00000000000E+00 -0.18242458492E+04  0.18242458492E+04  0.00000000000E+00 0.  1.
         25    1    1    2    0    0 -0.68908704639E+01  0.39885126278E+01 -0.93427627923E+03  0.94198490341E+03  0.12000000000E+03 0.  0.
         25    1    1    2    0    0  0.68908704639E+01 -0.39885126278E+01 -0.88203469609E+03  0.89019581971E+03  0.12000000000E+03 0.  0.
<mgrwt>
<rscale>  0 0.24062552E+03</rscale>
<asrwt>0</asrwt>
<pdfrwt beam="1">  1        2 0.28065313E+00 0.24062552E+03</pdfrwt>
<pdfrwt beam="2">  1       -2 0.12207501E-02 0.24062552E+03</pdfrwt>
<totfact> 0.14596757E+04</totfact>
</mgrwt>
</event>
<event>
 4    1  0.1733772E-004  0.2711029E+03  0.7818608E-02  0.1100650E+00
         -1   -1    0    0    0  501 -0.00000000000E+00  0.00000000000E+00  0.84292160923E+02  0.84292160923E+02  0.00000000000E+00 0.  1.
          1   -1    0    0  501    0  0.00000000000E+00 -0.00000000000E+00 -0.21798218506E+03  0.21798218506E+03  0.00000000000E+00 0.  1.
         25    1    1    2    0    0  0.54710766987E+01 -0.62335965274E+02 -0.58318206038E+02  0.14736593366E+03  0.12000000000E+03 0.  0.
         25    1    1    2    0    0 -0.54710766987E+01  0.62335965274E+02 -0.75371818103E+02  0.15490841233E+03  0.12000000000E+03 0.  0.
<mgrwt>
<rscale>  0 0.27110285E+03</rscale>
<asrwt>0</asrwt>
<pdfrwt beam="1">  1        1 0.33535720E-01 0.27110285E+03</pdfrwt>
<pdfrwt beam="2">  1       -1 0.12968025E-01 0.27110285E+03</pdfrwt>
<totfact> 0.52854496E+03</totfact>
</mgrwt>
</event>
<event>
 4    1  0.1733772E-004  0.4234660E+03  0.7818608E-02  0.1035944E+00
         -1   -1    0    0    0  501 -0.00000000000E+00  0.00000000000E+00  0.68929585924E+02  0.68929585924E+02  0.00000000000E+00 0. -1.
          1   -1    0    0  501    0  0.00000000000E+00 -0.00000000000E+00 -0.65038634061E+03  0.65038634061E+03  0.00000000000E+00 0. -1.
         25    1    1    2    0    0 -0.84439957452E+02 -0.10257769002E+03 -0.48274653844E+03  0.51487523661E+03  0.12000000000E+03 0.  0.
         25    1    1    2    0    0  0.84439957452E+02  0.10257769002E+03 -0.98710216250E+02  0.20444068992E+03  0.12000000000E+03 0.  0.
<mgrwt>
<rscale>  0 0.42346599E+03</rscale>
<asrwt>0</asrwt>
<pdfrwt beam="1">  1        1 0.10005944E+00 0.42346599E+03</pdfrwt>
<pdfrwt beam="2">  1       -1 0.10604552E-01 0.42346599E+03</pdfrwt>
<totfact> 0.17498673E+03</totfact>
</mgrwt>
</event>
<event>
 4    1  0.1733772E-004  0.2565171E+03  0.7818608E-02  0.1109254E+00
          2   -1    0    0  501    0  0.00000000000E+00  0.00000000000E+00  0.36079700968E+03  0.36079700968E+03  0.00000000000E+00 0.  1.
         -2   -1    0    0    0  501 -0.00000000000E+00 -0.00000000000E+00 -0.45594209930E+02  0.45594209930E+02  0.00000000000E+00 0.  1.
         25    1    1    2    0    0  0.50809109223E+01  0.41331813435E+02  0.12943352429E+03  0.18134820558E+03  0.12000000000E+03 0.  0.
         25    1    1    2    0    0 -0.50809109223E+01 -0.41331813435E+02  0.18576927546E+03  0.22504301403E+03  0.12000000000E+03 0.  0.
<mgrwt>
<rscale>  0 0.25651709E+03</rscale>
<asrwt>0</asrwt>
<pdfrwt beam="1">  1        2 0.55507230E-01 0.25651709E+03</pdfrwt>
<pdfrwt beam="2">  1       -2 0.70144941E-02 0.25651709E+03</pdfrwt>
<totfact> 0.10265551E+04</totfact>
</mgrwt>
</event>
<event>
 4    1  0.1733772E-004  0.2535300E+03  0.7818608E-02  0.1111094E+00
         -2   -1    0    0    0  501 -0.00000000000E+00  0.00000000000E+00  0.20036166337E+02  0.20036166337E+02  0.00000000000E+00 0.  1.
          2   -1    0    0  501    0  0.00000000000E+00 -0.00000000000E+00 -0.80201821246E+03  0.80201821246E+03  0.00000000000E+00 0.  1.
         25    1    1    2    0    0  0.79556943840E+00  0.32222423656E+02 -0.30957733880E+03  0.33358214313E+03  0.12000000000E+03 0.  0.
         25    1    1    2    0    0 -0.79556943840E+00 -0.32222423656E+02 -0.47240470732E+03  0.48847223567E+03  0.12000000000E+03 0.  0.
<mgrwt>
<rscale>  0 0.25353004E+03</rscale>
<asrwt>0</asrwt>
<pdfrwt beam="1">  1        2 0.12338742E+00 0.25353004E+03</pdfrwt>
<pdfrwt beam="2">  1       -2 0.30824870E-02 0.25353004E+03</pdfrwt>
<totfact> 0.14267726E+04</totfact>
</mgrwt>
</event>
<event>
 4    1  0.1733772E-004  0.3361173E+03  0.7818608E-02  0.1068462E+00
          1   -1    0    0  501    0  0.00000000000E+00  0.00000000000E+00  0.24956207642E+03  0.24956207642E+03  0.00000000000E+00 0. -1.
         -1   -1    0    0    0  501 -0.00000000000E+00 -0.00000000000E+00 -0.11317310330E+03  0.11317310330E+03  0.00000000000E+00 0. -1.
         25    1    1    2    0    0  0.11423929177E+03 -0.16563129368E+02  0.43614440586E+02  0.17212545561E+03  0.12000000000E+03 0.  0.
         25    1    1    2    0    0 -0.11423929177E+03  0.16563129368E+02  0.92774532538E+02  0.19060972411E+03  0.12000000000E+03 0.  0.
<mgrwt>
<rscale>  0 0.33611733E+03</rscale>
<asrwt>0</asrwt>
<pdfrwt beam="1">  1        1 0.38394166E-01 0.33611733E+03</pdfrwt>
<pdfrwt beam="2">  1       -1 0.17411247E-01 0.33611733E+03</pdfrwt>
<totfact> 0.28036772E+03</totfact>
</mgrwt>
</event>
<event>
 4    1  0.1733772E-004  0.2665365E+03  0.7818608E-02  0.1103278E+00
         -1   -1    0    0    0  501 -0.00000000000E+00  0.00000000000E+00  0.21748720012E+03  0.21748720012E+03  0.00000000000E+00 0. -1.
          1   -1    0    0  501    0  0.00000000000E+00 -0.00000000000E+00 -0.81661920928E+02  0.81661920928E+02  0.00000000000E+00 0. -1.
         25    1    1    2    0    0  0.20540416934E+02  0.26771135120E+02  0.15009001631E+02  0.12555426131E+03  0.12000000000E+03 0.  0.
         25    1    1    2    0    0 -0.20540416934E+02 -0.26771135120E+02  0.12081627756E+03  0.17359485974E+03  0.12000000000E+03 0.  0.
<mgrwt>
<rscale>  0 0.26653647E+03</rscale>
<asrwt>0</asrwt>
<pdfrwt beam="1">  1        1 0.12563373E-01 0.26653647E+03</pdfrwt>
<pdfrwt beam="2">  1       -1 0.33459569E-01 0.26653647E+03</pdfrwt>
<totfact> 0.39647711E+03</totfact>
</mgrwt>
</event>
<event>
 4    1  0.1733772E-004  0.3531895E+03  0.7818608E-02  0.1061313E+00
          2   -1    0    0  501    0  0.00000000000E+00  0.00000000000E+00  0.26204628112E+04  0.26204628112E+04  0.00000000000E+00 0. -1.
         -2   -1    0    0    0  501 -0.00000000000E+00 -0.00000000000E+00 -0.11900841004E+02  0.11900841004E+02  0.00000000000E+00 0. -1.
         25    1    1    2    0    0  0.79939581947E+02  0.64608561854E+02  0.18921383206E+04  0.18987237891E+04  0.12000000000E+03 0.  0.
         25    1    1    2    0    0 -0.79939581947E+02 -0.64608561854E+02  0.71642364955E+03  0.73363986305E+03  0.12000000000E+03 0.  0.
<mgrwt>
<rscale>  0 0.35318953E+03</rscale>
<asrwt>0</asrwt>
<pdfrwt beam="1">  1        2 0.40314767E+00 0.35318953E+03</pdfrwt>
<pdfrwt beam="2">  1       -2 0.18309007E-02 0.35318953E+03</pdfrwt>
<totfact> 0.30121999E+03</totfact>
</mgrwt>
</event>
<event>
 4    1  0.1733772E-004  0.2676049E+03  0.7818608E-02  0.1102658E+00
          1   -1    0    0  501    0  0.00000000000E+00  0.00000000000E+00  0.77009474493E+03  0.77009474493E+03  0.00000000000E+00 0. -1.
         -1   -1    0    0    0  501 -0.00000000000E+00 -0.00000000000E+00 -0.23247916927E+02  0.23247916927E+02  0.00000000000E+00 0. -1.
         25    1    1    2    0    0 -0.43295371124E+02 -0.38730186022E+02  0.40704027146E+03  0.42831798826E+03  0.12000000000E+03 0.  0.
         25    1    1    2    0    0  0.43295371124E+02  0.38730186022E+02  0.33980655653E+03  0.36502467360E+03  0.12000000000E+03 0.  0.
<mgrwt>
<rscale>  0 0.26760492E+03</rscale>
<asrwt>0</asrwt>
<pdfrwt beam="1">  1        1 0.11847610E+00 0.26760492E+03</pdfrwt>
<pdfrwt beam="2">  1       -1 0.35766032E-02 0.26760492E+03</pdfrwt>
<totfact> 0.70765888E+03</totfact>
</mgrwt>
</event>
<event>
 4    1  0.1733772E-004  0.2891689E+03  0.7818608E-02  0.1090784E+00
          2   -1    0    0  501    0  0.00000000000E+00  0.00000000000E+00  0.30747057280E+02  0.30747057280E+02  0.00000000000E+00 0.  1.
         -2   -1    0    0    0  501 -0.00000000000E+00 -0.00000000000E+00 -0.67989168786E+03  0.67989168786E+03  0.00000000000E+00 0.  1.
         25    1    1    2    0    0 -0.70113568979E+02  0.23619662238E+02 -0.40347625757E+03  0.42739547427E+03  0.12000000000E+03 0.  0.
         25    1    1    2    0    0  0.70113568979E+02 -0.23619662238E+02 -0.24566837301E+03  0.28324327087E+03  0.12000000000E+03 0.  0.
<mgrwt>
<rscale>  0 0.28916894E+03</rscale>
<asrwt>0</asrwt>
<pdfrwt beam="1">  1        2 0.47303171E-02 0.28916894E+03</pdfrwt>
<pdfrwt beam="2">  1       -2 0.10459871E+00 0.28916894E+03</pdfrwt>
<totfact> 0.13075096E+03</totfact>
</mgrwt>
</event>
<event>
 4    1  0.1733772E-004  0.2761584E+03  0.7818608E-02  0.1097806E+00
         -2   -1    0    0    0  501 -0.00000000000E+00  0.00000000000E+00  0.54750296047E+02  0.54750296047E+02  0.00000000000E+00 0.  1.
          2   -1    0    0  501    0  0.00000000000E+00 -0.00000000000E+00 -0.34823317395E+03  0.34823317395E+03  0.00000000000E+00 0.  1.
         25    1    1    2    0    0  0.59720867778E+02 -0.32783291742E+02 -0.15397069574E+03  0.20675662363E+03  0.12000000000E+03 0.  0.
         25    1    1    2    0    0 -0.59720867778E+02  0.32783291742E+02 -0.13951218216E+03  0.19622684637E+03  0.12000000000E+03 0.  0.
<mgrwt>
<rscale>  0 0.27615843E+03</rscale>
<asrwt>0</asrwt>
<pdfrwt beam="1">  1        2 0.53574336E-01 0.27615843E+03</pdfrwt>
<pdfrwt beam="2">  1       -2 0.84231223E-02 0.27615843E+03</pdfrwt>
<totfact> 0.80455741E+03</totfact>
</mgrwt>
</event>
<event>
 4    1  0.1733772E-004  0.2451521E+03  0.7818608E-02  0.1116407E+00
          2   -1    0    0  501    0  0.00000000000E+00  0.00000000000E+00  0.55459864898E+03  0.55459864898E+03  0.00000000000E+00 0.  1.
         -2   -1    0    0    0  501 -0.00000000000E+00 -0.00000000000E+00 -0.27091464727E+02  0.27091464727E+02  0.00000000000E+00 0.  1.
         25    1    1    2    0    0 -0.22903735818E+02 -0.83343538818E+01  0.27693202251E+03  0.30279595053E+03  0.12000000000E+03 0.  0.
         25    1    1    2    0    0  0.22903735818E+02  0.83343538818E+01  0.25057516175E+03  0.27889416318E+03  0.12000000000E+03 0.  0.
<mgrwt>
<rscale>  0 0.24515211E+03</rscale>
<asrwt>0</asrwt>
<pdfrwt beam="1">  1        2 0.85322861E-01 0.24515211E+03</pdfrwt>
<pdfrwt beam="2">  1       -2 0.41679181E-02 0.24515211E+03</pdfrwt>
<totfact> 0.14105545E+04</totfact>
</mgrwt>
</event>
<event>
 4    1  0.1733772E-004  0.4073257E+03  0.7818608E-02  0.1041272E+00
         -2   -1    0    0    0  501 -0.00000000000E+00  0.00000000000E+00  0.86724309803E+02  0.86724309803E+02  0.00000000000E+00 0.  1.
          2   -1    0    0  501    0  0.00000000000E+00 -0.00000000000E+00 -0.47828061971E+03  0.47828061971E+03  0.00000000000E+00 0.  1.
         25    1    1    2    0    0 -0.13905917482E+02  0.98793150751E+02 -0.14257134622E+02  0.15670586161E+03  0.12000000000E+03 0.  0.
         25    1    1    2    0    0  0.13905917482E+02 -0.98793150751E+02 -0.37729917528E+03  0.40829906790E+03  0.12000000000E+03 0.  0.
<mgrwt>
<rscale>  0 0.40732570E+03</rscale>
<asrwt>0</asrwt>
<pdfrwt beam="1">  1        2 0.73581635E-01 0.40732570E+03</pdfrwt>
<pdfrwt beam="2">  1       -2 0.13342201E-01 0.40732570E+03</pdfrwt>
<totfact> 0.27368113E+03</totfact>
</mgrwt>
</event>
<event>
 4    1  0.1733772E-004  0.2497380E+03  0.7818608E-02  0.1113470E+00
         -2   -1    0    0    0  501 -0.00000000000E+00  0.00000000000E+00  0.96014291414E+02  0.96014291414E+02  0.00000000000E+00 0. -1.
          2   -1    0    0  501    0  0.00000000000E+00 -0.00000000000E+00 -0.16239531602E+03  0.16239531602E+03  0.00000000000E+00 0. -1.
         25    1    1    2    0    0  0.94265558844E+00  0.30163488660E+02 -0.15828539360E+02  0.12474480873E+03  0.12000000000E+03 0.  0.
         25    1    1    2    0    0 -0.94265558844E+00 -0.30163488660E+02 -0.50552485250E+02  0.13366479870E+03  0.12000000000E+03 0.  0.
<mgrwt>
<rscale>  0 0.24973803E+03</rscale>
<asrwt>0</asrwt>
<pdfrwt beam="1">  1        2 0.24983894E-01 0.24973803E+03</pdfrwt>
<pdfrwt beam="2">  1       -2 0.14771430E-01 0.24973803E+03</pdfrwt>
<totfact> 0.74537741E+03</totfact>
</mgrwt>
</event>
<event>
 4    1  0.1733772E-004  0.3572700E+03  0.7818608E-02  0.1059670E+00
          2   -1    0    0  501    0  0.00000000000E+00  0.00000000000E+00  0.40949275497E+03  0.40949275497E+03  0.00000000000E+00 0. -1.
         -2   -1    0    0    0  501 -0.00000000000E+00 -0.00000000000E+00 -0.77926802631E+02  0.77926802631E+02  0.00000000000E+00 0. -1.
         25    1    1    2    0    0 -0.52483564021E+02 -0.32413954007E+02  0.32549964668E+03  0.35235665014E+03  0.12000000000E+03 0.  0.
         25    1    1    2    0    0  0.52483564021E+02  0.32413954007E+02  0.60663056528E+01  0.13506290746E+03  0.12000000000E+03 0.  0.
<mgrwt>
<rscale>  0 0.35726999E+03</rscale>
<asrwt>0</asrwt>
<pdfrwt beam="1">  1        2 0.62998884E-01 0.35726999E+03</pdfrwt>
<pdfrwt beam="2">  1       -2 0.11988739E-01 0.35726999E+03</pdfrwt>
<totfact> 0.38675258E+03</totfact>
</mgrwt>
</event>
<event>
 4    1  0.1733772E-004  0.2687782E+03  0.7818608E-02  0.1101981E+00
          2   -1    0    0  501    0  0.00000000000E+00  0.00000000000E+00  0.72700838062E+03  0.72700838062E+03  0.00000000000E+00 0.  1.
         -2   -1    0    0    0  501 -0.00000000000E+00 -0.00000000000E+00 -0.24842123421E+02  0.24842123421E+02  0.00000000000E+00 0.  1.
         25    1    1    2    0    0  0.52446036661E+02 -0.26874055704E+02  0.31276635742E+03  0.34014055325E+03  0.12000000000E+03 0.  0.
         25    1    1    2    0    0 -0.52446036661E+02  0.26874055704E+02  0.38939989977E+03  0.41170995078E+03  0.12000000000E+03 0.  0.
<mgrwt>
<rscale>  0 0.26877821E+03</rscale>
<asrwt>0</asrwt>
<pdfrwt beam="1">  1        2 0.11184743E+00 0.26877821E+03</pdfrwt>
<pdfrwt beam="2">  1       -2 0.38218657E-02 0.26877821E+03</pdfrwt>
<totfact> 0.11725664E+04</totfact>
</mgrwt>
</event>
<event>
 4    1  0.1733772E-004  0.2766624E+03  0.7818608E-02  0.1097526E+00
          2   -1    0    0  501    0  0.00000000000E+00  0.00000000000E+00  0.52352615873E+03  0.52352615873E+03  0.00000000000E+00 0. -1.
         -2   -1    0    0    0  501 -0.00000000000E+00 -0.00000000000E+00 -0.36551211628E+02  0.36551211628E+02  0.00000000000E+00 0. -1.
         25    1    1    2    0    0 -0.61866875211E+02  0.26635797475E+02  0.21496275477E+03  0.25523706998E+03  0.12000000000E+03 0.  0.
         25    1    1    2    0    0  0.61866875211E+02 -0.26635797475E+02  0.27201219233E+03  0.30484030038E+03  0.12000000000E+03 0.  0.
<mgrwt>
<rscale>  0 0.27666236E+03</rscale>
<asrwt>0</asrwt>
<pdfrwt beam="1">  1        2 0.80542480E-01 0.27666236E+03</pdfrwt>
<pdfrwt beam="2">  1       -2 0.56232637E-02 0.27666236E+03</pdfrwt>
<totfact> 0.96124743E+03</totfact>
</mgrwt>
</event>
<event>
 4    1  0.1733772E-004  0.2741623E+03  0.7818608E-02  0.1098921E+00
          1   -1    0    0  501    0  0.00000000000E+00  0.00000000000E+00  0.29209326888E+03  0.29209326888E+03  0.00000000000E+00 0. -1.
         -1   -1    0    0    0  501 -0.00000000000E+00 -0.00000000000E+00 -0.64333010037E+02  0.64333010037E+02  0.00000000000E+00 0. -1.
         25    1    1    2    0    0 -0.36042418260E+02  0.51576690035E+02  0.14090216885E+03  0.19548051580E+03  0.12000000000E+03 0.  0.
         25    1    1    2    0    0  0.36042418260E+02 -0.51576690035E+02  0.86858089988E+02  0.16094576312E+03  0.12000000000E+03 0.  0.
<mgrwt>
<rscale>  0 0.27416228E+03</rscale>
<asrwt>0</asrwt>
<pdfrwt beam="1">  1        1 0.44937425E-01 0.27416228E+03</pdfrwt>
<pdfrwt beam="2">  1       -1 0.98973863E-02 0.27416228E+03</pdfrwt>
<totfact> 0.55762946E+03</totfact>
</mgrwt>
</event>
<event>
 4    1  0.1733772E-004  0.2441035E+03  0.7818608E-02  0.1117089E+00
          2   -1    0    0  501    0  0.00000000000E+00  0.00000000000E+00  0.89508622709E+03  0.89508622709E+03  0.00000000000E+00 0. -1.
         -2   -1    0    0    0  501 -0.00000000000E+00 -0.00000000000E+00 -0.16642673086E+02  0.16642673086E+02  0.00000000000E+00 0. -1.
         25    1    1    2    0    0  0.60005647859E+01 -0.21193755540E+02  0.42658584126E+03  0.44368982636E+03  0.12000000000E+03 0.  0.
         25    1    1    2    0    0 -0.60005647859E+01  0.21193755540E+02  0.45185771274E+03  0.46803907381E+03  0.12000000000E+03 0.  0.
<mgrwt>
<rscale>  0 0.24410348E+03</rscale>
<asrwt>0</asrwt>
<pdfrwt beam="1">  1        2 0.13770554E+00 0.24410348E+03</pdfrwt>
<pdfrwt beam="2">  1       -2 0.25604120E-02 0.24410348E+03</pdfrwt>
<totfact> 0.16260232E+04</totfact>
</mgrwt>
</event>
<event>
 4    1  0.1733772E-004  0.4957880E+03  0.7818608E-02  0.1014884E+00
          2   -1    0    0  501    0  0.00000000000E+00  0.00000000000E+00  0.31558633104E+04  0.31558633104E+04  0.00000000000E+00 0.  1.
         -2   -1    0    0    0  501 -0.00000000000E+00 -0.00000000000E+00 -0.19472147511E+02  0.19472147511E+02  0.00000000000E+00 0.  1.
         25    1    1    2    0    0 -0.15218469039E+03 -0.13248034301E+03  0.20781666983E+04  0.20913842419E+04  0.12000000000E+03 0.  0.
         25    1    1    2    0    0  0.15218469039E+03  0.13248034301E+03  0.10582244646E+04  0.10839512161E+04  0.12000000000E+03 0.  0.
<mgrwt>
<rscale>  0 0.49578800E+03</rscale>
<asrwt>0</asrwt>
<pdfrwt beam="1">  1        2 0.48551703E+00 0.49578800E+03</pdfrwt>
<pdfrwt beam="2">  1       -2 0.29957175E-02 0.49578800E+03</pdfrwt>
<totfact> 0.68634140E+02</totfact>
</mgrwt>
</event>
<event>
 4    1  0.1733772E-004  0.2865829E+03  0.7818608E-02  0.1092147E+00
         -2   -1    0    0    0  501 -0.00000000000E+00  0.00000000000E+00  0.61046042052E+02  0.61046042052E+02  0.00000000000E+00 0. -1.
          2   -1    0    0  501    0  0.00000000000E+00 -0.00000000000E+00 -0.33634341052E+03  0.33634341052E+03  0.00000000000E+00 0. -1.
         25    1    1    2    0    0 -0.64260097726E+01  0.56699718269E+02 -0.21201596115E+03  0.25021374749E+03  0.12000000000E+03 0.  0.
         25    1    1    2    0    0  0.64260097726E+01 -0.56699718269E+02 -0.63281407321E+02  0.14717570508E+03  0.12000000000E+03 0.  0.
<mgrwt>
<rscale>  0 0.28658286E+03</rscale>
<asrwt>0</asrwt>
<pdfrwt beam="1">  1        2 0.51745141E-01 0.28658286E+03</pdfrwt>
<pdfrwt beam="2">  1       -2 0.93916986E-02 0.28658286E+03</pdfrwt>
<totfact> 0.70459453E+03</totfact>
</mgrwt>
</event>
<event>
 4    1  0.1733772E-004  0.2462724E+03  0.7818608E-02  0.1115683E+00
          1   -1    0    0  501    0  0.00000000000E+00  0.00000000000E+00  0.11564788448E+03  0.11564788448E+03  0.00000000000E+00 0.  1.
         -1   -1    0    0    0  501 -0.00000000000E+00 -0.00000000000E+00 -0.13110937164E+03  0.13110937164E+03  0.00000000000E+00 0.  1.
         25    1    1    2    0    0 -0.70346235169E+01  0.24860089347E+02 -0.17497318801E+02  0.12399058890E+03  0.12000000000E+03 0.  0.
         25    1    1    2    0    0  0.70346235169E+01 -0.24860089347E+02  0.20358316353E+01  0.12276666722E+03  0.12000000000E+03 0.  0.
<mgrwt>
<rscale>  0 0.24627238E+03</rscale>
<asrwt>0</asrwt>
<pdfrwt beam="1">  1        1 0.17791982E-01 0.24627238E+03</pdfrwt>
<pdfrwt beam="2">  1       -1 0.20170673E-01 0.24627238E+03</pdfrwt>
<totfact> 0.58367724E+03</totfact>
</mgrwt>
</event>
<event>
 4    1  0.1733772E-004  0.3354531E+03  0.7818608E-02  0.1068749E+00
          1   -1    0    0  501    0  0.00000000000E+00  0.00000000000E+00  0.38093484114E+03  0.38093484114E+03  0.00000000000E+00 0.  1.
         -1   -1    0    0    0  501 -0.00000000000E+00 -0.00000000000E+00 -0.73850407868E+02  0.73850407868E+02  0.00000000000E+00 0.  1.
         25    1    1    2    0    0  0.10597016553E+02  0.11428400550E+03  0.12148654783E+03  0.20574769009E+03  0.12000000000E+03 0.  0.
         25    1    1    2    0    0 -0.10597016553E+02 -0.11428400550E+03  0.18559788544E+03  0.24903755892E+03  0.12000000000E+03 0.  0.
<mgrwt>
<rscale>  0 0.33545309E+03</rscale>
<asrwt>0</asrwt>
<pdfrwt beam="1">  1        1 0.58605359E-01 0.33545309E+03</pdfrwt>
<pdfrwt beam="2">  1       -1 0.11361601E-01 0.33545309E+03</pdfrwt>
<totfact> 0.32282104E+03</totfact>
</mgrwt>
</event>
<event>
 4    1  0.1733772E-004  0.2685988E+03  0.7818608E-02  0.1102084E+00
          2   -1    0    0  501    0  0.00000000000E+00  0.00000000000E+00  0.10238525449E+04  0.10238525449E+04  0.00000000000E+00 0. -1.
         -2   -1    0    0    0  501 -0.00000000000E+00 -0.00000000000E+00 -0.17616133184E+02  0.17616133184E+02  0.00000000000E+00 0. -1.
         25    1    1    2    0    0 -0.15348638465E+02  0.23044427298E+02  0.29540686997E+03  0.32004975419E+03  0.12000000000E+03 0.  0.
         25    1    1    2    0    0  0.15348638465E+02 -0.23044427298E+02  0.71082954174E+03  0.72141892389E+03  0.12000000000E+03 0.  0.
<mgrwt>
<rscale>  0 0.26859875E+03</rscale>
<asrwt>0</asrwt>
<pdfrwt beam="1">  1        2 0.15751573E+00 0.26859875E+03</pdfrwt>
<pdfrwt beam="2">  1       -2 0.27101751E-02 0.26859875E+03</pdfrwt>
<totfact> 0.12469332E+04</totfact>
</mgrwt>
</event>
<event>
 4    1  0.1733772E-004  0.3327047E+03  0.7818608E-02  0.1069946E+00
         -2   -1    0    0    0  501 -0.00000000000E+00  0.00000000000E+00  0.51464408799E+02  0.51464408799E+02  0.00000000000E+00 0.  1.
          2   -1    0    0  501    0  0.00000000000E+00 -0.00000000000E+00 -0.53771332868E+03  0.53771332868E+03  0.00000000000E+00 0.  1.
         25    1    1    2    0    0  0.59350425447E+02 -0.98558539780E+02 -0.23237600439E+03  0.28571815865E+03  0.12000000000E+03 0.  0.
         25    1    1    2    0    0 -0.59350425447E+02  0.98558539780E+02 -0.25387291549E+03  0.30345957883E+03  0.12000000000E+03 0.  0.
<mgrwt>
<rscale>  0 0.33270467E+03</rscale>
<asrwt>0</asrwt>
<pdfrwt beam="1">  1        2 0.82725119E-01 0.33270467E+03</pdfrwt>
<pdfrwt beam="2">  1       -2 0.79176022E-02 0.33270467E+03</pdfrwt>
<totfact> 0.55205389E+03</totfact>
</mgrwt>
</event>
<event>
 4    1  0.1733772E-004  0.3879793E+03  0.7818608E-02  0.1048023E+00
         -2   -1    0    0    0  501 -0.00000000000E+00  0.00000000000E+00  0.30494914276E+02  0.30494914276E+02  0.00000000000E+00 0.  1.
          2   -1    0    0  501    0  0.00000000000E+00 -0.00000000000E+00 -0.12340412212E+04  0.12340412212E+04  0.00000000000E+00 0.  1.
         25    1    1    2    0    0 -0.71811141097E+02 -0.76858336911E+02 -0.96129988671E+03  0.97445447104E+03  0.12000000000E+03 0.  0.
         25    1    1    2    0    0  0.71811141097E+02  0.76858336911E+02 -0.24224642023E+03  0.29008166446E+03  0.12000000000E+03 0.  0.
<mgrwt>
<rscale>  0 0.38797928E+03</rscale>
<asrwt>0</asrwt>
<pdfrwt beam="1">  1        2 0.18985250E+00 0.38797928E+03</pdfrwt>
<pdfrwt beam="2">  1       -2 0.46915252E-02 0.38797928E+03</pdfrwt>
<totfact> 0.41374978E+03</totfact>
</mgrwt>
</event>
<event>
 4    1  0.1733772E-004  0.2598053E+03  0.7818608E-02  0.1107260E+00
          2   -1    0    0  501    0  0.00000000000E+00  0.00000000000E+00  0.11066180579E+04  0.11066180579E+04  0.00000000000E+00 0. -1.
         -2   -1    0    0    0  501 -0.00000000000E+00 -0.00000000000E+00 -0.15248885447E+02  0.15248885447E+02  0.00000000000E+00 0. -1.
         25    1    1    2    0    0  0.32151910505E+02 -0.37935054749E+02  0.53976662100E+03  0.55517638537E+03  0.12000000000E+03 0.  0.
         25    1    1    2    0    0 -0.32151910505E+02  0.37935054749E+02  0.55160255142E+03  0.56669055794E+03  0.12000000000E+03 0.  0.
<mgrwt>
<rscale>  0 0.25980525E+03</rscale>
<asrwt>0</asrwt>
<pdfrwt beam="1">  1        2 0.17024887E+00 0.25980525E+03</pdfrwt>
<pdfrwt beam="2">  1       -2 0.23459832E-02 0.25980525E+03</pdfrwt>
<totfact> 0.13766537E+04</totfact>
</mgrwt>
</event>
<event>
 4    1  0.1733772E-004  0.4179031E+03  0.7818608E-02  0.1037751E+00
          1   -1    0    0  501    0  0.00000000000E+00  0.00000000000E+00  0.56243617115E+03  0.56243617115E+03  0.00000000000E+00 0.  1.
         -1   -1    0    0    0  501 -0.00000000000E+00 -0.00000000000E+00 -0.77627908478E+02  0.77627908478E+02  0.00000000000E+00 0.  1.
         25    1    1    2    0    0 -0.65924475868E+02 -0.11039435870E+02  0.48356731943E+03  0.50269797900E+03  0.12000000000E+03 0.  0.
         25    1    1    2    0    0  0.65924475868E+02  0.11039435870E+02  0.12409432390E+01  0.13736610063E+03  0.12000000000E+03 0.  0.
<mgrwt>
<rscale>  0 0.41790307E+03</rscale>
<asrwt>0</asrwt>
<pdfrwt beam="1">  1        1 0.86528639E-01 0.41790307E+03</pdfrwt>
<pdfrwt beam="2">  1       -1 0.11942756E-01 0.41790307E+03</pdfrwt>
<totfact> 0.17825645E+03</totfact>
</mgrwt>
</event>
<event>
 4    1  0.1733772E-004  0.2977084E+03  0.7818608E-02  0.1086392E+00
         -2   -1    0    0    0  501 -0.00000000000E+00  0.00000000000E+00  0.12296842760E+04  0.12296842760E+04  0.00000000000E+00 0.  1.
          2   -1    0    0  501    0  0.00000000000E+00 -0.00000000000E+00 -0.18018913217E+02  0.18018913217E+02  0.00000000000E+00 0.  1.
         25    1    1    2    0    0  0.38079821766E+02 -0.72483452732E+02  0.74187326089E+03  0.75596286878E+03  0.12000000000E+03 0.  0.
         25    1    1    2    0    0 -0.38079821766E+02  0.72483452732E+02  0.46979210192E+03  0.49174032047E+03  0.12000000000E+03 0.  0.
<mgrwt>
<rscale>  0 0.29770841E+03</rscale>
<asrwt>0</asrwt>
<pdfrwt beam="1">  1        2 0.27721415E-02 0.29770841E+03</pdfrwt>
<pdfrwt beam="2">  1       -2 0.18918213E+00 0.29770841E+03</pdfrwt>
<totfact> 0.59176356E+02</totfact>
</mgrwt>
</event>
<event>
 4    1  0.1733772E-004  0.2500588E+03  0.7818608E-02  0.1113268E+00
         -2   -1    0    0    0  501 -0.00000000000E+00  0.00000000000E+00  0.12899550009E+02  0.12899550009E+02  0.00000000000E+00 0. -1.
          2   -1    0    0  501    0  0.00000000000E+00 -0.00000000000E+00 -0.12118526020E+04  0.12118526020E+04  0.00000000000E+00 0. -1.
         25    1    1    2    0    0  0.21463063280E+02  0.23220331207E+02 -0.52479323115E+03  0.53926596623E+03  0.12000000000E+03 0.  0.
         25    1    1    2    0    0 -0.21463063280E+02 -0.23220331207E+02 -0.67415982085E+03  0.68548618580E+03  0.12000000000E+03 0.  0.
<mgrwt>
<rscale>  0 0.25005882E+03</rscale>
<asrwt>0</asrwt>
<pdfrwt beam="1">  1        2 0.18643885E+00 0.25005882E+03</pdfrwt>
<pdfrwt beam="2">  1       -2 0.19845463E-02 0.25005882E+03</pdfrwt>
<totfact> 0.15302437E+04</totfact>
</mgrwt>
</event>
<event>
 4    1  0.1733772E-004  0.2529087E+03  0.7818608E-02  0.1111480E+00
         -2   -1    0    0    0  501 -0.00000000000E+00  0.00000000000E+00  0.14803012099E+02  0.14803012099E+02  0.00000000000E+00 0.  1.
          2   -1    0    0  501    0  0.00000000000E+00 -0.00000000000E+00 -0.10802329474E+04  0.10802329474E+04  0.00000000000E+00 0.  1.
         25    1    1    2    0    0 -0.30500570131E+02  0.25410980869E+02 -0.54931479350E+03  0.56366900313E+03  0.12000000000E+03 0.  0.
         25    1    1    2    0    0  0.30500570131E+02 -0.25410980869E+02 -0.51611514175E+03  0.53136695632E+03  0.12000000000E+03 0.  0.
<mgrwt>
<rscale>  0 0.25290869E+03</rscale>
<asrwt>0</asrwt>
<pdfrwt beam="1">  1        2 0.16618971E+00 0.25290869E+03</pdfrwt>
<pdfrwt beam="2">  1       -2 0.22773861E-02 0.25290869E+03</pdfrwt>
<totfact> 0.14890254E+04</totfact>
</mgrwt>
</event>
<event>
 4    1  0.1733772E-004  0.2756247E+03  0.7818608E-02  0.1098103E+00
          1   -1    0    0  501    0  0.00000000000E+00  0.00000000000E+00  0.15026229955E+04  0.15026229955E+04  0.00000000000E+00 0.  1.
         -1   -1    0    0    0  501 -0.00000000000E+00 -0.00000000000E+00 -0.12639392826E+02  0.12639392826E+02  0.00000000000E+00 0.  1.
         25    1    1    2    0    0 -0.43266352760E+02 -0.26539643935E+00  0.45826406045E+03  0.47568686845E+03  0.12000000000E+03 0.  0.
         25    1    1    2    0    0  0.43266352760E+02  0.26539643935E+00  0.10317195422E+04  0.10395755199E+04  0.12000000000E+03 0.  0.
<mgrwt>
<rscale>  0 0.27562469E+03</rscale>
<asrwt>0</asrwt>
<pdfrwt beam="1">  1        1 0.23117263E+00 0.27562469E+03</pdfrwt>
<pdfrwt beam="2">  1       -1 0.19445232E-02 0.27562469E+03</pdfrwt>
<totfact> 0.50930968E+03</totfact>
</mgrwt>
</event>
<event>
 4    1  0.1733772E-004  0.2772716E+03  0.7818608E-02  0.1097189E+00
         -1   -1    0    0    0  501 -0.00000000000E+00  0.00000000000E+00  0.12936067452E+02  0.12936067452E+02  0.00000000000E+00 0. -1.
          1   -1    0    0  501    0  0.00000000000E+00 -0.00000000000E+00 -0.14857590431E+04  0.14857590431E+04  0.00000000000E+00 0. -1.
         25    1    1    2    0    0 -0.18224212120E+02  0.63752351266E+02 -0.84763096015E+03  0.85864703389E+03  0.12000000000E+03 0.  0.
         25    1    1    2    0    0  0.18224212120E+02 -0.63752351266E+02 -0.62519201554E+03  0.64004807671E+03  0.12000000000E+03 0.  0.
<mgrwt>
<rscale>  0 0.27727156E+03</rscale>
<asrwt>0</asrwt>
<pdfrwt beam="1">  1        1 0.22857831E+00 0.27727156E+03</pdfrwt>
<pdfrwt beam="2">  1       -1 0.19901643E-02 0.27727156E+03</pdfrwt>
<totfact> 0.50519693E+03</totfact>
</mgrwt>
</event>
<event>
 4    1  0.1733772E-004  0.3656339E+03  0.7818608E-02  0.1056375E+00
          2   -1    0    0  501    0  0.00000000000E+00  0.00000000000E+00  0.17536791746E+04  0.17536791746E+04  0.00000000000E+00 0. -1.
         -2   -1    0    0    0  501 -0.00000000000E+00 -0.00000000000E+00 -0.19058238405E+02  0.19058238405E+02  0.00000000000E+00 0. -1.
         25    1    1    2    0    0  0.13765662059E+03  0.15020676546E+01  0.90800071848E+03  0.92618405631E+03  0.12000000000E+03 0.  0.
         25    1    1    2    0    0 -0.13765662059E+03 -0.15020676546E+01  0.82662021776E+03  0.84655335674E+03  0.12000000000E+03 0.  0.
<mgrwt>
<rscale>  0 0.36563389E+03</rscale>
<asrwt>0</asrwt>
<pdfrwt beam="1">  1        2 0.26979667E+00 0.36563389E+03</pdfrwt>
<pdfrwt beam="2">  1       -2 0.29320381E-02 0.36563389E+03</pdfrwt>
<totfact> 0.43879056E+03</totfact>
</mgrwt>
</event>
<event>
 4    1  0.1733772E-004  0.4693019E+03  0.7818608E-02  0.1022117E+00
         -1   -1    0    0    0  501 -0.00000000000E+00  0.00000000000E+00  0.17111583364E+02  0.17111583364E+02  0.00000000000E+00 0. -1.
          1   -1    0    0  501    0  0.00000000000E+00 -0.00000000000E+00 -0.32177656223E+04  0.32177656223E+04  0.00000000000E+00 0. -1.
         25    1    1    2    0    0  0.12111410909E+03  0.41349119042E+02 -0.26744496781E+04  0.26801976528E+04  0.12000000000E+03 0.  0.
         25    1    1    2    0    0 -0.12111410909E+03 -0.41349119042E+02 -0.52620436076E+03  0.55467955285E+03  0.12000000000E+03 0.  0.
<mgrwt>
<rscale>  0 0.46930188E+03</rscale>
<asrwt>0</asrwt>
<pdfrwt beam="1">  1        1 0.49504039E+00 0.46930188E+03</pdfrwt>
<pdfrwt beam="2">  1       -1 0.26325538E-02 0.46930188E+03</pdfrwt>
<totfact> 0.22338678E+02</totfact>
</mgrwt>
</event>
<event>
 4    1  0.1733772E-004  0.3088870E+03  0.7818608E-02  0.1080881E+00
          2   -1    0    0  501    0  0.00000000000E+00  0.00000000000E+00  0.97530305135E+03  0.97530305135E+03  0.00000000000E+00 0.  1.
         -2   -1    0    0    0  501 -0.00000000000E+00 -0.00000000000E+00 -0.24456804758E+02  0.24456804758E+02  0.00000000000E+00 0.  1.
         25    1    1    2    0    0  0.21155787238E+01 -0.30060829036E+02  0.77461074732E+03  0.78442969027E+03  0.12000000000E+03 0.  0.
         25    1    1    2    0    0 -0.21155787238E+01  0.30060829036E+02  0.17623549928E+03  0.21533016584E+03  0.12000000000E+03 0.  0.
<mgrwt>
<rscale>  0 0.30888701E+03</rscale>
<asrwt>0</asrwt>
<pdfrwt beam="1">  1        2 0.15004659E+00 0.30888701E+03</pdfrwt>
<pdfrwt beam="2">  1       -2 0.37625861E-02 0.30888701E+03</pdfrwt>
<totfact> 0.82130716E+03</totfact>
</mgrwt>
</event>
<event>
 4    1  0.1733772E-004  0.3004883E+03  0.7818608E-02  0.1084997E+00
          2   -1    0    0  501    0  0.00000000000E+00  0.00000000000E+00  0.81121368863E+03  0.81121368863E+03  0.00000000000E+00 0.  1.
         -2   -1    0    0    0  501 -0.00000000000E+00 -0.00000000000E+00 -0.27826585848E+02  0.27826585848E+02  0.00000000000E+00 0.  1.
         25    1    1    2    0    0 -0.42128841480E+01  0.57975918213E+02  0.58503286249E+03  0.60003533702E+03  0.12000000000E+03 0.  0.
         25    1    1    2    0    0  0.42128841480E+01 -0.57975918213E+02  0.19835424030E+03  0.23900493746E+03  0.12000000000E+03 0.  0.
<mgrwt>
<rscale>  0 0.30048832E+03</rscale>
<asrwt>0</asrwt>
<pdfrwt beam="1">  1        2 0.12480209E+00 0.30048832E+03</pdfrwt>
<pdfrwt beam="2">  1       -2 0.42810138E-02 0.30048832E+03</pdfrwt>
<totfact> 0.86445082E+03</totfact>
</mgrwt>
</event>
<event>
 4    1  0.1733772E-004  0.3809117E+03  0.7818608E-02  0.1050597E+00
          1   -1    0    0  501    0  0.00000000000E+00  0.00000000000E+00  0.33416047344E+04  0.33416047344E+04  0.00000000000E+00 0. -1.
         -1   -1    0    0    0  501 -0.00000000000E+00 -0.00000000000E+00 -0.10855090592E+02  0.10855090592E+02  0.00000000000E+00 0. -1.
         25    1    1    2    0    0 -0.14444318289E+03 -0.20829135954E+02  0.14541956599E+04  0.14664183248E+04  0.12000000000E+03 0.  0.
         25    1    1    2    0    0  0.14444318289E+03  0.20829135954E+02  0.18765539839E+04  0.18860415002E+04  0.12000000000E+03 0.  0.
<mgrwt>
<rscale>  0 0.38091165E+03</rscale>
<asrwt>0</asrwt>
<pdfrwt beam="1">  1        1 0.51409222E+00 0.38091165E+03</pdfrwt>
<pdfrwt beam="2">  1       -1 0.16700166E-02 0.38091165E+03</pdfrwt>
<totfact> 0.36028271E+02</totfact>
</mgrwt>
</event>
<event>
 4    1  0.1733772E-004  0.2584068E+03  0.7818608E-02  0.1108104E+00
         -1   -1    0    0    0  501 -0.00000000000E+00  0.00000000000E+00  0.10427494773E+02  0.10427494773E+02  0.00000000000E+00 0.  1.
          1   -1    0    0  501    0  0.00000000000E+00 -0.00000000000E+00 -0.16009138602E+04  0.16009138602E+04  0.00000000000E+00 0.  1.
         25    1    1    2    0    0 -0.27344982906E+02 -0.29295284372E+02 -0.63173533091E+03  0.64427904676E+03  0.12000000000E+03 0.  0.
         25    1    1    2    0    0  0.27344982906E+02  0.29295284372E+02 -0.95875103451E+03  0.96706230820E+03  0.12000000000E+03 0.  0.
<mgrwt>
<rscale>  0 0.25840682E+03</rscale>
<asrwt>0</asrwt>
<pdfrwt beam="1">  1        1 0.24629431E+00 0.25840682E+03</pdfrwt>
<pdfrwt beam="2">  1       -1 0.16042308E-02 0.25840682E+03</pdfrwt>
<totfact> 0.58043596E+03</totfact>
</mgrwt>
</event>
<event>
 4    1  0.1733772E-004  0.2882433E+03  0.7818608E-02  0.1091270E+00
         -2   -1    0    0    0  501 -0.00000000000E+00  0.00000000000E+00  0.42707304177E+02  0.42707304177E+02  0.00000000000E+00 0.  1.
          2   -1    0    0  501    0  0.00000000000E+00 -0.00000000000E+00 -0.48635834647E+03  0.48635834647E+03  0.00000000000E+00 0.  1.
         25    1    1    2    0    0 -0.78199327860E+02  0.15507774481E+02 -0.21461604622E+03  0.25848727868E+03  0.12000000000E+03 0.  0.
         25    1    1    2    0    0  0.78199327860E+02 -0.15507774481E+02 -0.22903499608E+03  0.27057837196E+03  0.12000000000E+03 0.  0.
<mgrwt>
<rscale>  0 0.28824333E+03</rscale>
<asrwt>0</asrwt>
<pdfrwt beam="1">  1        2 0.74824364E-01 0.28824333E+03</pdfrwt>
<pdfrwt beam="2">  1       -2 0.65703542E-02 0.28824333E+03</pdfrwt>
<totfact> 0.82313208E+03</totfact>
</mgrwt>
</event>
<event>
 4    1  0.1733772E-004  0.2476333E+03  0.7818608E-02  0.1114810E+00
         -2   -1    0    0    0  501 -0.00000000000E+00  0.00000000000E+00  0.41442603036E+01  0.41442603036E+01  0.00000000000E+00 0. -1.
          2   -1    0    0  501    0  0.00000000000E+00 -0.00000000000E+00 -0.36992269252E+04  0.36992269252E+04  0.00000000000E+00 0. -1.
         25    1    1    2    0    0 -0.13457038782E+02  0.20397503029E+02 -0.15744693847E+04  0.15792248078E+04  0.12000000000E+03 0.  0.
         25    1    1    2    0    0  0.13457038782E+02 -0.20397503029E+02 -0.21206132801E+04  0.21241463777E+04  0.12000000000E+03 0.  0.
<mgrwt>
<rscale>  0 0.24763327E+03</rscale>
<asrwt>0</asrwt>
<pdfrwt beam="1">  1        2 0.56911204E+00 0.24763327E+03</pdfrwt>
<pdfrwt beam="2">  1       -2 0.63757828E-03 0.24763327E+03</pdfrwt>
<totfact> 0.30493414E+03</totfact>
</mgrwt>
</event>
<event>
 4    1  0.1733772E-004  0.3006439E+03  0.7818608E-02  0.1084919E+00
          2   -1    0    0  501    0  0.00000000000E+00  0.00000000000E+00  0.24221650746E+04  0.24221650746E+04  0.00000000000E+00 0. -1.
         -2   -1    0    0    0  501 -0.00000000000E+00 -0.00000000000E+00 -0.93291308143E+01  0.93291308143E+01  0.00000000000E+00 0. -1.
         25    1    1    2    0    0 -0.44442253299E+02  0.78876024140E+02  0.12032465090E+04  0.12125999763E+04  0.12000000000E+03 0.  0.
         25    1    1    2    0    0  0.44442253299E+02 -0.78876024140E+02  0.12095894347E+04  0.12188942291E+04  0.12000000000E+03 0.  0.
<mgrwt>
<rscale>  0 0.30064394E+03</rscale>
<asrwt>0</asrwt>
<pdfrwt beam="1">  1        2 0.37264028E+00 0.30064394E+03</pdfrwt>
<pdfrwt beam="2">  1       -2 0.14352528E-02 0.30064394E+03</pdfrwt>
<totfact> 0.55642844E+03</totfact>
</mgrwt>
</event>
<event>
 4    1  0.1733772E-004  0.2743106E+03  0.7818608E-02  0.1098838E+00
         -1   -1    0    0    0  501 -0.00000000000E+00  0.00000000000E+00  0.49937843723E+02  0.49937843723E+02  0.00000000000E+00 0.  1.
          1   -1    0    0  501    0  0.00000000000E+00 -0.00000000000E+00 -0.37669992328E+03  0.37669992328E+03  0.00000000000E+00 0.  1.
         25    1    1    2    0    0 -0.34099332397E+02  0.44955123616E+02 -0.10888184833E+03  0.17157792546E+03  0.12000000000E+03 0.  0.
         25    1    1    2    0    0  0.34099332397E+02 -0.44955123616E+02 -0.21788023122E+03  0.25505984154E+03  0.12000000000E+03 0.  0.
<mgrwt>
<rscale>  0 0.27431064E+03</rscale>
<asrwt>0</asrwt>
<pdfrwt beam="1">  1        1 0.57953833E-01 0.27431064E+03</pdfrwt>
<pdfrwt beam="2">  1       -1 0.76827454E-02 0.27431064E+03</pdfrwt>
<totfact> 0.59625694E+03</totfact>
</mgrwt>
</event>
<event>
 4    1  0.1733772E-004  0.2652769E+03  0.7818608E-02  0.1104014E+00
         -2   -1    0    0    0  501 -0.00000000000E+00  0.00000000000E+00  0.26907111325E+02  0.26907111325E+02  0.00000000000E+00 0. -1.
          2   -1    0    0  501    0  0.00000000000E+00 -0.00000000000E+00 -0.65384065227E+03  0.65384065227E+03  0.00000000000E+00 0. -1.
         25    1    1    2    0    0  0.33241811059E+02 -0.84881712422E+01 -0.42868489711E+03  0.44648382733E+03  0.12000000000E+03 0.  0.
         25    1    1    2    0    0 -0.33241811059E+02  0.84881712422E+01 -0.19824864383E+03  0.23426393626E+03  0.12000000000E+03 0.  0.
<mgrwt>
<rscale>  0 0.26527694E+03</rscale>
<asrwt>0</asrwt>
<pdfrwt beam="1">  1        2 0.10059087E+00 0.26527694E+03</pdfrwt>
<pdfrwt beam="2">  1       -2 0.41395556E-02 0.26527694E+03</pdfrwt>
<totfact> 0.11813899E+04</totfact>
</mgrwt>
</event>
<event>
 4    1  0.1733772E-004  0.2895149E+03  0.7818608E-02  0.1090603E+00
          1   -1    0    0  501    0  0.00000000000E+00  0.00000000000E+00  0.51184552185E+03  0.51184552185E+03  0.00000000000E+00 0. -1.
         -1   -1    0    0    0  501 -0.00000000000E+00 -0.00000000000E+00 -0.40939534948E+02  0.40939534948E+02  0.00000000000E+00 0. -1.
         25    1    1    2    0    0 -0.61520288819E+01 -0.80639152983E+02  0.22825872929E+03  0.27026388577E+03  0.12000000000E+03 0.  0.
         25    1    1    2    0    0  0.61520288819E+01  0.80639152983E+02  0.24264725761E+03  0.28252117103E+03  0.12000000000E+03 0.  0.
<mgrwt>
<rscale>  0 0.28951489E+03</rscale>
<asrwt>0</asrwt>
<pdfrwt beam="1">  1        1 0.78745460E-01 0.28951489E+03</pdfrwt>
<pdfrwt beam="2">  1       -1 0.62983904E-02 0.28951489E+03</pdfrwt>
<totfact> 0.54176744E+03</totfact>
</mgrwt>
</event>
<event>
 4    1  0.1733772E-004  0.2607106E+03  0.7818608E-02  0.1106717E+00
         -2   -1    0    0    0  501 -0.00000000000E+00  0.00000000000E+00  0.17875402292E+02  0.17875402292E+02  0.00000000000E+00 0.  1.
          2   -1    0    0  501    0  0.00000000000E+00 -0.00000000000E+00 -0.95060828223E+03  0.95060828223E+03  0.00000000000E+00 0.  1.
         25    1    1    2    0    0  0.39020816428E+02  0.28759988625E+02 -0.52424373420E+03  0.53998264223E+03  0.12000000000E+03 0.  0.
         25    1    1    2    0    0 -0.39020816428E+02 -0.28759988625E+02 -0.40848914574E+03  0.42850104229E+03  0.12000000000E+03 0.  0.
<mgrwt>
<rscale>  0 0.26071061E+03</rscale>
<asrwt>0</asrwt>
<pdfrwt beam="1">  1        2 0.14624746E+00 0.26071061E+03</pdfrwt>
<pdfrwt beam="2">  1       -2 0.27500613E-02 0.26071061E+03</pdfrwt>
<totfact> 0.13523064E+04</totfact>
</mgrwt>
</event>
<event>
 4    1  0.1733772E-004  0.3219558E+03  0.7818608E-02  0.1074753E+00
         -1   -1    0    0    0  501 -0.00000000000E+00  0.00000000000E+00  0.22965448576E+02  0.22965448576E+02  0.00000000000E+00 0. -1.
          1   -1    0    0  501    0  0.00000000000E+00 -0.00000000000E+00 -0.11283860481E+04  0.11283860481E+04  0.00000000000E+00 0. -1.
         25    1    1    2    0    0 -0.61793977836E+02 -0.63879591610E+02 -0.33770291300E+03  0.36924565721E+03  0.12000000000E+03 0.  0.
         25    1    1    2    0    0  0.61793977836E+02  0.63879591610E+02 -0.76771768648E+03  0.78210583942E+03  0.12000000000E+03 0.  0.
<mgrwt>
<rscale>  0 0.32195585E+03</rscale>
<asrwt>0</asrwt>
<pdfrwt beam="1">  1        1 0.17359787E+00 0.32195585E+03</pdfrwt>
<pdfrwt beam="2">  1       -1 0.35331455E-02 0.32195585E+03</pdfrwt>
<totfact> 0.38173880E+03</totfact>
</mgrwt>
</event>
<event>
 4    1  0.1733772E-004  0.2823357E+03  0.7818608E-02  0.1094420E+00
          1   -1    0    0  501    0  0.00000000000E+00  0.00000000000E+00  0.33317030622E+03  0.33317030622E+03  0.00000000000E+00 0. -1.
         -1   -1    0    0    0  501 -0.00000000000E+00 -0.00000000000E+00 -0.59814353855E+02  0.59814353855E+02  0.00000000000E+00 0. -1.
         25    1    1    2    0    0  0.52128950117E+02 -0.39141927269E+02  0.18645390016E+03  0.23111593367E+03  0.12000000000E+03 0.  0.
         25    1    1    2    0    0 -0.52128950117E+02  0.39141927269E+02  0.86902052199E+02  0.16186872640E+03  0.12000000000E+03 0.  0.
<mgrwt>
<rscale>  0 0.28233573E+03</rscale>
<asrwt>0</asrwt>
<pdfrwt beam="1">  1        1 0.51256969E-01 0.28233573E+03</pdfrwt>
<pdfrwt beam="2">  1       -1 0.92022085E-02 0.28233573E+03</pdfrwt>
<totfact> 0.52905110E+03</totfact>
</mgrwt>
</event>
<event>
 4    1  0.1733772E-004  0.2941711E+03  0.7818608E-02  0.1088191E+00
          2   -1    0    0  501    0  0.00000000000E+00  0.00000000000E+00  0.10246815739E+04  0.10246815739E+04  0.00000000000E+00 0.  1.
         -2   -1    0    0    0  501 -0.00000000000E+00 -0.00000000000E+00 -0.21113049491E+02  0.21113049491E+02  0.00000000000E+00 0.  1.
         25    1    1    2    0    0  0.37588230525E+02 -0.55573116532E+02  0.68763266957E+03  0.70124170912E+03  0.12000000000E+03 0.  0.
         25    1    1    2    0    0 -0.37588230525E+02  0.55573116532E+02  0.31593585479E+03  0.34455291422E+03  0.12000000000E+03 0.  0.
<mgrwt>
<rscale>  0 0.29417106E+03</rscale>
<asrwt>0</asrwt>
<pdfrwt beam="1">  1        2 0.15764328E+00 0.29417106E+03</pdfrwt>
<pdfrwt beam="2">  1       -2 0.32481623E-02 0.29417106E+03</pdfrwt>
<totfact> 0.95369913E+03</totfact>
</mgrwt>
</event>
<event>
 4    1  0.1733772E-004  0.2806732E+03  0.7818608E-02  0.1095322E+00
         -2   -1    0    0    0  501 -0.00000000000E+00  0.00000000000E+00  0.11008129869E+02  0.11008129869E+02  0.00000000000E+00 0.  1.
          2   -1    0    0  501    0  0.00000000000E+00 -0.00000000000E+00 -0.17890739720E+04  0.17890739720E+04  0.00000000000E+00 0.  1.
         25    1    1    2    0    0 -0.63305631811E+02  0.21511289982E+02 -0.70493017062E+03  0.71819000555E+03  0.12000000000E+03 0.  0.
         25    1    1    2    0    0  0.63305631811E+02 -0.21511289982E+02 -0.10731356715E+04  0.10818920963E+04  0.12000000000E+03 0.  0.
<mgrwt>
<rscale>  0 0.28067318E+03</rscale>
<asrwt>0</asrwt>
<pdfrwt beam="1">  1        2 0.27524206E+00 0.28067318E+03</pdfrwt>
<pdfrwt beam="2">  1       -2 0.16935590E-02 0.28067318E+03</pdfrwt>
<totfact> 0.94727903E+03</totfact>
</mgrwt>
</event>
<event>
 4    1  0.1733772E-004  0.2775452E+03  0.7818608E-02  0.1097037E+00
          2   -1    0    0  501    0  0.00000000000E+00  0.00000000000E+00  0.38814232234E+03  0.38814232234E+03  0.00000000000E+00 0. -1.
         -2   -1    0    0    0  501 -0.00000000000E+00 -0.00000000000E+00 -0.49615404043E+02  0.49615404043E+02  0.00000000000E+00 0. -1.
         25    1    1    2    0    0  0.32888304805E+02 -0.48090112273E+02  0.10892389659E+03  0.17221705705E+03  0.12000000000E+03 0.  0.
         25    1    1    2    0    0 -0.32888304805E+02  0.48090112273E+02  0.22960302172E+03  0.26554066934E+03  0.12000000000E+03 0.  0.
<mgrwt>
<rscale>  0 0.27754523E+03</rscale>
<asrwt>0</asrwt>
<pdfrwt beam="1">  1        2 0.59714202E-01 0.27754523E+03</pdfrwt>
<pdfrwt beam="2">  1       -2 0.76331393E-02 0.27754523E+03</pdfrwt>
<totfact> 0.83464955E+03</totfact>
</mgrwt>
</event>
<event>
 4    1  0.1733772E-004  0.2644777E+03  0.7818608E-02  0.1104482E+00
          1   -1    0    0  501    0  0.00000000000E+00  0.00000000000E+00  0.16253389150E+03  0.16253389150E+03  0.00000000000E+00 0.  1.
         -1   -1    0    0    0  501 -0.00000000000E+00 -0.00000000000E+00 -0.10759056700E+03  0.10759056700E+03  0.00000000000E+00 0.  1.
         25    1    1    2    0    0  0.15722408004E+02 -0.32604038727E+02  0.70524904655E+02  0.14381926029E+03  0.12000000000E+03 0.  0.
         25    1    1    2    0    0 -0.15722408004E+02  0.32604038727E+02 -0.15581580160E+02  0.12630519821E+03  0.12000000000E+03 0.  0.
<mgrwt>
<rscale>  0 0.26447770E+03</rscale>
<asrwt>0</asrwt>
<pdfrwt beam="1">  1        1 0.25005214E-01 0.26447770E+03</pdfrwt>
<pdfrwt beam="2">  1       -1 0.16552395E-01 0.26447770E+03</pdfrwt>
<totfact> 0.51994766E+03</totfact>
</mgrwt>
</event>
<event>
 4    1  0.1733772E-004  0.2915429E+03  0.7818608E-02  0.1089546E+00
          2   -1    0    0  501    0  0.00000000000E+00  0.00000000000E+00  0.19217920618E+03  0.19217920618E+03  0.00000000000E+00 0.  1.
         -2   -1    0    0    0  501 -0.00000000000E+00 -0.00000000000E+00 -0.11057034129E+03  0.11057034129E+03  0.00000000000E+00 0.  1.
         25    1    1    2    0    0  0.74056544149E+02 -0.23911888338E+01  0.79089340125E+02  0.16169481512E+03  0.12000000000E+03 0.  0.
         25    1    1    2    0    0 -0.74056544149E+02  0.23911888338E+01  0.25195247657E+01  0.14105473236E+03  0.12000000000E+03 0.  0.
<mgrwt>
<rscale>  0 0.29154293E+03</rscale>
<asrwt>0</asrwt>
<pdfrwt beam="1">  1        2 0.29566032E-01 0.29154293E+03</pdfrwt>
<pdfrwt beam="2">  1       -2 0.17010822E-01 0.29154293E+03</pdfrwt>
<totfact> 0.49202706E+03</totfact>
</mgrwt>
</event>
<event>
 4    1  0.1733772E-004  0.3447785E+03  0.7818608E-02  0.1064779E+00
          2   -1    0    0  501    0  0.00000000000E+00  0.00000000000E+00  0.99757761963E+03  0.99757761963E+03  0.00000000000E+00 0.  1.
         -2   -1    0    0    0  501 -0.00000000000E+00 -0.00000000000E+00 -0.29790208155E+02  0.29790208155E+02  0.00000000000E+00 0.  1.
         25    1    1    2    0    0  0.35330584040E+02  0.10316098944E+03  0.30943958427E+03  0.34934695679E+03  0.12000000000E+03 0.  0.
         25    1    1    2    0    0 -0.35330584040E+02 -0.10316098944E+03  0.65834782721E+03  0.67802087099E+03  0.12000000000E+03 0.  0.
<mgrwt>
<rscale>  0 0.34477845E+03</rscale>
<asrwt>0</asrwt>
<pdfrwt beam="1">  1        2 0.15347345E+00 0.34477845E+03</pdfrwt>
<pdfrwt beam="2">  1       -2 0.45831097E-02 0.34477845E+03</pdfrwt>
<totfact> 0.59140719E+03</totfact>
</mgrwt>
</event>
<event>
 4    1  0.1733772E-004  0.2566981E+03  0.7818608E-02  0.1109143E+00
          1   -1    0    0  501    0  0.00000000000E+00  0.00000000000E+00  0.18877480715E+03  0.18877480715E+03  0.00000000000E+00 0. -1.
         -1   -1    0    0    0  501 -0.00000000000E+00 -0.00000000000E+00 -0.87265271997E+02  0.87265271997E+02  0.00000000000E+00 0. -1.
         25    1    1    2    0    0 -0.96226177897E+01  0.39895145880E+02  0.29538281618E+02  0.13021799998E+03  0.12000000000E+03 0.  0.
         25    1    1    2    0    0  0.96226177897E+01 -0.39895145880E+02  0.71971253539E+02  0.14582207917E+03  0.12000000000E+03 0.  0.
<mgrwt>
<rscale>  0 0.25669815E+03</rscale>
<asrwt>0</asrwt>
<pdfrwt beam="1">  1        1 0.29042278E-01 0.25669815E+03</pdfrwt>
<pdfrwt beam="2">  1       -1 0.13425426E-01 0.25669815E+03</pdfrwt>
<totfact> 0.59875776E+03</totfact>
</mgrwt>
</event>
<event>
 4    1  0.1733772E-004  0.2962438E+03  0.7818608E-02  0.1087134E+00
         -2   -1    0    0    0  501 -0.00000000000E+00  0.00000000000E+00  0.30555583592E+02  0.30555583592E+02  0.00000000000E+00 0.  1.
          2   -1    0    0  501    0  0.00000000000E+00 -0.00000000000E+00 -0.71803870680E+03  0.71803870680E+03  0.00000000000E+00 0.  1.
         25    1    1    2    0    0 -0.18091573755E+02 -0.73177453518E+02 -0.45266021568E+03  0.47432427263E+03  0.12000000000E+03 0.  0.
         25    1    1    2    0    0  0.18091573755E+02  0.73177453518E+02 -0.23482290753E+03  0.27427001776E+03  0.12000000000E+03 0.  0.
<mgrwt>
<rscale>  0 0.29624376E+03</rscale>
<asrwt>0</asrwt>
<pdfrwt beam="1">  1        2 0.11046749E+00 0.29624376E+03</pdfrwt>
<pdfrwt beam="2">  1       -2 0.47008592E-02 0.29624376E+03</pdfrwt>
<totfact> 0.87396454E+03</totfact>
</mgrwt>
</event>
<event>
 4    1  0.1733772E-004  0.2810858E+03  0.7818608E-02  0.1095097E+00
          2   -1    0    0  501    0  0.00000000000E+00  0.00000000000E+00  0.31584661120E+04  0.31584661120E+04  0.00000000000E+00 0. -1.
         -2   -1    0    0    0  501 -0.00000000000E+00 -0.00000000000E+00 -0.62537677724E+01  0.62537677724E+01  0.00000000000E+00 0. -1.
         25    1    1    2    0    0  0.66787668931E+02 -0.29390080550E+02  0.15165892069E+04  0.15230781963E+04  0.12000000000E+03 0.  0.
         25    1    1    2    0    0 -0.66787668931E+02  0.29390080550E+02  0.16356231374E+04  0.16416416835E+04  0.12000000000E+03 0.  0.
<mgrwt>
<rscale>  0 0.28108585E+03</rscale>
<asrwt>0</asrwt>
<pdfrwt beam="1">  1        2 0.48591659E+00 0.28108585E+03</pdfrwt>
<pdfrwt beam="2">  1       -2 0.96212064E-03 0.28108585E+03</pdfrwt>
<totfact> 0.37695758E+03</totfact>
</mgrwt>
</event>
<event>
 4    1  0.1733772E-004  0.2884521E+03  0.7818608E-02  0.1091160E+00
          2   -1    0    0  501    0  0.00000000000E+00  0.00000000000E+00  0.13841680442E+04  0.13841680442E+04  0.00000000000E+00 0. -1.
         -2   -1    0    0    0  501 -0.00000000000E+00 -0.00000000000E+00 -0.15027915354E+02  0.15027915354E+02  0.00000000000E+00 0. -1.
         25    1    1    2    0    0 -0.26637845518E+02 -0.45687929746E+02  0.39335816571E+03  0.41464154190E+03  0.12000000000E+03 0.  0.
         25    1    1    2    0    0  0.26637845518E+02  0.45687929746E+02  0.97578196309E+03  0.98455441761E+03  0.12000000000E+03 0.  0.
<mgrwt>
<rscale>  0 0.28845215E+03</rscale>
<asrwt>0</asrwt>
<pdfrwt beam="1">  1        2 0.21294883E+00 0.28845215E+03</pdfrwt>
<pdfrwt beam="2">  1       -2 0.23119881E-02 0.28845215E+03</pdfrwt>
<totfact> 0.98468426E+03</totfact>
</mgrwt>
</event>
<event>
 4    1  0.1733772E-004  0.3694376E+03  0.7818608E-02  0.1054908E+00
          2   -1    0    0  501    0  0.00000000000E+00  0.00000000000E+00  0.28356160836E+04  0.28356160836E+04  0.00000000000E+00 0.  1.
         -2   -1    0    0    0  501 -0.00000000000E+00 -0.00000000000E+00 -0.12033022133E+02  0.12033022133E+02  0.00000000000E+00 0.  1.
         25    1    1    2    0    0  0.32764219487E+02  0.13272704906E+03  0.11642836988E+04  0.11784084584E+04  0.12000000000E+03 0.  0.
         25    1    1    2    0    0 -0.32764219487E+02 -0.13272704906E+03  0.16592993627E+04  0.16692406473E+04  0.12000000000E+03 0.  0.
<mgrwt>
<rscale>  0 0.36943758E+03</rscale>
<asrwt>0</asrwt>
<pdfrwt beam="1">  1        2 0.43624810E+00 0.36943758E+03</pdfrwt>
<pdfrwt beam="2">  1       -2 0.18512364E-02 0.36943758E+03</pdfrwt>
<totfact> 0.22300031E+03</totfact>
</mgrwt>
</event>
<event>
 4    1  0.1733772E-004  0.2503885E+03  0.7818608E-02  0.1113060E+00
         -2   -1    0    0    0  501 -0.00000000000E+00  0.00000000000E+00  0.21902469241E+03  0.21902469241E+03  0.00000000000E+00 0. -1.
          2   -1    0    0  501    0  0.00000000000E+00 -0.00000000000E+00 -0.71560884254E+02  0.71560884254E+02  0.00000000000E+00 0. -1.
         25    1    1    2    0    0 -0.26194682636E+02 -0.20987961326E+02  0.87800044570E+02  0.15243196432E+03  0.12000000000E+03 0.  0.
         25    1    1    2    0    0  0.26194682636E+02  0.20987961326E+02  0.59663763584E+02  0.13815361235E+03  0.12000000000E+03 0.  0.
<mgrwt>
<rscale>  0 0.25038850E+03</rscale>
<asrwt>0</asrwt>
<pdfrwt beam="1">  1        2 0.11009367E-01 0.25038850E+03</pdfrwt>
<pdfrwt beam="2">  1       -2 0.33696106E-01 0.25038850E+03</pdfrwt>
<totfact> 0.46367571E+03</totfact>
</mgrwt>
</event>
<event>
 4    1  0.1733772E-004  0.3127371E+03  0.7818608E-02  0.1079041E+00
          2   -1    0    0  501    0  0.00000000000E+00  0.00000000000E+00  0.62382332086E+03  0.62382332086E+03  0.00000000000E+00 0.  1.
         -2   -1    0    0    0  501 -0.00000000000E+00 -0.00000000000E+00 -0.39195598160E+02  0.39195598160E+02  0.00000000000E+00 0.  1.
         25    1    1    2    0    0  0.16231983714E+02  0.94060420100E+02  0.22730433736E+03  0.27418625368E+03  0.12000000000E+03 0.  0.
         25    1    1    2    0    0 -0.16231983714E+02 -0.94060420100E+02  0.35732338534E+03  0.38883266534E+03  0.12000000000E+03 0.  0.
<mgrwt>
<rscale>  0 0.31273713E+03</rscale>
<asrwt>0</asrwt>
<pdfrwt beam="1">  1        2 0.95972811E-01 0.31273713E+03</pdfrwt>
<pdfrwt beam="2">  1       -2 0.60300925E-02 0.31273713E+03</pdfrwt>
<totfact> 0.70840951E+03</totfact>
</mgrwt>
</event>
<event>
 4    1  0.1733772E-004  0.2745981E+03  0.7818608E-02  0.1098676E+00
          2   -1    0    0  501    0  0.00000000000E+00  0.00000000000E+00  0.61306168356E+02  0.61306168356E+02  0.00000000000E+00 0. -1.
         -2   -1    0    0    0  501 -0.00000000000E+00 -0.00000000000E+00 -0.30749002544E+03  0.30749002544E+03  0.00000000000E+00 0. -1.
         25    1    1    2    0    0 -0.30098761057E+02 -0.59420182568E+02 -0.12817808796E+03  0.18779327929E+03  0.12000000000E+03 0.  0.
         25    1    1    2    0    0  0.30098761057E+02  0.59420182568E+02 -0.11800576912E+03  0.18100291451E+03  0.12000000000E+03 0.  0.
<mgrwt>
<rscale>  0 0.27459814E+03</rscale>
<asrwt>0</asrwt>
<pdfrwt beam="1">  1        2 0.94317181E-02 0.27459814E+03</pdfrwt>
<pdfrwt beam="2">  1       -2 0.47306158E-01 0.27459814E+03</pdfrwt>
<totfact> 0.29480034E+03</totfact>
</mgrwt>
</event>
<event>
 4    1  0.1733772E-004  0.2636478E+03  0.7818608E-02  0.1104971E+00
          2   -1    0    0  501    0  0.00000000000E+00  0.00000000000E+00  0.37852837180E+02  0.37852837180E+02  0.00000000000E+00 0.  1.
         -2   -1    0    0    0  501 -0.00000000000E+00 -0.00000000000E+00 -0.45908164716E+03  0.45908164716E+03  0.00000000000E+00 0.  1.
         25    1    1    2    0    0  0.36530878081E+02 -0.30534356579E+02 -0.26086200461E+03  0.29105985198E+03  0.12000000000E+03 0.  0.
         25    1    1    2    0    0 -0.36530878081E+02  0.30534356579E+02 -0.16036680537E+03  0.20587463236E+03  0.12000000000E+03 0.  0.
<mgrwt>
<rscale>  0 0.26364782E+03</rscale>
<asrwt>0</asrwt>
<pdfrwt beam="1">  1        2 0.58235137E-02 0.26364782E+03</pdfrwt>
<pdfrwt beam="2">  1       -2 0.70627942E-01 0.26364782E+03</pdfrwt>
<totfact> 0.23934104E+03</totfact>
</mgrwt>
</event>
<event>
 4    1  0.1733772E-004  0.2488005E+03  0.7818608E-02  0.1114065E+00
          1   -1    0    0  501    0  0.00000000000E+00  0.00000000000E+00  0.16599615555E+04  0.16599615555E+04  0.00000000000E+00 0.  1.
         -1   -1    0    0    0  501 -0.00000000000E+00 -0.00000000000E+00 -0.93227607136E+01  0.93227607136E+01  0.00000000000E+00 0.  1.
         25    1    1    2    0    0  0.23610321943E+02  0.19435491659E+02  0.90477289683E+03  0.91320818025E+03  0.12000000000E+03 0.  0.
         25    1    1    2    0    0 -0.23610321943E+02 -0.19435491659E+02  0.74586589795E+03  0.75607613596E+03  0.12000000000E+03 0.  0.
<mgrwt>
<rscale>  0 0.24880052E+03</rscale>
<asrwt>0</asrwt>
<pdfrwt beam="1">  1        1 0.25537847E+00 0.24880052E+03</pdfrwt>
<pdfrwt beam="2">  1       -1 0.14342722E-02 0.24880052E+03</pdfrwt>
<totfact> 0.62460389E+03</totfact>
</mgrwt>
</event>
<event>
 4    1  0.1733772E-004  0.2945386E+03  0.7818608E-02  0.1088003E+00
         -3   -1    0    0    0  501 -0.00000000000E+00  0.00000000000E+00  0.58140667638E+02  0.58140667638E+02  0.00000000000E+00 0. -1.
          3   -1    0    0  501    0  0.00000000000E+00 -0.00000000000E+00 -0.37303067254E+03  0.37303067254E+03  0.00000000000E+00 0. -1.
         25    1    1    2    0    0  0.49186003805E+02 -0.65631756568E+02 -0.12275792096E+03  0.19025324596E+03  0.12000000000E+03 0.  0.
         25    1    1    2    0    0 -0.49186003805E+02  0.65631756568E+02 -0.19213208394E+03  0.24091809422E+03  0.12000000000E+03 0.  0.
<mgrwt>
<rscale>  0 0.29453864E+03</rscale>
<asrwt>0</asrwt>
<pdfrwt beam="1">  1        3 0.57389334E-01 0.29453864E+03</pdfrwt>
<pdfrwt beam="2">  1       -3 0.89447181E-02 0.29453864E+03</pdfrwt>
<totfact> 0.68559065E+02</totfact>
</mgrwt>
</event>
<event>
 4    1  0.1733772E-004  0.2549738E+03  0.7818608E-02  0.1110201E+00
          1   -1    0    0  501    0  0.00000000000E+00  0.00000000000E+00  0.24884214056E+03  0.24884214056E+03  0.00000000000E+00 0.  1.
         -1   -1    0    0    0  501 -0.00000000000E+00 -0.00000000000E+00 -0.65314145543E+02  0.65314145543E+02  0.00000000000E+00 0.  1.
         25    1    1    2    0    0 -0.38962420839E+02  0.17467698235E+02  0.85046888994E+02  0.15315405331E+03  0.12000000000E+03 0.  0.
         25    1    1    2    0    0  0.38962420839E+02 -0.17467698235E+02  0.98481106024E+02  0.16100223279E+03  0.12000000000E+03 0.  0.
<mgrwt>
<rscale>  0 0.25497382E+03</rscale>
<asrwt>0</asrwt>
<pdfrwt beam="1">  1        1 0.38283406E-01 0.25497382E+03</pdfrwt>
<pdfrwt beam="2">  1       -1 0.10048330E-01 0.25497382E+03</pdfrwt>
<totfact> 0.66425684E+03</totfact>
</mgrwt>
</event>
<event>
 4    1  0.1733772E-004  0.2992945E+03  0.7818608E-02  0.1085594E+00
         -1   -1    0    0    0  501 -0.00000000000E+00  0.00000000000E+00  0.92783023178E+02  0.92783023178E+02  0.00000000000E+00 0. -1.
          1   -1    0    0  501    0  0.00000000000E+00 -0.00000000000E+00 -0.24136205139E+03  0.24136205139E+03  0.00000000000E+00 0. -1.
         25    1    1    2    0    0 -0.46266718648E+02 -0.76215322048E+02 -0.81771863854E+02  0.17039959591E+03  0.12000000000E+03 0.  0.
         25    1    1    2    0    0  0.46266718648E+02  0.76215322048E+02 -0.66807164355E+02  0.16374547865E+03  0.12000000000E+03 0.  0.
<mgrwt>
<rscale>  0 0.29929451E+03</rscale>
<asrwt>0</asrwt>
<pdfrwt beam="1">  1        1 0.37132623E-01 0.29929451E+03</pdfrwt>
<pdfrwt beam="2">  1       -1 0.14274311E-01 0.29929451E+03</pdfrwt>
<totfact> 0.40077826E+03</totfact>
</mgrwt>
</event>
<event>
 4    1  0.1733772E-004  0.4024423E+03  0.7818608E-02  0.1042937E+00
          2   -1    0    0  501    0  0.00000000000E+00  0.00000000000E+00  0.60324390003E+03  0.60324390003E+03  0.00000000000E+00 0. -1.
         -2   -1    0    0    0  501 -0.00000000000E+00 -0.00000000000E+00 -0.67120360379E+02  0.67120360379E+02  0.00000000000E+00 0. -1.
         25    1    1    2    0    0 -0.14891827188E+03 -0.62236034155E+02  0.27859318973E+03  0.34360462891E+03  0.12000000000E+03 0.  0.
         25    1    1    2    0    0  0.14891827188E+03  0.62236034155E+02  0.25753034993E+03  0.32675963150E+03  0.12000000000E+03 0.  0.
<mgrwt>
<rscale>  0 0.40244228E+03</rscale>
<asrwt>0</asrwt>
<pdfrwt beam="1">  1        2 0.92806750E-01 0.40244228E+03</pdfrwt>
<pdfrwt beam="2">  1       -2 0.10326210E-01 0.40244228E+03</pdfrwt>
<totfact> 0.31783638E+03</totfact>
</mgrwt>
</event>
<event>
 4    1  0.1733772E-004  0.2923740E+03  0.7818608E-02  0.1089116E+00
          1   -1    0    0  501    0  0.00000000000E+00  0.00000000000E+00  0.11377377130E+04  0.11377377130E+04  0.00000000000E+00 0. -1.
         -1   -1    0    0    0  501 -0.00000000000E+00 -0.00000000000E+00 -0.18783443510E+02  0.18783443510E+02  0.00000000000E+00 0. -1.
         25    1    1    2    0    0 -0.52862987515E+02  0.95281872836E+01  0.30664658378E+03  0.33364263688E+03  0.12000000000E+03 0.  0.
         25    1    1    2    0    0  0.52862987515E+02 -0.95281872836E+01  0.81230768575E+03  0.82287851966E+03  0.12000000000E+03 0.  0.
<mgrwt>
<rscale>  0 0.29237395E+03</rscale>
<asrwt>0</asrwt>
<pdfrwt beam="1">  1        1 0.17503652E+00 0.29237395E+03</pdfrwt>
<pdfrwt beam="2">  1       -1 0.28897614E-02 0.29237395E+03</pdfrwt>
<totfact> 0.50593648E+03</totfact>
</mgrwt>
</event>
<event>
 4    1  0.1733772E-004  0.2560489E+03  0.7818608E-02  0.1109541E+00
          2   -1    0    0  501    0  0.00000000000E+00  0.00000000000E+00  0.70834159647E+03  0.70834159647E+03  0.00000000000E+00 0. -1.
         -2   -1    0    0    0  501 -0.00000000000E+00 -0.00000000000E+00 -0.23138919551E+02  0.23138919551E+02  0.00000000000E+00 0. -1.
         25    1    1    2    0    0 -0.43314667454E+02 -0.91362458308E+01  0.32679112130E+03  0.35093028990E+03  0.12000000000E+03 0.  0.
         25    1    1    2    0    0  0.43314667454E+02  0.91362458308E+01  0.35841155562E+03  0.38055022613E+03  0.12000000000E+03 0.  0.
<mgrwt>
<rscale>  0 0.25604890E+03</rscale>
<asrwt>0</asrwt>
<pdfrwt beam="1">  1        2 0.10897561E+00 0.25604890E+03</pdfrwt>
<pdfrwt beam="2">  1       -2 0.35598343E-02 0.25604890E+03</pdfrwt>
<totfact> 0.13436623E+04</totfact>
</mgrwt>
</event>
<event>
 4    1  0.1733772E-004  0.3030522E+03  0.7818608E-02  0.1083725E+00
          2   -1    0    0  501    0  0.00000000000E+00  0.00000000000E+00  0.10786662723E+03  0.10786662723E+03  0.00000000000E+00 0. -1.
         -2   -1    0    0    0  501 -0.00000000000E+00 -0.00000000000E+00 -0.21285696904E+03  0.21285696904E+03  0.00000000000E+00 0. -1.
         25    1    1    2    0    0 -0.17439265446E+02 -0.90695870258E+02 -0.58320160102E+02  0.16226863509E+03  0.12000000000E+03 0.  0.
         25    1    1    2    0    0  0.17439265446E+02  0.90695870258E+02 -0.46670181714E+02  0.15845496118E+03  0.12000000000E+03 0.  0.
<mgrwt>
<rscale>  0 0.30305223E+03</rscale>
<asrwt>0</asrwt>
<pdfrwt beam="1">  1        2 0.16594866E-01 0.30305223E+03</pdfrwt>
<pdfrwt beam="2">  1       -2 0.32747226E-01 0.30305223E+03</pdfrwt>
<totfact> 0.30043933E+03</totfact>
</mgrwt>
</event>
<event>
 4    1  0.1733772E-004  0.2537112E+03  0.7818608E-02  0.1110982E+00
          2   -1    0    0  501    0  0.00000000000E+00  0.00000000000E+00  0.80475981827E+02  0.80475981827E+02  0.00000000000E+00 0.  1.
         -2   -1    0    0    0  501 -0.00000000000E+00 -0.00000000000E+00 -0.19996456680E+03  0.19996456680E+03  0.00000000000E+00 0.  1.
         25    1    1    2    0    0 -0.24451791106E+02  0.30687236933E+02 -0.46083079516E+02  0.13439957893E+03  0.12000000000E+03 0.  0.
         25    1    1    2    0    0  0.24451791106E+02 -0.30687236933E+02 -0.73405505459E+02  0.14604096970E+03  0.12000000000E+03 0.  0.
<mgrwt>
<rscale>  0 0.25371121E+03</rscale>
<asrwt>0</asrwt>
<pdfrwt beam="1">  1        2 0.12380920E-01 0.25371121E+03</pdfrwt>
<pdfrwt beam="2">  1       -2 0.30763779E-01 0.25371121E+03</pdfrwt>
<totfact> 0.47515564E+03</totfact>
</mgrwt>
</event>
<event>
 4    1  0.1733772E-004  0.2610732E+03  0.7818608E-02  0.1106500E+00
          2   -1    0    0  501    0  0.00000000000E+00  0.00000000000E+00  0.16076680229E+03  0.16076680229E+03  0.00000000000E+00 0.  1.
         -2   -1    0    0    0  501 -0.00000000000E+00 -0.00000000000E+00 -0.10599078818E+03  0.10599078818E+03  0.00000000000E+00 0.  1.
         25    1    1    2    0    0 -0.41664226849E+02  0.28720226003E+02  0.18303936443E+02  0.13151347182E+03  0.12000000000E+03 0.  0.
         25    1    1    2    0    0  0.41664226849E+02 -0.28720226003E+02  0.36472077662E+02  0.13524411865E+03  0.12000000000E+03 0.  0.
<mgrwt>
<rscale>  0 0.26107317E+03</rscale>
<asrwt>0</asrwt>
<pdfrwt beam="1">  1        2 0.24733354E-01 0.26107317E+03</pdfrwt>
<pdfrwt beam="2">  1       -2 0.16306275E-01 0.26107317E+03</pdfrwt>
<totfact> 0.64115130E+03</totfact>
</mgrwt>
</event>
<event>
 4    1  0.1733772E-004  0.2756084E+03  0.7818608E-02  0.1098112E+00
         -1   -1    0    0    0  501 -0.00000000000E+00  0.00000000000E+00  0.10310505251E+03  0.10310505251E+03  0.00000000000E+00 0. -1.
          1   -1    0    0  501    0  0.00000000000E+00 -0.00000000000E+00 -0.18418101647E+03  0.18418101647E+03  0.00000000000E+00 0. -1.
         25    1    1    2    0    0 -0.11450547202E+01  0.48681897891E+02 -0.89637456388E+02  0.15749956165E+03  0.12000000000E+03 0.  0.
         25    1    1    2    0    0  0.11450547202E+01 -0.48681897891E+02  0.85614924278E+01  0.12978650733E+03  0.12000000000E+03 0.  0.
<mgrwt>
<rscale>  0 0.27560837E+03</rscale>
<asrwt>0</asrwt>
<pdfrwt beam="1">  1        1 0.28335541E-01 0.27560837E+03</pdfrwt>
<pdfrwt beam="2">  1       -1 0.15862316E-01 0.27560837E+03</pdfrwt>
<totfact> 0.47555210E+03</totfact>
</mgrwt>
</event>
<event>
 4    1  0.1733772E-004  0.2404572E+03  0.7818608E-02  0.1119489E+00
         -2   -1    0    0    0  501 -0.00000000000E+00  0.00000000000E+00  0.74386513832E+01  0.74386513832E+01  0.00000000000E+00 0. -1.
          2   -1    0    0  501    0  0.00000000000E+00 -0.00000000000E+00 -0.19432176132E+04  0.19432176132E+04  0.00000000000E+00 0. -1.
         25    1    1    2    0    0 -0.39541514747E+01  0.26749776842E+00 -0.10186878484E+04  0.10257390698E+04  0.12000000000E+03 0.  0.
         25    1    1    2    0    0  0.39541514747E+01 -0.26749776842E+00 -0.91709111348E+03  0.92491719483E+03  0.12000000000E+03 0.  0.
<mgrwt>
<rscale>  0 0.24045722E+03</rscale>
<asrwt>0</asrwt>
<pdfrwt beam="1">  1        2 0.29895693E+00 0.24045722E+03</pdfrwt>
<pdfrwt beam="2">  1       -2 0.11444065E-02 0.24045722E+03</pdfrwt>
<totfact> 0.13893742E+04</totfact>
</mgrwt>
</event>
<event>
 4    1  0.1733772E-004  0.2513962E+03  0.7818608E-02  0.1112426E+00
          2   -1    0    0  501    0  0.00000000000E+00  0.00000000000E+00  0.58457902751E+02  0.58457902751E+02  0.00000000000E+00 0. -1.
         -2   -1    0    0    0  501 -0.00000000000E+00 -0.00000000000E+00 -0.27028022903E+03  0.27028022903E+03  0.00000000000E+00 0. -1.
         25    1    1    2    0    0  0.12790076432E+02 -0.10997302532E+02 -0.14958525727E+03  0.19251045663E+03  0.12000000000E+03 0.  0.
         25    1    1    2    0    0 -0.12790076432E+02  0.10997302532E+02 -0.62237069002E+02  0.13622767515E+03  0.12000000000E+03 0.  0.
<mgrwt>
<rscale>  0 0.25139622E+03</rscale>
<asrwt>0</asrwt>
<pdfrwt beam="1">  1        2 0.89935235E-02 0.25139622E+03</pdfrwt>
<pdfrwt beam="2">  1       -2 0.41581574E-01 0.25139622E+03</pdfrwt>
<totfact> 0.40101405E+03</totfact>
</mgrwt>
</event>
<event>
 4    1  0.1733772E-004  0.4350248E+03  0.7818608E-02  0.1032284E+00
          2   -1    0    0  501    0  0.00000000000E+00  0.00000000000E+00  0.88153590388E+02  0.88153590388E+02  0.00000000000E+00 0.  1.
         -2   -1    0    0    0  501 -0.00000000000E+00 -0.00000000000E+00 -0.53669558926E+03  0.53669558926E+03  0.00000000000E+00 0.  1.
         25    1    1    2    0    0 -0.33755261345E+02 -0.17819677987E+03 -0.23038742049E+03  0.31681520410E+03  0.12000000000E+03 0.  0.
         25    1    1    2    0    0  0.33755261345E+02  0.17819677987E+03 -0.21815457838E+03  0.30803397555E+03  0.12000000000E+03 0.  0.
<mgrwt>
<rscale>  0 0.43502480E+03</rscale>
<asrwt>0</asrwt>
<pdfrwt beam="1">  1        2 0.13562090E-01 0.43502480E+03</pdfrwt>
<pdfrwt beam="2">  1       -2 0.82568555E-01 0.43502480E+03</pdfrwt>
<totfact> 0.58777839E+02</totfact>
</mgrwt>
</event>
<event>
 4    1  0.1733772E-004  0.4591168E+03  0.7818608E-02  0.1025038E+00
          1   -1    0    0  501    0  0.00000000000E+00  0.00000000000E+00  0.16663546053E+03  0.16663546053E+03  0.00000000000E+00 0. -1.
         -1   -1    0    0    0  501 -0.00000000000E+00 -0.00000000000E+00 -0.31624161191E+03  0.31624161191E+03  0.00000000000E+00 0. -1.
         25    1    1    2    0    0 -0.52499380649E+02 -0.74710117130E+02 -0.25684820151E+03  0.29784020076E+03  0.12000000000E+03 0.  0.
         25    1    1    2    0    0  0.52499380649E+02  0.74710117130E+02  0.10724205012E+03  0.18503687169E+03  0.12000000000E+03 0.  0.
<mgrwt>
<rscale>  0 0.45911683E+03</rscale>
<asrwt>0</asrwt>
<pdfrwt beam="1">  1        1 0.25636224E-01 0.45911683E+03</pdfrwt>
<pdfrwt beam="2">  1       -1 0.48652556E-01 0.45911683E+03</pdfrwt>
<totfact> 0.80307892E+02</totfact>
</mgrwt>
</event>
<event>
 4    1  0.1733772E-004  0.3824363E+03  0.7818608E-02  0.1050037E+00
         -1   -1    0    0    0  501 -0.00000000000E+00  0.00000000000E+00  0.25462610890E+02  0.25462610890E+02  0.00000000000E+00 0.  1.
          1   -1    0    0  501    0  0.00000000000E+00 -0.00000000000E+00 -0.14360026489E+04  0.14360026489E+04  0.00000000000E+00 0.  1.
         25    1    1    2    0    0 -0.91990634301E+02  0.10926639018E+03 -0.86572386578E+03  0.88559541135E+03  0.12000000000E+03 0.  0.
         25    1    1    2    0    0  0.91990634301E+02 -0.10926639018E+03 -0.54481617228E+03  0.57586984849E+03  0.12000000000E+03 0.  0.
<mgrwt>
<rscale>  0 0.38243628E+03</rscale>
<asrwt>0</asrwt>
<pdfrwt beam="1">  1        1 0.22092355E+00 0.38243628E+03</pdfrwt>
<pdfrwt beam="2">  1       -1 0.39173235E-02 0.38243628E+03</pdfrwt>
<totfact> 0.20003719E+03</totfact>
</mgrwt>
</event>
<event>
 4    1  0.1733772E-004  0.3140040E+03  0.7818608E-02  0.1078442E+00
          1   -1    0    0  501    0  0.00000000000E+00  0.00000000000E+00  0.18616571187E+03  0.18616571187E+03  0.00000000000E+00 0. -1.
         -1   -1    0    0    0  501 -0.00000000000E+00 -0.00000000000E+00 -0.13240693507E+03  0.13240693507E+03  0.00000000000E+00 0. -1.
         25    1    1    2    0    0 -0.79444146080E+02 -0.45488943899E+02 -0.16981726124E+02  0.15188480959E+03  0.12000000000E+03 0.  0.
         25    1    1    2    0    0  0.79444146080E+02  0.45488943899E+02  0.70740502924E+02  0.16668783734E+03  0.12000000000E+03 0.  0.
<mgrwt>
<rscale>  0 0.31400402E+03</rscale>
<asrwt>0</asrwt>
<pdfrwt beam="1">  1        1 0.28640879E-01 0.31400402E+03</pdfrwt>
<pdfrwt beam="2">  1       -1 0.20370298E-01 0.31400402E+03</pdfrwt>
<totfact> 0.31440603E+03</totfact>
</mgrwt>
</event>
<event>
 4    1  0.1733772E-004  0.2594940E+03  0.7818608E-02  0.1107448E+00
          3   -1    0    0  501    0  0.00000000000E+00  0.00000000000E+00  0.40818213963E+02  0.40818213963E+02  0.00000000000E+00 0. -1.
         -3   -1    0    0    0  501 -0.00000000000E+00 -0.00000000000E+00 -0.41242099435E+03  0.41242099435E+03  0.00000000000E+00 0. -1.
         25    1    1    2    0    0  0.46038060634E+02  0.44967715374E+01 -0.21577853260E+03  0.25119733102E+03  0.12000000000E+03 0.  0.
         25    1    1    2    0    0 -0.46038060634E+02 -0.44967715374E+01 -0.15582424779E+03  0.20204187729E+03  0.12000000000E+03 0.  0.
<mgrwt>
<rscale>  0 0.25949403E+03</rscale>
<asrwt>0</asrwt>
<pdfrwt beam="1">  1        3 0.62797250E-02 0.25949403E+03</pdfrwt>
<pdfrwt beam="2">  1       -3 0.63449386E-01 0.25949403E+03</pdfrwt>
<totfact> 0.97876305E+02</totfact>
</mgrwt>
</event>
<event>
 4    1  0.1733772E-004  0.3330652E+03  0.7818608E-02  0.1069789E+00
          1   -1    0    0  501    0  0.00000000000E+00  0.00000000000E+00  0.46993086773E+03  0.46993086773E+03  0.00000000000E+00 0.  1.
         -1   -1    0    0    0  501 -0.00000000000E+00 -0.00000000000E+00 -0.59015282120E+02  0.59015282120E+02  0.00000000000E+00 0.  1.
         25    1    1    2    0    0  0.59242651352E+02  0.11819715087E+02  0.49177931459E+02  0.14306595104E+03  0.12000000000E+03 0.  0.
         25    1    1    2    0    0 -0.59242651352E+02 -0.11819715087E+02  0.36173765415E+03  0.38588019881E+03  0.12000000000E+03 0.  0.
<mgrwt>
<rscale>  0 0.33306518E+03</rscale>
<asrwt>0</asrwt>
<pdfrwt beam="1">  1        1 0.72297054E-01 0.33306518E+03</pdfrwt>
<pdfrwt beam="2">  1       -1 0.90792745E-02 0.33306518E+03</pdfrwt>
<totfact> 0.34805119E+03</totfact>
</mgrwt>
</event>
<event>
 4    1  0.1733772E-004  0.2471395E+03  0.7818608E-02  0.1115126E+00
          1   -1    0    0  501    0  0.00000000000E+00  0.00000000000E+00  0.67920773002E+02  0.67920773002E+02  0.00000000000E+00 0.  1.
         -1   -1    0    0    0  501 -0.00000000000E+00 -0.00000000000E+00 -0.22481318421E+03  0.22481318421E+03  0.00000000000E+00 0.  1.
         25    1    1    2    0    0  0.13012858336E+02  0.20054314724E+02 -0.57999610714E+02  0.13540851105E+03  0.12000000000E+03 0.  0.
         25    1    1    2    0    0 -0.13012858336E+02 -0.20054314724E+02 -0.98892800491E+02  0.15732544616E+03  0.12000000000E+03 0.  0.
<mgrwt>
<rscale>  0 0.24713952E+03</rscale>
<asrwt>0</asrwt>
<pdfrwt beam="1">  1        1 0.10449350E-01 0.24713952E+03</pdfrwt>
<pdfrwt beam="2">  1       -1 0.34586644E-01 0.24713952E+03</pdfrwt>
<totfact> 0.47730349E+03</totfact>
</mgrwt>
</event>
<event>
 4    1  0.1733772E-004  0.3122819E+03  0.7818608E-02  0.1079257E+00
         -2   -1    0    0    0  501 -0.00000000000E+00  0.00000000000E+00  0.55989738187E+02  0.55989738187E+02  0.00000000000E+00 0.  1.
          2   -1    0    0  501    0  0.00000000000E+00 -0.00000000000E+00 -0.43543684696E+03  0.43543684696E+03  0.00000000000E+00 0.  1.
         25    1    1    2    0    0 -0.79359860567E+02  0.44948778601E+02 -0.12557645359E+03  0.19618314368E+03  0.12000000000E+03 0.  0.
         25    1    1    2    0    0  0.79359860567E+02 -0.44948778601E+02 -0.25387065518E+03  0.29524344147E+03  0.12000000000E+03 0.  0.
<mgrwt>
<rscale>  0 0.31228189E+03</rscale>
<asrwt>0</asrwt>
<pdfrwt beam="1">  1        2 0.66990286E-01 0.31228189E+03</pdfrwt>
<pdfrwt beam="2">  1       -2 0.86138057E-02 0.31228189E+03</pdfrwt>
<totfact> 0.61144600E+03</totfact>
</mgrwt>
</event>
<event>
 4    1  0.1733772E-004  0.2845778E+03  0.7818608E-02  0.1093215E+00
          3   -1    0    0  501    0  0.00000000000E+00  0.00000000000E+00  0.24890114988E+03  0.24890114988E+03  0.00000000000E+00 0.  1.
         -3   -1    0    0    0  501 -0.00000000000E+00 -0.00000000000E+00 -0.81342073237E+02  0.81342073237E+02  0.00000000000E+00 0.  1.
         25    1    1    2    0    0 -0.53171246273E+02 -0.43062465102E+02  0.44177532588E+02  0.14502831350E+03  0.12000000000E+03 0.  0.
         25    1    1    2    0    0  0.53171246273E+02  0.43062465102E+02  0.12338154405E+03  0.18521490961E+03  0.12000000000E+03 0.  0.
<mgrwt>
<rscale>  0 0.28457783E+03</rscale>
<asrwt>0</asrwt>
<pdfrwt beam="1">  1        3 0.38292484E-01 0.28457783E+03</pdfrwt>
<pdfrwt beam="2">  1       -3 0.12514165E-01 0.28457783E+03</pdfrwt>
<totfact> 0.87270657E+02</totfact>
</mgrwt>
</event>
<event>
 4    1  0.1733772E-004  0.3217824E+03  0.7818608E-02  0.1074832E+00
         -2   -1    0    0    0  501 -0.00000000000E+00  0.00000000000E+00  0.39052310321E+03  0.39052310321E+03  0.00000000000E+00 0. -1.
          2   -1    0    0  501    0  0.00000000000E+00 -0.00000000000E+00 -0.66285395702E+02  0.66285395702E+02  0.00000000000E+00 0. -1.
         25    1    1    2    0    0  0.67768600080E+02  0.75310598419E+02  0.11249896569E+03  0.19318459222E+03  0.12000000000E+03 0.  0.
         25    1    1    2    0    0 -0.67768600080E+02 -0.75310598419E+02  0.21173874181E+03  0.26362390669E+03  0.12000000000E+03 0.  0.
<mgrwt>
<rscale>  0 0.32178240E+03</rscale>
<asrwt>0</asrwt>
<pdfrwt beam="1">  1        2 0.10197753E-01 0.32178240E+03</pdfrwt>
<pdfrwt beam="2">  1       -2 0.60080476E-01 0.32178240E+03</pdfrwt>
<totfact> 0.16541982E+03</totfact>
</mgrwt>
</event>
<event>
 4    1  0.1733772E-004  0.3055990E+03  0.7818608E-02  0.1082475E+00
         -1   -1    0    0    0  501 -0.00000000000E+00  0.00000000000E+00  0.29151406924E+02  0.29151406924E+02  0.00000000000E+00 0. -1.
          1   -1    0    0  501    0  0.00000000000E+00 -0.00000000000E+00 -0.80091104489E+03  0.80091104489E+03  0.00000000000E+00 0. -1.
         25    1    1    2    0    0 -0.46024689508E+02 -0.22842440830E+02 -0.60160067570E+03  0.61560005048E+03  0.12000000000E+03 0.  0.
         25    1    1    2    0    0  0.46024689508E+02  0.22842440830E+02 -0.17015896227E+03  0.21446240134E+03  0.12000000000E+03 0.  0.
<mgrwt>
<rscale>  0 0.30559898E+03</rscale>
<asrwt>0</asrwt>
<pdfrwt beam="1">  1        1 0.12321708E+00 0.30559898E+03</pdfrwt>
<pdfrwt beam="2">  1       -1 0.44848319E-02 0.30559898E+03</pdfrwt>
<totfact> 0.47719096E+03</totfact>
</mgrwt>
</event>
<event>
 4    1  0.1733772E-004  0.4251574E+03  0.7818608E-02  0.1035401E+00
          2   -1    0    0  501    0  0.00000000000E+00  0.00000000000E+00  0.24193388351E+04  0.24193388351E+04  0.00000000000E+00 0.  1.
         -2   -1    0    0    0  501 -0.00000000000E+00 -0.00000000000E+00 -0.18678531148E+02  0.18678531148E+02  0.00000000000E+00 0.  1.
         25    1    1    2    0    0 -0.76935732302E+02  0.32395475346E+02  0.20853809490E+04  0.20904980928E+04  0.12000000000E+03 0.  0.
         25    1    1    2    0    0  0.76935732302E+02 -0.32395475346E+02  0.31527935494E+03  0.34751927339E+03  0.12000000000E+03 0.  0.
<mgrwt>
<rscale>  0 0.42515736E+03</rscale>
<asrwt>0</asrwt>
<pdfrwt beam="1">  1        2 0.37220573E+00 0.42515736E+03</pdfrwt>
<pdfrwt beam="2">  1       -2 0.28736221E-02 0.42515736E+03</pdfrwt>
<totfact> 0.19790487E+03</totfact>
</mgrwt>
</event>
<event>
 4    1  0.1733772E-004  0.3153283E+03  0.7818608E-02  0.1077820E+00
         -2   -1    0    0    0  501 -0.00000000000E+00  0.00000000000E+00  0.39094951640E+03  0.39094951640E+03  0.00000000000E+00 0.  1.
          2   -1    0    0  501    0  0.00000000000E+00 -0.00000000000E+00 -0.63583635970E+02  0.63583635970E+02  0.00000000000E+00 0.  1.
         25    1    1    2    0    0 -0.21564642092E+02  0.23714463679E+02  0.30366481350E+03  0.32808494104E+03  0.12000000000E+03 0.  0.
         25    1    1    2    0    0  0.21564642092E+02 -0.23714463679E+02  0.23701066930E+02  0.12644821133E+03  0.12000000000E+03 0.  0.
<mgrwt>
<rscale>  0 0.31532835E+03</rscale>
<asrwt>0</asrwt>
<pdfrwt beam="1">  1        2 0.97820981E-02 0.31532835E+03</pdfrwt>
<pdfrwt beam="2">  1       -2 0.60146078E-01 0.31532835E+03</pdfrwt>
<totfact> 0.17377637E+03</totfact>
</mgrwt>
</event>
<event>
 4    1  0.1733772E-004  0.3115670E+03  0.7818608E-02  0.1079597E+00
          2   -1    0    0  501    0  0.00000000000E+00  0.00000000000E+00  0.22440273746E+04  0.22440273746E+04  0.00000000000E+00 0.  1.
         -2   -1    0    0    0  501 -0.00000000000E+00 -0.00000000000E+00 -0.10814704254E+02  0.10814704254E+02  0.00000000000E+00 0.  1.
         25    1    1    2    0    0 -0.34540294021E+02  0.89317000915E+02  0.92541339081E+03  0.93806209946E+03  0.12000000000E+03 0.  0.
         25    1    1    2    0    0  0.34540294021E+02 -0.89317000915E+02  0.13077992795E+04  0.13167799794E+04  0.12000000000E+03 0.  0.
<mgrwt>
<rscale>  0 0.31156696E+03</rscale>
<asrwt>0</asrwt>
<pdfrwt beam="1">  1        2 0.34523461E+00 0.31156696E+03</pdfrwt>
<pdfrwt beam="2">  1       -2 0.16638024E-02 0.31156696E+03</pdfrwt>
<totfact> 0.55888780E+03</totfact>
</mgrwt>
</event>
<event>
 4    1  0.1733772E-004  0.2631275E+03  0.7818608E-02  0.1105279E+00
         -3   -1    0    0    0  501 -0.00000000000E+00  0.00000000000E+00  0.38729468198E+03  0.38729468198E+03  0.00000000000E+00 0. -1.
          3   -1    0    0  501    0  0.00000000000E+00 -0.00000000000E+00 -0.44692115296E+02  0.44692115296E+02  0.00000000000E+00 0. -1.
         25    1    1    2    0    0 -0.35670940160E+02  0.17703107040E+02  0.11158160905E+03  0.16863057685E+03  0.12000000000E+03 0.  0.
         25    1    1    2    0    0  0.35670940160E+02 -0.17703107040E+02  0.23102095763E+03  0.26335622042E+03  0.12000000000E+03 0.  0.
<mgrwt>
<rscale>  0 0.26312749E+03</rscale>
<asrwt>0</asrwt>
<pdfrwt beam="1">  1        3 0.68757103E-02 0.26312749E+03</pdfrwt>
<pdfrwt beam="2">  1       -3 0.59583795E-01 0.26312749E+03</pdfrwt>
<totfact> 0.96497049E+02</totfact>
</mgrwt>
</event>
<event>
 4    1  0.1733772E-004  0.2562693E+03  0.7818608E-02  0.1109406E+00
          2   -1    0    0  501    0  0.00000000000E+00  0.00000000000E+00  0.16845848571E+03  0.16845848571E+03  0.00000000000E+00 0. -1.
         -2   -1    0    0    0  501 -0.00000000000E+00 -0.00000000000E+00 -0.97463085085E+02  0.97463085085E+02  0.00000000000E+00 0. -1.
         25    1    1    2    0    0  0.61083577367E+01  0.42662773659E+02  0.48666619558E+02  0.13647660660E+03  0.12000000000E+03 0.  0.
         25    1    1    2    0    0 -0.61083577367E+01 -0.42662773659E+02  0.22328781066E+02  0.12944496419E+03  0.12000000000E+03 0.  0.
<mgrwt>
<rscale>  0 0.25626926E+03</rscale>
<asrwt>0</asrwt>
<pdfrwt beam="1">  1        2 0.25916690E-01 0.25626926E+03</pdfrwt>
<pdfrwt beam="2">  1       -2 0.14994321E-01 0.25626926E+03</pdfrwt>
<totfact> 0.69888375E+03</totfact>
</mgrwt>
</event>
<event>
 4    1  0.1733772E-004  0.3389357E+03  0.7818608E-02  0.1067250E+00
         -2   -1    0    0    0  501 -0.00000000000E+00  0.00000000000E+00  0.11937190959E+03  0.11937190959E+03  0.00000000000E+00 0.  1.
          2   -1    0    0  501    0  0.00000000000E+00 -0.00000000000E+00 -0.24058716088E+03  0.24058716088E+03  0.00000000000E+00 0.  1.
         25    1    1    2    0    0 -0.61459133011E+02 -0.73483113877E+02  0.15550612983E+02  0.15433345269E+03  0.12000000000E+03 0.  0.
         25    1    1    2    0    0  0.61459133011E+02  0.73483113877E+02 -0.13676586427E+03  0.20562561778E+03  0.12000000000E+03 0.  0.
<mgrwt>
<rscale>  0 0.33893568E+03</rscale>
<asrwt>0</asrwt>
<pdfrwt beam="1">  1        2 0.37013409E-01 0.33893568E+03</pdfrwt>
<pdfrwt beam="2">  1       -2 0.18364909E-01 0.33893568E+03</pdfrwt>
<totfact> 0.33940657E+03</totfact>
</mgrwt>
</event>
<event>
 4    1  0.1733772E-004  0.2552481E+03  0.7818608E-02  0.1110032E+00
         -1   -1    0    0    0  501 -0.00000000000E+00  0.00000000000E+00  0.22558982507E+02  0.22558982507E+02  0.00000000000E+00 0. -1.
          1   -1    0    0  501    0  0.00000000000E+00 -0.00000000000E+00 -0.72201405850E+03  0.72201405850E+03  0.00000000000E+00 0. -1.
         25    1    1    2    0    0 -0.34729546628E+02  0.26108838267E+02 -0.35060105516E+03  0.37310710624E+03  0.12000000000E+03 0.  0.
         25    1    1    2    0    0  0.34729546628E+02 -0.26108838267E+02 -0.34885402083E+03  0.37146593477E+03  0.12000000000E+03 0.  0.
<mgrwt>
<rscale>  0 0.25524813E+03</rscale>
<asrwt>0</asrwt>
<pdfrwt beam="1">  1        1 0.11107909E+00 0.25524813E+03</pdfrwt>
<pdfrwt beam="2">  1       -1 0.34706125E-02 0.25524813E+03</pdfrwt>
<totfact> 0.81341123E+03</totfact>
</mgrwt>
</event>
<event>
 4    1  0.1733772E-004  0.2836588E+03  0.7818608E-02  0.1093707E+00
         -2   -1    0    0    0  501 -0.00000000000E+00  0.00000000000E+00  0.51890410977E+02  0.51890410977E+02  0.00000000000E+00 0.  1.
          2   -1    0    0  501    0  0.00000000000E+00 -0.00000000000E+00 -0.38765496640E+03  0.38765496640E+03  0.00000000000E+00 0.  1.
         25    1    1    2    0    0 -0.28235552948E+02  0.58273212389E+02 -0.10741854516E+03  0.17358501542E+03  0.12000000000E+03 0.  0.
         25    1    1    2    0    0  0.28235552948E+02 -0.58273212389E+02 -0.22834601027E+03  0.26596036197E+03  0.12000000000E+03 0.  0.
<mgrwt>
<rscale>  0 0.28365878E+03</rscale>
<asrwt>0</asrwt>
<pdfrwt beam="1">  1        2 0.59639223E-01 0.28365878E+03</pdfrwt>
<pdfrwt beam="2">  1       -2 0.79831405E-02 0.28365878E+03</pdfrwt>
<totfact> 0.77993246E+03</totfact>
</mgrwt>
</event>
<event>
 4    1  0.1733772E-004  0.2670939E+03  0.7818608E-02  0.1102954E+00
         -1   -1    0    0    0  501 -0.00000000000E+00  0.00000000000E+00  0.20131126447E+02  0.20131126447E+02  0.00000000000E+00 0.  1.
          1   -1    0    0  501    0  0.00000000000E+00 -0.00000000000E+00 -0.88593087307E+03  0.88593087307E+03  0.00000000000E+00 0.  1.
         25    1    1    2    0    0 -0.33954121965E+02  0.27345410041E+02 -0.30003033967E+03  0.32606572738E+03  0.12000000000E+03 0.  0.
         25    1    1    2    0    0  0.33954121965E+02 -0.27345410041E+02 -0.56576940696E+03  0.57999627214E+03  0.12000000000E+03 0.  0.
<mgrwt>
<rscale>  0 0.26709389E+03</rscale>
<asrwt>0</asrwt>
<pdfrwt beam="1">  1        1 0.13629705E+00 0.26709389E+03</pdfrwt>
<pdfrwt beam="2">  1       -1 0.30970965E-02 0.26709389E+03</pdfrwt>
<totfact> 0.70339814E+03</totfact>
</mgrwt>
</event>
<event>
 4    1  0.1733772E-004  0.3138525E+03  0.7818608E-02  0.1078514E+00
         -2   -1    0    0    0  501 -0.00000000000E+00  0.00000000000E+00  0.13997135049E+02  0.13997135049E+02  0.00000000000E+00 0. -1.
          2   -1    0    0  501    0  0.00000000000E+00 -0.00000000000E+00 -0.17593493408E+04  0.17593493408E+04  0.00000000000E+00 0. -1.
         25    1    1    2    0    0  0.83476840951E+02  0.34322694666E+02 -0.11303314079E+04  0.11402611639E+04  0.12000000000E+03 0.  0.
         25    1    1    2    0    0 -0.83476840951E+02 -0.34322694666E+02 -0.61502079787E+03  0.63308531191E+03  0.12000000000E+03 0.  0.
<mgrwt>
<rscale>  0 0.31385252E+03</rscale>
<asrwt>0</asrwt>
<pdfrwt beam="1">  1        2 0.27066908E+00 0.31385252E+03</pdfrwt>
<pdfrwt beam="2">  1       -2 0.21534058E-02 0.31385252E+03</pdfrwt>
<totfact> 0.69006001E+03</totfact>
</mgrwt>
</event>
<event>
 4    1  0.1733772E-004  0.2870658E+03  0.7818608E-02  0.1091891E+00
          1   -1    0    0  501    0  0.00000000000E+00  0.00000000000E+00  0.15888810674E+04  0.15888810674E+04  0.00000000000E+00 0.  1.
         -1   -1    0    0    0  501 -0.00000000000E+00 -0.00000000000E+00 -0.12966161457E+02  0.12966161457E+02  0.00000000000E+00 0.  1.
         25    1    1    2    0    0  0.53051420508E+00 -0.74491954551E+02  0.93047945924E+03  0.94113833033E+03  0.12000000000E+03 0.  0.
         25    1    1    2    0    0 -0.53051420508E+00  0.74491954551E+02  0.64543544668E+03  0.66070889851E+03  0.12000000000E+03 0.  0.
<mgrwt>
<rscale>  0 0.28706577E+03</rscale>
<asrwt>0</asrwt>
<pdfrwt beam="1">  1        1 0.24444309E+00 0.28706577E+03</pdfrwt>
<pdfrwt beam="2">  1       -1 0.19947953E-02 0.28706577E+03</pdfrwt>
<totfact> 0.43043295E+03</totfact>
</mgrwt>
</event>
<event>
 4    1  0.1733772E-004  0.2509863E+03  0.7818608E-02  0.1112683E+00
          2   -1    0    0  501    0  0.00000000000E+00  0.00000000000E+00  0.75268980891E+03  0.75268980891E+03  0.00000000000E+00 0. -1.
         -2   -1    0    0    0  501 -0.00000000000E+00 -0.00000000000E+00 -0.20923008771E+02  0.20923008771E+02  0.00000000000E+00 0. -1.
         25    1    1    2    0    0 -0.14179738145E+02  0.30290320982E+02  0.41262529248E+03  0.43101995373E+03  0.12000000000E+03 0.  0.
         25    1    1    2    0    0  0.14179738145E+02 -0.30290320982E+02  0.31914150766E+03  0.34259286395E+03  0.12000000000E+03 0.  0.
<mgrwt>
<rscale>  0 0.25098634E+03</rscale>
<asrwt>0</asrwt>
<pdfrwt beam="1">  1        2 0.11579841E+00 0.25098634E+03</pdfrwt>
<pdfrwt beam="2">  1       -2 0.32189250E-02 0.25098634E+03</pdfrwt>
<totfact> 0.14480263E+04</totfact>
</mgrwt>
</event>
<event>
 4    1  0.1733772E-004  0.3140808E+03  0.7818608E-02  0.1078406E+00
          2   -1    0    0  501    0  0.00000000000E+00  0.00000000000E+00  0.49489966532E+03  0.49489966532E+03  0.00000000000E+00 0.  1.
         -2   -1    0    0    0  501 -0.00000000000E+00 -0.00000000000E+00 -0.49831705999E+02  0.49831705999E+02  0.00000000000E+00 0.  1.
         25    1    1    2    0    0 -0.82607837624E+02  0.54255766260E+02  0.26108031873E+03  0.30385963180E+03  0.12000000000E+03 0.  0.
         25    1    1    2    0    0  0.82607837624E+02 -0.54255766260E+02  0.18398764059E+03  0.24087173952E+03  0.12000000000E+03 0.  0.
<mgrwt>
<rscale>  0 0.31408085E+03</rscale>
<asrwt>0</asrwt>
<pdfrwt beam="1">  1        2 0.76138407E-01 0.31408085E+03</pdfrwt>
<pdfrwt beam="2">  1       -2 0.76664167E-02 0.31408085E+03</pdfrwt>
<totfact> 0.63686183E+03</totfact>
</mgrwt>
</event>
<event>
 4    1  0.1733772E-004  0.2750683E+03  0.7818608E-02  0.1098413E+00
         -1   -1    0    0    0  501 -0.00000000000E+00  0.00000000000E+00  0.62976380509E+02  0.62976380509E+02  0.00000000000E+00 0.  1.
          1   -1    0    0  501    0  0.00000000000E+00 -0.00000000000E+00 -0.30036085332E+03  0.30036085332E+03  0.00000000000E+00 0.  1.
         25    1    1    2    0    0  0.11112513626E+02 -0.33358597055E+02 -0.43050125165E+02  0.13224824095E+03  0.12000000000E+03 0.  0.
         25    1    1    2    0    0 -0.11112513626E+02  0.33358597055E+02 -0.19433434764E+03  0.23108899288E+03  0.12000000000E+03 0.  0.
<mgrwt>
<rscale>  0 0.27506828E+03</rscale>
<asrwt>0</asrwt>
<pdfrwt beam="1">  1        1 0.46209364E-01 0.27506828E+03</pdfrwt>
<pdfrwt beam="2">  1       -1 0.96886736E-02 0.27506828E+03</pdfrwt>
<totfact> 0.55647096E+03</totfact>
</mgrwt>
</event>
<event>
 4    1  0.1733772E-004  0.2756011E+03  0.7818608E-02  0.1098116E+00
         -1   -1    0    0    0  501 -0.00000000000E+00  0.00000000000E+00  0.28665424039E+02  0.28665424039E+02  0.00000000000E+00 0.  1.
          1   -1    0    0  501    0  0.00000000000E+00 -0.00000000000E+00 -0.66243544610E+03  0.66243544610E+03  0.00000000000E+00 0.  1.
         25    1    1    2    0    0  0.19183335030E+02 -0.63101838024E+02 -0.35566398065E+03  0.38111246298E+03  0.12000000000E+03 0.  0.
         25    1    1    2    0    0 -0.19183335030E+02  0.63101838024E+02 -0.27810604141E+03  0.30998840716E+03  0.12000000000E+03 0.  0.
<mgrwt>
<rscale>  0 0.27560111E+03</rscale>
<asrwt>0</asrwt>
<pdfrwt beam="1">  1        1 0.10191315E+00 0.27560111E+03</pdfrwt>
<pdfrwt beam="2">  1       -1 0.44100650E-02 0.27560111E+03</pdfrwt>
<totfact> 0.64732674E+03</totfact>
</mgrwt>
</event>
<event>
 4    1  0.1733772E-004  0.5781932E+03  0.7818608E-02  0.9951710E-01
         -1   -1    0    0    0  501 -0.00000000000E+00  0.00000000000E+00  0.42419787369E+03  0.42419787369E+03  0.00000000000E+00 0.  1.
          1   -1    0    0  501    0  0.00000000000E+00 -0.00000000000E+00 -0.19702327657E+03  0.19702327657E+03  0.00000000000E+00 0.  1.
         25    1    1    2    0    0 -0.18154369227E+03  0.15640038565E+03 -0.29147907523E+01  0.26800688208E+03  0.12000000000E+03 0.  0.
         25    1    1    2    0    0  0.18154369227E+03 -0.15640038565E+03  0.23008938788E+03  0.35321426819E+03  0.12000000000E+03 0.  0.
<mgrwt>
<rscale>  0 0.57819324E+03</rscale>
<asrwt>0</asrwt>
<pdfrwt beam="1">  1        1 0.30311273E-01 0.57819324E+03</pdfrwt>
<pdfrwt beam="2">  1       -1 0.65261211E-01 0.57819324E+03</pdfrwt>
<totfact> 0.36614495E+02</totfact>
</mgrwt>
</event>
<event>
 4    1  0.1733772E-004  0.2936196E+03  0.7818608E-02  0.1088474E+00
         -2   -1    0    0    0  501 -0.00000000000E+00  0.00000000000E+00  0.35387867358E+02  0.35387867358E+02  0.00000000000E+00 0.  1.
          2   -1    0    0  501    0  0.00000000000E+00 -0.00000000000E+00 -0.60905374444E+03  0.60905374444E+03  0.00000000000E+00 0.  1.
         25    1    1    2    0    0 -0.77196929065E+02  0.13548817399E+02 -0.35659146097E+03  0.38431810567E+03  0.12000000000E+03 0.  0.
         25    1    1    2    0    0  0.77196929065E+02 -0.13548817399E+02 -0.21707441611E+03  0.26012350613E+03  0.12000000000E+03 0.  0.
<mgrwt>
<rscale>  0 0.29361957E+03</rscale>
<asrwt>0</asrwt>
<pdfrwt beam="1">  1        2 0.93700567E-01 0.29361957E+03</pdfrwt>
<pdfrwt beam="2">  1       -2 0.54442878E-02 0.29361957E+03</pdfrwt>
<totfact> 0.85073229E+03</totfact>
</mgrwt>
</event>
<event>
 4    1  0.1733772E-004  0.2897302E+03  0.7818608E-02  0.1090490E+00
          1   -1    0    0  501    0  0.00000000000E+00  0.00000000000E+00  0.57565179987E+03  0.57565179987E+03  0.00000000000E+00 0.  1.
         -1   -1    0    0    0  501 -0.00000000000E+00 -0.00000000000E+00 -0.36455890745E+02  0.36455890745E+02  0.00000000000E+00 0.  1.
         25    1    1    2    0    0  0.25493681668E+02 -0.45970528251E+02  0.13897541374E+03  0.19099053091E+03  0.12000000000E+03 0.  0.
         25    1    1    2    0    0 -0.25493681668E+02  0.45970528251E+02  0.40022049539E+03  0.42111715971E+03  0.12000000000E+03 0.  0.
<mgrwt>
<rscale>  0 0.28973021E+03</rscale>
<asrwt>0</asrwt>
<pdfrwt beam="1">  1        1 0.88561809E-01 0.28973021E+03</pdfrwt>
<pdfrwt beam="2">  1       -1 0.56085990E-02 0.28973021E+03</pdfrwt>
<totfact> 0.55042619E+03</totfact>
</mgrwt>
</event>
<event>
 4    1  0.1733772E-004  0.2412123E+03  0.7818608E-02  0.1118988E+00
          2   -1    0    0  501    0  0.00000000000E+00  0.00000000000E+00  0.17471824646E+03  0.17471824646E+03  0.00000000000E+00 0.  1.
         -2   -1    0    0    0  501 -0.00000000000E+00 -0.00000000000E+00 -0.83253165345E+02  0.83253165345E+02  0.00000000000E+00 0.  1.
         25    1    1    2    0    0  0.74796850459E-01  0.92647807254E+01  0.54017051919E+02  0.13192302170E+03  0.12000000000E+03 0.  0.
         25    1    1    2    0    0 -0.74796850459E-01 -0.92647807254E+01  0.37448029192E+02  0.12604839010E+03  0.12000000000E+03 0.  0.
<mgrwt>
<rscale>  0 0.24121233E+03</rscale>
<asrwt>0</asrwt>
<pdfrwt beam="1">  1        2 0.26879730E-01 0.24121233E+03</pdfrwt>
<pdfrwt beam="2">  1       -2 0.12808179E-01 0.24121233E+03</pdfrwt>
<totfact> 0.86617891E+03</totfact>
</mgrwt>
</event>
<event>
 4    1  0.1733772E-004  0.3704235E+03  0.7818608E-02  0.1054531E+00
         -2   -1    0    0    0  501 -0.00000000000E+00  0.00000000000E+00  0.32216539551E+02  0.32216539551E+02  0.00000000000E+00 0. -1.
          2   -1    0    0  501    0  0.00000000000E+00 -0.00000000000E+00 -0.10647759606E+04  0.10647759606E+04  0.00000000000E+00 0. -1.
         25    1    1    2    0    0 -0.86953307903E+02 -0.10450310524E+03 -0.40461990305E+03  0.44339490604E+03  0.12000000000E+03 0.  0.
         25    1    1    2    0    0  0.86953307903E+02  0.10450310524E+03 -0.62793951804E+03  0.65359759415E+03  0.12000000000E+03 0.  0.
<mgrwt>
<rscale>  0 0.37042352E+03</rscale>
<asrwt>0</asrwt>
<pdfrwt beam="1">  1        2 0.16381169E+00 0.37042352E+03</pdfrwt>
<pdfrwt beam="2">  1       -2 0.49563906E-02 0.37042352E+03</pdfrwt>
<totfact> 0.47783266E+03</totfact>
</mgrwt>
</event>
<event>
 4    1  0.1733772E-004  0.3842678E+03  0.7818608E-02  0.1049368E+00
          4   -1    0    0  501    0  0.00000000000E+00  0.00000000000E+00  0.95023449475E+02  0.95023449475E+02  0.00000000000E+00 0. -1.
         -4   -1    0    0    0  501 -0.00000000000E+00 -0.00000000000E+00 -0.38848773042E+03  0.38848773042E+03  0.00000000000E+00 0. -1.
         25    1    1    2    0    0 -0.85476208527E+02 -0.14162585791E+02  0.74179450955E+01  0.14819509766E+03  0.12000000000E+03 0.  0.
         25    1    1    2    0    0  0.85476208527E+02  0.14162585791E+02 -0.30088222604E+03  0.33531608224E+03  0.12000000000E+03 0.  0.
<mgrwt>
<rscale>  0 0.38426785E+03</rscale>
<asrwt>0</asrwt>
<pdfrwt beam="1">  1        4 0.14618993E-01 0.38426785E+03</pdfrwt>
<pdfrwt beam="2">  1       -4 0.59767342E-01 0.38426785E+03</pdfrwt>
<totfact> 0.20411200E+02</totfact>
</mgrwt>
</event>
<event>
 4    1  0.1733772E-004  0.2615694E+03  0.7818608E-02  0.1106204E+00
          1   -1    0    0  501    0  0.00000000000E+00  0.00000000000E+00  0.13330749473E+04  0.13330749473E+04  0.00000000000E+00 0.  1.
         -1   -1    0    0    0  501 -0.00000000000E+00 -0.00000000000E+00 -0.12830960137E+02  0.12830960137E+02  0.00000000000E+00 0.  1.
         25    1    1    2    0    0  0.35197369858E+02  0.25044000410E+02  0.80912626621E+03  0.81911621366E+03  0.12000000000E+03 0.  0.
         25    1    1    2    0    0 -0.35197369858E+02 -0.25044000410E+02  0.51111772092E+03  0.52678969375E+03  0.12000000000E+03 0.  0.
<mgrwt>
<rscale>  0 0.26156935E+03</rscale>
<asrwt>0</asrwt>
<pdfrwt beam="1">  1        1 0.20508834E+00 0.26156935E+03</pdfrwt>
<pdfrwt beam="2">  1       -1 0.19739949E-02 0.26156935E+03</pdfrwt>
<totfact> 0.64672635E+03</totfact>
</mgrwt>
</event>
<event>
 4    1  0.1733772E-004  0.3230557E+03  0.7818608E-02  0.1074251E+00
          2   -1    0    0  501    0  0.00000000000E+00  0.00000000000E+00  0.57141436098E+03  0.57141436098E+03  0.00000000000E+00 0. -1.
         -2   -1    0    0    0  501 -0.00000000000E+00 -0.00000000000E+00 -0.45660830008E+02  0.45660830008E+02  0.00000000000E+00 0. -1.
         25    1    1    2    0    0 -0.23706417593E+02 -0.20527070041E+01  0.61406237262E+02  0.13688292010E+03  0.12000000000E+03 0.  0.
         25    1    1    2    0    0  0.23706417593E+02  0.20527070041E+01  0.46434729371E+03  0.48019227088E+03  0.12000000000E+03 0.  0.
<mgrwt>
<rscale>  0 0.32305575E+03</rscale>
<asrwt>0</asrwt>
<pdfrwt beam="1">  1        2 0.87909896E-01 0.32305575E+03</pdfrwt>
<pdfrwt beam="2">  1       -2 0.70247435E-02 0.32305575E+03</pdfrwt>
<totfact> 0.62017325E+03</totfact>
</mgrwt>
</event>
<event>
 4    1  0.1733772E-004  0.2566365E+03  0.7818608E-02  0.1109181E+00
          1   -1    0    0  501    0  0.00000000000E+00  0.00000000000E+00  0.65089753234E+03  0.65089753234E+03  0.00000000000E+00 0. -1.
         -1   -1    0    0    0  501 -0.00000000000E+00 -0.00000000000E+00 -0.25296712581E+02  0.25296712581E+02  0.00000000000E+00 0. -1.
         25    1    1    2    0    0  0.43402025201E+01 -0.43470198885E+02  0.34582236980E+03  0.36864835142E+03  0.12000000000E+03 0.  0.
         25    1    1    2    0    0 -0.43402025201E+01  0.43470198885E+02  0.27977844996E+03  0.30754589350E+03  0.12000000000E+03 0.  0.
<mgrwt>
<rscale>  0 0.25663646E+03</rscale>
<asrwt>0</asrwt>
<pdfrwt beam="1">  1        1 0.10013807E+00 0.25663646E+03</pdfrwt>
<pdfrwt beam="2">  1       -1 0.38918024E-02 0.25663646E+03</pdfrwt>
<totfact> 0.79768571E+03</totfact>
</mgrwt>
</event>
<event>
 4    1  0.1733772E-004  0.3252111E+03  0.7818608E-02  0.1073276E+00
         -3   -1    0    0    0  501 -0.00000000000E+00  0.00000000000E+00  0.13336096707E+03  0.13336096707E+03  0.00000000000E+00 0. -1.
          3   -1    0    0  501    0  0.00000000000E+00 -0.00000000000E+00 -0.19826320567E+03  0.19826320567E+03  0.00000000000E+00 0. -1.
         25    1    1    2    0    0  0.38392816019E+02 -0.10279324759E+03 -0.32108682031E+02  0.16574506790E+03  0.12000000000E+03 0.  0.
         25    1    1    2    0    0 -0.38392816019E+02  0.10279324759E+03 -0.32793556569E+02  0.16587910485E+03  0.12000000000E+03 0.  0.
<mgrwt>
<rscale>  0 0.32521115E+03</rscale>
<asrwt>0</asrwt>
<pdfrwt beam="1">  1        3 0.30502032E-01 0.32521115E+03</pdfrwt>
<pdfrwt beam="2">  1       -3 0.20517072E-01 0.32521115E+03</pdfrwt>
<totfact> 0.57577767E+02</totfact>
</mgrwt>
</event>
<event>
 4    1  0.1733772E-004  0.3373780E+03  0.7818608E-02  0.1067918E+00
          2   -1    0    0  501    0  0.00000000000E+00  0.00000000000E+00  0.27623321194E+03  0.27623321194E+03  0.00000000000E+00 0.  1.
         -2   -1    0    0    0  501 -0.00000000000E+00 -0.00000000000E+00 -0.10301431546E+03  0.10301431546E+03  0.00000000000E+00 0.  1.
         25    1    1    2    0    0 -0.60025276683E+02 -0.84073653028E+02  0.15200636586E+03  0.21949338996E+03  0.12000000000E+03 0.  0.
         25    1    1    2    0    0  0.60025276683E+02  0.84073653028E+02  0.21212530621E+02  0.15975413744E+03  0.12000000000E+03 0.  0.
<mgrwt>
<rscale>  0 0.33737798E+03</rscale>
<asrwt>0</asrwt>
<pdfrwt beam="1">  1        2 0.42497417E-01 0.33737798E+03</pdfrwt>
<pdfrwt beam="2">  1       -2 0.15848356E-01 0.33737798E+03</pdfrwt>
<totfact> 0.37438323E+03</totfact>
</mgrwt>
</event>
<event>
 4    1  0.1733772E-004  0.3672010E+03  0.7818608E-02  0.1055768E+00
         -1   -1    0    0    0  501 -0.00000000000E+00  0.00000000000E+00  0.23022835527E+03  0.23022835527E+03  0.00000000000E+00 0. -1.
          1   -1    0    0  501    0  0.00000000000E+00 -0.00000000000E+00 -0.14641609880E+03  0.14641609880E+03  0.00000000000E+00 0. -1.
         25    1    1    2    0    0 -0.78455524151E+02 -0.90334565527E+02  0.11438839932E+03  0.20445123843E+03  0.12000000000E+03 0.  0.
         25    1    1    2    0    0  0.78455524151E+02  0.90334565527E+02 -0.30576142852E+02  0.17219321563E+03  0.12000000000E+03 0.  0.
<mgrwt>
<rscale>  0 0.36720097E+03</rscale>
<asrwt>0</asrwt>
<pdfrwt beam="1">  1        1 0.22525554E-01 0.36720097E+03</pdfrwt>
<pdfrwt beam="2">  1       -1 0.35419747E-01 0.36720097E+03</pdfrwt>
<totfact> 0.16833379E+03</totfact>
</mgrwt>
</event>
<event>
 4    1  0.1733772E-004  0.2504145E+03  0.7818608E-02  0.1113043E+00
          1   -1    0    0  501    0  0.00000000000E+00  0.00000000000E+00  0.93163323696E+02  0.93163323696E+02  0.00000000000E+00 0. -1.
         -1   -1    0    0    0  501 -0.00000000000E+00 -0.00000000000E+00 -0.16827282561E+03  0.16827282561E+03  0.00000000000E+00 0. -1.
         25    1    1    2    0    0 -0.26401969077E+02 -0.23996144477E+01 -0.62568271375E+02  0.13790435346E+03  0.12000000000E+03 0.  0.
         25    1    1    2    0    0  0.26401969077E+02  0.23996144477E+01 -0.12541230536E+02  0.12353179584E+03  0.12000000000E+03 0.  0.
<mgrwt>
<rscale>  0 0.25041450E+03</rscale>
<asrwt>0</asrwt>
<pdfrwt beam="1">  1        1 0.14332819E-01 0.25041450E+03</pdfrwt>
<pdfrwt beam="2">  1       -1 0.25888127E-01 0.25041450E+03</pdfrwt>
<totfact> 0.51366258E+03</totfact>
</mgrwt>
</event>
<event>
 4    1  0.1733772E-004  0.3080815E+03  0.7818608E-02  0.1081269E+00
         -2   -1    0    0    0  501 -0.00000000000E+00  0.00000000000E+00  0.69924051376E+01  0.69924051376E+01  0.00000000000E+00 0.  1.
          2   -1    0    0  501    0  0.00000000000E+00 -0.00000000000E+00 -0.33934750811E+04  0.33934750811E+04  0.00000000000E+00 0.  1.
         25    1    1    2    0    0 -0.38132554188E+02  0.27017089289E+02 -0.26261950048E+04  0.26293505316E+04  0.12000000000E+03 0.  0.
         25    1    1    2    0    0  0.38132554188E+02 -0.27017089289E+02 -0.76028767109E+03  0.77111695456E+03  0.12000000000E+03 0.  0.
<mgrwt>
<rscale>  0 0.30808150E+03</rscale>
<asrwt>0</asrwt>
<pdfrwt beam="1">  1        2 0.52207279E+00 0.30808150E+03</pdfrwt>
<pdfrwt beam="2">  1       -2 0.10757553E-02 0.30808150E+03</pdfrwt>
<totfact> 0.22724252E+03</totfact>
</mgrwt>
</event>
<event>
 4    1  0.1733772E-004  0.2495206E+03  0.7818608E-02  0.1113608E+00
         -2   -1    0    0    0  501 -0.00000000000E+00  0.00000000000E+00  0.24750061756E+02  0.24750061756E+02  0.00000000000E+00 0. -1.
          2   -1    0    0  501    0  0.00000000000E+00 -0.00000000000E+00 -0.62889266049E+03  0.62889266049E+03  0.00000000000E+00 0. -1.
         25    1    1    2    0    0 -0.29968021719E+02  0.76629374142E+01 -0.33988151485E+03  0.36176822286E+03  0.12000000000E+03 0.  0.
         25    1    1    2    0    0  0.29968021719E+02 -0.76629374142E+01 -0.26426108389E+03  0.29187449939E+03  0.12000000000E+03 0.  0.
<mgrwt>
<rscale>  0 0.24952060E+03</rscale>
<asrwt>0</asrwt>
<pdfrwt beam="1">  1        2 0.96752711E-01 0.24952060E+03</pdfrwt>
<pdfrwt beam="2">  1       -2 0.38077020E-02 0.24952060E+03</pdfrwt>
<totfact> 0.13985513E+04</totfact>
</mgrwt>
</event>
<event>
 4    1  0.1733772E-004  0.2587992E+03  0.7818608E-02  0.1107867E+00
          2   -1    0    0  501    0  0.00000000000E+00  0.00000000000E+00  0.11628009674E+04  0.11628009674E+04  0.00000000000E+00 0. -1.
         -2   -1    0    0    0  501 -0.00000000000E+00 -0.00000000000E+00 -0.14399936728E+02  0.14399936728E+02  0.00000000000E+00 0. -1.
         25    1    1    2    0    0  0.30369500576E+02  0.14456554526E+02  0.73262094011E+03  0.74314516780E+03  0.12000000000E+03 0.  0.
         25    1    1    2    0    0 -0.30369500576E+02 -0.14456554526E+02  0.41578009057E+03  0.43405573634E+03  0.12000000000E+03 0.  0.
<mgrwt>
<rscale>  0 0.25879923E+03</rscale>
<asrwt>0</asrwt>
<pdfrwt beam="1">  1        2 0.17889238E+00 0.25879923E+03</pdfrwt>
<pdfrwt beam="2">  1       -2 0.22153758E-02 0.25879923E+03</pdfrwt>
<totfact> 0.13896840E+04</totfact>
</mgrwt>
</event>
<event>
 4    1  0.1733772E-004  0.2490529E+03  0.7818608E-02  0.1113905E+00
          2   -1    0    0  501    0  0.00000000000E+00  0.00000000000E+00  0.53906748254E+03  0.53906748254E+03  0.00000000000E+00 0.  1.
         -2   -1    0    0    0  501 -0.00000000000E+00 -0.00000000000E+00 -0.28766028889E+02  0.28766028889E+02  0.00000000000E+00 0.  1.
         25    1    1    2    0    0  0.20810818400E+02  0.19853097647E+02  0.29327436148E+03  0.31817775967E+03  0.12000000000E+03 0.  0.
         25    1    1    2    0    0 -0.20810818400E+02 -0.19853097647E+02  0.21702709217E+03  0.24965575176E+03  0.12000000000E+03 0.  0.
<mgrwt>
<rscale>  0 0.24905285E+03</rscale>
<asrwt>0</asrwt>
<pdfrwt beam="1">  1        2 0.82933452E-01 0.24905285E+03</pdfrwt>
<pdfrwt beam="2">  1       -2 0.44255433E-02 0.24905285E+03</pdfrwt>
<totfact> 0.13319157E+04</totfact>
</mgrwt>
</event>
<event>
 4    1  0.1733772E-004  0.2897486E+03  0.7818608E-02  0.1090481E+00
         -4   -1    0    0    0  501 -0.00000000000E+00  0.00000000000E+00  0.81064859657E+03  0.81064859657E+03  0.00000000000E+00 0. -1.
          4   -1    0    0  501    0  0.00000000000E+00 -0.00000000000E+00 -0.25891065384E+02  0.25891065384E+02  0.00000000000E+00 0. -1.
         25    1    1    2    0    0  0.55186095913E+02 -0.26601097934E+02  0.54611452515E+03  0.56248928716E+03  0.12000000000E+03 0.  0.
         25    1    1    2    0    0 -0.55186095913E+02  0.26601097934E+02  0.23864300604E+03  0.27405037479E+03  0.12000000000E+03 0.  0.
<mgrwt>
<rscale>  0 0.28974855E+03</rscale>
<asrwt>0</asrwt>
<pdfrwt beam="1">  1        4 0.39832415E-02 0.28974855E+03</pdfrwt>
<pdfrwt beam="2">  1       -4 0.12471515E+00 0.28974855E+03</pdfrwt>
<totfact> 0.32609626E+02</totfact>
</mgrwt>
</event>
<event>
 4    1  0.1733772E-004  0.5898887E+03  0.7818608E-02  0.9926609E-01
         -2   -1    0    0    0  501 -0.00000000000E+00  0.00000000000E+00  0.98483019436E+02  0.98483019436E+02  0.00000000000E+00 0.  1.
          2   -1    0    0  501    0  0.00000000000E+00 -0.00000000000E+00 -0.88332161061E+03  0.88332161061E+03  0.00000000000E+00 0.  1.
         25    1    1    2    0    0  0.11633124942E+03  0.63070348347E+02 -0.78304180552E+03  0.80315957171E+03  0.12000000000E+03 0.  0.
         25    1    1    2    0    0 -0.11633124942E+03 -0.63070348347E+02 -0.17967856572E+01  0.17864505834E+03  0.12000000000E+03 0.  0.
<mgrwt>
<rscale>  0 0.58988873E+03</rscale>
<asrwt>0</asrwt>
<pdfrwt beam="1">  1        2 0.13589563E+00 0.58988873E+03</pdfrwt>
<pdfrwt beam="2">  1       -2 0.15151234E-01 0.58988873E+03</pdfrwt>
<totfact> 0.10431986E+03</totfact>
</mgrwt>
</event>
<event>
 4    1  0.1733772E-004  0.2849470E+03  0.7818608E-02  0.1093017E+00
          2   -1    0    0  501    0  0.00000000000E+00  0.00000000000E+00  0.12428588499E+04  0.12428588499E+04  0.00000000000E+00 0. -1.
         -2   -1    0    0    0  501 -0.00000000000E+00 -0.00000000000E+00 -0.16332264920E+02  0.16332264920E+02  0.00000000000E+00 0. -1.
         25    1    1    2    0    0  0.18153230293E+02 -0.46166333718E+02  0.87236467588E+03  0.88197562203E+03  0.12000000000E+03 0.  0.
         25    1    1    2    0    0 -0.18153230293E+02  0.46166333718E+02  0.35416190906E+03  0.37721549275E+03  0.12000000000E+03 0.  0.
<mgrwt>
<rscale>  0 0.28494701E+03</rscale>
<asrwt>0</asrwt>
<pdfrwt beam="1">  1        2 0.19120898E+00 0.28494701E+03</pdfrwt>
<pdfrwt beam="2">  1       -2 0.25126571E-02 0.28494701E+03</pdfrwt>
<totfact> 0.10420402E+04</totfact>
</mgrwt>
</event>
<event>
 4    1  0.1733772E-004  0.3238110E+03  0.7818608E-02  0.1073909E+00
         -3   -1    0    0    0  501 -0.00000000000E+00  0.00000000000E+00  0.47578743353E+03  0.47578743353E+03  0.00000000000E+00 0.  1.
          3   -1    0    0  501    0  0.00000000000E+00 -0.00000000000E+00 -0.55094744092E+02  0.55094744092E+02  0.00000000000E+00 0.  1.
         25    1    1    2    0    0 -0.48695902406E+02  0.83145595046E+02  0.29279297790E+03  0.33077516350E+03  0.12000000000E+03 0.  0.
         25    1    1    2    0    0  0.48695902406E+02 -0.83145595046E+02  0.12789971154E+03  0.20010701412E+03  0.12000000000E+03 0.  0.
<mgrwt>
<rscale>  0 0.32381098E+03</rscale>
<asrwt>0</asrwt>
<pdfrwt beam="1">  1        3 0.84761148E-02 0.32381098E+03</pdfrwt>
<pdfrwt beam="2">  1       -3 0.73198064E-01 0.32381098E+03</pdfrwt>
<totfact> 0.45142920E+02</totfact>
</mgrwt>
</event>
<event>
 4    1  0.1733772E-004  0.2992526E+03  0.7818608E-02  0.1085615E+00
         -1   -1    0    0    0  501 -0.00000000000E+00  0.00000000000E+00  0.21085622833E+03  0.21085622833E+03  0.00000000000E+00 0.  1.
          1   -1    0    0  501    0  0.00000000000E+00 -0.00000000000E+00 -0.10617676925E+03  0.10617676925E+03  0.00000000000E+00 0.  1.
         25    1    1    2    0    0  0.34591052894E+01 -0.52345245376E+02 -0.24320144704E+02  0.13320457785E+03  0.12000000000E+03 0.  0.
         25    1    1    2    0    0 -0.34591052894E+01  0.52345245376E+02  0.12899960378E+03  0.18382841973E+03  0.12000000000E+03 0.  0.
<mgrwt>
<rscale>  0 0.29925262E+03</rscale>
<asrwt>0</asrwt>
<pdfrwt beam="1">  1        1 0.16334888E-01 0.29925262E+03</pdfrwt>
<pdfrwt beam="2">  1       -1 0.32439420E-01 0.29925262E+03</pdfrwt>
<totfact> 0.29686221E+03</totfact>
</mgrwt>
</event>
<event>
 4    1  0.1733772E-004  0.2626467E+03  0.7818608E-02  0.1105563E+00
         -1   -1    0    0    0  501 -0.00000000000E+00  0.00000000000E+00  0.30417696036E+03  0.30417696036E+03  0.00000000000E+00 0. -1.
          1   -1    0    0  501    0  0.00000000000E+00 -0.00000000000E+00 -0.56696656023E+02  0.56696656023E+02  0.00000000000E+00 0. -1.
         25    1    1    2    0    0 -0.26329466376E+02  0.46078948424E+02  0.13117826974E+03  0.18553772862E+03  0.12000000000E+03 0.  0.
         25    1    1    2    0    0  0.26329466376E+02 -0.46078948424E+02  0.11630203459E+03  0.17533588776E+03  0.12000000000E+03 0.  0.
<mgrwt>
<rscale>  0 0.26264666E+03</rscale>
<asrwt>0</asrwt>
<pdfrwt beam="1">  1        1 0.87225627E-02 0.26264666E+03</pdfrwt>
<pdfrwt beam="2">  1       -1 0.46796454E-01 0.26264666E+03</pdfrwt>
<totfact> 0.35653401E+03</totfact>
</mgrwt>
</event>
<event>
 4    1  0.1733772E-004  0.2683353E+03  0.7818608E-02  0.1102236E+00
          3   -1    0    0  501    0  0.00000000000E+00  0.00000000000E+00  0.44894799357E+03  0.44894799357E+03  0.00000000000E+00 0.  1.
         -3   -1    0    0    0  501 -0.00000000000E+00 -0.00000000000E+00 -0.40095866231E+02  0.40095866231E+02  0.00000000000E+00 0.  1.
         25    1    1    2    0    0  0.37859692003E+02  0.16372538456E+02  0.28385787995E+03  0.31092878976E+03  0.12000000000E+03 0.  0.
         25    1    1    2    0    0 -0.37859692003E+02 -0.16372538456E+02  0.12499424739E+03  0.17811507004E+03  0.12000000000E+03 0.  0.
<mgrwt>
<rscale>  0 0.26833530E+03</rscale>
<asrwt>0</asrwt>
<pdfrwt beam="1">  1        3 0.69068919E-01 0.26833530E+03</pdfrwt>
<pdfrwt beam="2">  1       -3 0.61685951E-02 0.26833530E+03</pdfrwt>
<totfact> 0.84567117E+02</totfact>
</mgrwt>
</event>
<event>
 4    1  0.1733772E-004  0.4222445E+03  0.7818608E-02  0.1036338E+00
         -1   -1    0    0    0  501 -0.00000000000E+00  0.00000000000E+00  0.24450467022E+02  0.24450467022E+02  0.00000000000E+00 0. -1.
          1   -1    0    0  501    0  0.00000000000E+00 -0.00000000000E+00 -0.18229758005E+04  0.18229758005E+04  0.00000000000E+00 0. -1.
         25    1    1    2    0    0  0.19896465153E+02  0.58678977490E+02 -0.18926400811E+03  0.23250797081E+03  0.12000000000E+03 0.  0.
         25    1    1    2    0    0 -0.19896465153E+02 -0.58678977490E+02 -0.16092613254E+04  0.16149182968E+04  0.12000000000E+03 0.  0.
<mgrwt>
<rscale>  0 0.42224452E+03</rscale>
<asrwt>0</asrwt>
<pdfrwt beam="1">  1        1 0.28045785E+00 0.42224452E+03</pdfrwt>
<pdfrwt beam="2">  1       -1 0.37616098E-02 0.42224452E+03</pdfrwt>
<totfact> 0.11734273E+03</totfact>
</mgrwt>
</event>
<event>
 4    1  0.1733772E-004  0.3196411E+03  0.7818608E-02  0.1075815E+00
         -1   -1    0    0    0  501 -0.00000000000E+00  0.00000000000E+00  0.24484247105E+02  0.24484247105E+02  0.00000000000E+00 0. -1.
          1   -1    0    0  501    0  0.00000000000E+00 -0.00000000000E+00 -0.10432260295E+04  0.10432260295E+04  0.00000000000E+00 0. -1.
         25    1    1    2    0    0 -0.27208955621E+02 -0.10186380205E+03 -0.52641725833E+03  0.55011970634E+03  0.12000000000E+03 0.  0.
         25    1    1    2    0    0  0.27208955621E+02  0.10186380205E+03 -0.49232452410E+03  0.51759057030E+03  0.12000000000E+03 0.  0.
<mgrwt>
<rscale>  0 0.31964107E+03</rscale>
<asrwt>0</asrwt>
<pdfrwt beam="1">  1        1 0.16049629E+00 0.31964107E+03</pdfrwt>
<pdfrwt beam="2">  1       -1 0.37668077E-02 0.31964107E+03</pdfrwt>
<totfact> 0.40027498E+03</totfact>
</mgrwt>
</event>
<event>
 4    1  0.1733772E-004  0.4468728E+03  0.7818608E-02  0.1028659E+00
         -2   -1    0    0    0  501 -0.00000000000E+00  0.00000000000E+00  0.42492844974E+03  0.42492844974E+03  0.00000000000E+00 0.  1.
          2   -1    0    0  501    0  0.00000000000E+00 -0.00000000000E+00 -0.11748757840E+03  0.11748757840E+03  0.00000000000E+00 0.  1.
         25    1    1    2    0    0 -0.29747685184E+02  0.52399471858E+02 -0.63048769329E+02  0.14834344185E+03  0.12000000000E+03 0.  0.
         25    1    1    2    0    0  0.29747685184E+02 -0.52399471858E+02  0.37048964067E+03  0.39407258629E+03  0.12000000000E+03 0.  0.
<mgrwt>
<rscale>  0 0.44687275E+03</rscale>
<asrwt>0</asrwt>
<pdfrwt beam="1">  1        2 0.18075012E-01 0.44687275E+03</pdfrwt>
<pdfrwt beam="2">  1       -2 0.65373607E-01 0.44687275E+03</pdfrwt>
<totfact> 0.69434448E+02</totfact>
</mgrwt>
</event>
<event>
 4    1  0.1733772E-004  0.2787200E+03  0.7818608E-02  0.1096390E+00
         -4   -1    0    0    0  501 -0.00000000000E+00  0.00000000000E+00  0.48268989506E+02  0.48268989506E+02  0.00000000000E+00 0.  1.
          4   -1    0    0  501    0  0.00000000000E+00 -0.00000000000E+00 -0.40235389740E+03  0.40235389740E+03  0.00000000000E+00 0.  1.
         25    1    1    2    0    0 -0.41707416411E+02 -0.28755792626E+02 -0.25714644347E+03  0.28825457079E+03  0.12000000000E+03 0.  0.
         25    1    1    2    0    0  0.41707416411E+02  0.28755792626E+02 -0.96938464430E+02  0.16236831612E+03  0.12000000000E+03 0.  0.
<mgrwt>
<rscale>  0 0.27872005E+03</rscale>
<asrwt>0</asrwt>
<pdfrwt beam="1">  1        4 0.61900600E-01 0.27872005E+03</pdfrwt>
<pdfrwt beam="2">  1       -4 0.74259984E-02 0.27872005E+03</pdfrwt>
<totfact> 0.58250705E+02</totfact>
</mgrwt>
</event>
<event>
 4    1  0.1733772E-004  0.3497184E+03  0.7818608E-02  0.1062731E+00
         -1   -1    0    0    0  501 -0.00000000000E+00  0.00000000000E+00  0.22553927627E+02  0.22553927627E+02  0.00000000000E+00 0.  1.
          1   -1    0    0  501    0  0.00000000000E+00 -0.00000000000E+00 -0.13556725203E+04  0.13556725203E+04  0.00000000000E+00 0.  1.
         25    1    1    2    0    0  0.79009630860E+02 -0.53438110111E+02 -0.99810598150E+03  0.10098087461E+04  0.12000000000E+03 0.  0.
         25    1    1    2    0    0 -0.79009630860E+02  0.53438110111E+02 -0.33501261120E+03  0.36841770186E+03  0.12000000000E+03 0.  0.
<mgrwt>
<rscale>  0 0.34971840E+03</rscale>
<asrwt>0</asrwt>
<pdfrwt beam="1">  1        1 0.20856496E+00 0.34971840E+03</pdfrwt>
<pdfrwt beam="2">  1       -1 0.34698357E-02 0.34971840E+03</pdfrwt>
<totfact> 0.27212035E+03</totfact>
</mgrwt>
</event>
<event>
 4    1  0.1733772E-004  0.4180063E+03  0.7818608E-02  0.1037717E+00
         -2   -1    0    0    0  501 -0.00000000000E+00  0.00000000000E+00  0.38525718630E+02  0.38525718630E+02  0.00000000000E+00 0. -1.
          2   -1    0    0  501    0  0.00000000000E+00 -0.00000000000E+00 -0.11338480686E+04  0.11338480686E+04  0.00000000000E+00 0. -1.
         25    1    1    2    0    0  0.12845814949E+02  0.15847986188E+03 -0.37024593892E+03  0.42043184569E+03  0.12000000000E+03 0.  0.
         25    1    1    2    0    0 -0.12845814949E+02 -0.15847986188E+03 -0.72507641108E+03  0.75194194157E+03  0.12000000000E+03 0.  0.
<mgrwt>
<rscale>  0 0.41800628E+03</rscale>
<asrwt>0</asrwt>
<pdfrwt beam="1">  1        2 0.17443816E+00 0.41800628E+03</pdfrwt>
<pdfrwt beam="2">  1       -2 0.59270337E-02 0.41800628E+03</pdfrwt>
<totfact> 0.33009563E+03</totfact>
</mgrwt>
</event>
<event>
 4    1  0.1733772E-004  0.2440514E+03  0.7818608E-02  0.1117123E+00
          2   -1    0    0  501    0  0.00000000000E+00  0.00000000000E+00  0.12389433152E+03  0.12389433152E+03  0.00000000000E+00 0.  1.
         -2   -1    0    0    0  501 -0.00000000000E+00 -0.00000000000E+00 -0.12018524443E+03  0.12018524443E+03  0.00000000000E+00 0.  1.
         25    1    1    2    0    0 -0.15693232853E+02 -0.14616955521E+02  0.73631348911E+01  0.12212349775E+03  0.12000000000E+03 0.  0.
         25    1    1    2    0    0  0.15693232853E+02  0.14616955521E+02 -0.36540478040E+01  0.12195607821E+03  0.12000000000E+03 0.  0.
<mgrwt>
<rscale>  0 0.24405139E+03</rscale>
<asrwt>0</asrwt>
<pdfrwt beam="1">  1        2 0.19060666E-01 0.24405139E+03</pdfrwt>
<pdfrwt beam="2">  1       -2 0.18490038E-01 0.24405139E+03</pdfrwt>
<totfact> 0.69554714E+03</totfact>
</mgrwt>
</event>
<event>
 4    1  0.1733772E-004  0.2571680E+03  0.7818608E-02  0.1108857E+00
         -3   -1    0    0    0  501 -0.00000000000E+00  0.00000000000E+00  0.10426721321E+02  0.10426721321E+02  0.00000000000E+00 0. -1.
          3   -1    0    0  501    0  0.00000000000E+00 -0.00000000000E+00 -0.15857191040E+04  0.15857191040E+04  0.00000000000E+00 0. -1.
         25    1    1    2    0    0  0.39647659157E+02  0.38222959529E+01 -0.93284732778E+03  0.94137701468E+03  0.12000000000E+03 0.  0.
         25    1    1    2    0    0 -0.39647659157E+02 -0.38222959529E+01 -0.64244505495E+03  0.65476881069E+03  0.12000000000E+03 0.  0.
<mgrwt>
<rscale>  0 0.25716805E+03</rscale>
<asrwt>0</asrwt>
<pdfrwt beam="1">  1        3 0.24395669E+00 0.25716805E+03</pdfrwt>
<pdfrwt beam="2">  1       -3 0.16041116E-02 0.25716805E+03</pdfrwt>
<totfact> 0.30088651E+02</totfact>
</mgrwt>
</event>
<event>
 4    1  0.1733772E-004  0.2722548E+03  0.7818608E-02  0.1099996E+00
          1   -1    0    0  501    0  0.00000000000E+00  0.00000000000E+00  0.21174719072E+03  0.21174719072E+03  0.00000000000E+00 0.  1.
         -1   -1    0    0    0  501 -0.00000000000E+00 -0.00000000000E+00 -0.87513143242E+02  0.87513143242E+02  0.00000000000E+00 0.  1.
         25    1    1    2    0    0  0.18234577930E+02 -0.60445666597E+02  0.48904576908E+02  0.14414519099E+03  0.12000000000E+03 0.  0.
         25    1    1    2    0    0 -0.18234577930E+02  0.60445666597E+02  0.75329470568E+02  0.15511514297E+03  0.12000000000E+03 0.  0.
<mgrwt>
<rscale>  0 0.27225475E+03</rscale>
<asrwt>0</asrwt>
<pdfrwt beam="1">  1        1 0.32576491E-01 0.27225475E+03</pdfrwt>
<pdfrwt beam="2">  1       -1 0.13463561E-01 0.27225475E+03</pdfrwt>
<totfact> 0.51688463E+03</totfact>
</mgrwt>
</event>
<event>
 4    1  0.1733772E-004  0.3518187E+03  0.7818608E-02  0.1061871E+00
         -3   -1    0    0    0  501 -0.00000000000E+00  0.00000000000E+00  0.22751497531E+03  0.22751497531E+03  0.00000000000E+00 0.  1.
          3   -1    0    0  501    0  0.00000000000E+00 -0.00000000000E+00 -0.13600909138E+03  0.13600909138E+03  0.00000000000E+00 0.  1.
         25    1    1    2    0    0 -0.72666154956E+02 -0.10244142291E+03  0.74415547069E+02  0.18897695322E+03  0.12000000000E+03 0.  0.
         25    1    1    2    0    0  0.72666154956E+02  0.10244142291E+03  0.17090336861E+02  0.17454711346E+03  0.12000000000E+03 0.  0.
<mgrwt>
<rscale>  0 0.35181873E+03</rscale>
<asrwt>0</asrwt>
<pdfrwt beam="1">  1        3 0.20924476E-01 0.35181873E+03</pdfrwt>
<pdfrwt beam="2">  1       -3 0.35002304E-01 0.35181873E+03</pdfrwt>
<totfact> 0.43082676E+02</totfact>
</mgrwt>
</event>
<event>
 4    1  0.1733772E-004  0.3567574E+03  0.7818608E-02  0.1059875E+00
         -2   -1    0    0    0  501 -0.00000000000E+00  0.00000000000E+00  0.83875734135E+02  0.83875734135E+02  0.00000000000E+00 0. -1.
          2   -1    0    0  501    0  0.00000000000E+00 -0.00000000000E+00 -0.37935842675E+03  0.37935842675E+03  0.00000000000E+00 0. -1.
         25    1    1    2    0    0 -0.54810713339E+02 -0.91445490540E+02 -0.46724447318E+02  0.16718153610E+03  0.12000000000E+03 0.  0.
         25    1    1    2    0    0  0.54810713339E+02  0.91445490540E+02 -0.24875824530E+03  0.29605262478E+03  0.12000000000E+03 0.  0.
<mgrwt>
<rscale>  0 0.35675743E+03</rscale>
<asrwt>0</asrwt>
<pdfrwt beam="1">  1        2 0.58362834E-01 0.35675743E+03</pdfrwt>
<pdfrwt beam="2">  1       -2 0.12903959E-01 0.35675743E+03</pdfrwt>
<totfact> 0.37299847E+03</totfact>
</mgrwt>
</event>
<event>
 4    1  0.1733772E-004  0.3797522E+03  0.7818608E-02  0.1051025E+00
          1   -1    0    0  501    0  0.00000000000E+00  0.00000000000E+00  0.29028948113E+04  0.29028948113E+04  0.00000000000E+00 0.  1.
         -1   -1    0    0    0  501 -0.00000000000E+00 -0.00000000000E+00 -0.12419648005E+02  0.12419648005E+02  0.00000000000E+00 0.  1.
         25    1    1    2    0    0  0.65613576645E+02  0.11609215966E+03  0.19228362277E+04  0.19311866014E+04  0.12000000000E+03 0.  0.
         25    1    1    2    0    0 -0.65613576645E+02 -0.11609215966E+03  0.96763893562E+03  0.98412785790E+03  0.12000000000E+03 0.  0.
<mgrwt>
<rscale>  0 0.37975219E+03</rscale>
<asrwt>0</asrwt>
<pdfrwt beam="1">  1        1 0.44659866E+00 0.37975219E+03</pdfrwt>
<pdfrwt beam="2">  1       -1 0.19107174E-02 0.37975219E+03</pdfrwt>
<totfact> 0.61041118E+02</totfact>
</mgrwt>
</event>
<event>
 4    1  0.1733772E-004  0.2799663E+03  0.7818608E-02  0.1095707E+00
         -1   -1    0    0    0  501 -0.00000000000E+00  0.00000000000E+00  0.29958917302E+03  0.29958917302E+03  0.00000000000E+00 0.  1.
          1   -1    0    0  501    0  0.00000000000E+00 -0.00000000000E+00 -0.65407174396E+02  0.65407174396E+02  0.00000000000E+00 0.  1.
         25    1    1    2    0    0 -0.90742582987E+01  0.59408997451E+02  0.65211808116E+02  0.14921243601E+03  0.12000000000E+03 0.  0.
         25    1    1    2    0    0  0.90742582987E+01 -0.59408997451E+02  0.16897019050E+03  0.21578391140E+03  0.12000000000E+03 0.  0.
<mgrwt>
<rscale>  0 0.27996629E+03</rscale>
<asrwt>0</asrwt>
<pdfrwt beam="1">  1        1 0.10062642E-01 0.27996629E+03</pdfrwt>
<pdfrwt beam="2">  1       -1 0.46090641E-01 0.27996629E+03</pdfrwt>
<totfact> 0.30284230E+03</totfact>
</mgrwt>
</event>
<event>
 4    1  0.1733772E-004  0.2936146E+03  0.7818608E-02  0.1088477E+00
          1   -1    0    0  501    0  0.00000000000E+00  0.00000000000E+00  0.22101865645E+03  0.22101865645E+03  0.00000000000E+00 0. -1.
         -1   -1    0    0    0  501 -0.00000000000E+00 -0.00000000000E+00 -0.97513884453E+02  0.97513884453E+02  0.00000000000E+00 0. -1.
         25    1    1    2    0    0 -0.21149169200E+02  0.63995728174E+02  0.11717244826E+03  0.18075431727E+03  0.12000000000E+03 0.  0.
         25    1    1    2    0    0  0.21149169200E+02 -0.63995728174E+02  0.63323237402E+01  0.13777822363E+03  0.12000000000E+03 0.  0.
<mgrwt>
<rscale>  0 0.29361463E+03</rscale>
<asrwt>0</asrwt>
<pdfrwt beam="1">  1        1 0.34002870E-01 0.29361463E+03</pdfrwt>
<pdfrwt beam="2">  1       -1 0.15002136E-01 0.29361463E+03</pdfrwt>
<totfact> 0.41360224E+03</totfact>
</mgrwt>
</event>
<event>
 4    1  0.1733772E-004  0.2496673E+03  0.7818608E-02  0.1113515E+00
         -2   -1    0    0    0  501 -0.00000000000E+00  0.00000000000E+00  0.87992911392E+01  0.87992911392E+01  0.00000000000E+00 0. -1.
          2   -1    0    0  501    0  0.00000000000E+00 -0.00000000000E+00 -0.17709884519E+04  0.17709884519E+04  0.00000000000E+00 0. -1.
         25    1    1    2    0    0 -0.22844714915E+02 -0.49364596891E+01 -0.10610405516E+04  0.10680605328E+04  0.12000000000E+03 0.  0.
         25    1    1    2    0    0  0.22844714915E+02  0.49364596891E+01 -0.70114860912E+03  0.71172721018E+03  0.12000000000E+03 0.  0.
<mgrwt>
<rscale>  0 0.24966732E+03</rscale>
<asrwt>0</asrwt>
<pdfrwt beam="1">  1        2 0.27245957E+00 0.24966732E+03</pdfrwt>
<pdfrwt beam="2">  1       -2 0.13537381E-02 0.24966732E+03</pdfrwt>
<totfact> 0.13402834E+04</totfact>
</mgrwt>
</event>
<event>
 4    1  0.1733772E-004  0.2964313E+03  0.7818608E-02  0.1087038E+00
          1   -1    0    0  501    0  0.00000000000E+00  0.00000000000E+00  0.45781810406E+03  0.45781810406E+03  0.00000000000E+00 0.  1.
         -1   -1    0    0    0  501 -0.00000000000E+00 -0.00000000000E+00 -0.47983873477E+02  0.47983873477E+02  0.00000000000E+00 0.  1.
         25    1    1    2    0    0  0.54093297584E+02  0.63353273357E+02  0.24768254880E+03  0.28755237274E+03  0.12000000000E+03 0.  0.
         25    1    1    2    0    0 -0.54093297584E+02 -0.63353273357E+02  0.16215168178E+03  0.21824960479E+03  0.12000000000E+03 0.  0.
<mgrwt>
<rscale>  0 0.29643135E+03</rscale>
<asrwt>0</asrwt>
<pdfrwt beam="1">  1        1 0.70433552E-01 0.29643135E+03</pdfrwt>
<pdfrwt beam="2">  1       -1 0.73821347E-02 0.29643135E+03</pdfrwt>
<totfact> 0.49367480E+03</totfact>
</mgrwt>
</event>
<event>
 4    1  0.1733772E-004  0.2724620E+03  0.7818608E-02  0.1099879E+00
          1   -1    0    0  501    0  0.00000000000E+00  0.00000000000E+00  0.53231426465E+02  0.53231426465E+02  0.00000000000E+00 0.  1.
         -1   -1    0    0    0  501 -0.00000000000E+00 -0.00000000000E+00 -0.34864524188E+03  0.34864524188E+03  0.00000000000E+00 0.  1.
         25    1    1    2    0    0  0.36866534555E+00 -0.55126589650E+02 -0.98348809747E+02  0.16465589932E+03  0.12000000000E+03 0.  0.
         25    1    1    2    0    0 -0.36866534555E+00  0.55126589650E+02 -0.19706500567E+03  0.23722076903E+03  0.12000000000E+03 0.  0.
<mgrwt>
<rscale>  0 0.27246199E+03</rscale>
<asrwt>0</asrwt>
<pdfrwt beam="1">  1        1 0.81894502E-02 0.27246199E+03</pdfrwt>
<pdfrwt beam="2">  1       -1 0.53637730E-01 0.27246199E+03</pdfrwt>
<totfact> 0.30206999E+03</totfact>
</mgrwt>
</event>
<event>
 4    1  0.1733772E-004  0.2773601E+03  0.7818608E-02  0.1097140E+00
          1   -1    0    0  501    0  0.00000000000E+00  0.00000000000E+00  0.16742917522E+04  0.16742917522E+04  0.00000000000E+00 0. -1.
         -1   -1    0    0    0  501 -0.00000000000E+00 -0.00000000000E+00 -0.11486738682E+02  0.11486738682E+02  0.00000000000E+00 0. -1.
         25    1    1    2    0    0  0.67400600074E+02  0.16859468171E+02  0.84508702659E+03  0.85638727517E+03  0.12000000000E+03 0.  0.
         25    1    1    2    0    0 -0.67400600074E+02 -0.16859468171E+02  0.81771798689E+03  0.82939121567E+03  0.12000000000E+03 0.  0.
<mgrwt>
<rscale>  0 0.27736007E+03</rscale>
<asrwt>0</asrwt>
<pdfrwt beam="1">  1        1 0.25758315E+00 0.27736007E+03</pdfrwt>
<pdfrwt beam="2">  1       -1 0.17671919E-02 0.27736007E+03</pdfrwt>
<totfact> 0.45159221E+03</totfact>
</mgrwt>
</event>
<event>
 4    1  0.1733772E-004  0.3430166E+03  0.7818608E-02  0.1065518E+00
          2   -1    0    0  501    0  0.00000000000E+00  0.00000000000E+00  0.46834766868E+03  0.46834766868E+03  0.00000000000E+00 0.  1.
         -2   -1    0    0    0  501 -0.00000000000E+00 -0.00000000000E+00 -0.62806103096E+02  0.62806103096E+02  0.00000000000E+00 0.  1.
         25    1    1    2    0    0 -0.77813272302E+02 -0.92696118732E+02  0.17308131015E+03  0.24290865711E+03  0.12000000000E+03 0.  0.
         25    1    1    2    0    0  0.77813272302E+02  0.92696118732E+02  0.23246025544E+03  0.28824511467E+03  0.12000000000E+03 0.  0.
<mgrwt>
<rscale>  0 0.34301657E+03</rscale>
<asrwt>0</asrwt>
<pdfrwt beam="1">  1        2 0.72053485E-01 0.34301657E+03</pdfrwt>
<pdfrwt beam="2">  1       -2 0.96624777E-02 0.34301657E+03</pdfrwt>
<totfact> 0.47123518E+03</totfact>
</mgrwt>
</event>
<event>
 4    1  0.1733772E-004  0.2787490E+03  0.7818608E-02  0.1096374E+00
         -1   -1    0    0    0  501 -0.00000000000E+00  0.00000000000E+00  0.21961389632E+02  0.21961389632E+02  0.00000000000E+00 0.  1.
          1   -1    0    0  501    0  0.00000000000E+00 -0.00000000000E+00 -0.88451819700E+03  0.88451819700E+03  0.00000000000E+00 0.  1.
         25    1    1    2    0    0 -0.37594445389E+02  0.45052450573E+02 -0.56063039343E+03  0.57632413073E+03  0.12000000000E+03 0.  0.
         25    1    1    2    0    0  0.37594445389E+02 -0.45052450573E+02 -0.30192641394E+03  0.33015545590E+03  0.12000000000E+03 0.  0.
<mgrwt>
<rscale>  0 0.27874898E+03</rscale>
<asrwt>0</asrwt>
<pdfrwt beam="1">  1        1 0.13607971E+00 0.27874898E+03</pdfrwt>
<pdfrwt beam="2">  1       -1 0.33786757E-02 0.27874898E+03</pdfrwt>
<totfact> 0.62073251E+03</totfact>
</mgrwt>
</event>
<event>
 4    1  0.1733772E-004  0.2497656E+03  0.7818608E-02  0.1113453E+00
         -4   -1    0    0    0  501 -0.00000000000E+00  0.00000000000E+00  0.13068278604E+04  0.13068278604E+04  0.00000000000E+00 0. -1.
          4   -1    0    0  501    0  0.00000000000E+00 -0.00000000000E+00 -0.11934018871E+02  0.11934018871E+02  0.00000000000E+00 0. -1.
         25    1    1    2    0    0  0.24208756881E+02 -0.23554346473E+02  0.60834739662E+03  0.62098907085E+03  0.12000000000E+03 0.  0.
         25    1    1    2    0    0 -0.24208756881E+02  0.23554346473E+02  0.68654644495E+03  0.69777280846E+03  0.12000000000E+03 0.  0.
<mgrwt>
<rscale>  0 0.24976556E+03</rscale>
<asrwt>0</asrwt>
<pdfrwt beam="1">  1        4 0.18360039E-02 0.24976556E+03</pdfrwt>
<pdfrwt beam="2">  1       -4 0.20105033E+00 0.24976556E+03</pdfrwt>
<totfact> 0.30465939E+02</totfact>
</mgrwt>
</event>
<event>
 4    1  0.1733772E-004  0.2697698E+03  0.7818608E-02  0.1101411E+00
          2   -1    0    0  501    0  0.00000000000E+00  0.00000000000E+00  0.13109559953E+04  0.13109559953E+04  0.00000000000E+00 0.  1.
         -2   -1    0    0    0  501 -0.00000000000E+00 -0.00000000000E+00 -0.13878367894E+02  0.13878367894E+02  0.00000000000E+00 0.  1.
         25    1    1    2    0    0  0.23051544140E+02 -0.46995368960E+02  0.80797497415E+03  0.81851297927E+03  0.12000000000E+03 0.  0.
         25    1    1    2    0    0 -0.23051544140E+02  0.46995368960E+02  0.48910265326E+03  0.50632138392E+03  0.12000000000E+03 0.  0.
<mgrwt>
<rscale>  0 0.26976975E+03</rscale>
<asrwt>0</asrwt>
<pdfrwt beam="1">  1        2 0.20168544E+00 0.26976975E+03</pdfrwt>
<pdfrwt beam="2">  1       -2 0.21351346E-02 0.26976975E+03</pdfrwt>
<totfact> 0.12128376E+04</totfact>
</mgrwt>
</event>
<event>
 4    1  0.1733772E-004  0.2564836E+03  0.7818608E-02  0.1109275E+00
         -2   -1    0    0    0  501 -0.00000000000E+00  0.00000000000E+00  0.69567514381E+01  0.69567514381E+01  0.00000000000E+00 0. -1.
          2   -1    0    0  501    0  0.00000000000E+00 -0.00000000000E+00 -0.23640276776E+04  0.23640276776E+04  0.00000000000E+00 0. -1.
         25    1    1    2    0    0  0.44612033620E+02 -0.56717758645E+01 -0.12233963612E+04  0.12300898582E+04  0.12000000000E+03 0.  0.
         25    1    1    2    0    0 -0.44612033620E+02  0.56717758645E+01 -0.11336745649E+04  0.11408945708E+04  0.12000000000E+03 0.  0.
<mgrwt>
<rscale>  0 0.25648355E+03</rscale>
<asrwt>0</asrwt>
<pdfrwt beam="1">  1        2 0.36369642E+00 0.25648355E+03</pdfrwt>
<pdfrwt beam="2">  1       -2 0.10702699E-02 0.25648355E+03</pdfrwt>
<totfact> 0.91800181E+03</totfact>
</mgrwt>
</event>
<event>
 4    1  0.1733772E-004  0.2674304E+03  0.7818608E-02  0.1102759E+00
          1   -1    0    0  501    0  0.00000000000E+00  0.00000000000E+00  0.22524750109E+04  0.22524750109E+04  0.00000000000E+00 0. -1.
         -1   -1    0    0    0  501 -0.00000000000E+00 -0.00000000000E+00 -0.79378288180E+01  0.79378288180E+01  0.00000000000E+00 0. -1.
         25    1    1    2    0    0 -0.56361166840E+01 -0.71810314402E+01  0.62967571949E+03  0.64107319765E+03  0.12000000000E+03 0.  0.
         25    1    1    2    0    0  0.56361166840E+01  0.71810314402E+01  0.16148614626E+04  0.16193396421E+04  0.12000000000E+03 0.  0.
<mgrwt>
<rscale>  0 0.26743045E+03</rscale>
<asrwt>0</asrwt>
<pdfrwt beam="1">  1        1 0.34653411E+00 0.26743045E+03</pdfrwt>
<pdfrwt beam="2">  1       -1 0.12212062E-02 0.26743045E+03</pdfrwt>
<totfact> 0.32517597E+03</totfact>
</mgrwt>
</event>
<event>
 4    1  0.1733772E-004  0.3495964E+03  0.7818608E-02  0.1062781E+00
          3   -1    0    0  501    0  0.00000000000E+00  0.00000000000E+00  0.77984576933E+02  0.77984576933E+02  0.00000000000E+00 0. -1.
         -3   -1    0    0    0  501 -0.00000000000E+00 -0.00000000000E+00 -0.39180077752E+03  0.39180077752E+03  0.00000000000E+00 0. -1.
         25    1    1    2    0    0  0.47391406575E+02 -0.10379845837E+03 -0.81675445147E+02  0.18463733024E+03  0.12000000000E+03 0.  0.
         25    1    1    2    0    0 -0.47391406575E+02  0.10379845837E+03 -0.23214075544E+03  0.28514802422E+03  0.12000000000E+03 0.  0.
<mgrwt>
<rscale>  0 0.34959644E+03</rscale>
<asrwt>0</asrwt>
<pdfrwt beam="1">  1        3 0.11997628E-01 0.34959644E+03</pdfrwt>
<pdfrwt beam="2">  1       -3 0.60277041E-01 0.34959644E+03</pdfrwt>
<totfact> 0.38342810E+02</totfact>
</mgrwt>
</event>
<event>
 4    1  0.1733772E-004  0.3275573E+03  0.7818608E-02  0.1072223E+00
         -2   -1    0    0    0  501 -0.00000000000E+00  0.00000000000E+00  0.11383513972E+02  0.11383513972E+02  0.00000000000E+00 0.  1.
          2   -1    0    0  501    0  0.00000000000E+00 -0.00000000000E+00 -0.23563411923E+04  0.23563411923E+04  0.00000000000E+00 0.  1.
         25    1    1    2    0    0 -0.17481662485E+02  0.90397157838E+02 -0.71839834355E+03  0.73414810133E+03  0.12000000000E+03 0.  0.
         25    1    1    2    0    0  0.17481662485E+02 -0.90397157838E+02 -0.16265593348E+04  0.16335766050E+04  0.12000000000E+03 0.  0.
<mgrwt>
<rscale>  0 0.32755728E+03</rscale>
<asrwt>0</asrwt>
<pdfrwt beam="1">  1        2 0.36251487E+00 0.32755728E+03</pdfrwt>
<pdfrwt beam="2">  1       -2 0.17513058E-02 0.32755728E+03</pdfrwt>
<totfact> 0.45054303E+03</totfact>
</mgrwt>
</event>
<event>
 4    1  0.1733772E-004  0.2469903E+03  0.7818608E-02  0.1115222E+00
         -1   -1    0    0    0  501 -0.00000000000E+00  0.00000000000E+00  0.34305793355E+02  0.34305793355E+02  0.00000000000E+00 0.  1.
          1   -1    0    0  501    0  0.00000000000E+00 -0.00000000000E+00 -0.44456210761E+03  0.44456210761E+03  0.00000000000E+00 0.  1.
         25    1    1    2    0    0 -0.29140587077E+02  0.33347213658E+00 -0.20254816795E+03  0.23722361889E+03  0.12000000000E+03 0.  0.
         25    1    1    2    0    0  0.29140587077E+02 -0.33347213658E+00 -0.20770814631E+03  0.24164428208E+03  0.12000000000E+03 0.  0.
<mgrwt>
<rscale>  0 0.24699033E+03</rscale>
<asrwt>0</asrwt>
<pdfrwt beam="1">  1        1 0.68394166E-01 0.24699033E+03</pdfrwt>
<pdfrwt beam="2">  1       -1 0.52778147E-02 0.24699033E+03</pdfrwt>
<totfact> 0.84657175E+03</totfact>
</mgrwt>
</event>
<event>
 4    1  0.1733772E-004  0.2719591E+03  0.7818608E-02  0.1100164E+00
         -3   -1    0    0    0  501 -0.00000000000E+00  0.00000000000E+00  0.93058321984E+03  0.93058321984E+03  0.00000000000E+00 0. -1.
          3   -1    0    0  501    0  0.00000000000E+00 -0.00000000000E+00 -0.19869723924E+02  0.19869723924E+02  0.00000000000E+00 0. -1.
         25    1    1    2    0    0 -0.60547239344E+01  0.58875673385E+02  0.54006077859E+03  0.55638893696E+03  0.12000000000E+03 0.  0.
         25    1    1    2    0    0  0.60547239344E+01 -0.58875673385E+02  0.37065271733E+03  0.39406400681E+03  0.12000000000E+03 0.  0.
<mgrwt>
<rscale>  0 0.27195905E+03</rscale>
<asrwt>0</asrwt>
<pdfrwt beam="1">  1        3 0.30568813E-02 0.27195905E+03</pdfrwt>
<pdfrwt beam="2">  1       -3 0.14316662E+00 0.27195905E+03</pdfrwt>
<totfact> 0.48181590E+02</totfact>
</mgrwt>
</event>
<event>
 4    1  0.1733772E-004  0.3377187E+03  0.7818608E-02  0.1067772E+00
         -2   -1    0    0    0  501 -0.00000000000E+00  0.00000000000E+00  0.70712590230E+02  0.70712590230E+02  0.00000000000E+00 0.  1.
          2   -1    0    0  501    0  0.00000000000E+00 -0.00000000000E+00 -0.40323057696E+03  0.40323057696E+03  0.00000000000E+00 0.  1.
         25    1    1    2    0    0 -0.75076009572E+02  0.82997516976E+02 -0.11032671301E+03  0.19772955935E+03  0.12000000000E+03 0.  0.
         25    1    1    2    0    0  0.75076009572E+02 -0.82997516976E+02 -0.22219127372E+03  0.27621360784E+03  0.12000000000E+03 0.  0.
<mgrwt>
<rscale>  0 0.33771869E+03</rscale>
<asrwt>0</asrwt>
<pdfrwt beam="1">  1        2 0.62035472E-01 0.33771869E+03</pdfrwt>
<pdfrwt beam="2">  1       -2 0.10878860E-01 0.33771869E+03</pdfrwt>
<totfact> 0.45973088E+03</totfact>
</mgrwt>
</event>
<event>
 4    1  0.1733772E-004  0.3055915E+03  0.7818608E-02  0.1082478E+00
          2   -1    0    0  501    0  0.00000000000E+00  0.00000000000E+00  0.10581212296E+04  0.10581212296E+04  0.00000000000E+00 0. -1.
         -2   -1    0    0    0  501 -0.00000000000E+00 -0.00000000000E+00 -0.22064151097E+02  0.22064151097E+02  0.00000000000E+00 0. -1.
         25    1    1    2    0    0  0.66574388534E+02  0.27669779180E+02  0.73445083400E+03  0.74767358751E+03  0.12000000000E+03 0.  0.
         25    1    1    2    0    0 -0.66574388534E+02 -0.27669779180E+02  0.30160624450E+03  0.33251179319E+03  0.12000000000E+03 0.  0.
<mgrwt>
<rscale>  0 0.30559154E+03</rscale>
<asrwt>0</asrwt>
<pdfrwt beam="1">  1        2 0.16278784E+00 0.30559154E+03</pdfrwt>
<pdfrwt beam="2">  1       -2 0.33944856E-02 0.30559154E+03</pdfrwt>
<totfact> 0.85304290E+03</totfact>
</mgrwt>
</event>
<event>
 4    1  0.1733772E-004  0.2428239E+03  0.7818608E-02  0.1117926E+00
         -1   -1    0    0    0  501 -0.00000000000E+00  0.00000000000E+00  0.16378607565E+03  0.16378607565E+03  0.00000000000E+00 0.  1.
          1   -1    0    0  501    0  0.00000000000E+00 -0.00000000000E+00 -0.90000689040E+02  0.90000689040E+02  0.00000000000E+00 0.  1.
         25    1    1    2    0    0 -0.12189052908E+02  0.13383871291E+02  0.33101437351E+02  0.12579112121E+03  0.12000000000E+03 0.  0.
         25    1    1    2    0    0  0.12189052908E+02 -0.13383871291E+02  0.40683949259E+02  0.12799564348E+03  0.12000000000E+03 0.  0.
<mgrwt>
<rscale>  0 0.24282388E+03</rscale>
<asrwt>0</asrwt>
<pdfrwt beam="1">  1        1 0.13846260E-01 0.24282388E+03</pdfrwt>
<pdfrwt beam="2">  1       -1 0.25197858E-01 0.24282388E+03</pdfrwt>
<totfact> 0.56156638E+03</totfact>
</mgrwt>
</event>
<event>
 4    1  0.1733772E-004  0.2958037E+03  0.7818608E-02  0.1087357E+00
          2   -1    0    0  501    0  0.00000000000E+00  0.00000000000E+00  0.17474635180E+04  0.17474635180E+04  0.00000000000E+00 0.  1.
         -2   -1    0    0    0  501 -0.00000000000E+00 -0.00000000000E+00 -0.12518117392E+02  0.12518117392E+02  0.00000000000E+00 0.  1.
         25    1    1    2    0    0 -0.85046731497E+02 -0.12817704440E+02  0.91992353965E+03  0.93169552907E+03  0.12000000000E+03 0.  0.
         25    1    1    2    0    0  0.85046731497E+02  0.12817704440E+02  0.81502186092E+03  0.82828610628E+03  0.12000000000E+03 0.  0.
<mgrwt>
<rscale>  0 0.29580367E+03</rscale>
<asrwt>0</asrwt>
<pdfrwt beam="1">  1        2 0.26884035E+00 0.29580367E+03</pdfrwt>
<pdfrwt beam="2">  1       -2 0.19258656E-02 0.29580367E+03</pdfrwt>
<totfact> 0.82523484E+03</totfact>
</mgrwt>
</event>
<event>
 4    1  0.1733772E-004  0.2540633E+03  0.7818608E-02  0.1110763E+00
         -1   -1    0    0    0  501 -0.00000000000E+00  0.00000000000E+00  0.31456622872E+02  0.31456622872E+02  0.00000000000E+00 0. -1.
          1   -1    0    0  501    0  0.00000000000E+00 -0.00000000000E+00 -0.51299349415E+03  0.51299349415E+03  0.00000000000E+00 0. -1.
         25    1    1    2    0    0 -0.55028081089E+00  0.21983295361E+02 -0.31663910691E+03  0.33932859017E+03  0.12000000000E+03 0.  0.
         25    1    1    2    0    0  0.55028081089E+00 -0.21983295361E+02 -0.16489776437E+03  0.20512152685E+03  0.12000000000E+03 0.  0.
<mgrwt>
<rscale>  0 0.25406332E+03</rscale>
<asrwt>0</asrwt>
<pdfrwt beam="1">  1        1 0.78922065E-01 0.25406332E+03</pdfrwt>
<pdfrwt beam="2">  1       -1 0.48394811E-02 0.25406332E+03</pdfrwt>
<totfact> 0.79939186E+03</totfact>
</mgrwt>
</event>
<event>
 4    1  0.1733772E-004  0.3627395E+03  0.7818608E-02  0.1057504E+00
          2   -1    0    0  501    0  0.00000000000E+00  0.00000000000E+00  0.27381292748E+03  0.27381292748E+03  0.00000000000E+00 0.  1.
         -2   -1    0    0    0  501 -0.00000000000E+00 -0.00000000000E+00 -0.12013674899E+03  0.12013674899E+03  0.00000000000E+00 0.  1.
         25    1    1    2    0    0 -0.69635973963E+02 -0.91563034565E+02  0.15561932337E+03  0.22770667969E+03  0.12000000000E+03 0.  0.
         25    1    1    2    0    0  0.69635973963E+02  0.91563034565E+02 -0.19431448720E+01  0.16624299679E+03  0.12000000000E+03 0.  0.
<mgrwt>
<rscale>  0 0.36273955E+03</rscale>
<asrwt>0</asrwt>
<pdfrwt beam="1">  1        2 0.42125066E-01 0.36273955E+03</pdfrwt>
<pdfrwt beam="2">  1       -2 0.18482577E-01 0.36273955E+03</pdfrwt>
<totfact> 0.29202961E+03</totfact>
</mgrwt>
</event>
<event>
 4    1  0.1733772E-004  0.3215812E+03  0.7818608E-02  0.1074924E+00
          1   -1    0    0  501    0  0.00000000000E+00  0.00000000000E+00  0.58450674062E+03  0.58450674062E+03  0.00000000000E+00 0.  1.
         -1   -1    0    0    0  501 -0.00000000000E+00 -0.00000000000E+00 -0.44231522813E+02  0.44231522813E+02  0.00000000000E+00 0.  1.
         25    1    1    2    0    0  0.88458164224E+02  0.52176955614E+02  0.32899827506E+03  0.36494814222E+03  0.12000000000E+03 0.  0.
         25    1    1    2    0    0 -0.88458164224E+02 -0.52176955614E+02  0.21127694274E+03  0.26379012121E+03  0.12000000000E+03 0.  0.
<mgrwt>
<rscale>  0 0.32158124E+03</rscale>
<asrwt>0</asrwt>
<pdfrwt beam="1">  1        1 0.89924108E-01 0.32158124E+03</pdfrwt>
<pdfrwt beam="2">  1       -1 0.68048501E-02 0.32158124E+03</pdfrwt>
<totfact> 0.40301712E+03</totfact>
</mgrwt>
</event>
<event>
 4    1  0.1733772E-004  0.2480195E+03  0.7818608E-02  0.1114563E+00
         -2   -1    0    0    0  501 -0.00000000000E+00  0.00000000000E+00  0.80582557861E+01  0.80582557861E+01  0.00000000000E+00 0.  1.
          2   -1    0    0  501    0  0.00000000000E+00 -0.00000000000E+00 -0.19084060431E+04  0.19084060431E+04  0.00000000000E+00 0.  1.
         25    1    1    2    0    0 -0.18887205113E+02  0.18551045430E+02 -0.10789070200E+04  0.10858826942E+04  0.12000000000E+03 0.  0.
         25    1    1    2    0    0  0.18887205113E+02 -0.18551045430E+02 -0.82144076736E+03  0.83058160471E+03  0.12000000000E+03 0.  0.
<mgrwt>
<rscale>  0 0.24801955E+03</rscale>
<asrwt>0</asrwt>
<pdfrwt beam="1">  1        2 0.29360111E+00 0.24801955E+03</pdfrwt>
<pdfrwt beam="2">  1       -2 0.12397309E-02 0.24801955E+03</pdfrwt>
<totfact> 0.12907924E+04</totfact>
</mgrwt>
</event>
<event>
 4    1  0.1733772E-004  0.4426115E+03  0.7818608E-02  0.1029949E+00
         -1   -1    0    0    0  501 -0.00000000000E+00  0.00000000000E+00  0.91275823689E+03  0.91275823689E+03  0.00000000000E+00 0. -1.
          1   -1    0    0  501    0  0.00000000000E+00 -0.00000000000E+00 -0.53657393924E+02  0.53657393924E+02  0.00000000000E+00 0. -1.
         25    1    1    2    0    0 -0.13908632538E+03 -0.54990937301E+02  0.18831023645E+03  0.26875593806E+03  0.12000000000E+03 0.  0.
         25    1    1    2    0    0  0.13908632538E+03  0.54990937301E+02  0.67079060652E+03  0.69765969275E+03  0.12000000000E+03 0.  0.
<mgrwt>
<rscale>  0 0.44261147E+03</rscale>
<asrwt>0</asrwt>
<pdfrwt beam="1">  1        1 0.82549844E-02 0.44261147E+03</pdfrwt>
<pdfrwt beam="2">  1       -1 0.14042433E+00 0.44261147E+03</pdfrwt>
<totfact> 0.37235907E+02</totfact>
</mgrwt>
</event>
<event>
 4    1  0.1733772E-004  0.2483643E+03  0.7818608E-02  0.1114343E+00
         -1   -1    0    0    0  501 -0.00000000000E+00  0.00000000000E+00  0.31598591879E+02  0.31598591879E+02  0.00000000000E+00 0.  1.
          1   -1    0    0  501    0  0.00000000000E+00 -0.00000000000E+00 -0.48803443714E+03  0.48803443714E+03  0.00000000000E+00 0.  1.
         25    1    1    2    0    0 -0.21578905555E+02 -0.22799214428E+02 -0.24072717792E+03  0.27080440826E+03  0.12000000000E+03 0.  0.
         25    1    1    2    0    0  0.21578905555E+02  0.22799214428E+02 -0.21570866734E+03  0.24882862076E+03  0.12000000000E+03 0.  0.
<mgrwt>
<rscale>  0 0.24836426E+03</rscale>
<asrwt>0</asrwt>
<pdfrwt beam="1">  1        1 0.75082219E-01 0.24836426E+03</pdfrwt>
<pdfrwt beam="2">  1       -1 0.48613220E-02 0.24836426E+03</pdfrwt>
<totfact> 0.84756641E+03</totfact>
</mgrwt>
</event>
<event>
 4    1  0.1733772E-004  0.2548204E+03  0.7818608E-02  0.1110296E+00
          1   -1    0    0  501    0  0.00000000000E+00  0.00000000000E+00  0.27048596394E+03  0.27048596394E+03  0.00000000000E+00 0.  1.
         -1   -1    0    0    0  501 -0.00000000000E+00 -0.00000000000E+00 -0.60015511546E+02  0.60015511546E+02  0.00000000000E+00 0.  1.
         25    1    1    2    0    0  0.31335574427E+02  0.15411143587E+02  0.13737178655E+03  0.18571599099E+03  0.12000000000E+03 0.  0.
         25    1    1    2    0    0 -0.31335574427E+02 -0.15411143587E+02  0.73098665848E+02  0.14478548449E+03  0.12000000000E+03 0.  0.
<mgrwt>
<rscale>  0 0.25482036E+03</rscale>
<asrwt>0</asrwt>
<pdfrwt beam="1">  1        1 0.41613225E-01 0.25482036E+03</pdfrwt>
<pdfrwt beam="2">  1       -1 0.92331558E-02 0.25482036E+03</pdfrwt>
<totfact> 0.68161916E+03</totfact>
</mgrwt>
</event>
<event>
 4    1  0.1733772E-004  0.2516477E+03  0.7818608E-02  0.1112268E+00
         -2   -1    0    0    0  501 -0.00000000000E+00  0.00000000000E+00  0.21974955666E+02  0.21974955666E+02  0.00000000000E+00 0.  1.
          2   -1    0    0  501    0  0.00000000000E+00 -0.00000000000E+00 -0.72044003018E+03  0.72044003018E+03  0.00000000000E+00 0.  1.
         25    1    1    2    0    0  0.15610925526E+02  0.13970534140E+02 -0.44218826283E+03  0.45866037174E+03  0.12000000000E+03 0.  0.
         25    1    1    2    0    0 -0.15610925526E+02 -0.13970534140E+02 -0.25627681168E+03  0.28375461410E+03  0.12000000000E+03 0.  0.
<mgrwt>
<rscale>  0 0.25164767E+03</rscale>
<asrwt>0</asrwt>
<pdfrwt beam="1">  1        2 0.11083693E+00 0.25164767E+03</pdfrwt>
<pdfrwt beam="2">  1       -2 0.33807624E-02 0.25164767E+03</pdfrwt>
<totfact> 0.14206223E+04</totfact>
</mgrwt>
</event>
<event>
 4    1  0.1733772E-004  0.2789881E+03  0.7818608E-02  0.1096243E+00
         -2   -1    0    0    0  501 -0.00000000000E+00  0.00000000000E+00  0.13049529770E+03  0.13049529770E+03  0.00000000000E+00 0. -1.
          2   -1    0    0  501    0  0.00000000000E+00 -0.00000000000E+00 -0.14911330536E+03  0.14911330536E+03  0.00000000000E+00 0. -1.
         25    1    1    2    0    0  0.47067263045E+02  0.13707978903E+02  0.42335692555E+02  0.13636548977E+03  0.12000000000E+03 0.  0.
         25    1    1    2    0    0 -0.47067263045E+02 -0.13707978903E+02 -0.60953700213E+02  0.14324311329E+03  0.12000000000E+03 0.  0.
<mgrwt>
<rscale>  0 0.27898807E+03</rscale>
<asrwt>0</asrwt>
<pdfrwt beam="1">  1        2 0.22940509E-01 0.27898807E+03</pdfrwt>
<pdfrwt beam="2">  1       -2 0.20076200E-01 0.27898807E+03</pdfrwt>
<totfact> 0.49229177E+03</totfact>
</mgrwt>
</event>
<event>
 4    1  0.1733772E-004  0.3241170E+03  0.7818608E-02  0.1073770E+00
         -2   -1    0    0    0  501 -0.00000000000E+00  0.00000000000E+00  0.83763342502E+02  0.83763342502E+02  0.00000000000E+00 0. -1.
          2   -1    0    0  501    0  0.00000000000E+00 -0.00000000000E+00 -0.31353751616E+03  0.31353751616E+03  0.00000000000E+00 0. -1.
         25    1    1    2    0    0 -0.64338569972E+01 -0.51274802506E+02 -0.23241293681E+03  0.26662009130E+03  0.12000000000E+03 0.  0.
         25    1    1    2    0    0  0.64338569972E+01  0.51274802506E+02  0.26387631497E+01  0.13068076736E+03  0.12000000000E+03 0.  0.
<mgrwt>
<rscale>  0 0.32411696E+03</rscale>
<asrwt>0</asrwt>
<pdfrwt beam="1">  1        2 0.48236542E-01 0.32411696E+03</pdfrwt>
<pdfrwt beam="2">  1       -2 0.12886668E-01 0.32411696E+03</pdfrwt>
<totfact> 0.45888126E+03</totfact>
</mgrwt>
</event>
<event>
 4    1  0.1733772E-004  0.2610254E+03  0.7818608E-02  0.1106529E+00
         -2   -1    0    0    0  501 -0.00000000000E+00  0.00000000000E+00  0.60138807053E+02  0.60138807053E+02  0.00000000000E+00 0.  1.
          2   -1    0    0  501    0  0.00000000000E+00 -0.00000000000E+00 -0.28323747842E+03  0.28323747842E+03  0.00000000000E+00 0.  1.
         25    1    1    2    0    0  0.40258107946E+02 -0.31337129572E+02 -0.10424473851E+03  0.16694219494E+03  0.12000000000E+03 0.  0.
         25    1    1    2    0    0 -0.40258107946E+02  0.31337129572E+02 -0.11885393286E+03  0.17643409053E+03  0.12000000000E+03 0.  0.
<mgrwt>
<rscale>  0 0.26102539E+03</rscale>
<asrwt>0</asrwt>
<pdfrwt beam="1">  1        2 0.43574997E-01 0.26102539E+03</pdfrwt>
<pdfrwt beam="2">  1       -2 0.92521241E-02 0.26102539E+03</pdfrwt>
<totfact> 0.86487823E+03</totfact>
</mgrwt>
</event>
<event>
 4    1  0.1733772E-004  0.2565624E+03  0.7818608E-02  0.1109226E+00
         -2   -1    0    0    0  501 -0.00000000000E+00  0.00000000000E+00  0.86510983331E+01  0.86510983331E+01  0.00000000000E+00 0.  1.
          2   -1    0    0  501    0  0.00000000000E+00 -0.00000000000E+00 -0.19021931954E+04  0.19021931954E+04  0.00000000000E+00 0.  1.
         25    1    1    2    0    0 -0.10851092808E+01 -0.26473514888E+02 -0.67270990705E+03  0.68384255754E+03  0.12000000000E+03 0.  0.
         25    1    1    2    0    0  0.10851092808E+01  0.26473514888E+02 -0.12208321900E+04  0.12270017362E+04  0.12000000000E+03 0.  0.
<mgrwt>
<rscale>  0 0.25656235E+03</rscale>
<asrwt>0</asrwt>
<pdfrwt beam="1">  1        2 0.29264537E+00 0.25656235E+03</pdfrwt>
<pdfrwt beam="2">  1       -2 0.13309370E-02 0.25656235E+03</pdfrwt>
<totfact> 0.11736268E+04</totfact>
</mgrwt>
</event>
<event>
 4    1  0.1733772E-004  0.3331667E+03  0.7818608E-02  0.1069744E+00
          2   -1    0    0  501    0  0.00000000000E+00  0.00000000000E+00  0.60787305136E+03  0.60787305136E+03  0.00000000000E+00 0. -1.
         -2   -1    0    0    0  501 -0.00000000000E+00 -0.00000000000E+00 -0.45650988225E+02  0.45650988225E+02  0.00000000000E+00 0. -1.
         25    1    1    2    0    0  0.11107281356E+03 -0.21530771100E+02  0.32708263075E+03  0.36631105819E+03  0.12000000000E+03 0.  0.
         25    1    1    2    0    0 -0.11107281356E+03  0.21530771100E+02  0.23513943239E+03  0.28721298140E+03  0.12000000000E+03 0.  0.
<mgrwt>
<rscale>  0 0.33316666E+03</rscale>
<asrwt>0</asrwt>
<pdfrwt beam="1">  1        2 0.93518925E-01 0.33316666E+03</pdfrwt>
<pdfrwt beam="2">  1       -2 0.70232294E-02 0.33316666E+03</pdfrwt>
<totfact> 0.57770533E+03</totfact>
</mgrwt>
</event>
<event>
 4    1  0.1733772E-004  0.3120981E+03  0.7818608E-02  0.1079345E+00
         -2   -1    0    0    0  501 -0.00000000000E+00  0.00000000000E+00  0.11895675317E+03  0.11895675317E+03  0.00000000000E+00 0.  1.
          2   -1    0    0  501    0  0.00000000000E+00 -0.00000000000E+00 -0.20470723576E+03  0.20470723576E+03  0.00000000000E+00 0.  1.
         25    1    1    2    0    0  0.79376788198E+01  0.68958287062E+02 -0.11717565646E+03  0.18151690435E+03  0.12000000000E+03 0.  0.
         25    1    1    2    0    0 -0.79376788198E+01 -0.68958287062E+02  0.31425173870E+02  0.14214708457E+03  0.12000000000E+03 0.  0.
<mgrwt>
<rscale>  0 0.31209811E+03</rscale>
<asrwt>0</asrwt>
<pdfrwt beam="1">  1        2 0.31493421E-01 0.31209811E+03</pdfrwt>
<pdfrwt beam="2">  1       -2 0.18301039E-01 0.31209811E+03</pdfrwt>
<totfact> 0.40655321E+03</totfact>
</mgrwt>
</event>
<event>
 4    1  0.1733772E-004  0.4305306E+03  0.7818608E-02  0.1033692E+00
         -2   -1    0    0    0  501 -0.00000000000E+00  0.00000000000E+00  0.80488705047E+02  0.80488705047E+02  0.00000000000E+00 0. -1.
          2   -1    0    0  501    0  0.00000000000E+00 -0.00000000000E+00 -0.57572240370E+03  0.57572240370E+03  0.00000000000E+00 0. -1.
         25    1    1    2    0    0  0.54307594686E+02 -0.15688621657E+03 -0.34845051178E+03  0.40420336335E+03  0.12000000000E+03 0.  0.
         25    1    1    2    0    0 -0.54307594686E+02  0.15688621657E+03 -0.14678318688E+03  0.25200774539E+03  0.12000000000E+03 0.  0.
<mgrwt>
<rscale>  0 0.43053061E+03</rscale>
<asrwt>0</asrwt>
<pdfrwt beam="1">  1        2 0.88572681E-01 0.43053061E+03</pdfrwt>
<pdfrwt beam="2">  1       -2 0.12382877E-01 0.43053061E+03</pdfrwt>
<totfact> 0.25018614E+03</totfact>
</mgrwt>
</event>
<event>
 4    1  0.1733772E-004  0.3110801E+03  0.7818608E-02  0.1079829E+00
         -1   -1    0    0    0  501 -0.00000000000E+00  0.00000000000E+00  0.32873101974E+02  0.32873101974E+02  0.00000000000E+00 0. -1.
          1   -1    0    0  501    0  0.00000000000E+00 -0.00000000000E+00 -0.73594246365E+03  0.73594246365E+03  0.00000000000E+00 0. -1.
         25    1    1    2    0    0 -0.69376108911E+02  0.61721510926E+02 -0.43607531811E+03  0.46171882403E+03  0.12000000000E+03 0.  0.
         25    1    1    2    0    0  0.69376108911E+02 -0.61721510926E+02 -0.26699404357E+03  0.30709674160E+03  0.12000000000E+03 0.  0.
<mgrwt>
<rscale>  0 0.31108013E+03</rscale>
<asrwt>0</asrwt>
<pdfrwt beam="1">  1        1 0.11322191E+00 0.31108013E+03</pdfrwt>
<pdfrwt beam="2">  1       -1 0.50574005E-02 0.31108013E+03</pdfrwt>
<totfact> 0.45326503E+03</totfact>
</mgrwt>
</event>
<event>
 4    1  0.1733772E-004  0.2768588E+03  0.7818608E-02  0.1097417E+00
          2   -1    0    0  501    0  0.00000000000E+00  0.00000000000E+00  0.41554508307E+03  0.41554508307E+03  0.00000000000E+00 0. -1.
         -2   -1    0    0    0  501 -0.00000000000E+00 -0.00000000000E+00 -0.46114610573E+02  0.46114610573E+02  0.00000000000E+00 0. -1.
         25    1    1    2    0    0  0.68336982305E+02  0.21497944290E-02  0.20077487804E+03  0.24368113347E+03  0.12000000000E+03 0.  0.
         25    1    1    2    0    0 -0.68336982305E+02 -0.21497944290E-02  0.16865559445E+03  0.21797856017E+03  0.12000000000E+03 0.  0.
<mgrwt>
<rscale>  0 0.27685881E+03</rscale>
<asrwt>0</asrwt>
<pdfrwt beam="1">  1        2 0.63930010E-01 0.27685881E+03</pdfrwt>
<pdfrwt beam="2">  1       -2 0.70945558E-02 0.27685881E+03</pdfrwt>
<totfact> 0.86819012E+03</totfact>
</mgrwt>
</event>
<event>
 4    1  0.1733772E-004  0.2774768E+03  0.7818608E-02  0.1097075E+00
          1   -1    0    0  501    0  0.00000000000E+00  0.00000000000E+00  0.13294732622E+04  0.13294732622E+04  0.00000000000E+00 0. -1.
         -1   -1    0    0    0  501 -0.00000000000E+00 -0.00000000000E+00 -0.14478170326E+02  0.14478170326E+02  0.00000000000E+00 0. -1.
         25    1    1    2    0    0  0.40120427328E+02 -0.26371176446E+02  0.41323791792E+03  0.43297882679E+03  0.12000000000E+03 0.  0.
         25    1    1    2    0    0 -0.40120427328E+02  0.26371176446E+02  0.90175717399E+03  0.91097260578E+03  0.12000000000E+03 0.  0.
<mgrwt>
<rscale>  0 0.27747678E+03</rscale>
<asrwt>0</asrwt>
<pdfrwt beam="1">  1        1 0.20453425E+00 0.27747678E+03</pdfrwt>
<pdfrwt beam="2">  1       -1 0.22274119E-02 0.27747678E+03</pdfrwt>
<totfact> 0.54549941E+03</totfact>
</mgrwt>
</event>
<event>
 4    1  0.1733772E-004  0.2964418E+03  0.7818608E-02  0.1087033E+00
          1   -1    0    0  501    0  0.00000000000E+00  0.00000000000E+00  0.94053140588E+02  0.94053140588E+02  0.00000000000E+00 0.  1.
         -1   -1    0    0    0  501 -0.00000000000E+00 -0.00000000000E+00 -0.23358530741E+03  0.23358530741E+03  0.00000000000E+00 0.  1.
         25    1    1    2    0    0  0.36300422244E+02  0.71697610134E+02 -0.32923973385E+02  0.14812918678E+03  0.12000000000E+03 0.  0.
         25    1    1    2    0    0 -0.36300422244E+02 -0.71697610134E+02 -0.10660819344E+03  0.17950926122E+03  0.12000000000E+03 0.  0.
<mgrwt>
<rscale>  0 0.29644178E+03</rscale>
<asrwt>0</asrwt>
<pdfrwt beam="1">  1        1 0.14469714E-01 0.29644178E+03</pdfrwt>
<pdfrwt beam="2">  1       -1 0.35936200E-01 0.29644178E+03</pdfrwt>
<totfact> 0.29138887E+03</totfact>
</mgrwt>
</event>
<event>
 4    1  0.1733772E-004  0.2921059E+03  0.7818608E-02  0.1089255E+00
          1   -1    0    0  501    0  0.00000000000E+00  0.00000000000E+00  0.25607015088E+03  0.25607015088E+03  0.00000000000E+00 0. -1.
         -1   -1    0    0    0  501 -0.00000000000E+00 -0.00000000000E+00 -0.83303190869E+02  0.83303190869E+02  0.00000000000E+00 0. -1.
         25    1    1    2    0    0  0.17700472620E+02 -0.81107269590E+02  0.93709810776E+02  0.17341633299E+03  0.12000000000E+03 0.  0.
         25    1    1    2    0    0 -0.17700472620E+02  0.81107269590E+02  0.79057149232E+02  0.16595700876E+03  0.12000000000E+03 0.  0.
<mgrwt>
<rscale>  0 0.29210588E+03</rscale>
<asrwt>0</asrwt>
<pdfrwt beam="1">  1        1 0.39395407E-01 0.29210588E+03</pdfrwt>
<pdfrwt beam="2">  1       -1 0.12815876E-01 0.29210588E+03</pdfrwt>
<totfact> 0.44072275E+03</totfact>
</mgrwt>
</event>
<event>
 4    1  0.1733772E-004  0.2628856E+03  0.7818608E-02  0.1105422E+00
         -1   -1    0    0    0  501 -0.00000000000E+00  0.00000000000E+00  0.13701645901E+02  0.13701645901E+02  0.00000000000E+00 0.  1.
          1   -1    0    0  501    0  0.00000000000E+00 -0.00000000000E+00 -0.12609585292E+04  0.12609585292E+04  0.00000000000E+00 0.  1.
         25    1    1    2    0    0 -0.15027047216E+02  0.36653732427E+02 -0.79898206977E+03  0.80891387432E+03  0.12000000000E+03 0.  0.
         25    1    1    2    0    0  0.15027047216E+02 -0.36653732427E+02 -0.44827481354E+03  0.46574630079E+03  0.12000000000E+03 0.  0.
<mgrwt>
<rscale>  0 0.26288558E+03</rscale>
<asrwt>0</asrwt>
<pdfrwt beam="1">  1        1 0.19399363E+00 0.26288558E+03</pdfrwt>
<pdfrwt beam="2">  1       -1 0.21079454E-02 0.26288558E+03</pdfrwt>
<totfact> 0.65820461E+03</totfact>
</mgrwt>
</event>
<event>
 4    1  0.1733772E-004  0.4892948E+03  0.7818608E-02  0.1016612E+00
          1   -1    0    0  501    0  0.00000000000E+00  0.00000000000E+00  0.13607670862E+04  0.13607670862E+04  0.00000000000E+00 0.  1.
         -1   -1    0    0    0  501 -0.00000000000E+00 -0.00000000000E+00 -0.43984266496E+02  0.43984266496E+02  0.00000000000E+00 0.  1.
         25    1    1    2    0    0 -0.12180989541E+02  0.14026072313E+03  0.11180239588E+04  0.11332250524E+04  0.12000000000E+03 0.  0.
         25    1    1    2    0    0  0.12180989541E+02 -0.14026072313E+03  0.19875886091E+03  0.27152630029E+03  0.12000000000E+03 0.  0.
<mgrwt>
<rscale>  0 0.48929477E+03</rscale>
<asrwt>0</asrwt>
<pdfrwt beam="1">  1        1 0.20934875E+00 0.48929477E+03</pdfrwt>
<pdfrwt beam="2">  1       -1 0.67668113E-02 0.48929477E+03</pdfrwt>
<totfact> 0.97695388E+02</totfact>
</mgrwt>
</event>
<event>
 4    1  0.1733772E-004  0.2498929E+03  0.7818608E-02  0.1113373E+00
         -2   -1    0    0    0  501 -0.00000000000E+00  0.00000000000E+00  0.83338736885E+02  0.83338736885E+02  0.00000000000E+00 0. -1.
          2   -1    0    0  501    0  0.00000000000E+00 -0.00000000000E+00 -0.18732719143E+03  0.18732719143E+03  0.00000000000E+00 0. -1.
         25    1    1    2    0    0 -0.59833692679E+01  0.20023872350E+02 -0.21844037969E+02  0.12374941683E+03  0.12000000000E+03 0.  0.
         25    1    1    2    0    0  0.59833692679E+01 -0.20023872350E+02 -0.82144416579E+02  0.14691651148E+03  0.12000000000E+03 0.  0.
<mgrwt>
<rscale>  0 0.24989287E+03</rscale>
<asrwt>0</asrwt>
<pdfrwt beam="1">  1        2 0.28819568E-01 0.24989287E+03</pdfrwt>
<pdfrwt beam="2">  1       -2 0.12821344E-01 0.24989287E+03</pdfrwt>
<totfact> 0.80209647E+03</totfact>
</mgrwt>
</event>
<event>
 4    1  0.1733772E-004  0.3051457E+03  0.7818608E-02  0.1082696E+00
         -2   -1    0    0    0  501 -0.00000000000E+00  0.00000000000E+00  0.42567817936E+02  0.42567817936E+02  0.00000000000E+00 0. -1.
          2   -1    0    0  501    0  0.00000000000E+00 -0.00000000000E+00 -0.54685635185E+03  0.54685635185E+03  0.00000000000E+00 0. -1.
         25    1    1    2    0    0 -0.83256456915E+02 -0.43054230910E+02 -0.23349870573E+03  0.27875966350E+03  0.12000000000E+03 0.  0.
         25    1    1    2    0    0  0.83256456915E+02  0.43054230910E+02 -0.27078982818E+03  0.31066450628E+03  0.12000000000E+03 0.  0.
<mgrwt>
<rscale>  0 0.30514575E+03</rscale>
<asrwt>0</asrwt>
<pdfrwt beam="1">  1        2 0.84131745E-01 0.30514575E+03</pdfrwt>
<pdfrwt beam="2">  1       -2 0.65488952E-02 0.30514575E+03</pdfrwt>
<totfact> 0.72608231E+03</totfact>
</mgrwt>
</event>
<event>
 4    1  0.1733772E-004  0.4577159E+03  0.7818608E-02  0.1025446E+00
         -2   -1    0    0    0  501 -0.00000000000E+00  0.00000000000E+00  0.43155914604E+03  0.43155914604E+03  0.00000000000E+00 0. -1.
          2   -1    0    0  501    0  0.00000000000E+00 -0.00000000000E+00 -0.12136450603E+03  0.12136450603E+03  0.00000000000E+00 0. -1.
         25    1    1    2    0    0 -0.68452380288E+02 -0.50770127195E+01  0.37542009361E+03  0.40006468366E+03  0.12000000000E+03 0.  0.
         25    1    1    2    0    0  0.68452380288E+02  0.50770127195E+01 -0.65225453608E+02  0.15285896841E+03  0.12000000000E+03 0.  0.
<mgrwt>
<rscale>  0 0.45771591E+03</rscale>
<asrwt>0</asrwt>
<pdfrwt beam="1">  1        2 0.18671463E-01 0.45771591E+03</pdfrwt>
<pdfrwt beam="2">  1       -2 0.66393714E-01 0.45771591E+03</pdfrwt>
<totfact> 0.64662781E+02</totfact>
</mgrwt>
</event>
<event>
 4    1  0.1733772E-004  0.2679365E+03  0.7818608E-02  0.1102466E+00
          1   -1    0    0  501    0  0.00000000000E+00  0.00000000000E+00  0.35920093193E+03  0.35920093193E+03  0.00000000000E+00 0.  1.
         -1   -1    0    0    0  501 -0.00000000000E+00 -0.00000000000E+00 -0.49965045075E+02  0.49965045075E+02  0.00000000000E+00 0.  1.
         25    1    1    2    0    0 -0.18729002657E+02 -0.44884338294E+02  0.20712248250E+03  0.24426441027E+03  0.12000000000E+03 0.  0.
         25    1    1    2    0    0  0.18729002657E+02  0.44884338294E+02  0.10211340435E+03  0.16490156674E+03  0.12000000000E+03 0.  0.
<mgrwt>
<rscale>  0 0.26793649E+03</rscale>
<asrwt>0</asrwt>
<pdfrwt beam="1">  1        1 0.55261680E-01 0.26793649E+03</pdfrwt>
<pdfrwt beam="2">  1       -1 0.76869302E-02 0.26793649E+03</pdfrwt>
<totfact> 0.63244031E+03</totfact>
</mgrwt>
</event>
<event>
 4    1  0.1733772E-004  0.2469465E+03  0.7818608E-02  0.1115250E+00
         -2   -1    0    0    0  501 -0.00000000000E+00  0.00000000000E+00  0.10327749768E+02  0.10327749768E+02  0.00000000000E+00 0.  1.
          2   -1    0    0  501    0  0.00000000000E+00 -0.00000000000E+00 -0.14761826011E+04  0.14761826011E+04  0.00000000000E+00 0.  1.
         25    1    1    2    0    0  0.17503393924E+02 -0.19907377296E+02 -0.80490390733E+03  0.81423152267E+03  0.12000000000E+03 0.  0.
         25    1    1    2    0    0 -0.17503393924E+02  0.19907377296E+02 -0.66095094396E+03  0.67227882816E+03  0.12000000000E+03 0.  0.
<mgrwt>
<rscale>  0 0.24694651E+03</rscale>
<asrwt>0</asrwt>
<pdfrwt beam="1">  1        2 0.22710514E+00 0.24694651E+03</pdfrwt>
<pdfrwt beam="2">  1       -2 0.15888837E-02 0.24694651E+03</pdfrwt>
<totfact> 0.15177298E+04</totfact>
</mgrwt>
</event>
<event>
 4    1  0.1733772E-004  0.2974930E+03  0.7818608E-02  0.1086501E+00
         -2   -1    0    0    0  501 -0.00000000000E+00  0.00000000000E+00  0.69003693175E+01  0.69003693175E+01  0.00000000000E+00 0. -1.
          2   -1    0    0  501    0  0.00000000000E+00 -0.00000000000E+00 -0.32064248552E+04  0.32064248552E+04  0.00000000000E+00 0. -1.
         25    1    1    2    0    0  0.47563836929E+01  0.36352668683E+02 -0.24626119449E+04  0.24658065072E+04  0.12000000000E+03 0.  0.
         25    1    1    2    0    0 -0.47563836929E+01 -0.36352668683E+02 -0.73691254096E+03  0.74751871731E+03  0.12000000000E+03 0.  0.
<mgrwt>
<rscale>  0 0.29749296E+03</rscale>
<asrwt>0</asrwt>
<pdfrwt beam="1">  1        2 0.49329597E+00 0.29749296E+03</pdfrwt>
<pdfrwt beam="2">  1       -2 0.10615956E-02 0.29749296E+03</pdfrwt>
<totfact> 0.30471175E+03</totfact>
</mgrwt>
</event>
<event>
 4    1  0.1733772E-004  0.3157933E+03  0.7818608E-02  0.1077602E+00
          1   -1    0    0  501    0  0.00000000000E+00  0.00000000000E+00  0.14840641179E+03  0.14840641179E+03  0.00000000000E+00 0. -1.
         -1   -1    0    0    0  501 -0.00000000000E+00 -0.00000000000E+00 -0.16799379958E+03  0.16799379958E+03  0.00000000000E+00 0. -1.
         25    1    1    2    0    0 -0.76372372678E+02 -0.77849580438E+00 -0.78467458337E+02  0.16245149240E+03  0.12000000000E+03 0.  0.
         25    1    1    2    0    0  0.76372372678E+02  0.77849580438E+00  0.58880070544E+02  0.15394871897E+03  0.12000000000E+03 0.  0.
<mgrwt>
<rscale>  0 0.31579333E+03</rscale>
<asrwt>0</asrwt>
<pdfrwt beam="1">  1        1 0.22831756E-01 0.31579333E+03</pdfrwt>
<pdfrwt beam="2">  1       -1 0.25845200E-01 0.31579333E+03</pdfrwt>
<totfact> 0.28326945E+03</totfact>
</mgrwt>
</event>
<event>
 4    1  0.1733772E-004  0.2414383E+03  0.7818608E-02  0.1118838E+00
          1   -1    0    0  501    0  0.00000000000E+00  0.00000000000E+00  0.33011676804E+04  0.33011676804E+04  0.00000000000E+00 0.  1.
         -1   -1    0    0    0  501 -0.00000000000E+00 -0.00000000000E+00 -0.44145331376E+01  0.44145331376E+01  0.00000000000E+00 0.  1.
         25    1    1    2    0    0  0.97115849143E-02 -0.58622139197E+01  0.18096474285E+04  0.18136312142E+04  0.12000000000E+03 0.  0.
         25    1    1    2    0    0 -0.97115849143E-02  0.58622139197E+01  0.14871057187E+04  0.14919509993E+04  0.12000000000E+03 0.  0.
<mgrwt>
<rscale>  0 0.24143831E+03</rscale>
<asrwt>0</asrwt>
<pdfrwt beam="1">  1        1 0.50786998E+00 0.24143831E+03</pdfrwt>
<pdfrwt beam="2">  1       -1 0.67916158E-03 0.24143831E+03</pdfrwt>
<totfact> 0.14554810E+03</totfact>
</mgrwt>
</event>
<event>
 4    1  0.1733772E-004  0.2568658E+03  0.7818608E-02  0.1109041E+00
          1   -1    0    0  501    0  0.00000000000E+00  0.00000000000E+00  0.13147817085E+03  0.13147817085E+03  0.00000000000E+00 0.  1.
         -1   -1    0    0    0  501 -0.00000000000E+00 -0.00000000000E+00 -0.12545818254E+03  0.12545818254E+03  0.00000000000E+00 0.  1.
         25    1    1    2    0    0 -0.43341373760E+02  0.14674544666E+02  0.41036459598E+01  0.12849380083E+03  0.12000000000E+03 0.  0.
         25    1    1    2    0    0  0.43341373760E+02 -0.14674544666E+02  0.19163423506E+01  0.12844255256E+03  0.12000000000E+03 0.  0.
<mgrwt>
<rscale>  0 0.25686582E+03</rscale>
<asrwt>0</asrwt>
<pdfrwt beam="1">  1        1 0.20227411E-01 0.25686582E+03</pdfrwt>
<pdfrwt beam="2">  1       -1 0.19301259E-01 0.25686582E+03</pdfrwt>
<totfact> 0.53209079E+03</totfact>
</mgrwt>
</event>
<event>
 4    1  0.1733772E-004  0.3110640E+03  0.7818608E-02  0.1079837E+00
         -2   -1    0    0    0  501 -0.00000000000E+00  0.00000000000E+00  0.18308808290E+02  0.18308808290E+02  0.00000000000E+00 0. -1.
          2   -1    0    0  501    0  0.00000000000E+00 -0.00000000000E+00 -0.13212332373E+04  0.13212332373E+04  0.00000000000E+00 0. -1.
         25    1    1    2    0    0 -0.40246358135E+02  0.68164487751E+02 -0.39582331298E+03  0.42112024628E+03  0.12000000000E+03 0.  0.
         25    1    1    2    0    0  0.40246358135E+02 -0.68164487751E+02 -0.90710111606E+03  0.91842179933E+03  0.12000000000E+03 0.  0.
<mgrwt>
<rscale>  0 0.31106402E+03</rscale>
<asrwt>0</asrwt>
<pdfrwt beam="1">  1        2 0.20326674E+00 0.31106402E+03</pdfrwt>
<pdfrwt beam="2">  1       -2 0.28167386E-02 0.31106402E+03</pdfrwt>
<totfact> 0.79645945E+03</totfact>
</mgrwt>
</event>
<event>
 4    1  0.1733772E-004  0.3605542E+03  0.7818608E-02  0.1058365E+00
          2   -1    0    0  501    0  0.00000000000E+00  0.00000000000E+00  0.30170480529E+04  0.30170480529E+04  0.00000000000E+00 0. -1.
         -2   -1    0    0    0  501 -0.00000000000E+00 -0.00000000000E+00 -0.10772060752E+02  0.10772060752E+02  0.00000000000E+00 0. -1.
         25    1    1    2    0    0 -0.36054635564E+02  0.12501129930E+03  0.17906361645E+04  0.17993625636E+04  0.12000000000E+03 0.  0.
         25    1    1    2    0    0  0.36054635564E+02 -0.12501129930E+03  0.12156398277E+04  0.12284575501E+04  0.12000000000E+03 0.  0.
<mgrwt>
<rscale>  0 0.36055416E+03</rscale>
<asrwt>0</asrwt>
<pdfrwt beam="1">  1        2 0.46416057E+00 0.36055416E+03</pdfrwt>
<pdfrwt beam="2">  1       -2 0.16572425E-02 0.36055416E+03</pdfrwt>
<totfact> 0.20543081E+03</totfact>
</mgrwt>
</event>
<event>
 4    1  0.1733772E-004  0.2439445E+03  0.7818608E-02  0.1117193E+00
         -2   -1    0    0    0  501 -0.00000000000E+00  0.00000000000E+00  0.24683446362E+02  0.24683446362E+02  0.00000000000E+00 0.  1.
          2   -1    0    0  501    0  0.00000000000E+00 -0.00000000000E+00 -0.60272100689E+03  0.60272100689E+03  0.00000000000E+00 0.  1.
         25    1    1    2    0    0 -0.75084789607E+01 -0.17071105523E+02 -0.25975860377E+03  0.28674436722E+03  0.12000000000E+03 0.  0.
         25    1    1    2    0    0  0.75084789607E+01  0.17071105523E+02 -0.31827895676E+03  0.34066008603E+03  0.12000000000E+03 0.  0.
<mgrwt>
<rscale>  0 0.24394452E+03</rscale>
<asrwt>0</asrwt>
<pdfrwt beam="1">  1        2 0.92726298E-01 0.24394452E+03</pdfrwt>
<pdfrwt beam="2">  1       -2 0.37974537E-02 0.24394452E+03</pdfrwt>
<totfact> 0.14739473E+04</totfact>
</mgrwt>
</event>
<event>
 4    1  0.1733772E-004  0.2529759E+03  0.7818608E-02  0.1111438E+00
          3   -1    0    0  501    0  0.00000000000E+00  0.00000000000E+00  0.23300519823E+03  0.23300519823E+03  0.00000000000E+00 0. -1.
         -3   -1    0    0    0  501 -0.00000000000E+00 -0.00000000000E+00 -0.68664564060E+02  0.68664564060E+02  0.00000000000E+00 0. -1.
         25    1    1    2    0    0  0.32259504393E+02  0.18539990451E+02  0.99647168949E+02  0.16035574561E+03  0.12000000000E+03 0.  0.
         25    1    1    2    0    0 -0.32259504393E+02 -0.18539990451E+02  0.64693465225E+02  0.14131401669E+03  0.12000000000E+03 0.  0.
<mgrwt>
<rscale>  0 0.25297589E+03</rscale>
<asrwt>0</asrwt>
<pdfrwt beam="1">  1        3 0.35846953E-01 0.25297589E+03</pdfrwt>
<pdfrwt beam="2">  1       -3 0.10563779E-01 0.25297589E+03</pdfrwt>
<totfact> 0.13018409E+03</totfact>
</mgrwt>
</event>
<event>
 4    1  0.1733772E-004  0.2769190E+03  0.7818608E-02  0.1097384E+00
          2   -1    0    0  501    0  0.00000000000E+00  0.00000000000E+00  0.16219103585E+04  0.16219103585E+04  0.00000000000E+00 0. -1.
         -2   -1    0    0    0  501 -0.00000000000E+00 -0.00000000000E+00 -0.11820032026E+02  0.11820032026E+02  0.00000000000E+00 0. -1.
         25    1    1    2    0    0  0.59545698801E+01 -0.21164122932E+02  0.41873371582E+03  0.43614367101E+03  0.12000000000E+03 0.  0.
         25    1    1    2    0    0 -0.59545698801E+01  0.21164122932E+02  0.11913566107E+04  0.11975867196E+04  0.12000000000E+03 0.  0.
<mgrwt>
<rscale>  0 0.27691899E+03</rscale>
<asrwt>0</asrwt>
<pdfrwt beam="1">  1        2 0.24952449E+00 0.27691899E+03</pdfrwt>
<pdfrwt beam="2">  1       -2 0.18184678E-02 0.27691899E+03</pdfrwt>
<totfact> 0.10450213E+04</totfact>
</mgrwt>
</event>
<event>
 4    1  0.1733772E-004  0.2594597E+03  0.7818608E-02  0.1107468E+00
         -1   -1    0    0    0  501 -0.00000000000E+00  0.00000000000E+00  0.26381710496E+03  0.26381710496E+03  0.00000000000E+00 0. -1.
          1   -1    0    0  501    0  0.00000000000E+00 -0.00000000000E+00 -0.63793587732E+02  0.63793587732E+02  0.00000000000E+00 0. -1.
         25    1    1    2    0    0  0.42239140273E+02  0.24757381981E+02  0.10723953017E+03  0.16821828011E+03  0.12000000000E+03 0.  0.
         25    1    1    2    0    0 -0.42239140273E+02 -0.24757381981E+02  0.92783987064E+02  0.15939241258E+03  0.12000000000E+03 0.  0.
<mgrwt>
<rscale>  0 0.25945974E+03</rscale>
<asrwt>0</asrwt>
<pdfrwt beam="1">  1        1 0.98143982E-02 0.25945974E+03</pdfrwt>
<pdfrwt beam="2">  1       -1 0.40587246E-01 0.25945974E+03</pdfrwt>
<totfact> 0.39281730E+03</totfact>
</mgrwt>
</event>
<event>
 4    1  0.1733772E-004  0.2630107E+03  0.7818608E-02  0.1105348E+00
          2   -1    0    0  501    0  0.00000000000E+00  0.00000000000E+00  0.14562992097E+04  0.14562992097E+04  0.00000000000E+00 0.  1.
         -2   -1    0    0    0  501 -0.00000000000E+00 -0.00000000000E+00 -0.11875074661E+02  0.11875074661E+02  0.00000000000E+00 0.  1.
         25    1    1    2    0    0  0.14278357323E+02 -0.50504608377E+02  0.78804277129E+03  0.79885292535E+03  0.12000000000E+03 0.  0.
         25    1    1    2    0    0 -0.14278357323E+02  0.50504608377E+02  0.65638136378E+03  0.66932135905E+03  0.12000000000E+03 0.  0.
<mgrwt>
<rscale>  0 0.26301074E+03</rscale>
<asrwt>0</asrwt>
<pdfrwt beam="1">  1        2 0.22404589E+00 0.26301074E+03</pdfrwt>
<pdfrwt beam="2">  1       -2 0.18269357E-02 0.26301074E+03</pdfrwt>
<totfact> 0.12703323E+04</totfact>
</mgrwt>
</event>
<event>
 4    1  0.1733772E-004  0.2832620E+03  0.7818608E-02  0.1093921E+00
         -1   -1    0    0    0  501 -0.00000000000E+00  0.00000000000E+00  0.22784498758E+02  0.22784498758E+02  0.00000000000E+00 0. -1.
          1   -1    0    0  501    0  0.00000000000E+00 -0.00000000000E+00 -0.88039420124E+03  0.88039420124E+03  0.00000000000E+00 0. -1.
         25    1    1    2    0    0 -0.66574750093E+02 -0.34939886418E+02 -0.43683806242E+03  0.45921725337E+03  0.12000000000E+03 0.  0.
         25    1    1    2    0    0  0.66574750093E+02  0.34939886418E+02 -0.42077164006E+03  0.44396144663E+03  0.12000000000E+03 0.  0.
<mgrwt>
<rscale>  0 0.28326200E+03</rscale>
<asrwt>0</asrwt>
<pdfrwt beam="1">  1        1 0.13544524E+00 0.28326200E+03</pdfrwt>
<pdfrwt beam="2">  1       -1 0.35053082E-02 0.28326200E+03</pdfrwt>
<totfact> 0.59244835E+03</totfact>
</mgrwt>
</event>
<event>
 4    1  0.1733772E-004  0.3053473E+03  0.7818608E-02  0.1082598E+00
         -2   -1    0    0    0  501 -0.00000000000E+00  0.00000000000E+00  0.27571103426E+02  0.27571103426E+02  0.00000000000E+00 0.  1.
          2   -1    0    0  501    0  0.00000000000E+00 -0.00000000000E+00 -0.84542310783E+03  0.84542310783E+03  0.00000000000E+00 0.  1.
         25    1    1    2    0    0  0.77787183338E+02  0.48967253716E+02 -0.47028580760E+03  0.49398115213E+03  0.12000000000E+03 0.  0.
         25    1    1    2    0    0 -0.77787183338E+02 -0.48967253716E+02 -0.34756619680E+03  0.37901305913E+03  0.12000000000E+03 0.  0.
<mgrwt>
<rscale>  0 0.30534733E+03</rscale>
<asrwt>0</asrwt>
<pdfrwt beam="1">  1        2 0.13006512E+00 0.30534733E+03</pdfrwt>
<pdfrwt beam="2">  1       -2 0.42417075E-02 0.30534733E+03</pdfrwt>
<totfact> 0.83125297E+03</totfact>
</mgrwt>
</event>
<event>
 4    1  0.1733772E-004  0.2739287E+03  0.7818608E-02  0.1099052E+00
         -1   -1    0    0    0  501 -0.00000000000E+00  0.00000000000E+00  0.28623957734E+02  0.28623957734E+02  0.00000000000E+00 0.  1.
          1   -1    0    0  501    0  0.00000000000E+00 -0.00000000000E+00 -0.65536846182E+03  0.65536846182E+03  0.00000000000E+00 0.  1.
         25    1    1    2    0    0  0.16901428962E+02  0.24946254074E+02 -0.16668146025E+03  0.20758295471E+03  0.12000000000E+03 0.  0.
         25    1    1    2    0    0 -0.16901428962E+02 -0.24946254074E+02 -0.46006304384E+03  0.47640946485E+03  0.12000000000E+03 0.  0.
<mgrwt>
<rscale>  0 0.27392874E+03</rscale>
<asrwt>0</asrwt>
<pdfrwt beam="1">  1        1 0.10082591E+00 0.27392874E+03</pdfrwt>
<pdfrwt beam="2">  1       -1 0.44036859E-02 0.27392874E+03</pdfrwt>
<totfact> 0.65863885E+03</totfact>
</mgrwt>
</event>
<event>
 4    1  0.1733772E-004  0.2997054E+03  0.7818608E-02  0.1085388E+00
         -2   -1    0    0    0  501 -0.00000000000E+00  0.00000000000E+00  0.81714925120E+03  0.81714925120E+03  0.00000000000E+00 0.  1.
          2   -1    0    0  501    0  0.00000000000E+00 -0.00000000000E+00 -0.27480697214E+02  0.27480697214E+02  0.00000000000E+00 0.  1.
         25    1    1    2    0    0  0.70366196101E+02 -0.17236655167E+02  0.54415443450E+03  0.56191863505E+03  0.12000000000E+03 0.  0.
         25    1    1    2    0    0 -0.70366196101E+02  0.17236655167E+02  0.24551411948E+03  0.28271131336E+03  0.12000000000E+03 0.  0.
<mgrwt>
<rscale>  0 0.29970540E+03</rscale>
<asrwt>0</asrwt>
<pdfrwt beam="1">  1        2 0.42278002E-02 0.29970540E+03</pdfrwt>
<pdfrwt beam="2">  1       -2 0.12571525E+00 0.29970540E+03</pdfrwt>
<totfact> 0.97712837E+02</totfact>
</mgrwt>
</event>
<event>
 4    1  0.1733772E-004  0.2892630E+03  0.7818608E-02  0.1090735E+00
          1   -1    0    0  501    0  0.00000000000E+00  0.00000000000E+00  0.49906532630E+02  0.49906532630E+02  0.00000000000E+00 0.  1.
         -1   -1    0    0    0  501 -0.00000000000E+00 -0.00000000000E+00 -0.41914905702E+03  0.41914905702E+03  0.00000000000E+00 0.  1.
         25    1    1    2    0    0  0.51473933524E+02 -0.28147053466E+02 -0.27456202408E+03  0.30532953922E+03  0.12000000000E+03 0.  0.
         25    1    1    2    0    0 -0.51473933524E+02  0.28147053466E+02 -0.94680500306E+02  0.16372605043E+03  0.12000000000E+03 0.  0.
<mgrwt>
<rscale>  0 0.28926304E+03</rscale>
<asrwt>0</asrwt>
<pdfrwt beam="1">  1        1 0.76779282E-02 0.28926304E+03</pdfrwt>
<pdfrwt beam="2">  1       -1 0.64484469E-01 0.28926304E+03</pdfrwt>
<totfact> 0.23201892E+03</totfact>
</mgrwt>
</event>
<event>
 4    1  0.1733772E-004  0.2960851E+03  0.7818608E-02  0.1087214E+00
          2   -1    0    0  501    0  0.00000000000E+00  0.00000000000E+00  0.98604707840E+03  0.98604707840E+03  0.00000000000E+00 0.  1.
         -2   -1    0    0    0  501 -0.00000000000E+00 -0.00000000000E+00 -0.22226731052E+02  0.22226731052E+02  0.00000000000E+00 0.  1.
         25    1    1    2    0    0  0.67699050969E+00  0.23280437248E+02  0.76629604261E+03  0.77598457587E+03  0.12000000000E+03 0.  0.
         25    1    1    2    0    0 -0.67699050969E+00 -0.23280437248E+02  0.19752430474E+03  0.23228923358E+03  0.12000000000E+03 0.  0.
<mgrwt>
<rscale>  0 0.29608514E+03</rscale>
<asrwt>0</asrwt>
<pdfrwt beam="1">  1        2 0.15169952E+00 0.29608514E+03</pdfrwt>
<pdfrwt beam="2">  1       -2 0.34194979E-02 0.29608514E+03</pdfrwt>
<totfact> 0.93271526E+03</totfact>
</mgrwt>
</event>
<event>
 4    1  0.1733772E-004  0.3891003E+03  0.7818608E-02  0.1047621E+00
          1   -1    0    0  501    0  0.00000000000E+00  0.00000000000E+00  0.42924944806E+04  0.42924944806E+04  0.00000000000E+00 0. -1.
         -1   -1    0    0    0  501 -0.00000000000E+00 -0.00000000000E+00 -0.88176615926E+01  0.88176615926E+01  0.00000000000E+00 0. -1.
         25    1    1    2    0    0 -0.11875992995E+03 -0.81865382604E+02  0.15734279703E+04  0.15845761072E+04  0.12000000000E+03 0.  0.
         25    1    1    2    0    0  0.11875992995E+03  0.81865382604E+02  0.27102488487E+04  0.27167360350E+04  0.12000000000E+03 0.  0.
<mgrwt>
<rscale>  0 0.38910031E+03</rscale>
<asrwt>0</asrwt>
<pdfrwt beam="1">  1        1 0.66038210E+00 0.38910031E+03</pdfrwt>
<pdfrwt beam="2">  1       -1 0.13565667E-02 0.38910031E+03</pdfrwt>
<totfact> 0.81181570E+01</totfact>
</mgrwt>
</event>
<event>
 4    1  0.1733772E-004  0.2618819E+03  0.7818608E-02  0.1106018E+00
         -2   -1    0    0    0  501 -0.00000000000E+00  0.00000000000E+00  0.12761082068E+02  0.12761082068E+02  0.00000000000E+00 0. -1.
          2   -1    0    0  501    0  0.00000000000E+00 -0.00000000000E+00 -0.13435794193E+04  0.13435794193E+04  0.00000000000E+00 0. -1.
         25    1    1    2    0    0  0.44738806609E+02  0.11427690869E+02 -0.79367946548E+03  0.80402689437E+03  0.12000000000E+03 0.  0.
         25    1    1    2    0    0 -0.44738806609E+02 -0.11427690869E+02 -0.53713887178E+03  0.55231360703E+03  0.12000000000E+03 0.  0.
<mgrwt>
<rscale>  0 0.26188186E+03</rscale>
<asrwt>0</asrwt>
<pdfrwt beam="1">  1        2 0.20670452E+00 0.26188186E+03</pdfrwt>
<pdfrwt beam="2">  1       -2 0.19632435E-02 0.26188186E+03</pdfrwt>
<totfact> 0.13155976E+04</totfact>
</mgrwt>
</event>
<event>
 4    1  0.1733772E-004  0.3929104E+03  0.7818608E-02  0.1046263E+00
          2   -1    0    0  501    0  0.00000000000E+00  0.00000000000E+00  0.58870380543E+03  0.58870380543E+03  0.00000000000E+00 0. -1.
         -2   -1    0    0    0  501 -0.00000000000E+00 -0.00000000000E+00 -0.65558665894E+02  0.65558665894E+02  0.00000000000E+00 0. -1.
         25    1    1    2    0    0 -0.99427450142E+02  0.11909362591E+03  0.24291623709E+03  0.31221372138E+03  0.12000000000E+03 0.  0.
         25    1    1    2    0    0  0.99427450142E+02 -0.11909362591E+03  0.28022890244E+03  0.34204874994E+03  0.12000000000E+03 0.  0.
<mgrwt>
<rscale>  0 0.39291035E+03</rscale>
<asrwt>0</asrwt>
<pdfrwt beam="1">  1        2 0.90569813E-01 0.39291035E+03</pdfrwt>
<pdfrwt beam="2">  1       -2 0.10085949E-01 0.39291035E+03</pdfrwt>
<totfact> 0.33960686E+03</totfact>
</mgrwt>
</event>
<event>
 4    1  0.1733772E-004  0.2577330E+03  0.7818608E-02  0.1108513E+00
         -2   -1    0    0    0  501 -0.00000000000E+00  0.00000000000E+00  0.25213203578E+02  0.25213203578E+02  0.00000000000E+00 0.  1.
          2   -1    0    0  501    0  0.00000000000E+00 -0.00000000000E+00 -0.65864596270E+03  0.65864596270E+03  0.00000000000E+00 0.  1.
         25    1    1    2    0    0  0.28146366580E+02 -0.30943467931E+02 -0.26000273730E+03  0.28939789143E+03  0.12000000000E+03 0.  0.
         25    1    1    2    0    0 -0.28146366580E+02  0.30943467931E+02 -0.37343002183E+03  0.39446127486E+03  0.12000000000E+03 0.  0.
<mgrwt>
<rscale>  0 0.25773300E+03</rscale>
<asrwt>0</asrwt>
<pdfrwt beam="1">  1        2 0.10133015E+00 0.25773300E+03</pdfrwt>
<pdfrwt beam="2">  1       -2 0.38789544E-02 0.25773300E+03</pdfrwt>
<totfact> 0.12898308E+04</totfact>
</mgrwt>
</event>
<event>
 4    1  0.1733772E-004  0.3115189E+03  0.7818608E-02  0.1079620E+00
          2   -1    0    0  501    0  0.00000000000E+00  0.00000000000E+00  0.88309163622E+03  0.88309163622E+03  0.00000000000E+00 0.  1.
         -2   -1    0    0    0  501 -0.00000000000E+00 -0.00000000000E+00 -0.27472814456E+02  0.27472814456E+02  0.00000000000E+00 0.  1.
         25    1    1    2    0    0 -0.56994220694E+02  0.10502880161E+02  0.19210822309E+03  0.23380380891E+03  0.12000000000E+03 0.  0.
         25    1    1    2    0    0  0.56994220694E+02 -0.10502880161E+02  0.66351059867E+03  0.67676064176E+03  0.12000000000E+03 0.  0.
<mgrwt>
<rscale>  0 0.31151894E+03</rscale>
<asrwt>0</asrwt>
<pdfrwt beam="1">  1        2 0.13586023E+00 0.31151894E+03</pdfrwt>
<pdfrwt beam="2">  1       -2 0.42265875E-02 0.31151894E+03</pdfrwt>
<totfact> 0.78938909E+03</totfact>
</mgrwt>
</event>
<event>
 4    1  0.1733772E-004  0.2733260E+03  0.7818608E-02  0.1099391E+00
          2   -1    0    0  501    0  0.00000000000E+00  0.00000000000E+00  0.13574225259E+04  0.13574225259E+04  0.00000000000E+00 0.  1.
         -2   -1    0    0    0  501 -0.00000000000E+00 -0.00000000000E+00 -0.13758998747E+02  0.13758998747E+02  0.00000000000E+00 0.  1.
         25    1    1    2    0    0  0.43471557270E+01  0.57010447190E+02  0.83108073064E+03  0.84164379026E+03  0.12000000000E+03 0.  0.
         25    1    1    2    0    0 -0.43471557270E+01 -0.57010447190E+02  0.51258279652E+03  0.52953773439E+03  0.12000000000E+03 0.  0.
<mgrwt>
<rscale>  0 0.27332599E+03</rscale>
<asrwt>0</asrwt>
<pdfrwt beam="1">  1        2 0.20883413E+00 0.27332599E+03</pdfrwt>
<pdfrwt beam="2">  1       -2 0.21167701E-02 0.27332599E+03</pdfrwt>
<totfact> 0.11586179E+04</totfact>
</mgrwt>
</event>
<event>
 4    1  0.1733772E-004  0.2520921E+03  0.7818608E-02  0.1111990E+00
         -2   -1    0    0    0  501 -0.00000000000E+00  0.00000000000E+00  0.36246839635E+02  0.36246839635E+02  0.00000000000E+00 0.  1.
          2   -1    0    0  501    0  0.00000000000E+00 -0.00000000000E+00 -0.43831688575E+03  0.43831688575E+03  0.00000000000E+00 0.  1.
         25    1    1    2    0    0 -0.15485291846E+02 -0.29316174633E+02 -0.16393638798E+03  0.20585036231E+03  0.12000000000E+03 0.  0.
         25    1    1    2    0    0  0.15485291846E+02  0.29316174633E+02 -0.23813365813E+03  0.26871336307E+03  0.12000000000E+03 0.  0.
<mgrwt>
<rscale>  0 0.25209206E+03</rscale>
<asrwt>0</asrwt>
<pdfrwt beam="1">  1        2 0.67433366E-01 0.25209206E+03</pdfrwt>
<pdfrwt beam="2">  1       -2 0.55764369E-02 0.25209206E+03</pdfrwt>
<totfact> 0.11812692E+04</totfact>
</mgrwt>
</event>
<event>
 4    1  0.1733772E-004  0.3029726E+03  0.7818608E-02  0.1083764E+00
          2   -1    0    0  501    0  0.00000000000E+00  0.00000000000E+00  0.11835047420E+04  0.11835047420E+04  0.00000000000E+00 0. -1.
         -2   -1    0    0    0  501 -0.00000000000E+00 -0.00000000000E+00 -0.19389951413E+02  0.19389951413E+02  0.00000000000E+00 0. -1.
         25    1    1    2    0    0  0.45313869323E+02 -0.74088264590E+02  0.70796574584E+03  0.72329656089E+03  0.12000000000E+03 0.  0.
         25    1    1    2    0    0 -0.45313869323E+02  0.74088264590E+02  0.45614904474E+03  0.47959813253E+03  0.12000000000E+03 0.  0.
<mgrwt>
<rscale>  0 0.30297260E+03</rscale>
<asrwt>0</asrwt>
<pdfrwt beam="1">  1        2 0.18207760E+00 0.30297260E+03</pdfrwt>
<pdfrwt beam="2">  1       -2 0.29830704E-02 0.30297260E+03</pdfrwt>
<totfact> 0.87369374E+03</totfact>
</mgrwt>
</event>
<event>
 4    1  0.1733772E-004  0.3716428E+03  0.7818608E-02  0.1054067E+00
          1   -1    0    0  501    0  0.00000000000E+00  0.00000000000E+00  0.23329075909E+04  0.23329075909E+04  0.00000000000E+00 0.  1.
         -1   -1    0    0    0  501 -0.00000000000E+00 -0.00000000000E+00 -0.14801097435E+02  0.14801097435E+02  0.00000000000E+00 0.  1.
         25    1    1    2    0    0  0.11795837853E+03 -0.20558935932E+02  0.16398490182E+04  0.16485877748E+04  0.12000000000E+03 0.  0.
         25    1    1    2    0    0 -0.11795837853E+03  0.20558935932E+02  0.67825747529E+03  0.69912091351E+03  0.12000000000E+03 0.  0.
<mgrwt>
<rscale>  0 0.37164280E+03</rscale>
<asrwt>0</asrwt>
<pdfrwt beam="1">  1        1 0.35890857E+00 0.37164280E+03</pdfrwt>
<pdfrwt beam="2">  1       -1 0.22770938E-02 0.37164280E+03</pdfrwt>
<totfact> 0.11485410E+03</totfact>
</mgrwt>
</event>
<event>
 4    1  0.1733772E-004  0.3855411E+03  0.7818608E-02  0.1048905E+00
          1   -1    0    0  501    0  0.00000000000E+00  0.00000000000E+00  0.18508436866E+04  0.18508436866E+04  0.00000000000E+00 0. -1.
         -1   -1    0    0    0  501 -0.00000000000E+00 -0.00000000000E+00 -0.20077593355E+02  0.20077593355E+02  0.00000000000E+00 0. -1.
         25    1    1    2    0    0  0.30041248452E+02 -0.10005064327E+03  0.38717486042E+03  0.41858927407E+03  0.12000000000E+03 0.  0.
         25    1    1    2    0    0 -0.30041248452E+02  0.10005064327E+03  0.14435912329E+04  0.14523320059E+04  0.12000000000E+03 0.  0.
<mgrwt>
<rscale>  0 0.38554111E+03</rscale>
<asrwt>0</asrwt>
<pdfrwt beam="1">  1        1 0.28474505E+00 0.38554111E+03</pdfrwt>
<pdfrwt beam="2">  1       -1 0.30888620E-02 0.38554111E+03</pdfrwt>
<totfact> 0.15142279E+03</totfact>
</mgrwt>
</event>
<event>
 4    1  0.1733772E-004  0.3428237E+03  0.7818608E-02  0.1065600E+00
          4   -1    0    0  501    0  0.00000000000E+00  0.00000000000E+00  0.53916652951E+02  0.53916652951E+02  0.00000000000E+00 0.  1.
         -4   -1    0    0    0  501 -0.00000000000E+00 -0.00000000000E+00 -0.54495270140E+03  0.54495270140E+03  0.00000000000E+00 0.  1.
         25    1    1    2    0    0  0.10096719235E+03 -0.52875589015E+02 -0.32348069158E+03  0.36335927079E+03  0.12000000000E+03 0.  0.
         25    1    1    2    0    0 -0.10096719235E+03  0.52875589015E+02 -0.16755535688E+03  0.23551008357E+03  0.12000000000E+03 0.  0.
<mgrwt>
<rscale>  0 0.34282372E+03</rscale>
<asrwt>0</asrwt>
<pdfrwt beam="1">  1        4 0.82948691E-02 0.34282372E+03</pdfrwt>
<pdfrwt beam="2">  1       -4 0.83838883E-01 0.34282372E+03</pdfrwt>
<totfact> 0.25465404E+02</totfact>
</mgrwt>
</event>
<event>
 4    1  0.1733772E-004  0.4722912E+03  0.7818608E-02  0.1021276E+00
          1   -1    0    0  501    0  0.00000000000E+00  0.00000000000E+00  0.60365034824E+03  0.60365034824E+03  0.00000000000E+00 0.  1.
         -1   -1    0    0    0  501 -0.00000000000E+00 -0.00000000000E+00 -0.92379205353E+02  0.92379205353E+02  0.00000000000E+00 0.  1.
         25    1    1    2    0    0  0.62539026613E+02  0.18753269689E+03  0.32608381789E+03  0.39976280285E+03  0.12000000000E+03 0.  0.
         25    1    1    2    0    0 -0.62539026613E+02 -0.18753269689E+03  0.18518732499E+03  0.29626675074E+03  0.12000000000E+03 0.  0.
<mgrwt>
<rscale>  0 0.47229118E+03</rscale>
<asrwt>0</asrwt>
<pdfrwt beam="1">  1        1 0.92869282E-01 0.47229118E+03</pdfrwt>
<pdfrwt beam="2">  1       -1 0.14212186E-01 0.47229118E+03</pdfrwt>
<totfact> 0.12235183E+03</totfact>
</mgrwt>
</event>
<event>
 4    1  0.1733772E-004  0.2515710E+03  0.7818608E-02  0.1112316E+00
          2   -1    0    0  501    0  0.00000000000E+00  0.00000000000E+00  0.20857473981E+03  0.20857473981E+03  0.00000000000E+00 0. -1.
         -2   -1    0    0    0  501 -0.00000000000E+00 -0.00000000000E+00 -0.75857667133E+02  0.75857667133E+02  0.00000000000E+00 0. -1.
         25    1    1    2    0    0  0.15155536968E+00  0.33695940015E+02  0.85497640331E+02  0.15114657073E+03  0.12000000000E+03 0.  0.
         25    1    1    2    0    0 -0.15155536968E+00 -0.33695940015E+02  0.47219432344E+02  0.13328583621E+03  0.12000000000E+03 0.  0.
<mgrwt>
<rscale>  0 0.25157101E+03</rscale>
<asrwt>0</asrwt>
<pdfrwt beam="1">  1        2 0.32088421E-01 0.25157101E+03</pdfrwt>
<pdfrwt beam="2">  1       -2 0.11670410E-01 0.25157101E+03</pdfrwt>
<totfact> 0.83036373E+03</totfact>
</mgrwt>
</event>
<event>
 4    1  0.1733772E-004  0.3973719E+03  0.7818608E-02  0.1044694E+00
         -2   -1    0    0    0  501 -0.00000000000E+00  0.00000000000E+00  0.18893731138E+02  0.18893731138E+02  0.00000000000E+00 0.  1.
          2   -1    0    0  501    0  0.00000000000E+00 -0.00000000000E+00 -0.20893758237E+04  0.20893758237E+04  0.00000000000E+00 0.  1.
         25    1    1    2    0    0 -0.29956204224E+02 -0.61358658461E+02 -0.27720229113E+03  0.30968269139E+03  0.12000000000E+03 0.  0.
         25    1    1    2    0    0  0.29956204224E+02  0.61358658461E+02 -0.17932798015E+04  0.17985868635E+04  0.12000000000E+03 0.  0.
<mgrwt>
<rscale>  0 0.39737189E+03</rscale>
<asrwt>0</asrwt>
<pdfrwt beam="1">  1        2 0.32144220E+00 0.39737189E+03</pdfrwt>
<pdfrwt beam="2">  1       -2 0.29067300E-02 0.39737189E+03</pdfrwt>
<totfact> 0.29427933E+03</totfact>
</mgrwt>
</event>
<event>
 4    1  0.1733772E-004  0.2584883E+03  0.7818608E-02  0.1108055E+00
         -2   -1    0    0    0  501 -0.00000000000E+00  0.00000000000E+00  0.16461304247E+02  0.16461304247E+02  0.00000000000E+00 0.  1.
          2   -1    0    0  501    0  0.00000000000E+00 -0.00000000000E+00 -0.10147467451E+04  0.10147467451E+04  0.00000000000E+00 0.  1.
         25    1    1    2    0    0  0.11188054540E+01 -0.23750488753E+02 -0.33279385148E+03  0.35456605171E+03  0.12000000000E+03 0.  0.
         25    1    1    2    0    0 -0.11188054540E+01  0.23750488753E+02 -0.66549158939E+03  0.67664199765E+03  0.12000000000E+03 0.  0.
<mgrwt>
<rscale>  0 0.25848834E+03</rscale>
<asrwt>0</asrwt>
<pdfrwt beam="1">  1        2 0.15611489E+00 0.25848834E+03</pdfrwt>
<pdfrwt beam="2">  1       -2 0.25325083E-02 0.25848834E+03</pdfrwt>
<totfact> 0.13943586E+04</totfact>
</mgrwt>
</event>
<event>
 4    1  0.1733772E-004  0.2896649E+03  0.7818608E-02  0.1090524E+00
         -1   -1    0    0    0  501 -0.00000000000E+00  0.00000000000E+00  0.35511639925E+02  0.35511639925E+02  0.00000000000E+00 0. -1.
          1   -1    0    0  501    0  0.00000000000E+00 -0.00000000000E+00 -0.59069183452E+03  0.59069183452E+03  0.00000000000E+00 0. -1.
         25    1    1    2    0    0 -0.24257633320E+02  0.56184518623E+02 -0.39262053985E+03  0.41508555891E+03  0.12000000000E+03 0.  0.
         25    1    1    2    0    0  0.24257633320E+02 -0.56184518623E+02 -0.16255965474E+03  0.21111791553E+03  0.12000000000E+03 0.  0.
<mgrwt>
<rscale>  0 0.28966488E+03</rscale>
<asrwt>0</asrwt>
<pdfrwt beam="1">  1        1 0.90875668E-01 0.28966488E+03</pdfrwt>
<pdfrwt beam="2">  1       -1 0.54633291E-02 0.28966488E+03</pdfrwt>
<totfact> 0.55257812E+03</totfact>
</mgrwt>
</event>
<event>
 4    1  0.1733772E-004  0.2930383E+03  0.7818608E-02  0.1088773E+00
          1   -1    0    0  501    0  0.00000000000E+00  0.00000000000E+00  0.12496068559E+03  0.12496068559E+03  0.00000000000E+00 0.  1.
         -1   -1    0    0    0  501 -0.00000000000E+00 -0.00000000000E+00 -0.17179690361E+03  0.17179690361E+03  0.00000000000E+00 0.  1.
         25    1    1    2    0    0  0.27245224092E+02 -0.50942066364E+02  0.38434612322E+02  0.13861679475E+03  0.12000000000E+03 0.  0.
         25    1    1    2    0    0 -0.27245224092E+02  0.50942066364E+02 -0.85270830344E+02  0.15814079445E+03  0.12000000000E+03 0.  0.
<mgrwt>
<rscale>  0 0.29303828E+03</rscale>
<asrwt>0</asrwt>
<pdfrwt beam="1">  1        1 0.19224721E-01 0.29303828E+03</pdfrwt>
<pdfrwt beam="2">  1       -1 0.26430293E-01 0.29303828E+03</pdfrwt>
<totfact> 0.33999462E+03</totfact>
</mgrwt>
</event>
<event>
 4    1  0.1733772E-004  0.2533650E+03  0.7818608E-02  0.1111197E+00
          3   -1    0    0  501    0  0.00000000000E+00  0.00000000000E+00  0.61963416601E+03  0.61963416601E+03  0.00000000000E+00 0.  1.
         -3   -1    0    0    0  501 -0.00000000000E+00 -0.00000000000E+00 -0.25899887558E+02  0.25899887558E+02  0.00000000000E+00 0.  1.
         25    1    1    2    0    0  0.45751626283E+01 -0.31924382833E+02  0.35970939431E+03  0.38056661268E+03  0.12000000000E+03 0.  0.
         25    1    1    2    0    0 -0.45751626283E+01  0.31924382833E+02  0.23402488414E+03  0.26496744088E+03  0.12000000000E+03 0.  0.
<mgrwt>
<rscale>  0 0.25336500E+03</rscale>
<asrwt>0</asrwt>
<pdfrwt beam="1">  1        3 0.95328322E-01 0.25336500E+03</pdfrwt>
<pdfrwt beam="2">  1       -3 0.39845986E-02 0.25336500E+03</pdfrwt>
<totfact> 0.83166420E+02</totfact>
</mgrwt>
</event>
<event>
 4    1  0.1733772E-004  0.3064239E+03  0.7818608E-02  0.1082073E+00
         -1   -1    0    0    0  501 -0.00000000000E+00  0.00000000000E+00  0.31052556168E+03  0.31052556168E+03  0.00000000000E+00 0. -1.
          1   -1    0    0  501    0  0.00000000000E+00 -0.00000000000E+00 -0.75594084255E+02  0.75594084255E+02  0.00000000000E+00 0. -1.
         25    1    1    2    0    0  0.70572716123E+02 -0.58558910456E+02  0.84989761271E+02  0.17330006860E+03  0.12000000000E+03 0.  0.
         25    1    1    2    0    0 -0.70572716123E+02  0.58558910456E+02  0.14994171615E+03  0.21281957734E+03  0.12000000000E+03 0.  0.
<mgrwt>
<rscale>  0 0.30642386E+03</rscale>
<asrwt>0</asrwt>
<pdfrwt beam="1">  1        1 0.11629859E-01 0.30642386E+03</pdfrwt>
<pdfrwt beam="2">  1       -1 0.47773163E-01 0.30642386E+03</pdfrwt>
<totfact> 0.23402270E+03</totfact>
</mgrwt>
</event>
<event>
 4    1  0.1733772E-004  0.3630176E+03  0.7818608E-02  0.1057395E+00
          1   -1    0    0  501    0  0.00000000000E+00  0.00000000000E+00  0.58774513152E+03  0.58774513152E+03  0.00000000000E+00 0.  1.
         -1   -1    0    0    0  501 -0.00000000000E+00 -0.00000000000E+00 -0.56053979066E+02  0.56053979066E+02  0.00000000000E+00 0.  1.
         25    1    1    2    0    0 -0.10459438851E+03 -0.76364086034E+02  0.19114935158E+03  0.26021055773E+03  0.12000000000E+03 0.  0.
         25    1    1    2    0    0  0.10459438851E+03  0.76364086034E+02  0.34054180088E+03  0.38358855286E+03  0.12000000000E+03 0.  0.
<mgrwt>
<rscale>  0 0.36301765E+03</rscale>
<asrwt>0</asrwt>
<pdfrwt beam="1">  1        1 0.90422324E-01 0.36301765E+03</pdfrwt>
<pdfrwt beam="2">  1       -1 0.86236895E-02 0.36301765E+03</pdfrwt>
<totfact> 0.27857127E+03</totfact>
</mgrwt>
</event>
<event>
 4    1  0.1733772E-004  0.3078458E+03  0.7818608E-02  0.1081383E+00
         -2   -1    0    0    0  501 -0.00000000000E+00  0.00000000000E+00  0.16306309453E+02  0.16306309453E+02  0.00000000000E+00 0. -1.
          2   -1    0    0  501    0  0.00000000000E+00 -0.00000000000E+00 -0.14529499935E+04  0.14529499935E+04  0.00000000000E+00 0. -1.
         25    1    1    2    0    0 -0.90899827310E+02  0.28750700396E+02 -0.65034293117E+03  0.66815814707E+03  0.12000000000E+03 0.  0.
         25    1    1    2    0    0  0.90899827310E+02 -0.28750700396E+02 -0.78630075285E+03  0.80109815585E+03  0.12000000000E+03 0.  0.
<mgrwt>
<rscale>  0 0.30784575E+03</rscale>
<asrwt>0</asrwt>
<pdfrwt beam="1">  1        2 0.22353080E+00 0.30784575E+03</pdfrwt>
<pdfrwt beam="2">  1       -2 0.25086626E-02 0.30784575E+03</pdfrwt>
<totfact> 0.80141007E+03</totfact>
</mgrwt>
</event>
<event>
 4    1  0.1733772E-004  0.2784780E+03  0.7818608E-02  0.1096523E+00
          2   -1    0    0  501    0  0.00000000000E+00  0.00000000000E+00  0.14332781146E+04  0.14332781146E+04  0.00000000000E+00 0. -1.
         -2   -1    0    0    0  501 -0.00000000000E+00 -0.00000000000E+00 -0.13526687705E+02  0.13526687705E+02  0.00000000000E+00 0. -1.
         25    1    1    2    0    0 -0.36840762431E+02 -0.60082867940E+02  0.73329115333E+03  0.74638000264E+03  0.12000000000E+03 0.  0.
         25    1    1    2    0    0  0.36840762431E+02  0.60082867940E+02  0.68646027357E+03  0.70042479967E+03  0.12000000000E+03 0.  0.
<mgrwt>
<rscale>  0 0.27847805E+03</rscale>
<asrwt>0</asrwt>
<pdfrwt beam="1">  1        2 0.22050421E+00 0.27847805E+03</pdfrwt>
<pdfrwt beam="2">  1       -2 0.20810300E-02 0.27847805E+03</pdfrwt>
<totfact> 0.10808977E+04</totfact>
</mgrwt>
</event>
<event>
 4    1  0.1733772E-004  0.2884375E+03  0.7818608E-02  0.1091168E+00
          2   -1    0    0  501    0  0.00000000000E+00  0.00000000000E+00  0.32138394613E+02  0.32138394613E+02  0.00000000000E+00 0.  1.
         -2   -1    0    0    0  501 -0.00000000000E+00 -0.00000000000E+00 -0.64717125698E+03  0.64717125698E+03  0.00000000000E+00 0.  1.
         25    1    1    2    0    0 -0.65613242552E+02 -0.45730754898E+02 -0.30368566012E+03  0.33618652517E+03  0.12000000000E+03 0.  0.
         25    1    1    2    0    0  0.65613242552E+02  0.45730754898E+02 -0.31134720225E+03  0.34312312643E+03  0.12000000000E+03 0.  0.
<mgrwt>
<rscale>  0 0.28843748E+03</rscale>
<asrwt>0</asrwt>
<pdfrwt beam="1">  1        2 0.49443686E-02 0.28843748E+03</pdfrwt>
<pdfrwt beam="2">  1       -2 0.99564805E-01 0.28843748E+03</pdfrwt>
<totfact> 0.13837296E+03</totfact>
</mgrwt>
</event>
<event>
 4    1  0.1733772E-004  0.3478591E+03  0.7818608E-02  0.1063497E+00
         -4   -1    0    0    0  501 -0.00000000000E+00  0.00000000000E+00  0.23465804222E+02  0.23465804222E+02  0.00000000000E+00 0.  1.
          4   -1    0    0  501    0  0.00000000000E+00 -0.00000000000E+00 -0.12891730375E+04  0.12891730375E+04  0.00000000000E+00 0.  1.
         25    1    1    2    0    0  0.53479181703E+02  0.26050768970E+02 -0.10515706551E+04  0.10600658037E+04  0.12000000000E+03 0.  0.
         25    1    1    2    0    0 -0.53479181703E+02 -0.26050768970E+02 -0.21413657820E+03  0.25257303808E+03  0.12000000000E+03 0.  0.
<mgrwt>
<rscale>  0 0.34785906E+03</rscale>
<asrwt>0</asrwt>
<pdfrwt beam="1">  1        4 0.19833433E+00 0.34785906E+03</pdfrwt>
<pdfrwt beam="2">  1       -4 0.36101235E-02 0.34785906E+03</pdfrwt>
<totfact> 0.11289628E+02</totfact>
</mgrwt>
</event>
<event>
 4    1  0.1733772E-004  0.2619788E+03  0.7818608E-02  0.1105960E+00
          2   -1    0    0  501    0  0.00000000000E+00  0.00000000000E+00  0.34099154859E+03  0.34099154859E+03  0.00000000000E+00 0. -1.
         -2   -1    0    0    0  501 -0.00000000000E+00 -0.00000000000E+00 -0.50318609020E+02  0.50318609020E+02  0.00000000000E+00 0. -1.
         25    1    1    2    0    0 -0.80360769313E+01 -0.13707094943E+02  0.22010597690E+03  0.25119535038E+03  0.12000000000E+03 0.  0.
         25    1    1    2    0    0  0.80360769313E+01  0.13707094943E+02  0.70566962663E+02  0.14011480723E+03  0.12000000000E+03 0.  0.
<mgrwt>
<rscale>  0 0.26197878E+03</rscale>
<asrwt>0</asrwt>
<pdfrwt beam="1">  1        2 0.52460237E-01 0.26197878E+03</pdfrwt>
<pdfrwt beam="2">  1       -2 0.77413247E-02 0.26197878E+03</pdfrwt>
<totfact> 0.93703469E+03</totfact>
</mgrwt>
</event>
<event>
 4    1  0.1733772E-004  0.2452399E+03  0.7818608E-02  0.1116351E+00
         -2   -1    0    0    0  501 -0.00000000000E+00  0.00000000000E+00  0.50630855935E+01  0.50630855935E+01  0.00000000000E+00 0.  1.
          2   -1    0    0  501    0  0.00000000000E+00 -0.00000000000E+00 -0.29696615344E+04  0.29696615344E+04  0.00000000000E+00 0.  1.
         25    1    1    2    0    0  0.20044304934E+02 -0.15292788822E+02 -0.14812856453E+04  0.14863521812E+04  0.12000000000E+03 0.  0.
         25    1    1    2    0    0 -0.20044304934E+02  0.15292788822E+02 -0.14833128036E+04  0.14883724389E+04  0.12000000000E+03 0.  0.
<mgrwt>
<rscale>  0 0.24523989E+03</rscale>
<asrwt>0</asrwt>
<pdfrwt beam="1">  1        2 0.45687066E+00 0.24523989E+03</pdfrwt>
<pdfrwt beam="2">  1       -2 0.77893683E-03 0.24523989E+03</pdfrwt>
<totfact> 0.66589035E+03</totfact>
</mgrwt>
</event>
<event>
 4    1  0.1733772E-004  0.2876751E+03  0.7818608E-02  0.1091569E+00
          1   -1    0    0  501    0  0.00000000000E+00  0.00000000000E+00  0.60597331878E+02  0.60597331878E+02  0.00000000000E+00 0.  1.
         -1   -1    0    0    0  501 -0.00000000000E+00 -0.00000000000E+00 -0.34142159757E+03  0.34142159757E+03  0.00000000000E+00 0.  1.
         25    1    1    2    0    0 -0.39857547321E+02 -0.72879059132E+00 -0.44605184320E+02  0.13408496442E+03  0.12000000000E+03 0.  0.
         25    1    1    2    0    0  0.39857547321E+02  0.72879059132E+00 -0.23621908138E+03  0.26793396504E+03  0.12000000000E+03 0.  0.
<mgrwt>
<rscale>  0 0.28767508E+03</rscale>
<asrwt>0</asrwt>
<pdfrwt beam="1">  1        1 0.93226664E-02 0.28767508E+03</pdfrwt>
<pdfrwt beam="2">  1       -1 0.52526400E-01 0.28767508E+03</pdfrwt>
<totfact> 0.26391409E+03</totfact>
</mgrwt>
</event>
<event>
 4    1  0.1733772E-004  0.2815593E+03  0.7818608E-02  0.1094840E+00
          2   -1    0    0  501    0  0.00000000000E+00  0.00000000000E+00  0.69393615196E+03  0.69393615196E+03  0.00000000000E+00 0.  1.
         -2   -1    0    0    0  501 -0.00000000000E+00 -0.00000000000E+00 -0.28560131833E+02  0.28560131833E+02  0.00000000000E+00 0.  1.
         25    1    1    2    0    0  0.42627735339E+02  0.15419089684E+02  0.18385609563E+03  0.22418281836E+03  0.12000000000E+03 0.  0.
         25    1    1    2    0    0 -0.42627735339E+02 -0.15419089684E+02  0.48151992450E+03  0.49831346544E+03  0.12000000000E+03 0.  0.
<mgrwt>
<rscale>  0 0.28155929E+03</rscale>
<asrwt>0</asrwt>
<pdfrwt beam="1">  1        2 0.10675940E+00 0.28155929E+03</pdfrwt>
<pdfrwt beam="2">  1       -2 0.43938669E-02 0.28155929E+03</pdfrwt>
<totfact> 0.10076627E+04</totfact>
</mgrwt>
</event>
<event>
 4    1  0.1733772E-004  0.2505390E+03  0.7818608E-02  0.1112965E+00
         -2   -1    0    0    0  501 -0.00000000000E+00  0.00000000000E+00  0.36857970129E+02  0.36857970129E+02  0.00000000000E+00 0.  1.
          2   -1    0    0  501    0  0.00000000000E+00 -0.00000000000E+00 -0.42575458429E+03  0.42575458429E+03  0.00000000000E+00 0.  1.
         25    1    1    2    0    0  0.11643857849E+02  0.18659653629E+02 -0.24695715035E+03  0.27544799184E+03  0.12000000000E+03 0.  0.
         25    1    1    2    0    0 -0.11643857849E+02 -0.18659653629E+02 -0.14193946381E+03  0.18716456258E+03  0.12000000000E+03 0.  0.
<mgrwt>
<rscale>  0 0.25053902E+03</rscale>
<asrwt>0</asrwt>
<pdfrwt beam="1">  1        2 0.65500707E-01 0.25053902E+03</pdfrwt>
<pdfrwt beam="2">  1       -2 0.56704568E-02 0.25053902E+03</pdfrwt>
<totfact> 0.11883544E+04</totfact>
</mgrwt>
</event>
<event>
 4    1  0.1733772E-004  0.2531042E+03  0.7818608E-02  0.1111359E+00
         -2   -1    0    0    0  501 -0.00000000000E+00  0.00000000000E+00  0.28890971182E+02  0.28890971182E+02  0.00000000000E+00 0.  1.
          2   -1    0    0  501    0  0.00000000000E+00 -0.00000000000E+00 -0.55434047521E+03  0.55434047521E+03  0.00000000000E+00 0.  1.
         25    1    1    2    0    0  0.15012194111E+02  0.32962140467E+02 -0.22257636073E+03  0.25544491585E+03  0.12000000000E+03 0.  0.
         25    1    1    2    0    0 -0.15012194111E+02 -0.32962140467E+02 -0.30287314330E+03  0.32778653055E+03  0.12000000000E+03 0.  0.
<mgrwt>
<rscale>  0 0.25310421E+03</rscale>
<asrwt>0</asrwt>
<pdfrwt beam="1">  1        2 0.85283153E-01 0.25310421E+03</pdfrwt>
<pdfrwt beam="2">  1       -2 0.44447646E-02 0.25310421E+03</pdfrwt>
<totfact> 0.12829233E+04</totfact>
</mgrwt>
</event>
<event>
 4    1  0.1733772E-004  0.2544629E+03  0.7818608E-02  0.1110516E+00
         -1   -1    0    0    0  501 -0.00000000000E+00  0.00000000000E+00  0.11591803005E+02  0.11591803005E+02  0.00000000000E+00 0.  1.
          1   -1    0    0  501    0  0.00000000000E+00 -0.00000000000E+00 -0.13964901957E+04  0.13964901957E+04  0.00000000000E+00 0.  1.
         25    1    1    2    0    0  0.12412625971E+02  0.12480615246E+01 -0.46889063764E+03  0.48416325863E+03  0.12000000000E+03 0.  0.
         25    1    1    2    0    0 -0.12412625971E+02 -0.12480615246E+01 -0.91600775510E+03  0.92391874012E+03  0.12000000000E+03 0.  0.
<mgrwt>
<rscale>  0 0.25446288E+03</rscale>
<asrwt>0</asrwt>
<pdfrwt beam="1">  1        1 0.21484470E+00 0.25446288E+03</pdfrwt>
<pdfrwt beam="2">  1       -1 0.17833538E-02 0.25446288E+03</pdfrwt>
<totfact> 0.67932297E+03</totfact>
</mgrwt>
</event>
<event>
 4    1  0.1733772E-004  0.3507658E+03  0.7818608E-02  0.1062301E+00
          2   -1    0    0  501    0  0.00000000000E+00  0.00000000000E+00  0.78053414672E+02  0.78053414672E+02  0.00000000000E+00 0. -1.
         -2   -1    0    0    0  501 -0.00000000000E+00 -0.00000000000E+00 -0.39407831857E+03  0.39407831857E+03  0.00000000000E+00 0. -1.
         25    1    1    2    0    0  0.97785881502E+02  0.34109217033E+02 -0.25904017376E+03  0.30368952720E+03  0.12000000000E+03 0.  0.
         25    1    1    2    0    0 -0.97785881502E+02 -0.34109217033E+02 -0.56984730136E+02  0.16844220604E+03  0.12000000000E+03 0.  0.
<mgrwt>
<rscale>  0 0.35076578E+03</rscale>
<asrwt>0</asrwt>
<pdfrwt beam="1">  1        2 0.12008217E-01 0.35076578E+03</pdfrwt>
<pdfrwt beam="2">  1       -2 0.60627435E-01 0.35076578E+03</pdfrwt>
<totfact> 0.13281698E+03</totfact>
</mgrwt>
</event>
<event>
 4    1  0.1733772E-004  0.2583031E+03  0.7818608E-02  0.1108167E+00
         -1   -1    0    0    0  501 -0.00000000000E+00  0.00000000000E+00  0.68584401912E+03  0.68584401912E+03  0.00000000000E+00 0.  1.
          1   -1    0    0  501    0  0.00000000000E+00 -0.00000000000E+00 -0.24320577745E+02  0.24320577745E+02  0.00000000000E+00 0.  1.
         25    1    1    2    0    0  0.10120736215E+02  0.43902576057E+02  0.37425506268E+03  0.39559666003E+03  0.12000000000E+03 0.  0.
         25    1    1    2    0    0 -0.10120736215E+02 -0.43902576057E+02  0.28726837870E+03  0.31456793683E+03  0.12000000000E+03 0.  0.
<mgrwt>
<rscale>  0 0.25830310E+03</rscale>
<asrwt>0</asrwt>
<pdfrwt beam="1">  1        1 0.37416279E-02 0.25830310E+03</pdfrwt>
<pdfrwt beam="2">  1       -1 0.10551445E+00 0.25830310E+03</pdfrwt>
<totfact> 0.22220813E+03</totfact>
</mgrwt>
</event>
<event>
 4    1  0.1733772E-004  0.2866411E+03  0.7818608E-02  0.1092116E+00
         -1   -1    0    0    0  501 -0.00000000000E+00  0.00000000000E+00  0.23727257292E+03  0.23727257292E+03  0.00000000000E+00 0. -1.
          1   -1    0    0  501    0  0.00000000000E+00 -0.00000000000E+00 -0.86570392969E+02  0.86570392969E+02  0.00000000000E+00 0. -1.
         25    1    1    2    0    0  0.26343897551E+02 -0.73360942920E+02  0.84456277841E+02  0.16615863430E+03  0.12000000000E+03 0.  0.
         25    1    1    2    0    0 -0.26343897551E+02  0.73360942920E+02  0.66245902114E+02  0.15768433160E+03  0.12000000000E+03 0.  0.
<mgrwt>
<rscale>  0 0.28664110E+03</rscale>
<asrwt>0</asrwt>
<pdfrwt beam="1">  1        1 0.13318522E-01 0.28664110E+03</pdfrwt>
<pdfrwt beam="2">  1       -1 0.36503472E-01 0.28664110E+03</pdfrwt>
<totfact> 0.31608272E+03</totfact>
</mgrwt>
</event>
<event>
 4    1  0.1733772E-004  0.2753732E+03  0.7818608E-02  0.1098243E+00
          1   -1    0    0  501    0  0.00000000000E+00  0.00000000000E+00  0.46561334301E+03  0.46561334301E+03  0.00000000000E+00 0. -1.
         -1   -1    0    0    0  501 -0.00000000000E+00 -0.00000000000E+00 -0.40715314304E+02  0.40715314304E+02  0.00000000000E+00 0. -1.
         25    1    1    2    0    0 -0.36201637117E+02 -0.73189947573E+01  0.31635537914E+03  0.34035988619E+03  0.12000000000E+03 0.  0.
         25    1    1    2    0    0  0.36201637117E+02  0.73189947573E+01  0.10854264956E+03  0.16596877112E+03  0.12000000000E+03 0.  0.
<mgrwt>
<rscale>  0 0.27537315E+03</rscale>
<asrwt>0</asrwt>
<pdfrwt beam="1">  1        1 0.71632818E-01 0.27537315E+03</pdfrwt>
<pdfrwt beam="2">  1       -1 0.62638948E-02 0.27537315E+03</pdfrwt>
<totfact> 0.61836441E+03</totfact>
</mgrwt>
</event>
<event>
 4    1  0.1733772E-004  0.2842497E+03  0.7818608E-02  0.1093390E+00
          2   -1    0    0  501    0  0.00000000000E+00  0.00000000000E+00  0.11604105946E+04  0.11604105946E+04  0.00000000000E+00 0.  1.
         -2   -1    0    0    0  501 -0.00000000000E+00 -0.00000000000E+00 -0.17407172387E+02  0.17407172387E+02  0.00000000000E+00 0.  1.
         25    1    1    2    0    0 -0.52296983561E+02 -0.36540442030E+02  0.74381228168E+03  0.75612623865E+03  0.12000000000E+03 0.  0.
         25    1    1    2    0    0  0.52296983561E+02  0.36540442030E+02  0.39919114052E+03  0.42169152833E+03  0.12000000000E+03 0.  0.
<mgrwt>
<rscale>  0 0.28424966E+03</rscale>
<asrwt>0</asrwt>
<pdfrwt beam="1">  1        2 0.17852465E+00 0.28424966E+03</pdfrwt>
<pdfrwt beam="2">  1       -2 0.26780274E-02 0.28424966E+03</pdfrwt>
<totfact> 0.10561343E+04</totfact>
</mgrwt>
</event>
<event>
 4    1  0.1733772E-004  0.3001441E+03  0.7818608E-02  0.1085169E+00
          2   -1    0    0  501    0  0.00000000000E+00  0.00000000000E+00  0.20281536371E+02  0.20281536371E+02  0.00000000000E+00 0.  1.
         -2   -1    0    0    0  501 -0.00000000000E+00 -0.00000000000E+00 -0.11104493282E+04  0.11104493282E+04  0.00000000000E+00 0.  1.
         25    1    1    2    0    0 -0.28231981684E+02 -0.79788254439E+02 -0.42845539563E+03  0.45292078378E+03  0.12000000000E+03 0.  0.
         25    1    1    2    0    0  0.28231981684E+02  0.79788254439E+02 -0.66171239618E+03  0.67781008077E+03  0.12000000000E+03 0.  0.
<mgrwt>
<rscale>  0 0.30014409E+03</rscale>
<asrwt>0</asrwt>
<pdfrwt beam="1">  1        2 0.31202352E-02 0.30014409E+03</pdfrwt>
<pdfrwt beam="2">  1       -2 0.17083842E+00 0.30014409E+03</pdfrwt>
<totfact> 0.66833842E+02</totfact>
</mgrwt>
</event>
<event>
 4    1  0.1733772E-004  0.2903009E+03  0.7818608E-02  0.1090192E+00
         -2   -1    0    0    0  501 -0.00000000000E+00  0.00000000000E+00  0.11440421451E+03  0.11440421451E+03  0.00000000000E+00 0. -1.
          2   -1    0    0  501    0  0.00000000000E+00 -0.00000000000E+00 -0.18415970383E+03  0.18415970383E+03  0.00000000000E+00 0. -1.
         25    1    1    2    0    0  0.63815930583E+02  0.50829404812E+02 -0.38520433884E+02  0.15013302507E+03  0.12000000000E+03 0.  0.
         25    1    1    2    0    0 -0.63815930583E+02 -0.50829404812E+02 -0.31235055442E+02  0.14843089327E+03  0.12000000000E+03 0.  0.
<mgrwt>
<rscale>  0 0.29030085E+03</rscale>
<asrwt>0</asrwt>
<pdfrwt beam="1">  1        2 0.28332262E-01 0.29030085E+03</pdfrwt>
<pdfrwt beam="2">  1       -2 0.17600649E-01 0.29030085E+03</pdfrwt>
<totfact> 0.48692201E+03</totfact>
</mgrwt>
</event>
<event>
 4    1  0.1733772E-004  0.2722641E+03  0.7818608E-02  0.1099991E+00
         -1   -1    0    0    0  501 -0.00000000000E+00  0.00000000000E+00  0.12648783361E+03  0.12648783361E+03  0.00000000000E+00 0.  1.
          1   -1    0    0  501    0  0.00000000000E+00 -0.00000000000E+00 -0.14651156867E+03  0.14651156867E+03  0.00000000000E+00 0.  1.
         25    1    1    2    0    0 -0.58112727611E+02 -0.13495667649E+02 -0.34007835805E+02  0.13825973764E+03  0.12000000000E+03 0.  0.
         25    1    1    2    0    0  0.58112727611E+02  0.13495667649E+02  0.13984100747E+02  0.13473966465E+03  0.12000000000E+03 0.  0.
<mgrwt>
<rscale>  0 0.27226407E+03</rscale>
<asrwt>0</asrwt>
<pdfrwt beam="1">  1        1 0.22540241E-01 0.27226407E+03</pdfrwt>
<pdfrwt beam="2">  1       -1 0.19459667E-01 0.27226407E+03</pdfrwt>
<totfact> 0.45792368E+03</totfact>
</mgrwt>
</event>
<event>
 4    1  0.1733772E-004  0.3485318E+03  0.7818608E-02  0.1063219E+00
         -1   -1    0    0    0  501 -0.00000000000E+00  0.00000000000E+00  0.48726269686E+02  0.48726269686E+02  0.00000000000E+00 0. -1.
          1   -1    0    0  501    0  0.00000000000E+00 -0.00000000000E+00 -0.62324907603E+03  0.62324907603E+03  0.00000000000E+00 0. -1.
         25    1    1    2    0    0  0.11658979520E+02 -0.12516749911E+03 -0.31208479880E+03  0.35721108084E+03  0.12000000000E+03 0.  0.
         25    1    1    2    0    0 -0.11658979520E+02  0.12516749911E+03 -0.26243800754E+03  0.31476426487E+03  0.12000000000E+03 0.  0.
<mgrwt>
<rscale>  0 0.34853179E+03</rscale>
<asrwt>0</asrwt>
<pdfrwt beam="1">  1        1 0.95884476E-01 0.34853179E+03</pdfrwt>
<pdfrwt beam="2">  1       -1 0.74963490E-02 0.34853179E+03</pdfrwt>
<totfact> 0.31809810E+03</totfact>
</mgrwt>
</event>
<event>
 4    1  0.1733772E-004  0.3168877E+03  0.7818608E-02  0.1077091E+00
          1   -1    0    0  501    0  0.00000000000E+00  0.00000000000E+00  0.92228825922E+02  0.92228825922E+02  0.00000000000E+00 0.  1.
         -1   -1    0    0    0  501 -0.00000000000E+00 -0.00000000000E+00 -0.27219739443E+03  0.27219739443E+03  0.00000000000E+00 0.  1.
         25    1    1    2    0    0  0.64571414374E+02 -0.80839088050E+02 -0.90148525077E+02  0.18229421901E+03  0.12000000000E+03 0.  0.
         25    1    1    2    0    0 -0.64571414374E+02  0.80839088050E+02 -0.89820043431E+02  0.18213200134E+03  0.12000000000E+03 0.  0.
<mgrwt>
<rscale>  0 0.31688765E+03</rscale>
<asrwt>0</asrwt>
<pdfrwt beam="1">  1        1 0.14189051E-01 0.31688765E+03</pdfrwt>
<pdfrwt beam="2">  1       -1 0.41876521E-01 0.31688765E+03</pdfrwt>
<totfact> 0.22833712E+03</totfact>
</mgrwt>
</event>
<event>
 4    1  0.1733772E-004  0.3709576E+03  0.7818608E-02  0.1054327E+00
         -1   -1    0    0    0  501 -0.00000000000E+00  0.00000000000E+00  0.89198920705E+02  0.89198920705E+02  0.00000000000E+00 0. -1.
          1   -1    0    0  501    0  0.00000000000E+00 -0.00000000000E+00 -0.38568163971E+03  0.38568163971E+03  0.00000000000E+00 0. -1.
         25    1    1    2    0    0  0.16485550300E+02  0.52952394474E+02 -0.31479176908E+03  0.34142288636E+03  0.12000000000E+03 0.  0.
         25    1    1    2    0    0 -0.16485550300E+02 -0.52952394474E+02  0.18309050077E+02  0.13345767405E+03  0.12000000000E+03 0.  0.
<mgrwt>
<rscale>  0 0.37095760E+03</rscale>
<asrwt>0</asrwt>
<pdfrwt beam="1">  1        1 0.59335636E-01 0.37095760E+03</pdfrwt>
<pdfrwt beam="2">  1       -1 0.13722911E-01 0.37095760E+03</pdfrwt>
<totfact> 0.23621472E+03</totfact>
</mgrwt>
</event>
<event>
 4    1  0.1733772E-004  0.2594131E+03  0.7818608E-02  0.1107496E+00
          2   -1    0    0  501    0  0.00000000000E+00  0.00000000000E+00  0.21874417445E+04  0.21874417445E+04  0.00000000000E+00 0.  1.
         -2   -1    0    0    0  501 -0.00000000000E+00 -0.00000000000E+00 -0.76910789107E+01  0.76910789107E+01  0.00000000000E+00 0.  1.
         25    1    1    2    0    0 -0.15743420443E+02  0.35276984075E+01  0.69628349444E+03  0.70673262594E+03  0.12000000000E+03 0.  0.
         25    1    1    2    0    0  0.15743420443E+02 -0.35276984075E+01  0.14834671712E+04  0.14884001975E+04  0.12000000000E+03 0.  0.
<mgrwt>
<rscale>  0 0.25941308E+03</rscale>
<asrwt>0</asrwt>
<pdfrwt beam="1">  1        2 0.33652900E+00 0.25941308E+03</pdfrwt>
<pdfrwt beam="2">  1       -2 0.11832447E-02 0.25941308E+03</pdfrwt>
<totfact> 0.98597719E+03</totfact>
</mgrwt>
</event>
<event>
 4    1  0.1733772E-004  0.4186812E+03  0.7818608E-02  0.1037496E+00
          1   -1    0    0  501    0  0.00000000000E+00  0.00000000000E+00  0.87257364541E+03  0.87257364541E+03  0.00000000000E+00 0. -1.
         -1   -1    0    0    0  501 -0.00000000000E+00 -0.00000000000E+00 -0.50223243545E+02  0.50223243545E+02  0.00000000000E+00 0. -1.
         25    1    1    2    0    0  0.53840814989E+02  0.16284960287E+03  0.40642128455E+03  0.45716199213E+03  0.12000000000E+03 0.  0.
         25    1    1    2    0    0 -0.53840814989E+02 -0.16284960287E+03  0.41592911732E+03  0.46563489683E+03  0.12000000000E+03 0.  0.
<mgrwt>
<rscale>  0 0.41868116E+03</rscale>
<asrwt>0</asrwt>
<pdfrwt beam="1">  1        1 0.13424209E+00 0.41868116E+03</pdfrwt>
<pdfrwt beam="2">  1       -1 0.77266535E-02 0.41868116E+03</pdfrwt>
<totfact> 0.18266720E+03</totfact>
</mgrwt>
</event>
<event>
 4    1  0.1733772E-004  0.3159686E+03  0.7818608E-02  0.1077520E+00
          1   -1    0    0  501    0  0.00000000000E+00  0.00000000000E+00  0.58117661044E+03  0.58117661044E+03  0.00000000000E+00 0. -1.
         -1   -1    0    0    0  501 -0.00000000000E+00 -0.00000000000E+00 -0.42945713129E+02  0.42945713129E+02  0.00000000000E+00 0. -1.
         25    1    1    2    0    0  0.73083046621E+02 -0.36398728959E+02  0.39236077225E+03  0.41834552080E+03  0.12000000000E+03 0.  0.
         25    1    1    2    0    0 -0.73083046621E+02  0.36398728959E+02  0.14587012507E+03  0.20577680277E+03  0.12000000000E+03 0.  0.
<mgrwt>
<rscale>  0 0.31596863E+03</rscale>
<asrwt>0</asrwt>
<pdfrwt beam="1">  1        1 0.89411781E-01 0.31596863E+03</pdfrwt>
<pdfrwt beam="2">  1       -1 0.66070332E-02 0.31596863E+03</pdfrwt>
<totfact> 0.42473129E+03</totfact>
</mgrwt>
</event>
<event>
 4    1  0.1733772E-004  0.2556683E+03  0.7818608E-02  0.1109774E+00
         -2   -1    0    0    0  501 -0.00000000000E+00  0.00000000000E+00  0.12191735106E+03  0.12191735106E+03  0.00000000000E+00 0. -1.
          2   -1    0    0  501    0  0.00000000000E+00 -0.00000000000E+00 -0.13403812665E+03  0.13403812665E+03  0.00000000000E+00 0. -1.
         25    1    1    2    0    0  0.36957897618E+02 -0.22871956159E+02 -0.13318410927E+02  0.12832144265E+03  0.12000000000E+03 0.  0.
         25    1    1    2    0    0 -0.36957897618E+02  0.22871956159E+02  0.11976353437E+01  0.12763403506E+03  0.12000000000E+03 0.  0.
<mgrwt>
<rscale>  0 0.25566833E+03</rscale>
<asrwt>0</asrwt>
<pdfrwt beam="1">  1        2 0.20621250E-01 0.25566833E+03</pdfrwt>
<pdfrwt beam="2">  1       -2 0.18756516E-01 0.25566833E+03</pdfrwt>
<totfact> 0.62168841E+03</totfact>
</mgrwt>
</event>
<event>
 4    1  0.1733772E-004  0.2457218E+03  0.7818608E-02  0.1116039E+00
         -3   -1    0    0    0  501 -0.00000000000E+00  0.00000000000E+00  0.15353829277E+03  0.15353829277E+03  0.00000000000E+00 0.  1.
          3   -1    0    0  501    0  0.00000000000E+00 -0.00000000000E+00 -0.98312913392E+02  0.98312913392E+02  0.00000000000E+00 0.  1.
         25    1    1    2    0    0  0.15752971492E+02 -0.20849689918E+02  0.31153009030E+02  0.12670191653E+03  0.12000000000E+03 0.  0.
         25    1    1    2    0    0 -0.15752971492E+02  0.20849689918E+02  0.24072370344E+02  0.12514928963E+03  0.12000000000E+03 0.  0.
<mgrwt>
<rscale>  0 0.24572177E+03</rscale>
<asrwt>0</asrwt>
<pdfrwt beam="1">  1        3 0.15125064E-01 0.24572177E+03</pdfrwt>
<pdfrwt beam="2">  1       -3 0.23621276E-01 0.24572177E+03</pdfrwt>
<totfact> 0.15307355E+03</totfact>
</mgrwt>
</event>
<event>
 4    1  0.1733772E-004  0.3877539E+03  0.7818608E-02  0.1048105E+00
          2   -1    0    0  501    0  0.00000000000E+00  0.00000000000E+00  0.26736346364E+03  0.26736346364E+03  0.00000000000E+00 0.  1.
         -2   -1    0    0    0  501 -0.00000000000E+00 -0.00000000000E+00 -0.14058869692E+03  0.14058869692E+03  0.00000000000E+00 0.  1.
         25    1    1    2    0    0 -0.34179016053E+02  0.57848176478E+02  0.20715722131E+03  0.24865383770E+03  0.12000000000E+03 0.  0.
         25    1    1    2    0    0  0.34179016053E+02 -0.57848176478E+02 -0.80382454589E+02  0.15929832286E+03  0.12000000000E+03 0.  0.
<mgrwt>
<rscale>  0 0.38775395E+03</rscale>
<asrwt>0</asrwt>
<pdfrwt beam="1">  1        2 0.41132840E-01 0.38775395E+03</pdfrwt>
<pdfrwt beam="2">  1       -2 0.21629030E-01 0.38775395E+03</pdfrwt>
<totfact> 0.22881456E+03</totfact>
</mgrwt>
</event>
<event>
 4    1  0.1733772E-004  0.3200692E+03  0.7818608E-02  0.1075617E+00
          2   -1    0    0  501    0  0.00000000000E+00  0.00000000000E+00  0.50148422424E+03  0.50148422424E+03  0.00000000000E+00 0. -1.
         -2   -1    0    0    0  501 -0.00000000000E+00 -0.00000000000E+00 -0.51070544416E+02  0.51070544416E+02  0.00000000000E+00 0. -1.
         25    1    1    2    0    0  0.82716384057E+02  0.65524506023E+02  0.21019531848E+03  0.26404077903E+03  0.12000000000E+03 0.  0.
         25    1    1    2    0    0 -0.82716384057E+02 -0.65524506023E+02  0.24021836134E+03  0.28851398962E+03  0.12000000000E+03 0.  0.
<mgrwt>
<rscale>  0 0.32006919E+03</rscale>
<asrwt>0</asrwt>
<pdfrwt beam="1">  1        2 0.77151416E-01 0.32006919E+03</pdfrwt>
<pdfrwt beam="2">  1       -2 0.78570072E-02 0.32006919E+03</pdfrwt>
<totfact> 0.60412834E+03</totfact>
</mgrwt>
</event>
<event>
 4    1  0.1733772E-004  0.2773244E+03  0.7818608E-02  0.1097159E+00
          2   -1    0    0  501    0  0.00000000000E+00  0.00000000000E+00  0.18321627274E+04  0.18321627274E+04  0.00000000000E+00 0. -1.
         -2   -1    0    0    0  501 -0.00000000000E+00 -0.00000000000E+00 -0.10494264559E+02  0.10494264559E+02  0.00000000000E+00 0. -1.
         25    1    1    2    0    0 -0.30478686987E+02  0.53585957352E+02  0.11237453740E+04  0.11318145037E+04  0.12000000000E+03 0.  0.
         25    1    1    2    0    0  0.30478686987E+02 -0.53585957352E+02  0.69792308888E+03  0.71084248831E+03  0.12000000000E+03 0.  0.
<mgrwt>
<rscale>  0 0.27732436E+03</rscale>
<asrwt>0</asrwt>
<pdfrwt beam="1">  1        2 0.28187093E+00 0.27732436E+03</pdfrwt>
<pdfrwt beam="2">  1       -2 0.16145037E-02 0.27732436E+03</pdfrwt>
<totfact> 0.96430696E+03</totfact>
</mgrwt>
</event>
<event>
 4    1  0.1733772E-004  0.2963196E+03  0.7818608E-02  0.1087095E+00
          2   -1    0    0  501    0  0.00000000000E+00  0.00000000000E+00  0.11764021640E+03  0.11764021640E+03  0.00000000000E+00 0.  1.
         -2   -1    0    0    0  501 -0.00000000000E+00 -0.00000000000E+00 -0.18659708619E+03  0.18659708619E+03  0.00000000000E+00 0.  1.
         25    1    1    2    0    0  0.65286310637E+02 -0.56608189653E+02 -0.43918238886E+02  0.15425822895E+03  0.12000000000E+03 0.  0.
         25    1    1    2    0    0 -0.65286310637E+02  0.56608189653E+02 -0.25038630910E+02  0.14997907364E+03  0.12000000000E+03 0.  0.
<mgrwt>
<rscale>  0 0.29631957E+03</rscale>
<asrwt>0</asrwt>
<pdfrwt beam="1">  1        2 0.18098495E-01 0.29631957E+03</pdfrwt>
<pdfrwt beam="2">  1       -2 0.28707244E-01 0.29631957E+03</pdfrwt>
<totfact> 0.34509769E+03</totfact>
</mgrwt>
</event>
<event>
 4    1  0.1733772E-004  0.2897442E+03  0.7818608E-02  0.1090483E+00
         -2   -1    0    0    0  501 -0.00000000000E+00  0.00000000000E+00  0.15834095421E+03  0.15834095421E+03  0.00000000000E+00 0. -1.
          2   -1    0    0  501    0  0.00000000000E+00 -0.00000000000E+00 -0.13254894058E+03  0.13254894058E+03  0.00000000000E+00 0. -1.
         25    1    1    2    0    0 -0.23910282706E+02 -0.47051875516E+02 -0.49010977142E+02  0.13995590909E+03  0.12000000000E+03 0.  0.
         25    1    1    2    0    0  0.23910282706E+02  0.47051875516E+02  0.74802990774E+02  0.15093398569E+03  0.12000000000E+03 0.  0.
<mgrwt>
<rscale>  0 0.28974420E+03</rscale>
<asrwt>0</asrwt>
<pdfrwt beam="1">  1        2 0.20392145E-01 0.28974420E+03</pdfrwt>
<pdfrwt beam="2">  1       -2 0.24360147E-01 0.28974420E+03</pdfrwt>
<totfact> 0.40276220E+03</totfact>
</mgrwt>
</event>
<event>
 4    1  0.1733772E-004  0.2622312E+03  0.7818608E-02  0.1105810E+00
         -2   -1    0    0    0  501 -0.00000000000E+00  0.00000000000E+00  0.24067532709E+02  0.24067532709E+02  0.00000000000E+00 0.  1.
          2   -1    0    0  501    0  0.00000000000E+00 -0.00000000000E+00 -0.71429450721E+03  0.71429450721E+03  0.00000000000E+00 0.  1.
         25    1    1    2    0    0  0.46714372859E+01  0.52610485992E+01 -0.19767758800E+03  0.23135671539E+03  0.12000000000E+03 0.  0.
         25    1    1    2    0    0 -0.46714372859E+01 -0.52610485992E+01 -0.49254938650E+03  0.50700532453E+03  0.12000000000E+03 0.  0.
<mgrwt>
<rscale>  0 0.26223124E+03</rscale>
<asrwt>0</asrwt>
<pdfrwt beam="1">  1        2 0.10989144E+00 0.26223124E+03</pdfrwt>
<pdfrwt beam="2">  1       -2 0.37026981E-02 0.26223124E+03</pdfrwt>
<totfact> 0.12552218E+04</totfact>
</mgrwt>
</event>
<event>
 4    1  0.1733772E-004  0.3023632E+03  0.7818608E-02  0.1084065E+00
          1   -1    0    0  501    0  0.00000000000E+00  0.00000000000E+00  0.35951070069E+03  0.35951070069E+03  0.00000000000E+00 0. -1.
         -1   -1    0    0    0  501 -0.00000000000E+00 -0.00000000000E+00 -0.63574969678E+02  0.63574969678E+02  0.00000000000E+00 0. -1.
         25    1    1    2    0    0 -0.80650339161E+02  0.16796529212E+02  0.90798405181E+02  0.17155451315E+03  0.12000000000E+03 0.  0.
         25    1    1    2    0    0  0.80650339161E+02 -0.16796529212E+02  0.20513732583E+03  0.25153115721E+03  0.12000000000E+03 0.  0.
<mgrwt>
<rscale>  0 0.30236324E+03</rscale>
<asrwt>0</asrwt>
<pdfrwt beam="1">  1        1 0.55309337E-01 0.30236324E+03</pdfrwt>
<pdfrwt beam="2">  1       -1 0.97807648E-02 0.30236324E+03</pdfrwt>
<totfact> 0.43796715E+03</totfact>
</mgrwt>
</event>
<event>
 4    1  0.1733772E-004  0.2436373E+03  0.7818608E-02  0.1117393E+00
         -4   -1    0    0    0  501 -0.00000000000E+00  0.00000000000E+00  0.22316250827E+03  0.22316250827E+03  0.00000000000E+00 0. -1.
          4   -1    0    0  501    0  0.00000000000E+00 -0.00000000000E+00 -0.66497643282E+02  0.66497643282E+02  0.00000000000E+00 0. -1.
         25    1    1    2    0    0  0.14129193367E+02  0.83541923470E+01  0.93849922680E+02  0.15322282670E+03  0.12000000000E+03 0.  0.
         25    1    1    2    0    0 -0.14129193367E+02 -0.83541923470E+01  0.62814942305E+02  0.13643732485E+03  0.12000000000E+03 0.  0.
<mgrwt>
<rscale>  0 0.24363728E+03</rscale>
<asrwt>0</asrwt>
<pdfrwt beam="1">  1        4 0.10230407E-01 0.24363728E+03</pdfrwt>
<pdfrwt beam="2">  1       -4 0.34332693E-01 0.24363728E+03</pdfrwt>
<totfact> 0.11042951E+03</totfact>
</mgrwt>
</event>
<event>
 4    1  0.1733772E-004  0.2611294E+03  0.7818608E-02  0.1106467E+00
         -2   -1    0    0    0  501 -0.00000000000E+00  0.00000000000E+00  0.37026200818E+02  0.37026200818E+02  0.00000000000E+00 0.  1.
          2   -1    0    0  501    0  0.00000000000E+00 -0.00000000000E+00 -0.46040742559E+03  0.46040742559E+03  0.00000000000E+00 0.  1.
         25    1    1    2    0    0 -0.23347853908E+02  0.32349806484E+02 -0.14980215376E+03  0.19604162194E+03  0.12000000000E+03 0.  0.
         25    1    1    2    0    0  0.23347853908E+02 -0.32349806484E+02 -0.27357907101E+03  0.30139200447E+03  0.12000000000E+03 0.  0.
<mgrwt>
<rscale>  0 0.26112938E+03</rscale>
<asrwt>0</asrwt>
<pdfrwt beam="1">  1        2 0.70831909E-01 0.26112938E+03</pdfrwt>
<pdfrwt beam="2">  1       -2 0.56963388E-02 0.26112938E+03</pdfrwt>
<totfact> 0.10850744E+04</totfact>
</mgrwt>
</event>
<event>
 4    1  0.1733772E-004  0.3041309E+03  0.7818608E-02  0.1083194E+00
          1   -1    0    0  501    0  0.00000000000E+00  0.00000000000E+00  0.62783340781E+03  0.62783340781E+03  0.00000000000E+00 0. -1.
         -1   -1    0    0    0  501 -0.00000000000E+00 -0.00000000000E+00 -0.36831270872E+02  0.36831270872E+02  0.00000000000E+00 0. -1.
         25    1    1    2    0    0 -0.87471842847E+02  0.32361188888E+02  0.30650076725E+03  0.34211297865E+03  0.12000000000E+03 0.  0.
         25    1    1    2    0    0  0.87471842847E+02 -0.32361188888E+02  0.28450136969E+03  0.32255170003E+03  0.12000000000E+03 0.  0.
<mgrwt>
<rscale>  0 0.30413091E+03</rscale>
<asrwt>0</asrwt>
<pdfrwt beam="1">  1        1 0.96589747E-01 0.30413091E+03</pdfrwt>
<pdfrwt beam="2">  1       -1 0.56663498E-02 0.30413091E+03</pdfrwt>
<totfact> 0.48076957E+03</totfact>
</mgrwt>
</event>
<event>
 4    1  0.1733772E-004  0.3683145E+03  0.7818608E-02  0.1055339E+00
         -1   -1    0    0    0  501 -0.00000000000E+00  0.00000000000E+00  0.16043975415E+02  0.16043975415E+02  0.00000000000E+00 0. -1.
          1   -1    0    0  501    0  0.00000000000E+00 -0.00000000000E+00 -0.21138089407E+04  0.21138089407E+04  0.00000000000E+00 0. -1.
         25    1    1    2    0    0  0.55505717235E+02 -0.98539359258E+02 -0.15230290328E+04  0.15319296082E+04  0.12000000000E+03 0.  0.
         25    1    1    2    0    0 -0.55505717235E+02  0.98539359258E+02 -0.57473593256E+03  0.59792330791E+03  0.12000000000E+03 0.  0.
<mgrwt>
<rscale>  0 0.36831453E+03</rscale>
<asrwt>0</asrwt>
<pdfrwt beam="1">  1        1 0.32520140E+00 0.36831453E+03</pdfrwt>
<pdfrwt beam="2">  1       -1 0.24683037E-02 0.36831453E+03</pdfrwt>
<totfact> 0.14221184E+03</totfact>
</mgrwt>
</event>
<event>
 4    1  0.1733772E-004  0.2583058E+03  0.7818608E-02  0.1108165E+00
          1   -1    0    0  501    0  0.00000000000E+00  0.00000000000E+00  0.32260462247E+03  0.32260462247E+03  0.00000000000E+00 0. -1.
         -1   -1    0    0    0  501 -0.00000000000E+00 -0.00000000000E+00 -0.51705630293E+02  0.51705630293E+02  0.00000000000E+00 0. -1.
         25    1    1    2    0    0 -0.43990697427E+02 -0.18552830890E+02  0.13695986002E+03  0.18824821978E+03  0.12000000000E+03 0.  0.
         25    1    1    2    0    0  0.43990697427E+02  0.18552830890E+02  0.13393913216E+03  0.18606203298E+03  0.12000000000E+03 0.  0.
<mgrwt>
<rscale>  0 0.25830583E+03</rscale>
<asrwt>0</asrwt>
<pdfrwt beam="1">  1        1 0.49631479E-01 0.25830583E+03</pdfrwt>
<pdfrwt beam="2">  1       -1 0.79547126E-02 0.25830583E+03</pdfrwt>
<totfact> 0.68672269E+03</totfact>
</mgrwt>
</event>
<event>
 4    1  0.1733772E-004  0.3783323E+03  0.7818608E-02  0.1051552E+00
         -2   -1    0    0    0  501 -0.00000000000E+00  0.00000000000E+00  0.15666912892E+02  0.15666912892E+02  0.00000000000E+00 0. -1.
          2   -1    0    0  501    0  0.00000000000E+00 -0.00000000000E+00 -0.22840389999E+04  0.22840389999E+04  0.00000000000E+00 0. -1.
         25    1    1    2    0    0  0.46763277047E+02  0.11879859710E+03 -0.15675957021E+04  0.15773573457E+04  0.12000000000E+03 0.  0.
         25    1    1    2    0    0 -0.46763277047E+02 -0.11879859710E+03 -0.70077638490E+03  0.72234856710E+03  0.12000000000E+03 0.  0.
<mgrwt>
<rscale>  0 0.37833234E+03</rscale>
<asrwt>0</asrwt>
<pdfrwt beam="1">  1        2 0.35139035E+00 0.37833234E+03</pdfrwt>
<pdfrwt beam="2">  1       -2 0.24102961E-02 0.37833234E+03</pdfrwt>
<totfact> 0.30630827E+03</totfact>
</mgrwt>
</event>
<event>
 4    1  0.1733772E-004  0.3170441E+03  0.7818608E-02  0.1077018E+00
          3   -1    0    0  501    0  0.00000000000E+00  0.00000000000E+00  0.26281095814E+03  0.26281095814E+03  0.00000000000E+00 0. -1.
         -3   -1    0    0    0  501 -0.00000000000E+00 -0.00000000000E+00 -0.95617156027E+02  0.95617156027E+02  0.00000000000E+00 0. -1.
         25    1    1    2    0    0 -0.80562961362E+02  0.16022179588E+02  0.12255696559E+02  0.14593595541E+03  0.12000000000E+03 0.  0.
         25    1    1    2    0    0  0.80562961362E+02 -0.16022179588E+02  0.15493810556E+03  0.21249215876E+03  0.12000000000E+03 0.  0.
<mgrwt>
<rscale>  0 0.31704408E+03</rscale>
<asrwt>0</asrwt>
<pdfrwt beam="1">  1        3 0.40432455E-01 0.31704408E+03</pdfrwt>
<pdfrwt beam="2">  1       -3 0.14710332E-01 0.31704408E+03</pdfrwt>
<totfact> 0.60109053E+02</totfact>
</mgrwt>
</event>
<event>
 4    1  0.1733772E-004  0.2703059E+03  0.7818608E-02  0.1101105E+00
         -1   -1    0    0    0  501 -0.00000000000E+00  0.00000000000E+00  0.36555750972E+03  0.36555750972E+03  0.00000000000E+00 0. -1.
          1   -1    0    0  501    0  0.00000000000E+00 -0.00000000000E+00 -0.49968380627E+02  0.49968380627E+02  0.00000000000E+00 0. -1.
         25    1    1    2    0    0  0.34966437896E+02 -0.51390244279E+02  0.16032415910E+03  0.20968415528E+03  0.12000000000E+03 0.  0.
         25    1    1    2    0    0 -0.34966437896E+02  0.51390244279E+02  0.15526496999E+03  0.20584173506E+03  0.12000000000E+03 0.  0.
<mgrwt>
<rscale>  0 0.27030588E+03</rscale>
<asrwt>0</asrwt>
<pdfrwt beam="1">  1        1 0.76874434E-02 0.27030588E+03</pdfrwt>
<pdfrwt beam="2">  1       -1 0.56239615E-01 0.27030588E+03</pdfrwt>
<totfact> 0.30102419E+03</totfact>
</mgrwt>
</event>
<event>
 4    1  0.1733772E-004  0.2473423E+03  0.7818608E-02  0.1114996E+00
         -1   -1    0    0    0  501 -0.00000000000E+00  0.00000000000E+00  0.13389223709E+02  0.13389223709E+02  0.00000000000E+00 0. -1.
          1   -1    0    0  501    0  0.00000000000E+00 -0.00000000000E+00 -0.11423031491E+04  0.11423031491E+04  0.00000000000E+00 0. -1.
         25    1    1    2    0    0  0.86363477098E+01  0.14425424773E+02 -0.44887913724E+03  0.46494640469E+03  0.12000000000E+03 0.  0.
         25    1    1    2    0    0 -0.86363477098E+01 -0.14425424773E+02 -0.68003478812E+03  0.69074596809E+03  0.12000000000E+03 0.  0.
<mgrwt>
<rscale>  0 0.24734229E+03</rscale>
<asrwt>0</asrwt>
<pdfrwt beam="1">  1        1 0.17573897E+00 0.24734229E+03</pdfrwt>
<pdfrwt beam="2">  1       -1 0.20598803E-02 0.24734229E+03</pdfrwt>
<totfact> 0.82265672E+03</totfact>
</mgrwt>
</event>
<event>
 4    1  0.1733772E-004  0.2609002E+03  0.7818608E-02  0.1106604E+00
         -1   -1    0    0    0  501 -0.00000000000E+00  0.00000000000E+00  0.21296694271E+02  0.21296694271E+02  0.00000000000E+00 0. -1.
          1   -1    0    0  501    0  0.00000000000E+00 -0.00000000000E+00 -0.79905503011E+03  0.79905503011E+03  0.00000000000E+00 0. -1.
         25    1    1    2    0    0 -0.21913195987E+02  0.28652351870E+02 -0.27481015893E+03  0.30202941723E+03  0.12000000000E+03 0.  0.
         25    1    1    2    0    0  0.21913195987E+02 -0.28652351870E+02 -0.50294817692E+03  0.51832230715E+03  0.12000000000E+03 0.  0.
<mgrwt>
<rscale>  0 0.26090022E+03</rscale>
<asrwt>0</asrwt>
<pdfrwt beam="1">  1        1 0.12293155E+00 0.26090022E+03</pdfrwt>
<pdfrwt beam="2">  1       -1 0.32764144E-02 0.26090022E+03</pdfrwt>
<totfact> 0.76097712E+03</totfact>
</mgrwt>
</event>
<event>
 4    1  0.1733772E-004  0.2797692E+03  0.7818608E-02  0.1095815E+00
          1   -1    0    0  501    0  0.00000000000E+00  0.00000000000E+00  0.34541281128E+02  0.34541281128E+02  0.00000000000E+00 0. -1.
         -1   -1    0    0    0  501 -0.00000000000E+00 -0.00000000000E+00 -0.56650199603E+03  0.56650199603E+03  0.00000000000E+00 0. -1.
         25    1    1    2    0    0  0.29748780057E+02 -0.51671318062E+02 -0.17970342946E+03  0.22416118662E+03  0.12000000000E+03 0.  0.
         25    1    1    2    0    0 -0.29748780057E+02  0.51671318062E+02 -0.35225728544E+03  0.37688209054E+03  0.12000000000E+03 0.  0.
<mgrwt>
<rscale>  0 0.27976922E+03</rscale>
<asrwt>0</asrwt>
<pdfrwt beam="1">  1        1 0.53140432E-02 0.27976922E+03</pdfrwt>
<pdfrwt beam="2">  1       -1 0.87154154E-01 0.27976922E+03</pdfrwt>
<totfact> 0.20799743E+03</totfact>
</mgrwt>
</event>
<event>
 4    1  0.1733772E-004  0.3174686E+03  0.7818608E-02  0.1076820E+00
          2   -1    0    0  501    0  0.00000000000E+00  0.00000000000E+00  0.94163799771E+03  0.94163799771E+03  0.00000000000E+00 0. -1.
         -2   -1    0    0    0  501 -0.00000000000E+00 -0.00000000000E+00 -0.26758234826E+02  0.26758234826E+02  0.00000000000E+00 0. -1.
         25    1    1    2    0    0 -0.60122690920E+02  0.72863122769E+02  0.32543261110E+03  0.35948596216E+03  0.12000000000E+03 0.  0.
         25    1    1    2    0    0  0.60122690920E+02 -0.72863122769E+02  0.58944715178E+03  0.60891027038E+03  0.12000000000E+03 0.  0.
<mgrwt>
<rscale>  0 0.31746855E+03</rscale>
<asrwt>0</asrwt>
<pdfrwt beam="1">  1        2 0.14486736E+00 0.31746855E+03</pdfrwt>
<pdfrwt beam="2">  1       -2 0.41166522E-02 0.31746855E+03</pdfrwt>
<totfact> 0.75338768E+03</totfact>
</mgrwt>
</event>
<event>
 4    1  0.1733772E-004  0.2863388E+03  0.7818608E-02  0.1092276E+00
          2   -1    0    0  501    0  0.00000000000E+00  0.00000000000E+00  0.86845841924E+03  0.86845841924E+03  0.00000000000E+00 0. -1.
         -2   -1    0    0    0  501 -0.00000000000E+00 -0.00000000000E+00 -0.23602139182E+02  0.23602139182E+02  0.00000000000E+00 0. -1.
         25    1    1    2    0    0  0.23393232850E+02 -0.72245299406E+02  0.36576121870E+03  0.39236194481E+03  0.12000000000E+03 0.  0.
         25    1    1    2    0    0 -0.23393232850E+02  0.72245299406E+02  0.47909506135E+03  0.49969861361E+03  0.12000000000E+03 0.  0.
<mgrwt>
<rscale>  0 0.28633880E+03</rscale>
<asrwt>0</asrwt>
<pdfrwt beam="1">  1        2 0.13360896E+00 0.28633880E+03</pdfrwt>
<pdfrwt beam="2">  1       -2 0.36310990E-02 0.28633880E+03</pdfrwt>
<totfact> 0.10122494E+04</totfact>
</mgrwt>
</event>
<event>
 4    1  0.1733772E-004  0.3443711E+03  0.7818608E-02  0.1064949E+00
         -2   -1    0    0    0  501 -0.00000000000E+00  0.00000000000E+00  0.62903424129E+02  0.62903424129E+02  0.00000000000E+00 0. -1.
          2   -1    0    0  501    0  0.00000000000E+00 -0.00000000000E+00 -0.47132363112E+03  0.47132363112E+03  0.00000000000E+00 0. -1.
         25    1    1    2    0    0  0.79057891574E+02 -0.37367879594E+02 -0.33946245642E+03  0.37051486875E+03  0.12000000000E+03 0.  0.
         25    1    1    2    0    0 -0.79057891574E+02  0.37367879594E+02 -0.68957750575E+02  0.16371218650E+03  0.12000000000E+03 0.  0.
<mgrwt>
<rscale>  0 0.34437114E+03</rscale>
<asrwt>0</asrwt>
<pdfrwt beam="1">  1        2 0.72511326E-01 0.34437114E+03</pdfrwt>
<pdfrwt beam="2">  1       -2 0.96774501E-02 0.34437114E+03</pdfrwt>
<totfact> 0.46679702E+03</totfact>
</mgrwt>
</event>
<event>
 4    1  0.1733772E-004  0.3498752E+03  0.7818608E-02  0.1062666E+00
          1   -1    0    0  501    0  0.00000000000E+00  0.00000000000E+00  0.29494232218E+03  0.29494232218E+03  0.00000000000E+00 0.  1.
         -1   -1    0    0    0  501 -0.00000000000E+00 -0.00000000000E+00 -0.10375982145E+03  0.10375982145E+03  0.00000000000E+00 0.  1.
         25    1    1    2    0    0 -0.93610120340E+02 -0.77667577208E+02  0.52830500995E+02  0.17884677524E+03  0.12000000000E+03 0.  0.
         25    1    1    2    0    0  0.93610120340E+02  0.77667577208E+02  0.13835199974E+03  0.21985536839E+03  0.12000000000E+03 0.  0.
<mgrwt>
<rscale>  0 0.34987519E+03</rscale>
<asrwt>0</asrwt>
<pdfrwt beam="1">  1        1 0.45375742E-01 0.34987519E+03</pdfrwt>
<pdfrwt beam="2">  1       -1 0.15963050E-01 0.34987519E+03</pdfrwt>
<totfact> 0.26118577E+03</totfact>
</mgrwt>
</event>
<event>
 4    1  0.1733772E-004  0.3763752E+03  0.7818608E-02  0.1052282E+00
         -1   -1    0    0    0  501 -0.00000000000E+00  0.00000000000E+00  0.65855669787E+02  0.65855669787E+02  0.00000000000E+00 0. -1.
          1   -1    0    0  501    0  0.00000000000E+00 -0.00000000000E+00 -0.53776041341E+03  0.53776041341E+03  0.00000000000E+00 0. -1.
         25    1    1    2    0    0  0.37889121403E+02 -0.30076789608E+02 -0.16791597278E+02  0.13046898686E+03  0.12000000000E+03 0.  0.
         25    1    1    2    0    0 -0.37889121403E+02  0.30076789608E+02 -0.45511314635E+03  0.47314709634E+03  0.12000000000E+03 0.  0.
<mgrwt>
<rscale>  0 0.37637520E+03</rscale>
<asrwt>0</asrwt>
<pdfrwt beam="1">  1        1 0.82732372E-01 0.37637520E+03</pdfrwt>
<pdfrwt beam="2">  1       -1 0.10131641E-01 0.37637520E+03</pdfrwt>
<totfact> 0.24531248E+03</totfact>
</mgrwt>
</event>
<event>
 4    1  0.1733772E-004  0.2464951E+03  0.7818608E-02  0.1115540E+00
          1   -1    0    0  501    0  0.00000000000E+00  0.00000000000E+00  0.55140795148E+03  0.55140795148E+03  0.00000000000E+00 0. -1.
         -1   -1    0    0    0  501 -0.00000000000E+00 -0.00000000000E+00 -0.27547586143E+02  0.27547586143E+02  0.00000000000E+00 0. -1.
         25    1    1    2    0    0  0.69355385605E+01 -0.23307746120E+02  0.22882984933E+03  0.25952736401E+03  0.12000000000E+03 0.  0.
         25    1    1    2    0    0 -0.69355385605E+01  0.23307746120E+02  0.29503051601E+03  0.31942817362E+03  0.12000000000E+03 0.  0.
<mgrwt>
<rscale>  0 0.24649510E+03</rscale>
<asrwt>0</asrwt>
<pdfrwt beam="1">  1        1 0.84831984E-01 0.24649510E+03</pdfrwt>
<pdfrwt beam="2">  1       -1 0.42380906E-02 0.24649510E+03</pdfrwt>
<totfact> 0.88312557E+03</totfact>
</mgrwt>
</event>
<event>
 4    1  0.1733772E-004  0.2785343E+03  0.7818608E-02  0.1096492E+00
         -4   -1    0    0    0  501 -0.00000000000E+00  0.00000000000E+00  0.15228058740E+03  0.15228058740E+03  0.00000000000E+00 0. -1.
          4   -1    0    0  501    0  0.00000000000E+00 -0.00000000000E+00 -0.12736578073E+03  0.12736578073E+03  0.00000000000E+00 0. -1.
         25    1    1    2    0    0 -0.42818093214E+01  0.57484549459E+02  0.53517248704E+02  0.14348136892E+03  0.12000000000E+03 0.  0.
         25    1    1    2    0    0  0.42818093214E+01 -0.57484549459E+02 -0.28602442034E+02  0.13616499920E+03  0.12000000000E+03 0.  0.
<mgrwt>
<rscale>  0 0.27853428E+03</rscale>
<asrwt>0</asrwt>
<pdfrwt beam="1">  1        4 0.19594736E-01 0.27853428E+03</pdfrwt>
<pdfrwt beam="2">  1       -4 0.23427783E-01 0.27853428E+03</pdfrwt>
<totfact> 0.74320193E+02</totfact>
</mgrwt>
</event>
<event>
 4    1  0.1733772E-004  0.2466948E+03  0.7818608E-02  0.1115412E+00
         -2   -1    0    0    0  501 -0.00000000000E+00  0.00000000000E+00  0.40929614354E+03  0.40929614354E+03  0.00000000000E+00 0.  1.
          2   -1    0    0  501    0  0.00000000000E+00 -0.00000000000E+00 -0.37172551789E+02  0.37172551789E+02  0.00000000000E+00 0.  1.
         25    1    1    2    0    0  0.46967206966E+01 -0.21259775312E+02  0.15266397207E+03  0.19539786488E+03  0.12000000000E+03 0.  0.
         25    1    1    2    0    0 -0.46967206966E+01  0.21259775312E+02  0.21945961967E+03  0.25107083044E+03  0.12000000000E+03 0.  0.
<mgrwt>
<rscale>  0 0.24669481E+03</rscale>
<asrwt>0</asrwt>
<pdfrwt beam="1">  1        2 0.57188544E-02 0.24669481E+03</pdfrwt>
<pdfrwt beam="2">  1       -2 0.62968634E-01 0.24669481E+03</pdfrwt>
<totfact> 0.31176154E+03</totfact>
</mgrwt>
</event>
<event>
 4    1  0.1733772E-004  0.3349223E+03  0.7818608E-02  0.1068979E+00
          2   -1    0    0  501    0  0.00000000000E+00  0.00000000000E+00  0.92765502949E+03  0.92765502949E+03  0.00000000000E+00 0.  1.
         -2   -1    0    0    0  501 -0.00000000000E+00 -0.00000000000E+00 -0.30230235392E+02  0.30230235392E+02  0.00000000000E+00 0.  1.
         25    1    1    2    0    0 -0.16000330141E+02 -0.59155445493E+02  0.73310642526E+03  0.74538607986E+03  0.12000000000E+03 0.  0.
         25    1    1    2    0    0  0.16000330141E+02  0.59155445493E+02  0.16431836884E+03  0.21249918502E+03  0.12000000000E+03 0.  0.
<mgrwt>
<rscale>  0 0.33492226E+03</rscale>
<asrwt>0</asrwt>
<pdfrwt beam="1">  1        2 0.14271614E+00 0.33492226E+03</pdfrwt>
<pdfrwt beam="2">  1       -2 0.46508062E-02 0.33492226E+03</pdfrwt>
<totfact> 0.63976298E+03</totfact>
</mgrwt>
</event>
<event>
 4    1  0.1733772E-004  0.2788884E+03  0.7818608E-02  0.1096298E+00
          2   -1    0    0  501    0  0.00000000000E+00  0.00000000000E+00  0.57072623839E+03  0.57072623839E+03  0.00000000000E+00 0.  1.
         -2   -1    0    0    0  501 -0.00000000000E+00 -0.00000000000E+00 -0.34070066722E+02  0.34070066722E+02  0.00000000000E+00 0.  1.
         25    1    1    2    0    0 -0.57021191844E+02  0.39405369985E+02  0.30195752117E+03  0.33223868543E+03  0.12000000000E+03 0.  0.
         25    1    1    2    0    0  0.57021191844E+02 -0.39405369985E+02  0.23469865050E+03  0.27255761969E+03  0.12000000000E+03 0.  0.
<mgrwt>
<rscale>  0 0.27888837E+03</rscale>
<asrwt>0</asrwt>
<pdfrwt beam="1">  1        2 0.87804030E-01 0.27888837E+03</pdfrwt>
<pdfrwt beam="2">  1       -2 0.52415491E-02 0.27888837E+03</pdfrwt>
<totfact> 0.97029307E+03</totfact>
</mgrwt>
</event>
<event>
 4    1  0.1733772E-004  0.3282643E+03  0.7818608E-02  0.1071907E+00
         -1   -1    0    0    0  501 -0.00000000000E+00  0.00000000000E+00  0.62504691041E+03  0.62504691041E+03  0.00000000000E+00 0. -1.
          1   -1    0    0  501    0  0.00000000000E+00 -0.00000000000E+00 -0.43099734939E+02  0.43099734939E+02  0.00000000000E+00 0. -1.
         25    1    1    2    0    0  0.19109327044E+02 -0.79135629759E+02  0.13447662167E+03  0.19776646847E+03  0.12000000000E+03 0.  0.
         25    1    1    2    0    0 -0.19109327044E+02  0.79135629759E+02  0.44747055380E+03  0.47038017688E+03  0.12000000000E+03 0.  0.
<mgrwt>
<rscale>  0 0.32826426E+03</rscale>
<asrwt>0</asrwt>
<pdfrwt beam="1">  1        1 0.66307289E-02 0.32826426E+03</pdfrwt>
<pdfrwt beam="2">  1       -1 0.96161056E-01 0.32826426E+03</pdfrwt>
<totfact> 0.12406438E+03</totfact>
</mgrwt>
</event>
<event>
 4    1  0.1733772E-004  0.2521073E+03  0.7818608E-02  0.1111980E+00
          2   -1    0    0  501    0  0.00000000000E+00  0.00000000000E+00  0.14654774292E+03  0.14654774292E+03  0.00000000000E+00 0.  1.
         -2   -1    0    0    0  501 -0.00000000000E+00 -0.00000000000E+00 -0.10842559509E+03  0.10842559509E+03  0.00000000000E+00 0.  1.
         25    1    1    2    0    0 -0.20084782439E+02 -0.12496684070E+02  0.49903006467E+02  0.13209797747E+03  0.12000000000E+03 0.  0.
         25    1    1    2    0    0  0.20084782439E+02  0.12496684070E+02 -0.11780858638E+02  0.12287536054E+03  0.12000000000E+03 0.  0.
<mgrwt>
<rscale>  0 0.25210733E+03</rscale>
<asrwt>0</asrwt>
<pdfrwt beam="1">  1        2 0.22545807E-01 0.25210733E+03</pdfrwt>
<pdfrwt beam="2">  1       -2 0.16680861E-01 0.25210733E+03</pdfrwt>
<totfact> 0.68396463E+03</totfact>
</mgrwt>
</event>
<event>
 4    1  0.1733772E-004  0.2616534E+03  0.7818608E-02  0.1106154E+00
          2   -1    0    0  501    0  0.00000000000E+00  0.00000000000E+00  0.59854701232E+03  0.59854701232E+03  0.00000000000E+00 0. -1.
         -2   -1    0    0    0  501 -0.00000000000E+00 -0.00000000000E+00 -0.28595288554E+02  0.28595288554E+02  0.00000000000E+00 0. -1.
         25    1    1    2    0    0 -0.31206395049E+02 -0.35171208377E+02  0.23112568251E+03  0.26463169520E+03  0.12000000000E+03 0.  0.
         25    1    1    2    0    0  0.31206395049E+02  0.35171208377E+02  0.33882604125E+03  0.36251060567E+03  0.12000000000E+03 0.  0.
<mgrwt>
<rscale>  0 0.26165339E+03</rscale>
<asrwt>0</asrwt>
<pdfrwt beam="1">  1        2 0.92084146E-01 0.26165339E+03</pdfrwt>
<pdfrwt beam="2">  1       -2 0.43992756E-02 0.26165339E+03</pdfrwt>
<totfact> 0.11948637E+04</totfact>
</mgrwt>
</event>
<event>
 4    1  0.1733772E-004  0.2937234E+03  0.7818608E-02  0.1088421E+00
          2   -1    0    0  501    0  0.00000000000E+00  0.00000000000E+00  0.11856548669E+03  0.11856548669E+03  0.00000000000E+00 0. -1.
         -2   -1    0    0    0  501 -0.00000000000E+00 -0.00000000000E+00 -0.18191089398E+03  0.18191089398E+03  0.00000000000E+00 0. -1.
         25    1    1    2    0    0  0.80685215407E+02 -0.13044649472E+02 -0.90720820851E+01  0.14547360427E+03  0.12000000000E+03 0.  0.
         25    1    1    2    0    0 -0.80685215407E+02  0.13044649472E+02 -0.54273325203E+02  0.15500277641E+03  0.12000000000E+03 0.  0.
<mgrwt>
<rscale>  0 0.29372336E+03</rscale>
<asrwt>0</asrwt>
<pdfrwt beam="1">  1        2 0.18240844E-01 0.29372336E+03</pdfrwt>
<pdfrwt beam="2">  1       -2 0.27986291E-01 0.29372336E+03</pdfrwt>
<totfact> 0.35793256E+03</totfact>
</mgrwt>
</event>
<event>
 4    1  0.1733772E-004  0.3690412E+03  0.7818608E-02  0.1055060E+00
         -2   -1    0    0    0  501 -0.00000000000E+00  0.00000000000E+00  0.14585128509E+02  0.14585128509E+02  0.00000000000E+00 0.  1.
          2   -1    0    0  501    0  0.00000000000E+00 -0.00000000000E+00 -0.23344226914E+04  0.23344226914E+04  0.00000000000E+00 0.  1.
         25    1    1    2    0    0  0.85656226960E+00  0.13301855435E+03 -0.87861126989E+03  0.89668970836E+03  0.12000000000E+03 0.  0.
         25    1    1    2    0    0 -0.85656226960E+00 -0.13301855435E+03 -0.14412262930E+04  0.14523181115E+04  0.12000000000E+03 0.  0.
<mgrwt>
<rscale>  0 0.36904122E+03</rscale>
<asrwt>0</asrwt>
<pdfrwt beam="1">  1        2 0.35914185E+00 0.36904122E+03</pdfrwt>
<pdfrwt beam="2">  1       -2 0.22438666E-02 0.36904122E+03</pdfrwt>
<totfact> 0.32013879E+03</totfact>
</mgrwt>
</event>
<event>
 4    1  0.1733772E-004  0.2513541E+03  0.7818608E-02  0.1112452E+00
          1   -1    0    0  501    0  0.00000000000E+00  0.00000000000E+00  0.15163914626E+03  0.15163914626E+03  0.00000000000E+00 0.  1.
         -1   -1    0    0    0  501 -0.00000000000E+00 -0.00000000000E+00 -0.10415992622E+03  0.10415992622E+03  0.00000000000E+00 0.  1.
         25    1    1    2    0    0 -0.15276465262E+02 -0.31942901750E+02  0.35824063944E+02  0.13014254846E+03  0.12000000000E+03 0.  0.
         25    1    1    2    0    0  0.15276465262E+02  0.31942901750E+02  0.11655156096E+02  0.12565652401E+03  0.12000000000E+03 0.  0.
<mgrwt>
<rscale>  0 0.25135411E+03</rscale>
<asrwt>0</asrwt>
<pdfrwt beam="1">  1        1 0.23329099E-01 0.25135411E+03</pdfrwt>
<pdfrwt beam="2">  1       -1 0.16024604E-01 0.25135411E+03</pdfrwt>
<totfact> 0.59697695E+03</totfact>
</mgrwt>
</event>
<event>
 4    1  0.1733772E-004  0.2737226E+03  0.7818608E-02  0.1099168E+00
          2   -1    0    0  501    0  0.00000000000E+00  0.00000000000E+00  0.18053113292E+03  0.18053113292E+03  0.00000000000E+00 0.  1.
         -2   -1    0    0    0  501 -0.00000000000E+00 -0.00000000000E+00 -0.10375504018E+03  0.10375504018E+03  0.00000000000E+00 0.  1.
         25    1    1    2    0    0  0.50522195139E+02  0.69336874924E+01 -0.48159780874E+01  0.13047513889E+03  0.12000000000E+03 0.  0.
         25    1    1    2    0    0 -0.50522195139E+02 -0.69336874924E+01  0.81592070827E+02  0.15381103421E+03  0.12000000000E+03 0.  0.
<mgrwt>
<rscale>  0 0.27372260E+03</rscale>
<asrwt>0</asrwt>
<pdfrwt beam="1">  1        2 0.27774020E-01 0.27372260E+03</pdfrwt>
<pdfrwt beam="2">  1       -2 0.15962314E-01 0.27372260E+03</pdfrwt>
<totfact> 0.58504736E+03</totfact>
</mgrwt>
</event>
<event>
 4    1  0.1733772E-004  0.2483165E+03  0.7818608E-02  0.1114373E+00
          2   -1    0    0  501    0  0.00000000000E+00  0.00000000000E+00  0.12329648228E+04  0.12329648228E+04  0.00000000000E+00 0.  1.
         -2   -1    0    0    0  501 -0.00000000000E+00 -0.00000000000E+00 -0.12502607480E+02  0.12502607480E+02  0.00000000000E+00 0.  1.
         25    1    1    2    0    0  0.17993771440E+02  0.19394334360E+02  0.69930070540E+03  0.71001506505E+03  0.12000000000E+03 0.  0.
         25    1    1    2    0    0 -0.17993771440E+02 -0.19394334360E+02  0.52116150990E+03  0.53545236522E+03  0.12000000000E+03 0.  0.
<mgrwt>
<rscale>  0 0.24831653E+03</rscale>
<asrwt>0</asrwt>
<pdfrwt beam="1">  1        2 0.18968680E+00 0.24831653E+03</pdfrwt>
<pdfrwt beam="2">  1       -2 0.19234790E-02 0.24831653E+03</pdfrwt>
<totfact> 0.15584247E+04</totfact>
</mgrwt>
</event>
<event>
 4    1  0.1733772E-004  0.4307950E+03  0.7818608E-02  0.1033609E+00
         -2   -1    0    0    0  501 -0.00000000000E+00  0.00000000000E+00  0.24048542681E+02  0.24048542681E+02  0.00000000000E+00 0. -1.
          2   -1    0    0  501    0  0.00000000000E+00 -0.00000000000E+00 -0.19292677912E+04  0.19292677912E+04  0.00000000000E+00 0. -1.
         25    1    1    2    0    0 -0.10397513971E+03 -0.23366775385E+02 -0.30120801237E+03  0.34129620945E+03  0.12000000000E+03 0.  0.
         25    1    1    2    0    0  0.10397513971E+03  0.23366775385E+02 -0.16040112361E+04  0.16120201244E+04  0.12000000000E+03 0.  0.
<mgrwt>
<rscale>  0 0.43079498E+03</rscale>
<asrwt>0</asrwt>
<pdfrwt beam="1">  1        2 0.29681050E+00 0.43079498E+03</pdfrwt>
<pdfrwt beam="2">  1       -2 0.36997749E-02 0.43079498E+03</pdfrwt>
<totfact> 0.24856527E+03</totfact>
</mgrwt>
</event>
<event>
 4    1  0.1733772E-004  0.3030073E+03  0.7818608E-02  0.1083747E+00
          2   -1    0    0  501    0  0.00000000000E+00  0.00000000000E+00  0.85054782074E+03  0.85054782074E+03  0.00000000000E+00 0. -1.
         -2   -1    0    0    0  501 -0.00000000000E+00 -0.00000000000E+00 -0.26986560968E+02  0.26986560968E+02  0.00000000000E+00 0. -1.
         25    1    1    2    0    0 -0.32655696062E+02  0.85224330499E+02  0.45510390472E+03  0.47942584941E+03  0.12000000000E+03 0.  0.
         25    1    1    2    0    0  0.32655696062E+02 -0.85224330499E+02  0.36845735505E+03  0.39810853229E+03  0.12000000000E+03 0.  0.
<mgrwt>
<rscale>  0 0.30300733E+03</rscale>
<asrwt>0</asrwt>
<pdfrwt beam="1">  1        2 0.13085349E+00 0.30300733E+03</pdfrwt>
<pdfrwt beam="2">  1       -2 0.41517793E-02 0.30300733E+03</pdfrwt>
<totfact> 0.85167877E+03</totfact>
</mgrwt>
</event>
<event>
 4    1  0.1733772E-004  0.3070121E+03  0.7818608E-02  0.1081787E+00
         -2   -1    0    0    0  501 -0.00000000000E+00  0.00000000000E+00  0.41507005608E+03  0.41507005608E+03  0.00000000000E+00 0.  1.
          2   -1    0    0  501    0  0.00000000000E+00 -0.00000000000E+00 -0.56771389795E+02  0.56771389795E+02  0.00000000000E+00 0.  1.
         25    1    1    2    0    0 -0.91511968016E+02  0.18828228865E+02  0.14708916211E+03  0.21157543360E+03  0.12000000000E+03 0.  0.
         25    1    1    2    0    0  0.91511968016E+02 -0.18828228865E+02  0.21120950418E+03  0.26026601228E+03  0.12000000000E+03 0.  0.
<mgrwt>
<rscale>  0 0.30701208E+03</rscale>
<asrwt>0</asrwt>
<pdfrwt beam="1">  1        2 0.87340602E-02 0.30701208E+03</pdfrwt>
<pdfrwt beam="2">  1       -2 0.63856930E-01 0.30701208E+03</pdfrwt>
<totfact> 0.17672061E+03</totfact>
</mgrwt>
</event>
<event>
 4    1  0.1733772E-004  0.3144521E+03  0.7818608E-02  0.1078231E+00
          1   -1    0    0  501    0  0.00000000000E+00  0.00000000000E+00  0.46218501053E+02  0.46218501053E+02  0.00000000000E+00 0.  1.
         -1   -1    0    0    0  501 -0.00000000000E+00 -0.00000000000E+00 -0.53485151197E+03  0.53485151197E+03  0.00000000000E+00 0.  1.
         25    1    1    2    0    0  0.25992953247E+02 -0.96807906354E+02 -0.27482785371E+03  0.31619258929E+03  0.12000000000E+03 0.  0.
         25    1    1    2    0    0 -0.25992953247E+02  0.96807906354E+02 -0.21380515721E+03  0.26487742373E+03  0.12000000000E+03 0.  0.
<mgrwt>
<rscale>  0 0.31445213E+03</rscale>
<asrwt>0</asrwt>
<pdfrwt beam="1">  1        1 0.71105388E-02 0.31445213E+03</pdfrwt>
<pdfrwt beam="2">  1       -1 0.82284846E-01 0.31445213E+03</pdfrwt>
<totfact> 0.15748933E+03</totfact>
</mgrwt>
</event>
<event>
 4    1  0.1733772E-004  0.3264068E+03  0.7818608E-02  0.1072738E+00
         -1   -1    0    0    0  501 -0.00000000000E+00  0.00000000000E+00  0.25467122289E+04  0.25467122289E+04  0.00000000000E+00 0.  1.
          1   -1    0    0  501    0  0.00000000000E+00 -0.00000000000E+00 -0.10458722604E+02  0.10458722604E+02  0.00000000000E+00 0.  1.
         25    1    1    2    0    0  0.10519065316E+03  0.21429051972E+02  0.10592166584E+04  0.10713842482E+04  0.12000000000E+03 0.  0.
         25    1    1    2    0    0 -0.10519065316E+03 -0.21429051972E+02  0.14770368479E+04  0.14857867033E+04  0.12000000000E+03 0.  0.
<mgrwt>
<rscale>  0 0.32640684E+03</rscale>
<asrwt>0</asrwt>
<pdfrwt beam="1">  1        1 0.16090363E-02 0.32640684E+03</pdfrwt>
<pdfrwt beam="2">  1       -1 0.39180139E+00 0.32640684E+03</pdfrwt>
<totfact> 0.81439278E+01</totfact>
</mgrwt>
</event>
<event>
 4    1  0.1733772E-004  0.2931630E+03  0.7818608E-02  0.1088709E+00
          1   -1    0    0  501    0  0.00000000000E+00  0.00000000000E+00  0.14239374674E+04  0.14239374674E+04  0.00000000000E+00 0. -1.
         -1   -1    0    0    0  501 -0.00000000000E+00 -0.00000000000E+00 -0.15089244036E+02  0.15089244036E+02  0.00000000000E+00 0. -1.
         25    1    1    2    0    0 -0.39941300397E+02 -0.67737940896E+02  0.55696890131E+03  0.57515049608E+03  0.12000000000E+03 0.  0.
         25    1    1    2    0    0  0.39941300397E+02  0.67737940896E+02  0.85187932203E+03  0.86387621533E+03  0.12000000000E+03 0.  0.
<mgrwt>
<rscale>  0 0.29316303E+03</rscale>
<asrwt>0</asrwt>
<pdfrwt beam="1">  1        1 0.21906720E+00 0.29316303E+03</pdfrwt>
<pdfrwt beam="2">  1       -1 0.23214233E-02 0.29316303E+03</pdfrwt>
<totfact> 0.44347769E+03</totfact>
</mgrwt>
</event>
<event>
 4    1  0.1733772E-004  0.2472065E+03  0.7818608E-02  0.1115083E+00
         -1   -1    0    0    0  501 -0.00000000000E+00  0.00000000000E+00  0.15124504214E+02  0.15124504214E+02  0.00000000000E+00 0. -1.
          1   -1    0    0  501    0  0.00000000000E+00 -0.00000000000E+00 -0.10101331447E+04  0.10101331447E+04  0.00000000000E+00 0. -1.
         25    1    1    2    0    0 -0.14919960019E+02  0.78289579136E+01 -0.39643552667E+03  0.41454194552E+03  0.12000000000E+03 0.  0.
         25    1    1    2    0    0  0.14919960019E+02 -0.78289579136E+01 -0.59857311378E+03  0.61071570336E+03  0.12000000000E+03 0.  0.
<mgrwt>
<rscale>  0 0.24720650E+03</rscale>
<asrwt>0</asrwt>
<pdfrwt beam="1">  1        1 0.15540512E+00 0.24720650E+03</pdfrwt>
<pdfrwt beam="2">  1       -1 0.23268465E-02 0.24720650E+03</pdfrwt>
<totfact> 0.85832050E+03</totfact>
</mgrwt>
</event>
<event>
 4    1  0.1733772E-004  0.3337425E+03  0.7818608E-02  0.1069493E+00
          1   -1    0    0  501    0  0.00000000000E+00  0.00000000000E+00  0.82404356161E+03  0.82404356161E+03  0.00000000000E+00 0.  1.
         -1   -1    0    0    0  501 -0.00000000000E+00 -0.00000000000E+00 -0.33791918763E+02  0.33791918763E+02  0.00000000000E+00 0.  1.
         25    1    1    2    0    0 -0.19278784838E+01 -0.11059677501E+03  0.30569200720E+03  0.34652989283E+03  0.12000000000E+03 0.  0.
         25    1    1    2    0    0  0.19278784838E+01  0.11059677501E+03  0.48455963564E+03  0.51130558754E+03  0.12000000000E+03 0.  0.
<mgrwt>
<rscale>  0 0.33374249E+03</rscale>
<asrwt>0</asrwt>
<pdfrwt beam="1">  1        1 0.12677592E+00 0.33374249E+03</pdfrwt>
<pdfrwt beam="2">  1       -1 0.51987573E-02 0.33374249E+03</pdfrwt>
<totfact> 0.36605413E+03</totfact>
</mgrwt>
</event>
<event>
 4    1  0.1733772E-004  0.3264087E+03  0.7818608E-02  0.1072737E+00
         -2   -1    0    0    0  501 -0.00000000000E+00  0.00000000000E+00  0.57923934061E+03  0.57923934061E+03  0.00000000000E+00 0. -1.
          2   -1    0    0  501    0  0.00000000000E+00 -0.00000000000E+00 -0.45983859519E+02  0.45983859519E+02  0.00000000000E+00 0. -1.
         25    1    1    2    0    0 -0.32934846594E+02  0.95700912456E+02  0.35212453210E+03  0.38553217099E+03  0.12000000000E+03 0.  0.
         25    1    1    2    0    0  0.32934846594E+02 -0.95700912456E+02  0.18113094899E+03  0.23969102914E+03  0.12000000000E+03 0.  0.
<mgrwt>
<rscale>  0 0.32640870E+03</rscale>
<asrwt>0</asrwt>
<pdfrwt beam="1">  1        2 0.70744403E-02 0.32640870E+03</pdfrwt>
<pdfrwt beam="2">  1       -2 0.89113740E-01 0.32640870E+03</pdfrwt>
<totfact> 0.11187619E+03</totfact>
</mgrwt>
</event>
<event>
 4    1  0.1733772E-004  0.2547448E+03  0.7818608E-02  0.1110342E+00
          1   -1    0    0  501    0  0.00000000000E+00  0.00000000000E+00  0.10155494148E+04  0.10155494148E+04  0.00000000000E+00 0. -1.
         -1   -1    0    0    0  501 -0.00000000000E+00 -0.00000000000E+00 -0.15975316229E+02  0.15975316229E+02  0.00000000000E+00 0. -1.
         25    1    1    2    0    0  0.12215766672E+02  0.91325513882E+01  0.66130559198E+03  0.67227800383E+03  0.12000000000E+03 0.  0.
         25    1    1    2    0    0 -0.12215766672E+02 -0.91325513882E+01  0.33826850657E+03  0.35924672718E+03  0.12000000000E+03 0.  0.
<mgrwt>
<rscale>  0 0.25474476E+03</rscale>
<asrwt>0</asrwt>
<pdfrwt beam="1">  1        1 0.15623832E+00 0.25474476E+03</pdfrwt>
<pdfrwt beam="2">  1       -1 0.24577418E-02 0.25474476E+03</pdfrwt>
<totfact> 0.78557766E+03</totfact>
</mgrwt>
</event>
<event>
 4    1  0.1733772E-004  0.3325281E+03  0.7818608E-02  0.1070024E+00
         -2   -1    0    0    0  501 -0.00000000000E+00  0.00000000000E+00  0.49624503495E+02  0.49624503495E+02  0.00000000000E+00 0.  1.
          2   -1    0    0  501    0  0.00000000000E+00 -0.00000000000E+00 -0.55705817735E+03  0.55705817735E+03  0.00000000000E+00 0.  1.
         25    1    1    2    0    0 -0.80631256572E+02  0.81955857315E+02 -0.26294313203E+03  0.31105827873E+03  0.12000000000E+03 0.  0.
         25    1    1    2    0    0  0.80631256572E+02 -0.81955857315E+02 -0.24449054183E+03  0.29562440212E+03  0.12000000000E+03 0.  0.
<mgrwt>
<rscale>  0 0.33252811E+03</rscale>
<asrwt>0</asrwt>
<pdfrwt beam="1">  1        2 0.85701259E-01 0.33252811E+03</pdfrwt>
<pdfrwt beam="2">  1       -2 0.76345389E-02 0.33252811E+03</pdfrwt>
<totfact> 0.56125585E+03</totfact>
</mgrwt>
</event>
<event>
 4    1  0.1733772E-004  0.3953043E+03  0.7818608E-02  0.1045418E+00
          1   -1    0    0  501    0  0.00000000000E+00  0.00000000000E+00  0.70866151438E+03  0.70866151438E+03  0.00000000000E+00 0. -1.
         -1   -1    0    0    0  501 -0.00000000000E+00 -0.00000000000E+00 -0.55126994578E+02  0.55126994578E+02  0.00000000000E+00 0. -1.
         25    1    1    2    0    0 -0.80568485476E+01 -0.80623744238E+02  0.66813461382E+02  0.15946516725E+03  0.12000000000E+03 0.  0.
         25    1    1    2    0    0  0.80568485476E+01  0.80623744238E+02  0.58672105842E+03  0.60432334171E+03  0.12000000000E+03 0.  0.
<mgrwt>
<rscale>  0 0.39530434E+03</rscale>
<asrwt>0</asrwt>
<pdfrwt beam="1">  1        1 0.10902484E+00 0.39530434E+03</pdfrwt>
<pdfrwt beam="2">  1       -1 0.84810766E-02 0.39530434E+03</pdfrwt>
<totfact> 0.21852741E+03</totfact>
</mgrwt>
</event>
<event>
 4    1  0.1733772E-004  0.2481481E+03  0.7818608E-02  0.1114481E+00
         -3   -1    0    0    0  501 -0.00000000000E+00  0.00000000000E+00  0.41520106678E+03  0.41520106678E+03  0.00000000000E+00 0. -1.
          3   -1    0    0  501    0  0.00000000000E+00 -0.00000000000E+00 -0.37076910003E+02  0.37076910003E+02  0.00000000000E+00 0. -1.
         25    1    1    2    0    0  0.23877085290E+02 -0.30054225626E+01  0.15192257427E+03  0.19508873965E+03  0.12000000000E+03 0.  0.
         25    1    1    2    0    0 -0.23877085290E+02  0.30054225626E+01  0.22620158251E+03  0.25718923713E+03  0.12000000000E+03 0.  0.
<mgrwt>
<rscale>  0 0.24814812E+03</rscale>
<asrwt>0</asrwt>
<pdfrwt beam="1">  1        3 0.57041403E-02 0.24814812E+03</pdfrwt>
<pdfrwt beam="2">  1       -3 0.63877084E-01 0.24814812E+03</pdfrwt>
<totfact> 0.11211452E+03</totfact>
</mgrwt>
</event>
<event>
 4    1  0.1733772E-004  0.2466936E+03  0.7818608E-02  0.1115412E+00
         -4   -1    0    0    0  501 -0.00000000000E+00  0.00000000000E+00  0.56803632604E+03  0.56803632604E+03  0.00000000000E+00 0. -1.
          4   -1    0    0  501    0  0.00000000000E+00 -0.00000000000E+00 -0.26784267080E+02  0.26784267080E+02  0.00000000000E+00 0. -1.
         25    1    1    2    0    0 -0.23632221407E+02 -0.74110746736E+01  0.23643916190E+03  0.26630224032E+03  0.12000000000E+03 0.  0.
         25    1    1    2    0    0  0.23632221407E+02  0.74110746736E+01  0.30481289706E+03  0.32851835280E+03  0.12000000000E+03 0.  0.
<mgrwt>
<rscale>  0 0.24669363E+03</rscale>
<asrwt>0</asrwt>
<pdfrwt beam="1">  1        4 0.41206569E-02 0.24669363E+03</pdfrwt>
<pdfrwt beam="2">  1       -4 0.87390195E-01 0.24669363E+03</pdfrwt>
<totfact> 0.70093873E+02</totfact>
</mgrwt>
</event>
<event>
 4    1  0.1733772E-004  0.3969117E+03  0.7818608E-02  0.1044854E+00
         -1   -1    0    0    0  501 -0.00000000000E+00  0.00000000000E+00  0.46094884575E+02  0.46094884575E+02  0.00000000000E+00 0.  1.
          1   -1    0    0  501    0  0.00000000000E+00 -0.00000000000E+00 -0.85442714364E+03  0.85442714364E+03  0.00000000000E+00 0.  1.
         25    1    1    2    0    0 -0.13527560465E+03 -0.75074092323E+02 -0.47765327718E+03  0.51622501078E+03  0.12000000000E+03 0.  0.
         25    1    1    2    0    0  0.13527560465E+03  0.75074092323E+02 -0.33067898189E+03  0.38429701744E+03  0.12000000000E+03 0.  0.
<mgrwt>
<rscale>  0 0.39691168E+03</rscale>
<asrwt>0</asrwt>
<pdfrwt beam="1">  1        1 0.13145033E+00 0.39691168E+03</pdfrwt>
<pdfrwt beam="2">  1       -1 0.70915209E-02 0.39691168E+03</pdfrwt>
<totfact> 0.21567651E+03</totfact>
</mgrwt>
</event>
<event>
 4    1  0.1733772E-004  0.2819333E+03  0.7818608E-02  0.1094638E+00
          1   -1    0    0  501    0  0.00000000000E+00  0.00000000000E+00  0.13214032205E+04  0.13214032205E+04  0.00000000000E+00 0.  1.
         -1   -1    0    0    0  501 -0.00000000000E+00 -0.00000000000E+00 -0.15038248920E+02  0.15038248920E+02  0.00000000000E+00 0.  1.
         25    1    1    2    0    0 -0.39032519551E+02  0.61553593665E+02  0.59337078099E+03  0.60975508707E+03  0.12000000000E+03 0.  0.
         25    1    1    2    0    0  0.39032519551E+02 -0.61553593665E+02  0.71299419058E+03  0.72668638234E+03  0.12000000000E+03 0.  0.
<mgrwt>
<rscale>  0 0.28193326E+03</rscale>
<asrwt>0</asrwt>
<pdfrwt beam="1">  1        1 0.20329271E+00 0.28193326E+03</pdfrwt>
<pdfrwt beam="2">  1       -1 0.23135778E-02 0.28193326E+03</pdfrwt>
<totfact> 0.52262489E+03</totfact>
</mgrwt>
</event>
<event>
 4    1  0.1733772E-004  0.2558516E+03  0.7818608E-02  0.1109662E+00
         -2   -1    0    0    0  501 -0.00000000000E+00  0.00000000000E+00  0.14032251077E+03  0.14032251077E+03  0.00000000000E+00 0.  1.
          2   -1    0    0  501    0  0.00000000000E+00 -0.00000000000E+00 -0.11662423322E+03  0.11662423322E+03  0.00000000000E+00 0.  1.
         25    1    1    2    0    0  0.27811858617E+02  0.32167620033E+02 -0.72443611125E+00  0.12731370730E+03  0.12000000000E+03 0.  0.
         25    1    1    2    0    0 -0.27811858617E+02 -0.32167620033E+02  0.24422713658E+02  0.12963303669E+03  0.12000000000E+03 0.  0.
<mgrwt>
<rscale>  0 0.25585156E+03</rscale>
<asrwt>0</asrwt>
<pdfrwt beam="1">  1        2 0.17942190E-01 0.25585156E+03</pdfrwt>
<pdfrwt beam="2">  1       -2 0.21588079E-01 0.25585156E+03</pdfrwt>
<totfact> 0.57359414E+03</totfact>
</mgrwt>
</event>
<event>
 4    1  0.1733772E-004  0.2696025E+03  0.7818608E-02  0.1101507E+00
         -2   -1    0    0    0  501 -0.00000000000E+00  0.00000000000E+00  0.23441933102E+02  0.23441933102E+02  0.00000000000E+00 0. -1.
          2   -1    0    0  501    0  0.00000000000E+00 -0.00000000000E+00 -0.77516550039E+03  0.77516550039E+03  0.00000000000E+00 0. -1.
         25    1    1    2    0    0  0.12366174810E+02  0.47925053361E+02 -0.26817391118E+03  0.29793787886E+03  0.12000000000E+03 0.  0.
         25    1    1    2    0    0 -0.12366174810E+02 -0.47925053361E+02 -0.48354965611E+03  0.50066955464E+03  0.12000000000E+03 0.  0.
<mgrwt>
<rscale>  0 0.26960251E+03</rscale>
<asrwt>0</asrwt>
<pdfrwt beam="1">  1        2 0.11925622E+00 0.26960251E+03</pdfrwt>
<pdfrwt beam="2">  1       -2 0.36064516E-02 0.26960251E+03</pdfrwt>
<totfact> 0.11813101E+04</totfact>
</mgrwt>
</event>
<event>
 4    1  0.1733772E-004  0.2824292E+03  0.7818608E-02  0.1094370E+00
          2   -1    0    0  501    0  0.00000000000E+00  0.00000000000E+00  0.13950888943E+04  0.13950888943E+04  0.00000000000E+00 0.  1.
         -2   -1    0    0    0  501 -0.00000000000E+00 -0.00000000000E+00 -0.14294114528E+02  0.14294114528E+02  0.00000000000E+00 0.  1.
         25    1    1    2    0    0 -0.60352020060E+02 -0.40858236159E+02  0.61475013067E+03  0.63057869053E+03  0.12000000000E+03 0.  0.
         25    1    1    2    0    0  0.60352020060E+02  0.40858236159E+02  0.76604464914E+03  0.77880431833E+03  0.12000000000E+03 0.  0.
<mgrwt>
<rscale>  0 0.28242918E+03</rscale>
<asrwt>0</asrwt>
<pdfrwt beam="1">  1        2 0.21462895E+00 0.28242918E+03</pdfrwt>
<pdfrwt beam="2">  1       -2 0.21990957E-02 0.28242918E+03</pdfrwt>
<totfact> 0.10453984E+04</totfact>
</mgrwt>
</event>
<event>
 4    1  0.1733772E-004  0.2664718E+03  0.7818608E-02  0.1103316E+00
          4   -1    0    0  501    0  0.00000000000E+00  0.00000000000E+00  0.53253104877E+03  0.53253104877E+03  0.00000000000E+00 0.  1.
         -4   -1    0    0    0  501 -0.00000000000E+00 -0.00000000000E+00 -0.33334784815E+02  0.33334784815E+02  0.00000000000E+00 0.  1.
         25    1    1    2    0    0 -0.45046849604E+02  0.35955300756E+02  0.26119154106E+03  0.29316040563E+03  0.12000000000E+03 0.  0.
         25    1    1    2    0    0  0.45046849604E+02 -0.35955300756E+02  0.23800472289E+03  0.27270542795E+03  0.12000000000E+03 0.  0.
<mgrwt>
<rscale>  0 0.26647182E+03</rscale>
<asrwt>0</asrwt>
<pdfrwt beam="1">  1        4 0.81927847E-01 0.26647182E+03</pdfrwt>
<pdfrwt beam="2">  1       -4 0.51284288E-02 0.26647182E+03</pdfrwt>
<totfact> 0.57591284E+02</totfact>
</mgrwt>
</event>
<event>
 4    1  0.1733772E-004  0.3391140E+03  0.7818608E-02  0.1067174E+00
          1   -1    0    0  501    0  0.00000000000E+00  0.00000000000E+00  0.41166169616E+03  0.41166169616E+03  0.00000000000E+00 0.  1.
         -1   -1    0    0    0  501 -0.00000000000E+00 -0.00000000000E+00 -0.69837864453E+02  0.69837864453E+02  0.00000000000E+00 0.  1.
         25    1    1    2    0    0  0.54409583965E+02 -0.94202674668E+02  0.24211872417E+03  0.29130057215E+03  0.12000000000E+03 0.  0.
         25    1    1    2    0    0 -0.54409583965E+02  0.94202674668E+02  0.99705107531E+02  0.19019898846E+03  0.12000000000E+03 0.  0.
<mgrwt>
<rscale>  0 0.33911399E+03</rscale>
<asrwt>0</asrwt>
<pdfrwt beam="1">  1        1 0.63332567E-01 0.33911399E+03</pdfrwt>
<pdfrwt beam="2">  1       -1 0.10744287E-01 0.33911399E+03</pdfrwt>
<totfact> 0.31877054E+03</totfact>
</mgrwt>
</event>
<event>
 4    1  0.1733772E-004  0.3491142E+03  0.7818608E-02  0.1062979E+00
          2   -1    0    0  501    0  0.00000000000E+00  0.00000000000E+00  0.39531991846E+03  0.39531991846E+03  0.00000000000E+00 0.  1.
         -2   -1    0    0    0  501 -0.00000000000E+00 -0.00000000000E+00 -0.77077252973E+02  0.77077252973E+02  0.00000000000E+00 0.  1.
         25    1    1    2    0    0 -0.72838043411E+01  0.11564340693E+03  0.89547212739E+02  0.18932816663E+03  0.12000000000E+03 0.  0.
         25    1    1    2    0    0  0.72838043411E+01 -0.11564340693E+03  0.22869545275E+03  0.28306900480E+03  0.12000000000E+03 0.  0.
<mgrwt>
<rscale>  0 0.34911416E+03</rscale>
<asrwt>0</asrwt>
<pdfrwt beam="1">  1        2 0.60818448E-01 0.34911416E+03</pdfrwt>
<pdfrwt beam="2">  1       -2 0.11858039E-01 0.34911416E+03</pdfrwt>
<totfact> 0.40903602E+03</totfact>
</mgrwt>
</event>
<event>
 4    1  0.1733772E-004  0.2467934E+03  0.7818608E-02  0.1115348E+00
          2   -1    0    0  501    0  0.00000000000E+00  0.00000000000E+00  0.20629373415E+04  0.20629373415E+04  0.00000000000E+00 0.  1.
         -2   -1    0    0    0  501 -0.00000000000E+00 -0.00000000000E+00 -0.73811000646E+01  0.73811000646E+01  0.00000000000E+00 0.  1.
         25    1    1    2    0    0 -0.19099154716E+02  0.20289684676E+02  0.96828337063E+03  0.97608869210E+03  0.12000000000E+03 0.  0.
         25    1    1    2    0    0  0.19099154716E+02 -0.20289684676E+02  0.10872728708E+04  0.10942297495E+04  0.12000000000E+03 0.  0.
<mgrwt>
<rscale>  0 0.24679341E+03</rscale>
<asrwt>0</asrwt>
<pdfrwt beam="1">  1        2 0.31737452E+00 0.24679341E+03</pdfrwt>
<pdfrwt beam="2">  1       -2 0.11355555E-02 0.24679341E+03</pdfrwt>
<totfact> 0.12168319E+04</totfact>
</mgrwt>
</event>
<event>
 4    1  0.1733772E-004  0.3171082E+03  0.7818608E-02  0.1076988E+00
          1   -1    0    0  501    0  0.00000000000E+00  0.00000000000E+00  0.24626671014E+03  0.24626671014E+03  0.00000000000E+00 0.  1.
         -1   -1    0    0    0  501 -0.00000000000E+00 -0.00000000000E+00 -0.10208201936E+03  0.10208201936E+03  0.00000000000E+00 0.  1.
         25    1    1    2    0    0 -0.74820778241E+02 -0.71676935609E+02  0.74197121461E+02  0.17504555061E+03  0.12000000000E+03 0.  0.
         25    1    1    2    0    0  0.74820778241E+02  0.71676935609E+02  0.69987569312E+02  0.17330317889E+03  0.12000000000E+03 0.  0.
<mgrwt>
<rscale>  0 0.31710820E+03</rscale>
<asrwt>0</asrwt>
<pdfrwt beam="1">  1        1 0.37887186E-01 0.31710820E+03</pdfrwt>
<pdfrwt beam="2">  1       -1 0.15704926E-01 0.31710820E+03</pdfrwt>
<totfact> 0.33609414E+03</totfact>
</mgrwt>
</event>
<event>
 4    1  0.1733772E-004  0.2535453E+03  0.7818608E-02  0.1111085E+00
         -1   -1    0    0    0  501 -0.00000000000E+00  0.00000000000E+00  0.51812355281E+03  0.51812355281E+03  0.00000000000E+00 0.  1.
          1   -1    0    0  501    0  0.00000000000E+00 -0.00000000000E+00 -0.31018296183E+02  0.31018296183E+02  0.00000000000E+00 0.  1.
         25    1    1    2    0    0 -0.33923765962E+01  0.54736929276E+01  0.15611438302E+03  0.19701058377E+03  0.12000000000E+03 0.  0.
         25    1    1    2    0    0  0.33923765962E+01 -0.54736929276E+01  0.33099087362E+03  0.35213126523E+03  0.12000000000E+03 0.  0.
<mgrwt>
<rscale>  0 0.25354534E+03</rscale>
<asrwt>0</asrwt>
<pdfrwt beam="1">  1        1 0.47720459E-02 0.25354534E+03</pdfrwt>
<pdfrwt beam="2">  1       -1 0.79711310E-01 0.25354534E+03</pdfrwt>
<totfact> 0.29040978E+03</totfact>
</mgrwt>
</event>
<event>
 4    1  0.1733772E-004  0.3059916E+03  0.7818608E-02  0.1082283E+00
          2   -1    0    0  501    0  0.00000000000E+00  0.00000000000E+00  0.28449532509E+03  0.28449532509E+03  0.00000000000E+00 0. -1.
         -2   -1    0    0    0  501 -0.00000000000E+00 -0.00000000000E+00 -0.82278025866E+02  0.82278025866E+02  0.00000000000E+00 0. -1.
         25    1    1    2    0    0  0.68252652670E+02  0.15590211257E+02  0.17791730264E+03  0.22573445874E+03  0.12000000000E+03 0.  0.
         25    1    1    2    0    0 -0.68252652670E+02 -0.15590211257E+02  0.24299996582E+02  0.14103889222E+03  0.12000000000E+03 0.  0.
<mgrwt>
<rscale>  0 0.30599159E+03</rscale>
<asrwt>0</asrwt>
<pdfrwt beam="1">  1        2 0.43768511E-01 0.30599159E+03</pdfrwt>
<pdfrwt beam="2">  1       -2 0.12658158E-01 0.30599159E+03</pdfrwt>
<totfact> 0.52394741E+03</totfact>
</mgrwt>
</event>
<event>
 4    1  0.1733772E-004  0.2625801E+03  0.7818608E-02  0.1105603E+00
         -1   -1    0    0    0  501 -0.00000000000E+00  0.00000000000E+00  0.12473408658E+02  0.12473408658E+02  0.00000000000E+00 0. -1.
          1   -1    0    0  501    0  0.00000000000E+00 -0.00000000000E+00 -0.13819059879E+04  0.13819059879E+04  0.00000000000E+00 0. -1.
         25    1    1    2    0    0  0.33617956926E+02 -0.12822397728E+02 -0.89327643888E+03  0.90201850156E+03  0.12000000000E+03 0.  0.
         25    1    1    2    0    0 -0.33617956926E+02  0.12822397728E+02 -0.47615614033E+03  0.49236089496E+03  0.12000000000E+03 0.  0.
<mgrwt>
<rscale>  0 0.26258011E+03</rscale>
<asrwt>0</asrwt>
<pdfrwt beam="1">  1        1 0.21260098E+00 0.26258011E+03</pdfrwt>
<pdfrwt beam="2">  1       -1 0.19189854E-02 0.26258011E+03</pdfrwt>
<totfact> 0.62471823E+03</totfact>
</mgrwt>
</event>
<event>
 4    1  0.1733772E-004  0.3043956E+03  0.7818608E-02  0.1083064E+00
          2   -1    0    0  501    0  0.00000000000E+00  0.00000000000E+00  0.13698700178E+04  0.13698700178E+04  0.00000000000E+00 0.  1.
         -2   -1    0    0    0  501 -0.00000000000E+00 -0.00000000000E+00 -0.16909760008E+02  0.16909760008E+02  0.00000000000E+00 0.  1.
         25    1    1    2    0    0  0.74035240587E+01  0.93095790873E+02  0.64676748577E+03  0.66440185061E+03  0.12000000000E+03 0.  0.
         25    1    1    2    0    0 -0.74035240587E+01 -0.93095790873E+02  0.70619277205E+03  0.72237792723E+03  0.12000000000E+03 0.  0.
<mgrwt>
<rscale>  0 0.30439562E+03</rscale>
<asrwt>0</asrwt>
<pdfrwt beam="1">  1        2 0.21074915E+00 0.30439562E+03</pdfrwt>
<pdfrwt beam="2">  1       -2 0.26015026E-02 0.30439562E+03</pdfrwt>
<totfact> 0.84252233E+03</totfact>
</mgrwt>
</event>
<event>
 4    1  0.1733772E-004  0.2410659E+03  0.7818608E-02  0.1119085E+00
          1   -1    0    0  501    0  0.00000000000E+00  0.00000000000E+00  0.39909595022E+03  0.39909595022E+03  0.00000000000E+00 0.  1.
         -1   -1    0    0    0  501 -0.00000000000E+00 -0.00000000000E+00 -0.36402744818E+02  0.36402744818E+02  0.00000000000E+00 0.  1.
         25    1    1    2    0    0 -0.44970846126E+01 -0.35314606857E+01  0.16369285091E+03  0.20304690203E+03  0.12000000000E+03 0.  0.
         25    1    1    2    0    0  0.44970846126E+01  0.35314606857E+01  0.19900035449E+03  0.23245179301E+03  0.12000000000E+03 0.  0.
<mgrwt>
<rscale>  0 0.24106587E+03</rscale>
<asrwt>0</asrwt>
<pdfrwt beam="1">  1        1 0.61399374E-01 0.24106587E+03</pdfrwt>
<pdfrwt beam="2">  1       -1 0.56004225E-02 0.24106587E+03</pdfrwt>
<totfact> 0.88902307E+03</totfact>
</mgrwt>
</event>
<event>
 4    1  0.1733772E-004  0.2727885E+03  0.7818608E-02  0.1099694E+00
          1   -1    0    0  501    0  0.00000000000E+00  0.00000000000E+00  0.53753384647E+03  0.53753384647E+03  0.00000000000E+00 0.  1.
         -1   -1    0    0    0  501 -0.00000000000E+00 -0.00000000000E+00 -0.34608784738E+02  0.34608784738E+02  0.00000000000E+00 0.  1.
         25    1    1    2    0    0  0.26196108428E+02 -0.58828052813E+02  0.23570876702E+03  0.27222343534E+03  0.12000000000E+03 0.  0.
         25    1    1    2    0    0 -0.26196108428E+02  0.58828052813E+02  0.26721629471E+03  0.29991919587E+03  0.12000000000E+03 0.  0.
<mgrwt>
<rscale>  0 0.27278851E+03</rscale>
<asrwt>0</asrwt>
<pdfrwt beam="1">  1        1 0.82697509E-01 0.27278851E+03</pdfrwt>
<pdfrwt beam="2">  1       -1 0.53244288E-02 0.27278851E+03</pdfrwt>
<totfact> 0.65235300E+03</totfact>
</mgrwt>
</event>
<event>
 4    1  0.1733772E-004  0.3974902E+03  0.7818608E-02  0.1044652E+00
         -4   -1    0    0    0  501 -0.00000000000E+00  0.00000000000E+00  0.13435921227E+03  0.13435921227E+03  0.00000000000E+00 0. -1.
          4   -1    0    0  501    0  0.00000000000E+00 -0.00000000000E+00 -0.29398509166E+03  0.29398509166E+03  0.00000000000E+00 0. -1.
         25    1    1    2    0    0  0.12620218645E+03 -0.93016049668E+02 -0.10440134549E+03  0.22333521509E+03  0.12000000000E+03 0.  0.
         25    1    1    2    0    0 -0.12620218645E+03  0.93016049668E+02 -0.55224533903E+02  0.20500908883E+03  0.12000000000E+03 0.  0.
<mgrwt>
<rscale>  0 0.39749015E+03</rscale>
<asrwt>0</asrwt>
<pdfrwt beam="1">  1        4 0.45228475E-01 0.39749015E+03</pdfrwt>
<pdfrwt beam="2">  1       -4 0.20670648E-01 0.39749015E+03</pdfrwt>
<totfact> 0.19625840E+02</totfact>
</mgrwt>
</event>
<event>
 4    1  0.1733772E-004  0.2472898E+03  0.7818608E-02  0.1115030E+00
         -1   -1    0    0    0  501 -0.00000000000E+00  0.00000000000E+00  0.34682692463E+03  0.34682692463E+03  0.00000000000E+00 0. -1.
          1   -1    0    0  501    0  0.00000000000E+00 -0.00000000000E+00 -0.44079790957E+02  0.44079790957E+02  0.00000000000E+00 0. -1.
         25    1    1    2    0    0  0.28566295358E+02  0.35211836618E+01  0.16357992641E+03  0.20490686735E+03  0.12000000000E+03 0.  0.
         25    1    1    2    0    0 -0.28566295358E+02 -0.35211836618E+01  0.13916720727E+03  0.18599984824E+03  0.12000000000E+03 0.  0.
<mgrwt>
<rscale>  0 0.24728978E+03</rscale>
<asrwt>0</asrwt>
<pdfrwt beam="1">  1        1 0.67815065E-02 0.24728978E+03</pdfrwt>
<pdfrwt beam="2">  1       -1 0.53357987E-01 0.24728978E+03</pdfrwt>
<totfact> 0.39326512E+03</totfact>
</mgrwt>
</event>
<event>
 4    1  0.1733772E-004  0.2713189E+03  0.7818608E-02  0.1100527E+00
         -2   -1    0    0    0  501 -0.00000000000E+00  0.00000000000E+00  0.81480575409E+03  0.81480575409E+03  0.00000000000E+00 0.  1.
          2   -1    0    0  501    0  0.00000000000E+00 -0.00000000000E+00 -0.22586346903E+02  0.22586346903E+02  0.00000000000E+00 0.  1.
         25    1    1    2    0    0  0.26515737898E+01 -0.47582451230E+02  0.52456987964E+03  0.54022650725E+03  0.12000000000E+03 0.  0.
         25    1    1    2    0    0 -0.26515737898E+01  0.47582451230E+02  0.26764952754E+03  0.29716559374E+03  0.12000000000E+03 0.  0.
<mgrwt>
<rscale>  0 0.27131889E+03</rscale>
<asrwt>0</asrwt>
<pdfrwt beam="1">  1        2 0.34748232E-02 0.27131889E+03</pdfrwt>
<pdfrwt beam="2">  1       -2 0.12535471E+00 0.27131889E+03</pdfrwt>
<totfact> 0.12786312E+03</totfact>
</mgrwt>
</event>
<event>
 4    1  0.1733772E-004  0.2763871E+03  0.7818608E-02  0.1097679E+00
          2   -1    0    0  501    0  0.00000000000E+00  0.00000000000E+00  0.38239814077E+03  0.38239814077E+03  0.00000000000E+00 0.  1.
         -2   -1    0    0    0  501 -0.00000000000E+00 -0.00000000000E+00 -0.49941305976E+02  0.49941305976E+02  0.00000000000E+00 0.  1.
         25    1    1    2    0    0  0.68115143963E+02 -0.22582286026E+01  0.15487382302E+03  0.20743836070E+03  0.12000000000E+03 0.  0.
         25    1    1    2    0    0 -0.68115143963E+02  0.22582286026E+01  0.17758301177E+03  0.22490108604E+03  0.12000000000E+03 0.  0.
<mgrwt>
<rscale>  0 0.27638714E+03</rscale>
<asrwt>0</asrwt>
<pdfrwt beam="1">  1        2 0.58830481E-01 0.27638714E+03</pdfrwt>
<pdfrwt beam="2">  1       -2 0.76832781E-02 0.27638714E+03</pdfrwt>
<totfact> 0.83950596E+03</totfact>
</mgrwt>
</event>
<event>
 4    1  0.1733772E-004  0.2442219E+03  0.7818608E-02  0.1117012E+00
         -2   -1    0    0    0  501 -0.00000000000E+00  0.00000000000E+00  0.14499653890E+02  0.14499653890E+02  0.00000000000E+00 0. -1.
          2   -1    0    0  501    0  0.00000000000E+00 -0.00000000000E+00 -0.10283748725E+04  0.10283748725E+04  0.00000000000E+00 0. -1.
         25    1    1    2    0    0  0.47746025426E+01  0.61120951078E+01 -0.41626006218E+03  0.43328119496E+03  0.12000000000E+03 0.  0.
         25    1    1    2    0    0 -0.47746025426E+01 -0.61120951078E+01 -0.59761515647E+03  0.60959333147E+03  0.12000000000E+03 0.  0.
<mgrwt>
<rscale>  0 0.24422186E+03</rscale>
<asrwt>0</asrwt>
<pdfrwt beam="1">  1        2 0.15821151E+00 0.24422186E+03</pdfrwt>
<pdfrwt beam="2">  1       -2 0.22307161E-02 0.24422186E+03</pdfrwt>
<totfact> 0.16460507E+04</totfact>
</mgrwt>
</event>
<event>
 4    1  0.1733772E-004  0.3344343E+03  0.7818608E-02  0.1069192E+00
          2   -1    0    0  501    0  0.00000000000E+00  0.00000000000E+00  0.84247412106E+03  0.84247412106E+03  0.00000000000E+00 0. -1.
         -2   -1    0    0    0  501 -0.00000000000E+00 -0.00000000000E+00 -0.33189829960E+02  0.33189829960E+02  0.00000000000E+00 0. -1.
         25    1    1    2    0    0 -0.66533977121E+02  0.95264071966E+02  0.38443516207E+03  0.41915678135E+03  0.12000000000E+03 0.  0.
         25    1    1    2    0    0  0.66533977121E+02 -0.95264071966E+02  0.42484912903E+03  0.45650716967E+03  0.12000000000E+03 0.  0.
<mgrwt>
<rscale>  0 0.33443429E+03</rscale>
<asrwt>0</asrwt>
<pdfrwt beam="1">  1        2 0.12961139E+00 0.33443429E+03</pdfrwt>
<pdfrwt beam="2">  1       -2 0.51061283E-02 0.33443429E+03</pdfrwt>
<totfact> 0.63115482E+03</totfact>
</mgrwt>
</event>
<event>
 4    1  0.1733772E-004  0.2789438E+03  0.7818608E-02  0.1096267E+00
         -2   -1    0    0    0  501 -0.00000000000E+00  0.00000000000E+00  0.53829500653E+02  0.53829500653E+02  0.00000000000E+00 0. -1.
          2   -1    0    0  501    0  0.00000000000E+00 -0.00000000000E+00 -0.36137088106E+03  0.36137088106E+03  0.00000000000E+00 0. -1.
         25    1    1    2    0    0 -0.24900726449E+02  0.15305692333E+02 -0.57328386499E+02  0.13616480564E+03  0.12000000000E+03 0.  0.
         25    1    1    2    0    0  0.24900726449E+02 -0.15305692333E+02 -0.25021299391E+03  0.27903557608E+03  0.12000000000E+03 0.  0.
<mgrwt>
<rscale>  0 0.27894382E+03</rscale>
<asrwt>0</asrwt>
<pdfrwt beam="1">  1        2 0.55595521E-01 0.27894382E+03</pdfrwt>
<pdfrwt beam="2">  1       -2 0.82814616E-02 0.27894382E+03</pdfrwt>
<totfact> 0.79412941E+03</totfact>
</mgrwt>
</event>
<event>
 4    1  0.1733772E-004  0.2507257E+03  0.7818608E-02  0.1112847E+00
          1   -1    0    0  501    0  0.00000000000E+00  0.00000000000E+00  0.53001818985E+03  0.53001818985E+03  0.00000000000E+00 0.  1.
         -1   -1    0    0    0  501 -0.00000000000E+00 -0.00000000000E+00 -0.29651509633E+02  0.29651509633E+02  0.00000000000E+00 0.  1.
         25    1    1    2    0    0 -0.29641462763E+02  0.20519166470E+02  0.24120252861E+03  0.27180565174E+03  0.12000000000E+03 0.  0.
         25    1    1    2    0    0  0.29641462763E+02 -0.20519166470E+02  0.25916415160E+03  0.28786404774E+03  0.12000000000E+03 0.  0.
<mgrwt>
<rscale>  0 0.25072566E+03</rscale>
<asrwt>0</asrwt>
<pdfrwt beam="1">  1        1 0.81541253E-01 0.25072566E+03</pdfrwt>
<pdfrwt beam="2">  1       -1 0.45617711E-02 0.25072566E+03</pdfrwt>
<totfact> 0.83538269E+03</totfact>
</mgrwt>
</event>
<event>
 4    1  0.1733772E-004  0.2926938E+03  0.7818608E-02  0.1088951E+00
         -1   -1    0    0    0  501 -0.00000000000E+00  0.00000000000E+00  0.39730048374E+03  0.39730048374E+03  0.00000000000E+00 0. -1.
          1   -1    0    0  501    0  0.00000000000E+00 -0.00000000000E+00 -0.53907360947E+02  0.53907360947E+02  0.00000000000E+00 0. -1.
         25    1    1    2    0    0 -0.70154008881E+02  0.38161972093E+02  0.21068027158E+03  0.25527259530E+03  0.12000000000E+03 0.  0.
         25    1    1    2    0    0  0.70154008881E+02 -0.38161972093E+02  0.13271285121E+03  0.19593524939E+03  0.12000000000E+03 0.  0.
<mgrwt>
<rscale>  0 0.29269384E+03</rscale>
<asrwt>0</asrwt>
<pdfrwt beam="1">  1        1 0.82934404E-02 0.29269384E+03</pdfrwt>
<pdfrwt beam="2">  1       -1 0.61123149E-01 0.29269384E+03</pdfrwt>
<totfact> 0.23189447E+03</totfact>
</mgrwt>
</event>
<event>
 4    1  0.1733772E-004  0.2965154E+03  0.7818608E-02  0.1086996E+00
         -2   -1    0    0    0  501 -0.00000000000E+00  0.00000000000E+00  0.33979446217E+02  0.33979446217E+02  0.00000000000E+00 0. -1.
          2   -1    0    0  501    0  0.00000000000E+00 -0.00000000000E+00 -0.64687177449E+03  0.64687177449E+03  0.00000000000E+00 0. -1.
         25    1    1    2    0    0  0.33155155886E+02  0.66266741617E+02 -0.20147808217E+03  0.24593487553E+03  0.12000000000E+03 0.  0.
         25    1    1    2    0    0 -0.33155155886E+02 -0.66266741617E+02 -0.41141424610E+03  0.43491634518E+03  0.12000000000E+03 0.  0.
<mgrwt>
<rscale>  0 0.29651539E+03</rscale>
<asrwt>0</asrwt>
<pdfrwt beam="1">  1        2 0.99518727E-01 0.29651539E+03</pdfrwt>
<pdfrwt beam="2">  1       -2 0.52276075E-02 0.29651539E+03</pdfrwt>
<totfact> 0.84339180E+03</totfact>
</mgrwt>
</event>
<event>
 4    1  0.1733772E-004  0.3775548E+03  0.7818608E-02  0.1051841E+00
         -2   -1    0    0    0  501 -0.00000000000E+00  0.00000000000E+00  0.19002365426E+03  0.19002365426E+03  0.00000000000E+00 0. -1.
          2   -1    0    0  501    0  0.00000000000E+00 -0.00000000000E+00 -0.18753936435E+03  0.18753936435E+03  0.00000000000E+00 0. -1.
         25    1    1    2    0    0 -0.11033090045E+03  0.72922711984E+02  0.62450379785E+02  0.18918424737E+03  0.12000000000E+03 0.  0.
         25    1    1    2    0    0  0.11033090045E+03 -0.72922711984E+02 -0.59966089875E+02  0.18837877124E+03  0.12000000000E+03 0.  0.
<mgrwt>
<rscale>  0 0.37755485E+03</rscale>
<asrwt>0</asrwt>
<pdfrwt beam="1">  1        2 0.28852210E-01 0.37755485E+03</pdfrwt>
<pdfrwt beam="2">  1       -2 0.29234408E-01 0.37755485E+03</pdfrwt>
<totfact> 0.19755586E+03</totfact>
</mgrwt>
</event>
<event>
 4    1  0.1733772E-004  0.3009635E+03  0.7818608E-02  0.1084760E+00
          1   -1    0    0  501    0  0.00000000000E+00  0.00000000000E+00  0.25989736002E+03  0.25989736002E+03  0.00000000000E+00 0. -1.
         -1   -1    0    0    0  501 -0.00000000000E+00 -0.00000000000E+00 -0.87129628233E+02  0.87129628233E+02  0.00000000000E+00 0. -1.
         25    1    1    2    0    0  0.86285606557E+01 -0.88040027059E+02  0.10999365498E+03  0.18526765114E+03  0.12000000000E+03 0.  0.
         25    1    1    2    0    0 -0.86285606557E+01  0.88040027059E+02  0.62774076806E+02  0.16175933711E+03  0.12000000000E+03 0.  0.
<mgrwt>
<rscale>  0 0.30096352E+03</rscale>
<asrwt>0</asrwt>
<pdfrwt beam="1">  1        1 0.39984209E-01 0.30096352E+03</pdfrwt>
<pdfrwt beam="2">  1       -1 0.13404558E-01 0.30096352E+03</pdfrwt>
<totfact> 0.40334801E+03</totfact>
</mgrwt>
</event>
<event>
 4    1  0.1733772E-004  0.2642548E+03  0.7818608E-02  0.1104613E+00
          2   -1    0    0  501    0  0.00000000000E+00  0.00000000000E+00  0.67162594925E+03  0.67162594925E+03  0.00000000000E+00 0. -1.
         -2   -1    0    0    0  501 -0.00000000000E+00 -0.00000000000E+00 -0.25993110161E+02  0.25993110161E+02  0.00000000000E+00 0. -1.
         25    1    1    2    0    0  0.53412910060E+02  0.14305354478E+02  0.32349029499E+03  0.34943318829E+03  0.12000000000E+03 0.  0.
         25    1    1    2    0    0 -0.53412910060E+02 -0.14305354478E+02  0.32214254410E+03  0.34818587112E+03  0.12000000000E+03 0.  0.
<mgrwt>
<rscale>  0 0.26425478E+03</rscale>
<asrwt>0</asrwt>
<pdfrwt beam="1">  1        2 0.10332706E+00 0.26425478E+03</pdfrwt>
<pdfrwt beam="2">  1       -2 0.39989405E-02 0.26425478E+03</pdfrwt>
<totfact> 0.12050588E+04</totfact>
</mgrwt>
</event>
<event>
 4    1  0.1733772E-004  0.2843019E+03  0.7818608E-02  0.1093362E+00
          1   -1    0    0  501    0  0.00000000000E+00  0.00000000000E+00  0.20199768433E+04  0.20199768433E+04  0.00000000000E+00 0. -1.
         -1   -1    0    0    0  501 -0.00000000000E+00 -0.00000000000E+00 -0.10003524144E+02  0.10003524144E+02  0.00000000000E+00 0. -1.
         25    1    1    2    0    0 -0.13437794931E+02 -0.22212151994E+02  0.15165447246E+04  0.15215064429E+04  0.12000000000E+03 0.  0.
         25    1    1    2    0    0  0.13437794931E+02  0.22212151994E+02  0.49342859450E+03  0.50847392450E+03  0.12000000000E+03 0.  0.
<mgrwt>
<rscale>  0 0.28430186E+03</rscale>
<asrwt>0</asrwt>
<pdfrwt beam="1">  1        1 0.31076534E+00 0.28430186E+03</pdfrwt>
<pdfrwt beam="2">  1       -1 0.15390053E-02 0.28430186E+03</pdfrwt>
<totfact> 0.32916909E+03</totfact>
</mgrwt>
</event>
<event>
 4    1  0.1733772E-004  0.3333072E+03  0.7818608E-02  0.1069683E+00
         -3   -1    0    0    0  501 -0.00000000000E+00  0.00000000000E+00  0.27515295401E+03  0.27515295401E+03  0.00000000000E+00 0. -1.
          3   -1    0    0  501    0  0.00000000000E+00 -0.00000000000E+00 -0.10093810643E+03  0.10093810643E+03  0.00000000000E+00 0. -1.
         25    1    1    2    0    0 -0.15999224942E+02 -0.80330568956E+02 -0.50075569908E+01  0.14537555205E+03  0.12000000000E+03 0.  0.
         25    1    1    2    0    0  0.15999224942E+02  0.80330568956E+02  0.17922240457E+03  0.23071550838E+03  0.12000000000E+03 0.  0.
<mgrwt>
<rscale>  0 0.33330717E+03</rscale>
<asrwt>0</asrwt>
<pdfrwt beam="1">  1        3 0.15528940E-01 0.33330717E+03</pdfrwt>
<pdfrwt beam="2">  1       -3 0.42331223E-01 0.33330717E+03</pdfrwt>
<totfact> 0.50210238E+02</totfact>
</mgrwt>
</event>
<event>
 4    1  0.1733772E-004  0.2445735E+03  0.7818608E-02  0.1116783E+00
          3   -1    0    0  501    0  0.00000000000E+00  0.00000000000E+00  0.21323080105E+03  0.21323080105E+03  0.00000000000E+00 0. -1.
         -3   -1    0    0    0  501 -0.00000000000E+00 -0.00000000000E+00 -0.70130816044E+02  0.70130816044E+02  0.00000000000E+00 0. -1.
         25    1    1    2    0    0 -0.13916082691E+02 -0.12374606017E+02  0.88229810130E+02  0.15010425586E+03  0.12000000000E+03 0.  0.
         25    1    1    2    0    0  0.13916082691E+02  0.12374606017E+02  0.54870174873E+02  0.13325736123E+03  0.12000000000E+03 0.  0.
<mgrwt>
<rscale>  0 0.24457351E+03</rscale>
<asrwt>0</asrwt>
<pdfrwt beam="1">  1        3 0.32804738E-01 0.24457351E+03</pdfrwt>
<pdfrwt beam="2">  1       -3 0.10789356E-01 0.24457351E+03</pdfrwt>
<totfact> 0.14812860E+03</totfact>
</mgrwt>
</event>
<event>
 4    1  0.1733772E-004  0.2449360E+03  0.7818608E-02  0.1116548E+00
         -1   -1    0    0    0  501 -0.00000000000E+00  0.00000000000E+00  0.41020143705E+02  0.41020143705E+02  0.00000000000E+00 0. -1.
          1   -1    0    0  501    0  0.00000000000E+00 -0.00000000000E+00 -0.36563540097E+03  0.36563540097E+03  0.00000000000E+00 0. -1.
         25    1    1    2    0    0 -0.20366679844E+02 -0.15248121105E+01 -0.18466192011E+03  0.22117222121E+03  0.12000000000E+03 0.  0.
         25    1    1    2    0    0  0.20366679844E+02  0.15248121105E+01 -0.13995333716E+03  0.18548332346E+03  0.12000000000E+03 0.  0.
<mgrwt>
<rscale>  0 0.24493605E+03</rscale>
<asrwt>0</asrwt>
<pdfrwt beam="1">  1        1 0.56251600E-01 0.24493605E+03</pdfrwt>
<pdfrwt beam="2">  1       -1 0.63107913E-02 0.24493605E+03</pdfrwt>
<totfact> 0.83100335E+03</totfact>
</mgrwt>
</event>
<event>
 4    1  0.1733772E-004  0.3284487E+03  0.7818608E-02  0.1071825E+00
         -1   -1    0    0    0  501 -0.00000000000E+00  0.00000000000E+00  0.46765025724E+03  0.46765025724E+03  0.00000000000E+00 0. -1.
          1   -1    0    0  501    0  0.00000000000E+00 -0.00000000000E+00 -0.57670532807E+02  0.57670532807E+02  0.00000000000E+00 0. -1.
         25    1    1    2    0    0 -0.34552460971E+02  0.10232143337E+03  0.15684577217E+03  0.22508697104E+03  0.12000000000E+03 0.  0.
         25    1    1    2    0    0  0.34552460971E+02 -0.10232143337E+03  0.25313395226E+03  0.30023381900E+03  0.12000000000E+03 0.  0.
<mgrwt>
<rscale>  0 0.32844871E+03</rscale>
<asrwt>0</asrwt>
<pdfrwt beam="1">  1        1 0.88723900E-02 0.32844871E+03</pdfrwt>
<pdfrwt beam="2">  1       -1 0.71946191E-01 0.32844871E+03</pdfrwt>
<totfact> 0.15351702E+03</totfact>
</mgrwt>
</event>
<event>
 4    1  0.1733772E-004  0.2508055E+03  0.7818608E-02  0.1112797E+00
          2   -1    0    0  501    0  0.00000000000E+00  0.00000000000E+00  0.80628424651E+03  0.80628424651E+03  0.00000000000E+00 0.  1.
         -2   -1    0    0    0  501 -0.00000000000E+00 -0.00000000000E+00 -0.19504100974E+02  0.19504100974E+02  0.00000000000E+00 0.  1.
         25    1    1    2    0    0  0.36217295789E+02 -0.23253764518E+01  0.38365089002E+03  0.40361504593E+03  0.12000000000E+03 0.  0.
         25    1    1    2    0    0 -0.36217295789E+02  0.23253764518E+01  0.40312925551E+03  0.42217330155E+03  0.12000000000E+03 0.  0.
<mgrwt>
<rscale>  0 0.25080550E+03</rscale>
<asrwt>0</asrwt>
<pdfrwt beam="1">  1        2 0.12404370E+00 0.25080550E+03</pdfrwt>
<pdfrwt beam="2">  1       -2 0.30006315E-02 0.25080550E+03</pdfrwt>
<totfact> 0.14743411E+04</totfact>
</mgrwt>
</event>
<event>
 4    1  0.1733772E-004  0.2777175E+03  0.7818608E-02  0.1096942E+00
          1   -1    0    0  501    0  0.00000000000E+00  0.00000000000E+00  0.14457963745E+04  0.14457963745E+04  0.00000000000E+00 0.  1.
         -1   -1    0    0    0  501 -0.00000000000E+00 -0.00000000000E+00 -0.13336425124E+02  0.13336425124E+02  0.00000000000E+00 0.  1.
         25    1    1    2    0    0 -0.97847282237E+01 -0.39725161797E+02  0.41865000577E+03  0.43742617288E+03  0.12000000000E+03 0.  0.
         25    1    1    2    0    0  0.97847282237E+01  0.39725161797E+02  0.10138099436E+04  0.10217066268E+04  0.12000000000E+03 0.  0.
<mgrwt>
<rscale>  0 0.27771752E+03</rscale>
<asrwt>0</asrwt>
<pdfrwt beam="1">  1        1 0.22243009E+00 0.27771752E+03</pdfrwt>
<pdfrwt beam="2">  1       -1 0.20517589E-02 0.27771752E+03</pdfrwt>
<totfact> 0.51370210E+03</totfact>
</mgrwt>
</event>
<event>
 4    1  0.1733772E-004  0.3527898E+03  0.7818608E-02  0.1061476E+00
         -2   -1    0    0    0  501 -0.00000000000E+00  0.00000000000E+00  0.56211346150E+02  0.56211346150E+02  0.00000000000E+00 0. -1.
          2   -1    0    0  501    0  0.00000000000E+00 -0.00000000000E+00 -0.55353863691E+03  0.55353863691E+03  0.00000000000E+00 0. -1.
         25    1    1    2    0    0  0.11230722543E+03  0.27844214835E+02 -0.34835517061E+03  0.38618588539E+03  0.12000000000E+03 0.  0.
         25    1    1    2    0    0 -0.11230722543E+03 -0.27844214835E+02 -0.14897212015E+03  0.22356409767E+03  0.12000000000E+03 0.  0.
<mgrwt>
<rscale>  0 0.35278975E+03</rscale>
<asrwt>0</asrwt>
<pdfrwt beam="1">  1        2 0.85159795E-01 0.35278975E+03</pdfrwt>
<pdfrwt beam="2">  1       -2 0.86478990E-02 0.35278975E+03</pdfrwt>
<totfact> 0.46530110E+03</totfact>
</mgrwt>
</event>
<event>
 4    1  0.1733772E-004  0.2949929E+03  0.7818608E-02  0.1087771E+00
          2   -1    0    0  501    0  0.00000000000E+00  0.00000000000E+00  0.12492507445E+04  0.12492507445E+04  0.00000000000E+00 0.  1.
         -2   -1    0    0    0  501 -0.00000000000E+00 -0.00000000000E+00 -0.17414597976E+02  0.17414597976E+02  0.00000000000E+00 0.  1.
         25    1    1    2    0    0  0.74215050205E+02  0.76322819705E+01  0.43429771866E+03  0.45670628837E+03  0.12000000000E+03 0.  0.
         25    1    1    2    0    0 -0.74215050205E+02 -0.76322819705E+01  0.79753842786E+03  0.80995905410E+03  0.12000000000E+03 0.  0.
<mgrwt>
<rscale>  0 0.29499288E+03</rscale>
<asrwt>0</asrwt>
<pdfrwt beam="1">  1        2 0.19219235E+00 0.29499288E+03</pdfrwt>
<pdfrwt beam="2">  1       -2 0.26791699E-02 0.29499288E+03</pdfrwt>
<totfact> 0.94031740E+03</totfact>
</mgrwt>
</event>
<event>
 4    1  0.1733772E-004  0.2872189E+03  0.7818608E-02  0.1091810E+00
         -2   -1    0    0    0  501 -0.00000000000E+00  0.00000000000E+00  0.42963960894E+03  0.42963960894E+03  0.00000000000E+00 0.  1.
          2   -1    0    0  501    0  0.00000000000E+00 -0.00000000000E+00 -0.48002254662E+02  0.48002254662E+02  0.00000000000E+00 0.  1.
         25    1    1    2    0    0 -0.72633742799E+02 -0.30778592805E+02  0.18943974591E+03  0.23771916140E+03  0.12000000000E+03 0.  0.
         25    1    1    2    0    0  0.72633742799E+02  0.30778592805E+02  0.19219760837E+03  0.23992270220E+03  0.12000000000E+03 0.  0.
<mgrwt>
<rscale>  0 0.28721887E+03</rscale>
<asrwt>0</asrwt>
<pdfrwt beam="1">  1        2 0.73849625E-02 0.28721887E+03</pdfrwt>
<pdfrwt beam="2">  1       -2 0.66098399E-01 0.28721887E+03</pdfrwt>
<totfact> 0.20316165E+03</totfact>
</mgrwt>
</event>
<event>
 4    1  0.1733772E-004  0.3203163E+03  0.7818608E-02  0.1075504E+00
         -3   -1    0    0    0  501 -0.00000000000E+00  0.00000000000E+00  0.29338384260E+02  0.29338384260E+02  0.00000000000E+00 0. -1.
          3   -1    0    0  501    0  0.00000000000E+00 -0.00000000000E+00 -0.87430267108E+03  0.87430267108E+03  0.00000000000E+00 0. -1.
         25    1    1    2    0    0  0.25695657287E+02  0.10168559868E+03 -0.37784112733E+03  0.41007821849E+03  0.12000000000E+03 0.  0.
         25    1    1    2    0    0 -0.25695657287E+02 -0.10168559868E+03 -0.46712315949E+03  0.49356283685E+03  0.12000000000E+03 0.  0.
<mgrwt>
<rscale>  0 0.32031627E+03</rscale>
<asrwt>0</asrwt>
<pdfrwt beam="1">  1        3 0.13450811E+00 0.32031627E+03</pdfrwt>
<pdfrwt beam="2">  1       -3 0.45135974E-02 0.32031627E+03</pdfrwt>
<totfact> 0.30941948E+02</totfact>
</mgrwt>
</event>
<event>
 4    1  0.1733772E-004  0.4726136E+03  0.7818608E-02  0.1021185E+00
         -2   -1    0    0    0  501 -0.00000000000E+00  0.00000000000E+00  0.29220760601E+03  0.29220760601E+03  0.00000000000E+00 0. -1.
          2   -1    0    0  501    0  0.00000000000E+00 -0.00000000000E+00 -0.19110009746E+03  0.19110009746E+03  0.00000000000E+00 0. -1.
         25    1    1    2    0    0 -0.27938350889E+02 -0.26762474112E+01 -0.15563492408E+03  0.19851937776E+03  0.12000000000E+03 0.  0.
         25    1    1    2    0    0  0.27938350889E+02  0.26762474112E+01  0.25674243263E+03  0.28478832572E+03  0.12000000000E+03 0.  0.
<mgrwt>
<rscale>  0 0.47261359E+03</rscale>
<asrwt>0</asrwt>
<pdfrwt beam="1">  1        2 0.29400015E-01 0.47261359E+03</pdfrwt>
<pdfrwt beam="2">  1       -2 0.44955016E-01 0.47261359E+03</pdfrwt>
<totfact> 0.85702332E+02</totfact>
</mgrwt>
</event>
<event>
 4    1  0.1733772E-004  0.2836346E+03  0.7818608E-02  0.1093720E+00
          1   -1    0    0  501    0  0.00000000000E+00  0.00000000000E+00  0.12785202102E+04  0.12785202102E+04  0.00000000000E+00 0. -1.
         -1   -1    0    0    0  501 -0.00000000000E+00 -0.00000000000E+00 -0.15730805588E+02  0.15730805588E+02  0.00000000000E+00 0. -1.
         25    1    1    2    0    0  0.41285845060E+02 -0.32737312501E+02  0.38414835457E+03  0.40588940729E+03  0.12000000000E+03 0.  0.
         25    1    1    2    0    0 -0.41285845060E+02  0.32737312501E+02  0.87864105006E+03  0.88836160851E+03  0.12000000000E+03 0.  0.
<mgrwt>
<rscale>  0 0.28363464E+03</rscale>
<asrwt>0</asrwt>
<pdfrwt beam="1">  1        1 0.19669533E+00 0.28363464E+03</pdfrwt>
<pdfrwt beam="2">  1       -1 0.24201249E-02 0.28363464E+03</pdfrwt>
<totfact> 0.52342848E+03</totfact>
</mgrwt>
</event>
<event>
 4    1  0.1733772E-004  0.2661217E+03  0.7818608E-02  0.1103520E+00
          1   -1    0    0  501    0  0.00000000000E+00  0.00000000000E+00  0.29081199110E+03  0.29081199110E+03  0.00000000000E+00 0. -1.
         -1   -1    0    0    0  501 -0.00000000000E+00 -0.00000000000E+00 -0.60881923219E+02  0.60881923219E+02  0.00000000000E+00 0. -1.
         25    1    1    2    0    0  0.38493898251E+02  0.42652899872E+02  0.11765504910E+03  0.17760563237E+03  0.12000000000E+03 0.  0.
         25    1    1    2    0    0 -0.38493898251E+02 -0.42652899872E+02  0.11227501878E+03  0.17408828195E+03  0.12000000000E+03 0.  0.
<mgrwt>
<rscale>  0 0.26612173E+03</rscale>
<asrwt>0</asrwt>
<pdfrwt beam="1">  1        1 0.44740306E-01 0.26612173E+03</pdfrwt>
<pdfrwt beam="2">  1       -1 0.93664499E-02 0.26612173E+03</pdfrwt>
<totfact> 0.60984368E+03</totfact>
</mgrwt>
</event>
<event>
 4    1  0.1733772E-004  0.8835106E+03  0.7818608E-02  0.9446432E-01
         -2   -1    0    0    0  501 -0.00000000000E+00  0.00000000000E+00  0.54507602269E+03  0.54507602269E+03  0.00000000000E+00 0.  1.
          2   -1    0    0  501    0  0.00000000000E+00 -0.00000000000E+00 -0.35801932874E+03  0.35801932874E+03  0.00000000000E+00 0.  1.
         25    1    1    2    0    0 -0.18575691745E+03 -0.38163271041E+03  0.11853686247E+03  0.45672764948E+03  0.12000000000E+03 0.  0.
         25    1    1    2    0    0  0.18575691745E+03  0.38163271041E+03  0.68519831481E+02  0.44636770195E+03  0.12000000000E+03 0.  0.
<mgrwt>
<rscale>  0 0.88351062E+03</rscale>
<asrwt>0</asrwt>
<pdfrwt beam="1">  1        2 0.55079897E-01 0.88351062E+03</pdfrwt>
<pdfrwt beam="2">  1       -2 0.83857850E-01 0.88351062E+03</pdfrwt>
<totfact> 0.11245463E+02</totfact>
</mgrwt>
</event>
<event>
 4    1  0.1733772E-004  0.2987902E+03  0.7818608E-02  0.1085847E+00
          2   -1    0    0  501    0  0.00000000000E+00  0.00000000000E+00  0.73354591023E+03  0.73354591023E+03  0.00000000000E+00 0.  1.
         -2   -1    0    0    0  501 -0.00000000000E+00 -0.00000000000E+00 -0.30426028276E+02  0.30426028276E+02  0.00000000000E+00 0.  1.
         25    1    1    2    0    0  0.63566931144E+02  0.17040486678E+02  0.19840798089E+03  0.24103290191E+03  0.12000000000E+03 0.  0.
         25    1    1    2    0    0 -0.63566931144E+02 -0.17040486678E+02  0.50471190107E+03  0.52293903661E+03  0.12000000000E+03 0.  0.
<mgrwt>
<rscale>  0 0.29879015E+03</rscale>
<asrwt>0</asrwt>
<pdfrwt beam="1">  1        2 0.11285320E+00 0.29879015E+03</pdfrwt>
<pdfrwt beam="2">  1       -2 0.46809280E-02 0.29879015E+03</pdfrwt>
<totfact> 0.85698087E+03</totfact>
</mgrwt>
</event>
<event>
 4    1  0.1733772E-004  0.2929272E+03  0.7818608E-02  0.1088831E+00
          3   -1    0    0  501    0  0.00000000000E+00  0.00000000000E+00  0.38433958953E+02  0.38433958953E+02  0.00000000000E+00 0.  1.
         -3   -1    0    0    0  501 -0.00000000000E+00 -0.00000000000E+00 -0.55814156900E+03  0.55814156900E+03  0.00000000000E+00 0.  1.
         25    1    1    2    0    0  0.45274261473E+00 -0.70998422263E+02 -0.35117456716E+03  0.37784197432E+03  0.12000000000E+03 0.  0.
         25    1    1    2    0    0 -0.45274261473E+00  0.70998422263E+02 -0.16853304289E+03  0.21873355364E+03  0.12000000000E+03 0.  0.
<mgrwt>
<rscale>  0 0.29292723E+03</rscale>
<asrwt>0</asrwt>
<pdfrwt beam="1">  1        3 0.59129167E-02 0.29292723E+03</pdfrwt>
<pdfrwt beam="2">  1       -3 0.85867935E-01 0.29292723E+03</pdfrwt>
<totfact> 0.56755075E+02</totfact>
</mgrwt>
</event>
<event>
 4    1  0.1733772E-004  0.2545077E+03  0.7818608E-02  0.1110489E+00
          1   -1    0    0  501    0  0.00000000000E+00  0.00000000000E+00  0.97148142023E+02  0.97148142023E+02  0.00000000000E+00 0. -1.
         -1   -1    0    0    0  501 -0.00000000000E+00 -0.00000000000E+00 -0.16668917381E+03  0.16668917381E+03  0.00000000000E+00 0. -1.
         25    1    1    2    0    0  0.30922823501E+02 -0.93154085533E+01 -0.63170875753E+02  0.13940429474E+03  0.12000000000E+03 0.  0.
         25    1    1    2    0    0 -0.30922823501E+02  0.93154085533E+01 -0.63701560365E+01  0.12443302109E+03  0.12000000000E+03 0.  0.
<mgrwt>
<rscale>  0 0.25450771E+03</rscale>
<asrwt>0</asrwt>
<pdfrwt beam="1">  1        1 0.14945868E-01 0.25450771E+03</pdfrwt>
<pdfrwt beam="2">  1       -1 0.25644488E-01 0.25450771E+03</pdfrwt>
<totfact> 0.49421947E+03</totfact>
</mgrwt>
</event>
<event>
 4    1  0.1733772E-004  0.2985583E+03  0.7818608E-02  0.1085964E+00
          1   -1    0    0  501    0  0.00000000000E+00  0.00000000000E+00  0.19560316025E+03  0.19560316025E+03  0.00000000000E+00 0. -1.
         -1   -1    0    0    0  501 -0.00000000000E+00 -0.00000000000E+00 -0.11392586952E+03  0.11392586952E+03  0.00000000000E+00 0. -1.
         25    1    1    2    0    0 -0.49034580925E+02  0.65437643809E+02  0.49578821342E+01  0.14529644163E+03  0.12000000000E+03 0.  0.
         25    1    1    2    0    0  0.49034580925E+02 -0.65437643809E+02  0.76719408589E+02  0.16423258814E+03  0.12000000000E+03 0.  0.
<mgrwt>
<rscale>  0 0.29855827E+03</rscale>
<asrwt>0</asrwt>
<pdfrwt beam="1">  1        1 0.30092794E-01 0.29855827E+03</pdfrwt>
<pdfrwt beam="2">  1       -1 0.17527057E-01 0.29855827E+03</pdfrwt>
<totfact> 0.37642277E+03</totfact>
</mgrwt>
</event>
<event>
 4    1  0.1733772E-004  0.2614410E+03  0.7818608E-02  0.1106281E+00
         -2   -1    0    0    0  501 -0.00000000000E+00  0.00000000000E+00  0.77953143542E+01  0.77953143542E+01  0.00000000000E+00 0.  1.
          2   -1    0    0  501    0  0.00000000000E+00 -0.00000000000E+00 -0.21920664659E+04  0.21920664659E+04  0.00000000000E+00 0.  1.
         25    1    1    2    0    0  0.27602343732E+02  0.40008519183E+02 -0.94037887818E+03  0.94924970662E+03  0.12000000000E+03 0.  0.
         25    1    1    2    0    0 -0.27602343732E+02 -0.40008519183E+02 -0.12438922734E+04  0.12506120737E+04  0.12000000000E+03 0.  0.
<mgrwt>
<rscale>  0 0.26144099E+03</rscale>
<asrwt>0</asrwt>
<pdfrwt beam="1">  1        2 0.33724128E+00 0.26144099E+03</pdfrwt>
<pdfrwt beam="2">  1       -2 0.11992781E-02 0.26144099E+03</pdfrwt>
<totfact> 0.96147567E+03</totfact>
</mgrwt>
</event>
<event>
 4    1  0.1733772E-004  0.2498297E+03  0.7818608E-02  0.1113413E+00
          1   -1    0    0  501    0  0.00000000000E+00  0.00000000000E+00  0.58425733311E+03  0.58425733311E+03  0.00000000000E+00 0. -1.
         -1   -1    0    0    0  501 -0.00000000000E+00 -0.00000000000E+00 -0.26706926238E+02  0.26706926238E+02  0.00000000000E+00 0. -1.
         25    1    1    2    0    0  0.24615159029E+02  0.22998115674E+02  0.25847616538E+03  0.28695774505E+03  0.12000000000E+03 0.  0.
         25    1    1    2    0    0 -0.24615159029E+02 -0.22998115674E+02  0.29907424150E+03  0.32400651429E+03  0.12000000000E+03 0.  0.
<mgrwt>
<rscale>  0 0.24982968E+03</rscale>
<asrwt>0</asrwt>
<pdfrwt beam="1">  1        1 0.89885734E-01 0.24982968E+03</pdfrwt>
<pdfrwt beam="2">  1       -1 0.41087583E-02 0.24982968E+03</pdfrwt>
<totfact> 0.85498995E+03</totfact>
</mgrwt>
</event>
<event>
 4    1  0.1733772E-004  0.3446190E+03  0.7818608E-02  0.1064846E+00
         -1   -1    0    0    0  501 -0.00000000000E+00  0.00000000000E+00  0.21348294119E+03  0.21348294119E+03  0.00000000000E+00 0. -1.
          1   -1    0    0  501    0  0.00000000000E+00 -0.00000000000E+00 -0.13907696918E+03  0.13907696918E+03  0.00000000000E+00 0. -1.
         25    1    1    2    0    0  0.66199340866E+02  0.95953874066E+02  0.79397284778E+02  0.18518484687E+03  0.12000000000E+03 0.  0.
         25    1    1    2    0    0 -0.66199340866E+02 -0.95953874066E+02 -0.49913127635E+01  0.16737506350E+03  0.12000000000E+03 0.  0.
<mgrwt>
<rscale>  0 0.34461898E+03</rscale>
<asrwt>0</asrwt>
<pdfrwt beam="1">  1        1 0.21396457E-01 0.34461898E+03</pdfrwt>
<pdfrwt beam="2">  1       -1 0.32843529E-01 0.34461898E+03</pdfrwt>
<totfact> 0.20507204E+03</totfact>
</mgrwt>
</event>
<event>
 4    1  0.1733772E-004  0.2634530E+03  0.7818608E-02  0.1105086E+00
          1   -1    0    0  501    0  0.00000000000E+00  0.00000000000E+00  0.37896387105E+03  0.37896387105E+03  0.00000000000E+00 0.  1.
         -1   -1    0    0    0  501 -0.00000000000E+00 -0.00000000000E+00 -0.45787655837E+02  0.45787655837E+02  0.00000000000E+00 0.  1.
         25    1    1    2    0    0 -0.37450974326E+02 -0.30543486761E+02  0.12656058935E+03  0.18097807281E+03  0.12000000000E+03 0.  0.
         25    1    1    2    0    0  0.37450974326E+02  0.30543486761E+02  0.20661562586E+03  0.24377345407E+03  0.12000000000E+03 0.  0.
<mgrwt>
<rscale>  0 0.26345297E+03</rscale>
<asrwt>0</asrwt>
<pdfrwt beam="1">  1        1 0.58302132E-01 0.26345297E+03</pdfrwt>
<pdfrwt beam="2">  1       -1 0.70442550E-02 0.26345297E+03</pdfrwt>
<totfact> 0.67426241E+03</totfact>
</mgrwt>
</event>
<event>
 4    1  0.1733772E-004  0.3092730E+03  0.7818608E-02  0.1080695E+00
          2   -1    0    0  501    0  0.00000000000E+00  0.00000000000E+00  0.30023729327E+03  0.30023729327E+03  0.00000000000E+00 0. -1.
         -2   -1    0    0    0  501 -0.00000000000E+00 -0.00000000000E+00 -0.79645159772E+02  0.79645159772E+02  0.00000000000E+00 0. -1.
         25    1    1    2    0    0  0.60257453079E+02 -0.44666636298E+02  0.33722345399E+02  0.14547599675E+03  0.12000000000E+03 0.  0.
         25    1    1    2    0    0 -0.60257453079E+02  0.44666636298E+02  0.18686978810E+03  0.23440645630E+03  0.12000000000E+03 0.  0.
<mgrwt>
<rscale>  0 0.30927300E+03</rscale>
<asrwt>0</asrwt>
<pdfrwt beam="1">  1        2 0.46190352E-01 0.30927300E+03</pdfrwt>
<pdfrwt beam="2">  1       -2 0.12253102E-01 0.30927300E+03</pdfrwt>
<totfact> 0.52134277E+03</totfact>
</mgrwt>
</event>
<event>
 4    1  0.1733772E-004  0.2958136E+03  0.7818608E-02  0.1087352E+00
          1   -1    0    0  501    0  0.00000000000E+00  0.00000000000E+00  0.48062057866E+03  0.48062057866E+03  0.00000000000E+00 0.  1.
         -1   -1    0    0    0  501 -0.00000000000E+00 -0.00000000000E+00 -0.45517018026E+02  0.45517018026E+02  0.00000000000E+00 0.  1.
         25    1    1    2    0    0  0.75789515103E+02  0.40944876336E+02  0.23084766999E+03  0.27406419000E+03  0.12000000000E+03 0.  0.
         25    1    1    2    0    0 -0.75789515103E+02 -0.40944876336E+02  0.20425589063E+03  0.25207340668E+03  0.12000000000E+03 0.  0.
<mgrwt>
<rscale>  0 0.29581356E+03</rscale>
<asrwt>0</asrwt>
<pdfrwt beam="1">  1        1 0.73941624E-01 0.29581356E+03</pdfrwt>
<pdfrwt beam="2">  1       -1 0.70026185E-02 0.29581356E+03</pdfrwt>
<totfact> 0.50181442E+03</totfact>
</mgrwt>
</event>
<event>
 4    1  0.1733772E-004  0.2626366E+03  0.7818608E-02  0.1105569E+00
          1   -1    0    0  501    0  0.00000000000E+00  0.00000000000E+00  0.99218222104E+03  0.99218222104E+03  0.00000000000E+00 0. -1.
         -1   -1    0    0    0  501 -0.00000000000E+00 -0.00000000000E+00 -0.17380373091E+02  0.17380373091E+02  0.00000000000E+00 0. -1.
         25    1    1    2    0    0  0.70566516665E+01  0.39174214858E+02  0.62385211960E+03  0.63653427447E+03  0.12000000000E+03 0.  0.
         25    1    1    2    0    0 -0.70566516665E+01 -0.39174214858E+02  0.35094972834E+03  0.37302831966E+03  0.12000000000E+03 0.  0.
<mgrwt>
<rscale>  0 0.26263661E+03</rscale>
<asrwt>0</asrwt>
<pdfrwt beam="1">  1        1 0.15264337E+00 0.26263661E+03</pdfrwt>
<pdfrwt beam="2">  1       -1 0.26739043E-02 0.26263661E+03</pdfrwt>
<totfact> 0.72314613E+03</totfact>
</mgrwt>
</event>
<event>
 4    1  0.1733772E-004  0.2445335E+03  0.7818608E-02  0.1116809E+00
          2   -1    0    0  501    0  0.00000000000E+00  0.00000000000E+00  0.82514366486E+03  0.82514366486E+03  0.00000000000E+00 0. -1.
         -2   -1    0    0    0  501 -0.00000000000E+00 -0.00000000000E+00 -0.18117040757E+02  0.18117040757E+02  0.00000000000E+00 0. -1.
         25    1    1    2    0    0 -0.16947491967E+01  0.23369215669E+02  0.40209570788E+03  0.42027366169E+03  0.12000000000E+03 0.  0.
         25    1    1    2    0    0  0.16947491967E+01 -0.23369215669E+02  0.40493091622E+03  0.42298704393E+03  0.12000000000E+03 0.  0.
<mgrwt>
<rscale>  0 0.24453353E+03</rscale>
<asrwt>0</asrwt>
<pdfrwt beam="1">  1        2 0.12694515E+00 0.24453353E+03</pdfrwt>
<pdfrwt beam="2">  1       -2 0.27872377E-02 0.24453353E+03</pdfrwt>
<totfact> 0.15951296E+04</totfact>
</mgrwt>
</event>
<event>
 4    1  0.1733772E-004  0.2549177E+03  0.7818608E-02  0.1110236E+00
          1   -1    0    0  501    0  0.00000000000E+00  0.00000000000E+00  0.35144982620E+04  0.35144982620E+04  0.00000000000E+00 0. -1.
         -1   -1    0    0    0  501 -0.00000000000E+00 -0.00000000000E+00 -0.46224954127E+01  0.46224954127E+01  0.00000000000E+00 0. -1.
         25    1    1    2    0    0  0.25076193535E+02  0.33292522749E+02  0.18987641659E+04  0.19030088190E+04  0.12000000000E+03 0.  0.
         25    1    1    2    0    0 -0.25076193535E+02 -0.33292522749E+02  0.16111116006E+04  0.16161119383E+04  0.12000000000E+03 0.  0.
<mgrwt>
<rscale>  0 0.25491765E+03</rscale>
<asrwt>0</asrwt>
<pdfrwt beam="1">  1        1 0.54068991E+00 0.25491765E+03</pdfrwt>
<pdfrwt beam="2">  1       -1 0.71115595E-03 0.25491765E+03</pdfrwt>
<totfact> 0.94441852E+02</totfact>
</mgrwt>
</event>
<event>
 4    1  0.1733772E-004  0.3383291E+03  0.7818608E-02  0.1067510E+00
         -2   -1    0    0    0  501 -0.00000000000E+00  0.00000000000E+00  0.13085216411E+03  0.13085216411E+03  0.00000000000E+00 0. -1.
          2   -1    0    0  501    0  0.00000000000E+00 -0.00000000000E+00 -0.21869452442E+03  0.21869452442E+03  0.00000000000E+00 0. -1.
         25    1    1    2    0    0 -0.11450736100E+03  0.30274066646E+02 -0.29747843742E+02  0.17121153303E+03  0.12000000000E+03 0.  0.
         25    1    1    2    0    0  0.11450736100E+03 -0.30274066646E+02 -0.58094516564E+02  0.17833515551E+03  0.12000000000E+03 0.  0.
<mgrwt>
<rscale>  0 0.33832914E+03</rscale>
<asrwt>0</asrwt>
<pdfrwt beam="1">  1        2 0.33645311E-01 0.33832914E+03</pdfrwt>
<pdfrwt beam="2">  1       -2 0.20131102E-01 0.33832914E+03</pdfrwt>
<totfact> 0.32194921E+03</totfact>
</mgrwt>
</event>
<event>
 4    1  0.1733772E-004  0.2859628E+03  0.7818608E-02  0.1092476E+00
          2   -1    0    0  501    0  0.00000000000E+00  0.00000000000E+00  0.28896543792E+04  0.28896543792E+04  0.00000000000E+00 0. -1.
         -2   -1    0    0    0  501 -0.00000000000E+00 -0.00000000000E+00 -0.70747829630E+01  0.70747829630E+01  0.00000000000E+00 0. -1.
         25    1    1    2    0    0  0.39108825255E+02  0.65105147167E+02  0.16094243442E+04  0.16156778454E+04  0.12000000000E+03 0.  0.
         25    1    1    2    0    0 -0.39108825255E+02 -0.65105147167E+02  0.12731552520E+04  0.12810513168E+04  0.12000000000E+03 0.  0.
<mgrwt>
<rscale>  0 0.28596278E+03</rscale>
<asrwt>0</asrwt>
<pdfrwt beam="1">  1        2 0.44456127E+00 0.28596278E+03</pdfrwt>
<pdfrwt beam="2">  1       -2 0.10884305E-02 0.28596278E+03</pdfrwt>
<totfact> 0.45557885E+03</totfact>
</mgrwt>
</event>
<event>
 4    1  0.1733772E-004  0.2851001E+03  0.7818608E-02  0.1092936E+00
          1   -1    0    0  501    0  0.00000000000E+00  0.00000000000E+00  0.12355324098E+03  0.12355324098E+03  0.00000000000E+00 0.  1.
         -1   -1    0    0    0  501 -0.00000000000E+00 -0.00000000000E+00 -0.16446768462E+03  0.16446768462E+03  0.00000000000E+00 0.  1.
         25    1    1    2    0    0 -0.73154431163E+01 -0.73616863278E+02  0.91506342834E+00  0.14097445020E+03  0.12000000000E+03 0.  0.
         25    1    1    2    0    0  0.73154431163E+01  0.73616863278E+02 -0.41829507076E+02  0.14704647541E+03  0.12000000000E+03 0.  0.
<mgrwt>
<rscale>  0 0.28510009E+03</rscale>
<asrwt>0</asrwt>
<pdfrwt beam="1">  1        1 0.19008191E-01 0.28510009E+03</pdfrwt>
<pdfrwt beam="2">  1       -1 0.25302721E-01 0.28510009E+03</pdfrwt>
<totfact> 0.37085680E+03</totfact>
</mgrwt>
</event>
<event>
 4    1  0.1733772E-004  0.2795921E+03  0.7818608E-02  0.1095912E+00
          2   -1    0    0  501    0  0.00000000000E+00  0.00000000000E+00  0.75381016498E+02  0.75381016498E+02  0.00000000000E+00 0.  1.
         -2   -1    0    0    0  501 -0.00000000000E+00 -0.00000000000E+00 -0.25925547945E+03  0.25925547945E+03  0.00000000000E+00 0.  1.
         25    1    1    2    0    0 -0.47574248135E+02  0.38251997510E+02 -0.46892507131E+02  0.14256728806E+03  0.12000000000E+03 0.  0.
         25    1    1    2    0    0  0.47574248135E+02 -0.38251997510E+02 -0.13698195582E+03  0.19206920789E+03  0.12000000000E+03 0.  0.
<mgrwt>
<rscale>  0 0.27959214E+03</rscale>
<asrwt>0</asrwt>
<pdfrwt beam="1">  1        2 0.11597079E-01 0.27959214E+03</pdfrwt>
<pdfrwt beam="2">  1       -2 0.39885459E-01 0.27959214E+03</pdfrwt>
<totfact> 0.31812388E+03</totfact>
</mgrwt>
</event>
<event>
 4    1  0.1733772E-004  0.3054046E+03  0.7818608E-02  0.1082570E+00
          2   -1    0    0  501    0  0.00000000000E+00  0.00000000000E+00  0.17327366257E+04  0.17327366257E+04  0.00000000000E+00 0.  1.
         -2   -1    0    0    0  501 -0.00000000000E+00 -0.00000000000E+00 -0.13457318571E+02  0.13457318571E+02  0.00000000000E+00 0.  1.
         25    1    1    2    0    0  0.45548982375E+02  0.40266280734E+02  0.12728121902E+04  0.12799011504E+04  0.12000000000E+03 0.  0.
         25    1    1    2    0    0 -0.45548982375E+02 -0.40266280734E+02  0.44646711695E+03  0.46629279394E+03  0.12000000000E+03 0.  0.
<mgrwt>
<rscale>  0 0.30540458E+03</rscale>
<asrwt>0</asrwt>
<pdfrwt beam="1">  1        2 0.26657469E+00 0.30540458E+03</pdfrwt>
<pdfrwt beam="2">  1       -2 0.20703581E-02 0.30540458E+03</pdfrwt>
<totfact> 0.75530274E+03</totfact>
</mgrwt>
</event>
<event>
 4    1  0.1733772E-004  0.2650002E+03  0.7818608E-02  0.1104176E+00
         -1   -1    0    0    0  501 -0.00000000000E+00  0.00000000000E+00  0.47820601085E+02  0.47820601085E+02  0.00000000000E+00 0.  1.
          1   -1    0    0  501    0  0.00000000000E+00 -0.00000000000E+00 -0.36712795557E+03  0.36712795557E+03  0.00000000000E+00 0.  1.
         25    1    1    2    0    0  0.28337746618E+02  0.33720280594E+02 -0.21426082612E+03  0.24949506371E+03  0.12000000000E+03 0.  0.
         25    1    1    2    0    0 -0.28337746618E+02 -0.33720280594E+02 -0.10504652837E+03  0.16545349295E+03  0.12000000000E+03 0.  0.
<mgrwt>
<rscale>  0 0.26500022E+03</rscale>
<asrwt>0</asrwt>
<pdfrwt beam="1">  1        1 0.56481223E-01 0.26500022E+03</pdfrwt>
<pdfrwt beam="2">  1       -1 0.73570157E-02 0.26500022E+03</pdfrwt>
<totfact> 0.65735983E+03</totfact>
</mgrwt>
</event>
<event>
 4    1  0.1733772E-004  0.3119569E+03  0.7818608E-02  0.1079412E+00
         -1   -1    0    0    0  501 -0.00000000000E+00  0.00000000000E+00  0.28119061600E+02  0.28119061600E+02  0.00000000000E+00 0.  1.
          1   -1    0    0  501    0  0.00000000000E+00 -0.00000000000E+00 -0.86522346118E+03  0.86522346118E+03  0.00000000000E+00 0.  1.
         25    1    1    2    0    0 -0.43135464909E+02 -0.76789945393E+02 -0.28509434366E+03  0.32161490767E+03  0.12000000000E+03 0.  0.
         25    1    1    2    0    0  0.43135464909E+02  0.76789945393E+02 -0.55201005592E+03  0.57172761511E+03  0.12000000000E+03 0.  0.
<mgrwt>
<rscale>  0 0.31195687E+03</rscale>
<asrwt>0</asrwt>
<pdfrwt beam="1">  1        1 0.13311130E+00 0.31195687E+03</pdfrwt>
<pdfrwt beam="2">  1       -1 0.43260094E-02 0.31195687E+03</pdfrwt>
<totfact> 0.44611497E+03</totfact>
</mgrwt>
</event>
<event>
 4    1  0.1733772E-004  0.3503698E+03  0.7818608E-02  0.1062463E+00
          2   -1    0    0  501    0  0.00000000000E+00  0.00000000000E+00  0.14789941433E+04  0.14789941433E+04  0.00000000000E+00 0.  1.
         -2   -1    0    0    0  501 -0.00000000000E+00 -0.00000000000E+00 -0.20750416384E+02  0.20750416384E+02  0.00000000000E+00 0.  1.
         25    1    1    2    0    0  0.12514110911E+03  0.21671972723E+02  0.78322743268E+03  0.80248064331E+03  0.12000000000E+03 0.  0.
         25    1    1    2    0    0 -0.12514110911E+03 -0.21671972723E+02  0.67501629427E+03  0.69726391640E+03  0.12000000000E+03 0.  0.
<mgrwt>
<rscale>  0 0.35036977E+03</rscale>
<asrwt>0</asrwt>
<pdfrwt beam="1">  1        2 0.22753748E+00 0.35036977E+03</pdfrwt>
<pdfrwt beam="2">  1       -2 0.31923729E-02 0.35036977E+03</pdfrwt>
<totfact> 0.54194049E+03</totfact>
</mgrwt>
</event>
<event>
 4    1  0.1733772E-004  0.2425961E+03  0.7818608E-02  0.1118075E+00
         -1   -1    0    0    0  501 -0.00000000000E+00  0.00000000000E+00  0.26883699201E+02  0.26883699201E+02  0.00000000000E+00 0. -1.
          1   -1    0    0  501    0  0.00000000000E+00 -0.00000000000E+00 -0.54729160003E+03  0.54729160003E+03  0.00000000000E+00 0. -1.
         25    1    1    2    0    0 -0.15684059381E+02 -0.75919597756E+01 -0.25287254673E+03  0.28044277930E+03  0.12000000000E+03 0.  0.
         25    1    1    2    0    0  0.15684059381E+02  0.75919597756E+01 -0.26753535411E+03  0.29373251994E+03  0.12000000000E+03 0.  0.
<mgrwt>
<rscale>  0 0.24259615E+03</rscale>
<asrwt>0</asrwt>
<pdfrwt beam="1">  1        1 0.84198714E-01 0.24259615E+03</pdfrwt>
<pdfrwt beam="2">  1       -1 0.41359534E-02 0.24259615E+03</pdfrwt>
<totfact> 0.92445558E+03</totfact>
</mgrwt>
</event>
<event>
 4    1  0.1733772E-004  0.3221590E+03  0.7818608E-02  0.1074660E+00
         -3   -1    0    0    0  501 -0.00000000000E+00  0.00000000000E+00  0.11857438470E+03  0.11857438470E+03  0.00000000000E+00 0. -1.
          3   -1    0    0  501    0  0.00000000000E+00 -0.00000000000E+00 -0.21882139866E+03  0.21882139866E+03  0.00000000000E+00 0. -1.
         25    1    1    2    0    0 -0.80498832284E+02 -0.38852271721E+02 -0.11258529447E+03  0.18725653406E+03  0.12000000000E+03 0.  0.
         25    1    1    2    0    0  0.80498832284E+02  0.38852271721E+02  0.12338280511E+02  0.15013924931E+03  0.12000000000E+03 0.  0.
<mgrwt>
<rscale>  0 0.32215905E+03</rscale>
<asrwt>0</asrwt>
<pdfrwt beam="1">  1        3 0.33664831E-01 0.32215905E+03</pdfrwt>
<pdfrwt beam="2">  1       -3 0.18242213E-01 0.32215905E+03</pdfrwt>
<totfact> 0.58835345E+02</totfact>
</mgrwt>
</event>
<event>
 4    1  0.1733772E-004  0.2468446E+03  0.7818608E-02  0.1115315E+00
          2   -1    0    0  501    0  0.00000000000E+00  0.00000000000E+00  0.16991180295E+03  0.16991180295E+03  0.00000000000E+00 0.  1.
         -2   -1    0    0    0  501 -0.00000000000E+00 -0.00000000000E+00 -0.89652759040E+02  0.89652759040E+02  0.00000000000E+00 0.  1.
         25    1    1    2    0    0  0.67630848644E+01  0.14549996450E+02  0.14901115611E+02  0.12198149433E+03  0.12000000000E+03 0.  0.
         25    1    1    2    0    0 -0.67630848644E+01 -0.14549996450E+02  0.65357928297E+02  0.13758306765E+03  0.12000000000E+03 0.  0.
<mgrwt>
<rscale>  0 0.24684458E+03</rscale>
<asrwt>0</asrwt>
<pdfrwt beam="1">  1        2 0.26140277E-01 0.24684458E+03</pdfrwt>
<pdfrwt beam="2">  1       -2 0.13792732E-01 0.24684458E+03</pdfrwt>
<totfact> 0.79274147E+03</totfact>
</mgrwt>
</event>
<event>
 4    1  0.1733772E-004  0.3623322E+03  0.7818608E-02  0.1057664E+00
          2   -1    0    0  501    0  0.00000000000E+00  0.00000000000E+00  0.15363473882E+04  0.15363473882E+04  0.00000000000E+00 0. -1.
         -2   -1    0    0    0  501 -0.00000000000E+00 -0.00000000000E+00 -0.21363105569E+02  0.21363105569E+02  0.00000000000E+00 0. -1.
         25    1    1    2    0    0  0.23267044543E+02 -0.93017798810E+00  0.13323369527E+04  0.13379327248E+04  0.12000000000E+03 0.  0.
         25    1    1    2    0    0 -0.23267044543E+02  0.93017798810E+00  0.18264732988E+03  0.21977776891E+03  0.12000000000E+03 0.  0.
<mgrwt>
<rscale>  0 0.36233218E+03</rscale>
<asrwt>0</asrwt>
<pdfrwt beam="1">  1        2 0.23636105E+00 0.36233218E+03</pdfrwt>
<pdfrwt beam="2">  1       -2 0.32866328E-02 0.36233218E+03</pdfrwt>
<totfact> 0.48303857E+03</totfact>
</mgrwt>
</event>
<event>
 4    1  0.1733772E-004  0.2586946E+03  0.7818608E-02  0.1107930E+00
         -2   -1    0    0    0  501 -0.00000000000E+00  0.00000000000E+00  0.25748425829E+03  0.25748425829E+03  0.00000000000E+00 0.  1.
          2   -1    0    0  501    0  0.00000000000E+00 -0.00000000000E+00 -0.64977644380E+02  0.64977644380E+02  0.00000000000E+00 0.  1.
         25    1    1    2    0    0  0.12480406171E+02  0.30855117321E+02  0.52662949445E+02  0.13520793263E+03  0.12000000000E+03 0.  0.
         25    1    1    2    0    0 -0.12480406171E+02 -0.30855117321E+02  0.13984366446E+03  0.18725397003E+03  0.12000000000E+03 0.  0.
<mgrwt>
<rscale>  0 0.25869457E+03</rscale>
<asrwt>0</asrwt>
<pdfrwt beam="1">  1        2 0.99965608E-02 0.25869457E+03</pdfrwt>
<pdfrwt beam="2">  1       -2 0.39612962E-01 0.25869457E+03</pdfrwt>
<totfact> 0.38603225E+03</totfact>
</mgrwt>
</event>
<event>
 4    1  0.1733772E-004  0.4257004E+03  0.7818608E-02  0.1035227E+00
          1   -1    0    0  501    0  0.00000000000E+00  0.00000000000E+00  0.64024634333E+03  0.64024634333E+03  0.00000000000E+00 0. -1.
         -1   -1    0    0    0  501 -0.00000000000E+00 -0.00000000000E+00 -0.70762164127E+02  0.70762164127E+02  0.00000000000E+00 0. -1.
         25    1    1    2    0    0  0.46376103661E+02  0.13994502804E+03  0.12480392138E+03  0.22740134709E+03  0.12000000000E+03 0.  0.
         25    1    1    2    0    0 -0.46376103661E+02 -0.13994502804E+03  0.44468025782E+03  0.48360716037E+03  0.12000000000E+03 0.  0.
<mgrwt>
<rscale>  0 0.42570044E+03</rscale>
<asrwt>0</asrwt>
<pdfrwt beam="1">  1        1 0.98499433E-01 0.42570044E+03</pdfrwt>
<pdfrwt beam="2">  1       -1 0.10886487E-01 0.42570044E+03</pdfrwt>
<totfact> 0.17177365E+03</totfact>
</mgrwt>
</event>
<event>
 4    1  0.1733772E-004  0.3112115E+03  0.7818608E-02  0.1079767E+00
         -2   -1    0    0    0  501 -0.00000000000E+00  0.00000000000E+00  0.63718547829E+03  0.63718547829E+03  0.00000000000E+00 0. -1.
          2   -1    0    0  501    0  0.00000000000E+00 -0.00000000000E+00 -0.38000147372E+02  0.38000147372E+02  0.00000000000E+00 0. -1.
         25    1    1    2    0    0 -0.35808761591E+02  0.89016128851E+02  0.35304457269E+03  0.38502806249E+03  0.12000000000E+03 0.  0.
         25    1    1    2    0    0  0.35808761591E+02 -0.89016128851E+02  0.24614075823E+03  0.29015756317E+03  0.12000000000E+03 0.  0.
<mgrwt>
<rscale>  0 0.31121145E+03</rscale>
<asrwt>0</asrwt>
<pdfrwt beam="1">  1        2 0.58461770E-02 0.31121145E+03</pdfrwt>
<pdfrwt beam="2">  1       -2 0.98028527E-01 0.31121145E+03</pdfrwt>
<totfact> 0.11518928E+03</totfact>
</mgrwt>
</event>
<event>
 4    1  0.1733772E-004  0.3081794E+03  0.7818608E-02  0.1081222E+00
         -1   -1    0    0    0  501 -0.00000000000E+00  0.00000000000E+00  0.42555115179E+02  0.42555115179E+02  0.00000000000E+00 0. -1.
          1   -1    0    0  501    0  0.00000000000E+00 -0.00000000000E+00 -0.55795027798E+03  0.55795027798E+03  0.00000000000E+00 0. -1.
         25    1    1    2    0    0 -0.93257961212E+02 -0.21479660973E+02 -0.23117892173E+03  0.27749255308E+03  0.12000000000E+03 0.  0.
         25    1    1    2    0    0  0.93257961212E+02  0.21479660973E+02 -0.28421624108E+03  0.32301284008E+03  0.12000000000E+03 0.  0.
<mgrwt>
<rscale>  0 0.30817942E+03</rscale>
<asrwt>0</asrwt>
<pdfrwt beam="1">  1        1 0.85838501E-01 0.30817942E+03</pdfrwt>
<pdfrwt beam="2">  1       -1 0.65469411E-02 0.30817942E+03</pdfrwt>
<totfact> 0.45529981E+03</totfact>
</mgrwt>
</event>
<event>
 4    1  0.1733772E-004  0.2766168E+03  0.7818608E-02  0.1097551E+00
          2   -1    0    0  501    0  0.00000000000E+00  0.00000000000E+00  0.31541596783E+02  0.31541596783E+02  0.00000000000E+00 0.  1.
         -2   -1    0    0    0  501 -0.00000000000E+00 -0.00000000000E+00 -0.60647556943E+03  0.60647556943E+03  0.00000000000E+00 0.  1.
         25    1    1    2    0    0  0.27452928276E+02 -0.36612087846E+02 -0.40586717495E+03  0.42570209296E+03  0.12000000000E+03 0.  0.
         25    1    1    2    0    0 -0.27452928276E+02  0.36612087846E+02 -0.16906679770E+03  0.21231507325E+03  0.12000000000E+03 0.  0.
<mgrwt>
<rscale>  0 0.27661676E+03</rscale>
<asrwt>0</asrwt>
<pdfrwt beam="1">  1        2 0.48525534E-02 0.27661676E+03</pdfrwt>
<pdfrwt beam="2">  1       -2 0.93303932E-01 0.27661676E+03</pdfrwt>
<totfact> 0.16455805E+03</totfact>
</mgrwt>
</event>
<event>
 4    1  0.1733772E-004  0.2839723E+03  0.7818608E-02  0.1093539E+00
          1   -1    0    0  501    0  0.00000000000E+00  0.00000000000E+00  0.14828668110E+04  0.14828668110E+04  0.00000000000E+00 0.  1.
         -1   -1    0    0    0  501 -0.00000000000E+00 -0.00000000000E+00 -0.13595331117E+02  0.13595331117E+02  0.00000000000E+00 0.  1.
         25    1    1    2    0    0 -0.11194053581E+02 -0.73976389526E+02  0.80176087028E+03  0.81413654024E+03  0.12000000000E+03 0.  0.
         25    1    1    2    0    0  0.11194053581E+02  0.73976389526E+02  0.66751060960E+03  0.68232560188E+03  0.12000000000E+03 0.  0.
<mgrwt>
<rscale>  0 0.28397229E+03</rscale>
<asrwt>0</asrwt>
<pdfrwt beam="1">  1        1 0.22813323E+00 0.28397229E+03</pdfrwt>
<pdfrwt beam="2">  1       -1 0.20915906E-02 0.28397229E+03</pdfrwt>
<totfact> 0.47191074E+03</totfact>
</mgrwt>
</event>
<event>
 4    1  0.1733772E-004  0.2907241E+03  0.7818608E-02  0.1089972E+00
          2   -1    0    0  501    0  0.00000000000E+00  0.00000000000E+00  0.57987912499E+03  0.57987912499E+03  0.00000000000E+00 0. -1.
         -2   -1    0    0    0  501 -0.00000000000E+00 -0.00000000000E+00 -0.36438833466E+02  0.36438833466E+02  0.00000000000E+00 0. -1.
         25    1    1    2    0    0  0.23644438707E+02 -0.65885792457E+02  0.36241107387E+03  0.38812598933E+03  0.12000000000E+03 0.  0.
         25    1    1    2    0    0 -0.23644438707E+02  0.65885792457E+02  0.18102921765E+03  0.22819196912E+03  0.12000000000E+03 0.  0.
<mgrwt>
<rscale>  0 0.29072405E+03</rscale>
<asrwt>0</asrwt>
<pdfrwt beam="1">  1        2 0.89212167E-01 0.29072405E+03</pdfrwt>
<pdfrwt beam="2">  1       -2 0.56059748E-02 0.29072405E+03</pdfrwt>
<totfact> 0.86094849E+03</totfact>
</mgrwt>
</event>
<event>
 4    1  0.1733772E-004  0.2667275E+03  0.7818608E-02  0.1103167E+00
         -1   -1    0    0    0  501 -0.00000000000E+00  0.00000000000E+00  0.26438609797E+02  0.26438609797E+02  0.00000000000E+00 0. -1.
          1   -1    0    0  501    0  0.00000000000E+00 -0.00000000000E+00 -0.67272412233E+03  0.67272412233E+03  0.00000000000E+00 0. -1.
         25    1    1    2    0    0 -0.54797103257E+01 -0.38707431957E+02 -0.43611879453E+03  0.45401310054E+03  0.12000000000E+03 0.  0.
         25    1    1    2    0    0  0.54797103257E+01  0.38707431957E+02 -0.21016671800E+03  0.24514963159E+03  0.12000000000E+03 0.  0.
<mgrwt>
<rscale>  0 0.26672751E+03</rscale>
<asrwt>0</asrwt>
<pdfrwt beam="1">  1        1 0.10349599E+00 0.26672751E+03</pdfrwt>
<pdfrwt beam="2">  1       -1 0.40674795E-02 0.26672751E+03</pdfrwt>
<totfact> 0.71352883E+03</totfact>
</mgrwt>
</event>
<event>
 4    1  0.1733772E-004  0.2992180E+03  0.7818608E-02  0.1085632E+00
         -1   -1    0    0    0  501 -0.00000000000E+00  0.00000000000E+00  0.18573294544E+02  0.18573294544E+02  0.00000000000E+00 0.  1.
          1   -1    0    0  501    0  0.00000000000E+00 -0.00000000000E+00 -0.12051095445E+04  0.12051095445E+04  0.00000000000E+00 0.  1.
         25    1    1    2    0    0 -0.79744718357E+02 -0.24403134141E+02 -0.72439851445E+03  0.73899116422E+03  0.12000000000E+03 0.  0.
         25    1    1    2    0    0  0.79744718357E+02  0.24403134141E+02 -0.46213773550E+03  0.48469167482E+03  0.12000000000E+03 0.  0.
<mgrwt>
<rscale>  0 0.29921801E+03</rscale>
<asrwt>0</asrwt>
<pdfrwt beam="1">  1        1 0.18540147E+00 0.29921801E+03</pdfrwt>
<pdfrwt beam="2">  1       -1 0.28574300E-02 0.29921801E+03</pdfrwt>
<totfact> 0.46108761E+03</totfact>
</mgrwt>
</event>
<event>
 4    1  0.1733772E-004  0.2457631E+03  0.7818608E-02  0.1116012E+00
          1   -1    0    0  501    0  0.00000000000E+00  0.00000000000E+00  0.14244350056E+04  0.14244350056E+04  0.00000000000E+00 0. -1.
         -1   -1    0    0    0  501 -0.00000000000E+00 -0.00000000000E+00 -0.10600603928E+02  0.10600603928E+02  0.00000000000E+00 0. -1.
         25    1    1    2    0    0  0.22434319391E+00 -0.15715094355E+02  0.83117581434E+03  0.83994062222E+03  0.12000000000E+03 0.  0.
         25    1    1    2    0    0 -0.22434319391E+00  0.15715094355E+02  0.58265858731E+03  0.59509498728E+03  0.12000000000E+03 0.  0.
<mgrwt>
<rscale>  0 0.24576307E+03</rscale>
<asrwt>0</asrwt>
<pdfrwt beam="1">  1        1 0.21914370E+00 0.24576307E+03</pdfrwt>
<pdfrwt beam="2">  1       -1 0.16308633E-02 0.24576307E+03</pdfrwt>
<totfact> 0.74058868E+03</totfact>
</mgrwt>
</event>
<event>
 4    1  0.1733772E-004  0.3032902E+03  0.7818608E-02  0.1083607E+00
          2   -1    0    0  501    0  0.00000000000E+00  0.00000000000E+00  0.12988352718E+03  0.12988352718E+03  0.00000000000E+00 0.  1.
         -2   -1    0    0    0  501 -0.00000000000E+00 -0.00000000000E+00 -0.17705278794E+03  0.17705278794E+03  0.00000000000E+00 0.  1.
         25    1    1    2    0    0 -0.53537706426E+02  0.95831471410E+01 -0.99574715877E+02  0.16514613759E+03  0.12000000000E+03 0.  0.
         25    1    1    2    0    0  0.53537706426E+02 -0.95831471410E+01  0.52405455116E+02  0.14179017753E+03  0.12000000000E+03 0.  0.
<mgrwt>
<rscale>  0 0.30329023E+03</rscale>
<asrwt>0</asrwt>
<pdfrwt beam="1">  1        2 0.19982081E-01 0.30329023E+03</pdfrwt>
<pdfrwt beam="2">  1       -2 0.27238890E-01 0.30329023E+03</pdfrwt>
<totfact> 0.33850727E+03</totfact>
</mgrwt>
</event>
<event>
 4    1  0.1733772E-004  0.3280258E+03  0.7818608E-02  0.1072014E+00
         -1   -1    0    0    0  501 -0.00000000000E+00  0.00000000000E+00  0.12200869825E+02  0.12200869825E+02  0.00000000000E+00 0. -1.
          1   -1    0    0  501    0  0.00000000000E+00 -0.00000000000E+00 -0.22047799719E+04  0.22047799719E+04  0.00000000000E+00 0. -1.
         25    1    1    2    0    0 -0.86518127140E+02  0.59720811577E+02 -0.83908481985E+03  0.85411667620E+03  0.12000000000E+03 0.  0.
         25    1    1    2    0    0  0.86518127140E+02 -0.59720811577E+02 -0.13534942823E+04  0.13628641656E+04  0.12000000000E+03 0.  0.
<mgrwt>
<rscale>  0 0.32802581E+03</rscale>
<asrwt>0</asrwt>
<pdfrwt beam="1">  1        1 0.33919722E+00 0.32802581E+03</pdfrwt>
<pdfrwt beam="2">  1       -1 0.18770552E-02 0.32802581E+03</pdfrwt>
<totfact> 0.18609581E+03</totfact>
</mgrwt>
</event>
<event>
 4    1  0.1733772E-004  0.2621116E+03  0.7818608E-02  0.1105881E+00
         -1   -1    0    0    0  501 -0.00000000000E+00  0.00000000000E+00  0.21532586663E+03  0.21532586663E+03  0.00000000000E+00 0.  1.
          1   -1    0    0  501    0  0.00000000000E+00 -0.00000000000E+00 -0.79765691477E+02  0.79765691477E+02  0.00000000000E+00 0.  1.
         25    1    1    2    0    0  0.93255979581E+01  0.51779372864E+02  0.70872809825E+02  0.14896652444E+03  0.12000000000E+03 0.  0.
         25    1    1    2    0    0 -0.93255979581E+01 -0.51779372864E+02  0.64687365330E+02  0.14612503367E+03  0.12000000000E+03 0.  0.
<mgrwt>
<rscale>  0 0.26211155E+03</rscale>
<asrwt>0</asrwt>
<pdfrwt beam="1">  1        1 0.12271645E-01 0.26211155E+03</pdfrwt>
<pdfrwt beam="2">  1       -1 0.33127056E-01 0.26211155E+03</pdfrwt>
<totfact> 0.41590844E+03</totfact>
</mgrwt>
</event>
<event>
 4    1  0.1733772E-004  0.3806683E+03  0.7818608E-02  0.1050687E+00
          1   -1    0    0  501    0  0.00000000000E+00  0.00000000000E+00  0.11631123970E+04  0.11631123970E+04  0.00000000000E+00 0. -1.
         -1   -1    0    0    0  501 -0.00000000000E+00 -0.00000000000E+00 -0.31146676648E+02  0.31146676648E+02  0.00000000000E+00 0. -1.
         25    1    1    2    0    0 -0.96043260130E+02 -0.41924643856E+01  0.21403207750E+03  0.26353674274E+03  0.12000000000E+03 0.  0.
         25    1    1    2    0    0  0.96043260130E+02  0.41924643856E+01  0.91793364289E+03  0.93072233095E+03  0.12000000000E+03 0.  0.
<mgrwt>
<rscale>  0 0.38066828E+03</rscale>
<asrwt>0</asrwt>
<pdfrwt beam="1">  1        1 0.17894034E+00 0.38066828E+03</pdfrwt>
<pdfrwt beam="2">  1       -1 0.47917973E-02 0.38066828E+03</pdfrwt>
<totfact> 0.22833280E+03</totfact>
</mgrwt>
</event>
<event>
 4    1  0.1733772E-004  0.2642152E+03  0.7818608E-02  0.1104637E+00
         -1   -1    0    0    0  501 -0.00000000000E+00  0.00000000000E+00  0.45578302585E+02  0.45578302585E+02  0.00000000000E+00 0. -1.
          1   -1    0    0  501    0  0.00000000000E+00 -0.00000000000E+00 -0.38291062652E+03  0.38291062652E+03  0.00000000000E+00 0. -1.
         25    1    1    2    0    0  0.20246915499E+02 -0.35841715870E+02 -0.10890655130E+03  0.16719809538E+03  0.12000000000E+03 0.  0.
         25    1    1    2    0    0 -0.20246915499E+02  0.35841715870E+02 -0.22842577263E+03  0.26129083372E+03  0.12000000000E+03 0.  0.
<mgrwt>
<rscale>  0 0.26421519E+03</rscale>
<asrwt>0</asrwt>
<pdfrwt beam="1">  1        1 0.58909327E-01 0.26421519E+03</pdfrwt>
<pdfrwt beam="2">  1       -1 0.70120466E-02 0.26421519E+03</pdfrwt>
<totfact> 0.67012712E+03</totfact>
</mgrwt>
</event>
<event>
 4    1  0.1733772E-004  0.3406347E+03  0.7818608E-02  0.1066526E+00
         -2   -1    0    0    0  501 -0.00000000000E+00  0.00000000000E+00  0.54356630800E+02  0.54356630800E+02  0.00000000000E+00 0.  1.
          2   -1    0    0  501    0  0.00000000000E+00 -0.00000000000E+00 -0.53366076478E+03  0.53366076478E+03  0.00000000000E+00 0.  1.
         25    1    1    2    0    0  0.96459809541E+02  0.66233052842E+02 -0.29191722776E+03  0.33661102182E+03  0.12000000000E+03 0.  0.
         25    1    1    2    0    0 -0.96459809541E+02 -0.66233052842E+02 -0.18738690622E+03  0.25140637376E+03  0.12000000000E+03 0.  0.
<mgrwt>
<rscale>  0 0.34063471E+03</rscale>
<asrwt>0</asrwt>
<pdfrwt beam="1">  1        2 0.82101657E-01 0.34063471E+03</pdfrwt>
<pdfrwt beam="2">  1       -2 0.83625585E-02 0.34063471E+03</pdfrwt>
<totfact> 0.51125441E+03</totfact>
</mgrwt>
</event>
<event>
 4    1  0.1733772E-004  0.2624153E+03  0.7818608E-02  0.1105701E+00
         -2   -1    0    0    0  501 -0.00000000000E+00  0.00000000000E+00  0.17215735129E+04  0.17215735129E+04  0.00000000000E+00 0. -1.
          2   -1    0    0  501    0  0.00000000000E+00 -0.00000000000E+00 -0.99998340512E+01  0.99998340512E+01  0.00000000000E+00 0. -1.
         25    1    1    2    0    0  0.19436006704E+02  0.27139568306E+02  0.58362884688E+03  0.59677210511E+03  0.12000000000E+03 0.  0.
         25    1    1    2    0    0 -0.19436006704E+02 -0.27139568306E+02  0.11279448320E+04  0.11348012419E+04  0.12000000000E+03 0.  0.
<mgrwt>
<rscale>  0 0.26241532E+03</rscale>
<asrwt>0</asrwt>
<pdfrwt beam="1">  1        2 0.15384374E-02 0.26241532E+03</pdfrwt>
<pdfrwt beam="2">  1       -2 0.26485723E+00 0.26241532E+03</pdfrwt>
<totfact> 0.46285885E+02</totfact>
</mgrwt>
</event>
<event>
 4    1  0.1733772E-004  0.3120929E+03  0.7818608E-02  0.1079347E+00
          2   -1    0    0  501    0  0.00000000000E+00  0.00000000000E+00  0.21021582014E+04  0.21021582014E+04  0.00000000000E+00 0. -1.
         -2   -1    0    0    0  501 -0.00000000000E+00 -0.00000000000E+00 -0.11583566942E+02  0.11583566942E+02  0.00000000000E+00 0. -1.
         25    1    1    2    0    0  0.20057294036E+02  0.37475054820E+01  0.17066034253E+04  0.17109388038E+04  0.12000000000E+03 0.  0.
         25    1    1    2    0    0 -0.20057294036E+02 -0.37475054820E+01  0.38397120910E+03  0.40280296456E+03  0.12000000000E+03 0.  0.
<mgrwt>
<rscale>  0 0.31209287E+03</rscale>
<asrwt>0</asrwt>
<pdfrwt beam="1">  1        2 0.32340865E+00 0.31209287E+03</pdfrwt>
<pdfrwt beam="2">  1       -2 0.17820889E-02 0.31209287E+03</pdfrwt>
<totfact> 0.60130821E+03</totfact>
</mgrwt>
</event>
<event>
 4    1  0.1733772E-004  0.3669095E+03  0.7818608E-02  0.1055881E+00
         -1   -1    0    0    0  501 -0.00000000000E+00  0.00000000000E+00  0.44198175157E+02  0.44198175157E+02  0.00000000000E+00 0. -1.
          1   -1    0    0  501    0  0.00000000000E+00 -0.00000000000E+00 -0.76147122668E+03  0.76147122668E+03  0.00000000000E+00 0. -1.
         25    1    1    2    0    0  0.10730367588E+03 -0.67085426259E+02 -0.48364646159E+03  0.51412880982E+03  0.12000000000E+03 0.  0.
         25    1    1    2    0    0 -0.10730367588E+03  0.67085426259E+02 -0.23362658992E+03  0.29154059201E+03  0.12000000000E+03 0.  0.
<mgrwt>
<rscale>  0 0.36690946E+03</rscale>
<asrwt>0</asrwt>
<pdfrwt beam="1">  1        1 0.11714941E+00 0.36690946E+03</pdfrwt>
<pdfrwt beam="2">  1       -1 0.67997199E-02 0.36690946E+03</pdfrwt>
<totfact> 0.27539373E+03</totfact>
</mgrwt>
</event>
<event>
 4    1  0.1733772E-004  0.2695204E+03  0.7818608E-02  0.1101554E+00
         -1   -1    0    0    0  501 -0.00000000000E+00  0.00000000000E+00  0.23146291820E+02  0.23146291820E+02  0.00000000000E+00 0.  1.
          1   -1    0    0  501    0  0.00000000000E+00 -0.00000000000E+00 -0.78458819762E+03  0.78458819762E+03  0.00000000000E+00 0.  1.
         25    1    1    2    0    0 -0.30980750466E+02 -0.21016876521E+01 -0.22224911534E+03  0.25447768715E+03  0.12000000000E+03 0.  0.
         25    1    1    2    0    0  0.30980750466E+02  0.21016876521E+01 -0.53919279046E+03  0.55325680229E+03  0.12000000000E+03 0.  0.
<mgrwt>
<rscale>  0 0.26952037E+03</rscale>
<asrwt>0</asrwt>
<pdfrwt beam="1">  1        1 0.12070589E+00 0.26952037E+03</pdfrwt>
<pdfrwt beam="2">  1       -1 0.35609675E-02 0.26952037E+03</pdfrwt>
<totfact> 0.69249954E+03</totfact>
</mgrwt>
</event>
<event>
 4    1  0.1733772E-004  0.2493874E+03  0.7818608E-02  0.1113693E+00
         -4   -1    0    0    0  501 -0.00000000000E+00  0.00000000000E+00  0.72397739712E+03  0.72397739712E+03  0.00000000000E+00 0.  1.
          4   -1    0    0  501    0  0.00000000000E+00 -0.00000000000E+00 -0.21476531217E+02  0.21476531217E+02  0.00000000000E+00 0.  1.
         25    1    1    2    0    0 -0.30693493911E+02  0.14007213302E+02  0.36081127849E+03  0.38173691370E+03  0.12000000000E+03 0.  0.
         25    1    1    2    0    0  0.30693493911E+02 -0.14007213302E+02  0.34168958741E+03  0.36371701463E+03  0.12000000000E+03 0.  0.
<mgrwt>
<rscale>  0 0.24938743E+03</rscale>
<asrwt>0</asrwt>
<pdfrwt beam="1">  1        4 0.33040823E-02 0.24938743E+03</pdfrwt>
<pdfrwt beam="2">  1       -4 0.11138112E+00 0.24938743E+03</pdfrwt>
<totfact> 0.56707299E+02</totfact>
</mgrwt>
</event>
<event>
 4    1  0.1733772E-004  0.3553414E+03  0.7818608E-02  0.1060444E+00
          2   -1    0    0  501    0  0.00000000000E+00  0.00000000000E+00  0.17884362304E+04  0.17884362304E+04  0.00000000000E+00 0. -1.
         -2   -1    0    0    0  501 -0.00000000000E+00 -0.00000000000E+00 -0.17650547107E+02  0.17650547107E+02  0.00000000000E+00 0. -1.
         25    1    1    2    0    0  0.16886908520E+02 -0.12491012873E+03  0.70360830651E+03  0.72481194591E+03  0.12000000000E+03 0.  0.
         25    1    1    2    0    0 -0.16886908520E+02  0.12491012873E+03  0.10671773768E+04  0.10812748316E+04  0.12000000000E+03 0.  0.
<mgrwt>
<rscale>  0 0.35534140E+03</rscale>
<asrwt>0</asrwt>
<pdfrwt beam="1">  1        2 0.27514389E+00 0.35534140E+03</pdfrwt>
<pdfrwt beam="2">  1       -2 0.27154702E-02 0.35534140E+03</pdfrwt>
<totfact> 0.47178039E+03</totfact>
</mgrwt>
</event>
<event>
 4    1  0.1733772E-004  0.2836468E+03  0.7818608E-02  0.1093714E+00
          2   -1    0    0  501    0  0.00000000000E+00  0.00000000000E+00  0.20830088411E+04  0.20830088411E+04  0.00000000000E+00 0.  1.
         -2   -1    0    0    0  501 -0.00000000000E+00 -0.00000000000E+00 -0.96561658385E+01  0.96561658385E+01  0.00000000000E+00 0.  1.
         25    1    1    2    0    0 -0.20213818065E+02 -0.39467351975E+01  0.15732600341E+04  0.15779642931E+04  0.12000000000E+03 0.  0.
         25    1    1    2    0    0  0.20213818065E+02  0.39467351975E+01  0.50009264110E+03  0.51470071386E+03  0.12000000000E+03 0.  0.
<mgrwt>
<rscale>  0 0.28364681E+03</rscale>
<asrwt>0</asrwt>
<pdfrwt beam="1">  1        2 0.32046254E+00 0.28364681E+03</pdfrwt>
<pdfrwt beam="2">  1       -2 0.14855656E-02 0.28364681E+03</pdfrwt>
<totfact> 0.80398153E+03</totfact>
</mgrwt>
</event>
<event>
 4    1  0.1733772E-004  0.3581544E+03  0.7818608E-02  0.1059317E+00
          1   -1    0    0  501    0  0.00000000000E+00  0.00000000000E+00  0.92584013036E+03  0.92584013036E+03  0.00000000000E+00 0.  1.
         -1   -1    0    0    0  501 -0.00000000000E+00 -0.00000000000E+00 -0.34637344262E+02  0.34637344262E+02  0.00000000000E+00 0.  1.
         25    1    1    2    0    0 -0.11996915164E+03 -0.54773485164E+02  0.49014666786E+03  0.52157117255E+03  0.12000000000E+03 0.  0.
         25    1    1    2    0    0  0.11996915164E+03  0.54773485164E+02  0.40105611823E+03  0.43890630206E+03  0.12000000000E+03 0.  0.
<mgrwt>
<rscale>  0 0.35815440E+03</rscale>
<asrwt>0</asrwt>
<pdfrwt beam="1">  1        1 0.14243692E+00 0.35815440E+03</pdfrwt>
<pdfrwt beam="2">  1       -1 0.53288229E-02 0.35815440E+03</pdfrwt>
<totfact> 0.29219965E+03</totfact>
</mgrwt>
</event>
<event>
 4    1  0.1733772E-004  0.2509224E+03  0.7818608E-02  0.1112723E+00
         -1   -1    0    0    0  501 -0.00000000000E+00  0.00000000000E+00  0.39428738255E+02  0.39428738255E+02  0.00000000000E+00 0. -1.
          1   -1    0    0  501    0  0.00000000000E+00 -0.00000000000E+00 -0.39921425691E+03  0.39921425691E+03  0.00000000000E+00 0. -1.
         25    1    1    2    0    0 -0.34536116521E+02  0.97912476418E+01 -0.19248683120E+03  0.22965145778E+03  0.12000000000E+03 0.  0.
         25    1    1    2    0    0  0.34536116521E+02 -0.97912476418E+01 -0.16729868745E+03  0.20899153739E+03  0.12000000000E+03 0.  0.
<mgrwt>
<rscale>  0 0.25092241E+03</rscale>
<asrwt>0</asrwt>
<pdfrwt beam="1">  1        1 0.61417573E-01 0.25092241E+03</pdfrwt>
<pdfrwt beam="2">  1       -1 0.60659602E-02 0.25092241E+03</pdfrwt>
<totfact> 0.78947350E+03</totfact>
</mgrwt>
</event>
<event>
 4    1  0.1733772E-004  0.3907584E+03  0.7818608E-02  0.1047028E+00
          3   -1    0    0  501    0  0.00000000000E+00  0.00000000000E+00  0.34991254946E+03  0.34991254946E+03  0.00000000000E+00 0.  1.
         -3   -1    0    0    0  501 -0.00000000000E+00 -0.00000000000E+00 -0.10909304461E+03  0.10909304461E+03  0.00000000000E+00 0.  1.
         25    1    1    2    0    0 -0.43543810571E+02 -0.13288418956E+03  0.44113747397E+02  0.18947372900E+03  0.12000000000E+03 0.  0.
         25    1    1    2    0    0  0.43543810571E+02  0.13288418956E+03  0.19670575745E+03  0.26953186507E+03  0.12000000000E+03 0.  0.
<mgrwt>
<rscale>  0 0.39075837E+03</rscale>
<asrwt>0</asrwt>
<pdfrwt beam="1">  1        3 0.53832699E-01 0.39075837E+03</pdfrwt>
<pdfrwt beam="2">  1       -3 0.16783546E-01 0.39075837E+03</pdfrwt>
<totfact> 0.27364988E+02</totfact>
</mgrwt>
</event>
<event>
 4    1  0.1733772E-004  0.2520832E+03  0.7818608E-02  0.1111995E+00
         -1   -1    0    0    0  501 -0.00000000000E+00  0.00000000000E+00  0.19269246547E+03  0.19269246547E+03  0.00000000000E+00 0. -1.
          1   -1    0    0  501    0  0.00000000000E+00 -0.00000000000E+00 -0.82444738321E+02  0.82444738321E+02  0.00000000000E+00 0. -1.
         25    1    1    2    0    0  0.27298506260E+02 -0.26176654436E+02  0.46952216442E+02  0.13429421548E+03  0.12000000000E+03 0.  0.
         25    1    1    2    0    0 -0.27298506260E+02  0.26176654436E+02  0.63295510703E+02  0.14084298831E+03  0.12000000000E+03 0.  0.
<mgrwt>
<rscale>  0 0.25208316E+03</rscale>
<asrwt>0</asrwt>
<pdfrwt beam="1">  1        1 0.12683806E-01 0.25208316E+03</pdfrwt>
<pdfrwt beam="2">  1       -1 0.29644995E-01 0.25208316E+03</pdfrwt>
<totfact> 0.48064404E+03</totfact>
</mgrwt>
</event>
<event>
 4    1  0.1733772E-004  0.2833053E+03  0.7818608E-02  0.1093897E+00
         -1   -1    0    0    0  501 -0.00000000000E+00  0.00000000000E+00  0.12048166803E+04  0.12048166803E+04  0.00000000000E+00 0.  1.
          1   -1    0    0  501    0  0.00000000000E+00 -0.00000000000E+00 -0.16654379464E+02  0.16654379464E+02  0.00000000000E+00 0.  1.
         25    1    1    2    0    0  0.44767552438E+02  0.68461761969E+01  0.85329058377E+03  0.86287648260E+03  0.12000000000E+03 0.  0.
         25    1    1    2    0    0 -0.44767552438E+02 -0.68461761969E+01  0.33487171710E+03  0.35859457719E+03  0.12000000000E+03 0.  0.
<mgrwt>
<rscale>  0 0.28330531E+03</rscale>
<asrwt>0</asrwt>
<pdfrwt beam="1">  1        1 0.25622132E-02 0.28330531E+03</pdfrwt>
<pdfrwt beam="2">  1       -1 0.18535634E+00 0.28330531E+03</pdfrwt>
<totfact> 0.89449136E+02</totfact>
</mgrwt>
</event>
<event>
 4    1  0.1733772E-004  0.4512195E+03  0.7818608E-02  0.1027359E+00
          1   -1    0    0  501    0  0.00000000000E+00  0.00000000000E+00  0.15842489573E+04  0.15842489573E+04  0.00000000000E+00 0. -1.
         -1   -1    0    0    0  501 -0.00000000000E+00 -0.00000000000E+00 -0.32128643169E+02  0.32128643169E+02  0.00000000000E+00 0. -1.
         25    1    1    2    0    0  0.72838679943E+02 -0.17496823981E+03  0.68975776892E+03  0.72531726715E+03  0.12000000000E+03 0.  0.
         25    1    1    2    0    0 -0.72838679943E+02  0.17496823981E+03  0.86236254524E+03  0.89106033335E+03  0.12000000000E+03 0.  0.
<mgrwt>
<rscale>  0 0.45121954E+03</rscale>
<asrwt>0</asrwt>
<pdfrwt beam="1">  1        1 0.24373055E+00 0.45121954E+03</pdfrwt>
<pdfrwt beam="2">  1       -1 0.49428694E-02 0.45121954E+03</pdfrwt>
<totfact> 0.11163055E+03</totfact>
</mgrwt>
</event>
<event>
 4    1  0.1733772E-004  0.2724742E+03  0.7818608E-02  0.1099872E+00
          2   -1    0    0  501    0  0.00000000000E+00  0.00000000000E+00  0.47244406700E+03  0.47244406700E+03  0.00000000000E+00 0. -1.
         -2   -1    0    0    0  501 -0.00000000000E+00 -0.00000000000E+00 -0.39286220073E+02  0.39286220073E+02  0.00000000000E+00 0. -1.
         25    1    1    2    0    0 -0.11246735754E+02 -0.41463240037E+02  0.30693917724E+03  0.33235124170E+03  0.12000000000E+03 0.  0.
         25    1    1    2    0    0  0.11246735754E+02  0.41463240037E+02  0.12621866969E+03  0.17937904537E+03  0.12000000000E+03 0.  0.
<mgrwt>
<rscale>  0 0.27247416E+03</rscale>
<asrwt>0</asrwt>
<pdfrwt beam="1">  1        2 0.72683699E-01 0.27247416E+03</pdfrwt>
<pdfrwt beam="2">  1       -2 0.60440342E-02 0.27247416E+03</pdfrwt>
<totfact> 0.96477523E+03</totfact>
</mgrwt>
</event>
<event>
 4    1  0.1733772E-004  0.2429604E+03  0.7818608E-02  0.1117836E+00
         -1   -1    0    0    0  501 -0.00000000000E+00  0.00000000000E+00  0.26779704964E+02  0.26779704964E+02  0.00000000000E+00 0.  1.
          1   -1    0    0  501    0  0.00000000000E+00 -0.00000000000E+00 -0.55106805453E+03  0.55106805453E+03  0.00000000000E+00 0.  1.
         25    1    1    2    0    0  0.43985637549E+01  0.39458874223E+01 -0.30485696590E+03  0.32767771827E+03  0.12000000000E+03 0.  0.
         25    1    1    2    0    0 -0.43985637549E+01 -0.39458874223E+01 -0.21943138367E+03  0.25017004123E+03  0.12000000000E+03 0.  0.
<mgrwt>
<rscale>  0 0.24296041E+03</rscale>
<asrwt>0</asrwt>
<pdfrwt beam="1">  1        1 0.84779695E-01 0.24296041E+03</pdfrwt>
<pdfrwt beam="2">  1       -1 0.41199549E-02 0.24296041E+03</pdfrwt>
<totfact> 0.92124125E+03</totfact>
</mgrwt>
</event>
<event>
 4    1  0.1733772E-004  0.3912459E+03  0.7818608E-02  0.1046854E+00
         -2   -1    0    0    0  501 -0.00000000000E+00  0.00000000000E+00  0.39591160674E+03  0.39591160674E+03  0.00000000000E+00 0.  1.
          2   -1    0    0  501    0  0.00000000000E+00 -0.00000000000E+00 -0.96658797478E+02  0.96658797478E+02  0.00000000000E+00 0.  1.
         25    1    1    2    0    0  0.13144217843E+03 -0.69502874831E+02  0.96799608147E+02  0.21419117633E+03  0.12000000000E+03 0.  0.
         25    1    1    2    0    0 -0.13144217843E+03  0.69502874831E+02  0.20245320112E+03  0.27837922789E+03  0.12000000000E+03 0.  0.
<mgrwt>
<rscale>  0 0.39124591E+03</rscale>
<asrwt>0</asrwt>
<pdfrwt beam="1">  1        2 0.14870584E-01 0.39124591E+03</pdfrwt>
<pdfrwt beam="2">  1       -2 0.60909477E-01 0.39124591E+03</pdfrwt>
<totfact> 0.10160280E+03</totfact>
</mgrwt>
</event>
<event>
 4    1  0.1733772E-004  0.2562846E+03  0.7818608E-02  0.1109396E+00
          2   -1    0    0  501    0  0.00000000000E+00  0.00000000000E+00  0.11364174114E+04  0.11364174114E+04  0.00000000000E+00 0.  1.
         -2   -1    0    0    0  501 -0.00000000000E+00 -0.00000000000E+00 -0.14449308937E+02  0.14449308937E+02  0.00000000000E+00 0.  1.
         25    1    1    2    0    0 -0.23319121924E+02 -0.65222331586E+01  0.73104167440E+03  0.74122078403E+03  0.12000000000E+03 0.  0.
         25    1    1    2    0    0  0.23319121924E+02  0.65222331586E+01  0.39092642805E+03  0.40964593630E+03  0.12000000000E+03 0.  0.
<mgrwt>
<rscale>  0 0.25628458E+03</rscale>
<asrwt>0</asrwt>
<pdfrwt beam="1">  1        2 0.17483338E+00 0.25628458E+03</pdfrwt>
<pdfrwt beam="2">  1       -2 0.22229715E-02 0.25628458E+03</pdfrwt>
<totfact> 0.14314374E+04</totfact>
</mgrwt>
</event>
<event>
 4    1  0.1733772E-004  0.2433997E+03  0.7818608E-02  0.1117549E+00
         -2   -1    0    0    0  501 -0.00000000000E+00  0.00000000000E+00  0.47647252181E+02  0.47647252181E+02  0.00000000000E+00 0.  1.
          2   -1    0    0  501    0  0.00000000000E+00 -0.00000000000E+00 -0.31084383771E+03  0.31084383771E+03  0.00000000000E+00 0.  1.
         25    1    1    2    0    0 -0.19513422657E+02  0.39798254494E+01 -0.13715662578E+03  0.18332635563E+03  0.12000000000E+03 0.  0.
         25    1    1    2    0    0  0.19513422657E+02 -0.39798254494E+01 -0.12603995975E+03  0.17516473426E+03  0.12000000000E+03 0.  0.
<mgrwt>
<rscale>  0 0.24339971E+03</rscale>
<asrwt>0</asrwt>
<pdfrwt beam="1">  1        2 0.47822127E-01 0.24339971E+03</pdfrwt>
<pdfrwt beam="2">  1       -2 0.73303468E-02 0.24339971E+03</pdfrwt>
<totfact> 0.11227883E+04</totfact>
</mgrwt>
</event>
<event>
 4    1  0.1733772E-004  0.2626606E+03  0.7818608E-02  0.1105555E+00
          1   -1    0    0  501    0  0.00000000000E+00  0.00000000000E+00  0.38528653561E+03  0.38528653561E+03  0.00000000000E+00 0.  1.
         -1   -1    0    0    0  501 -0.00000000000E+00 -0.00000000000E+00 -0.44765765072E+02  0.44765765072E+02  0.00000000000E+00 0.  1.
         25    1    1    2    0    0  0.41696414410E+02  0.16956900453E+01  0.22471557784E+03  0.25814445038E+03  0.12000000000E+03 0.  0.
         25    1    1    2    0    0 -0.41696414410E+02 -0.16956900453E+01  0.11580519270E+03  0.17190785030E+03  0.12000000000E+03 0.  0.
<mgrwt>
<rscale>  0 0.26266059E+03</rscale>
<asrwt>0</asrwt>
<pdfrwt beam="1">  1        1 0.59274850E-01 0.26266059E+03</pdfrwt>
<pdfrwt beam="2">  1       -1 0.68870410E-02 0.26266059E+03</pdfrwt>
<totfact> 0.68310136E+03</totfact>
</mgrwt>
</event>
<event>
 4    1  0.1733772E-004  0.2687555E+03  0.7818608E-02  0.1101994E+00
          1   -1    0    0  501    0  0.00000000000E+00  0.00000000000E+00  0.98939346916E+03  0.98939346916E+03  0.00000000000E+00 0.  1.
         -1   -1    0    0    0  501 -0.00000000000E+00 -0.00000000000E+00 -0.18250952402E+02  0.18250952402E+02  0.00000000000E+00 0.  1.
         25    1    1    2    0    0 -0.57836584196E+02 -0.17672033881E+02  0.48540958563E+03  0.50366639462E+03  0.12000000000E+03 0.  0.
         25    1    1    2    0    0  0.57836584196E+02  0.17672033881E+02  0.48573293113E+03  0.50397802694E+03  0.12000000000E+03 0.  0.
<mgrwt>
<rscale>  0 0.26875545E+03</rscale>
<asrwt>0</asrwt>
<pdfrwt beam="1">  1        1 0.15221434E+00 0.26875545E+03</pdfrwt>
<pdfrwt beam="2">  1       -1 0.28078396E-02 0.26875545E+03</pdfrwt>
<totfact> 0.67660770E+03</totfact>
</mgrwt>
</event>
<event>
 4    1  0.1733772E-004  0.3375748E+03  0.7818608E-02  0.1067834E+00
         -2   -1    0    0    0  501 -0.00000000000E+00  0.00000000000E+00  0.34410220905E+02  0.34410220905E+02  0.00000000000E+00 0. -1.
          2   -1    0    0  501    0  0.00000000000E+00 -0.00000000000E+00 -0.82792812866E+03  0.82792812866E+03  0.00000000000E+00 0. -1.
         25    1    1    2    0    0 -0.31852429435E+02 -0.67635046129E+02 -0.63227473165E+03  0.64788919809E+03  0.12000000000E+03 0.  0.
         25    1    1    2    0    0  0.31852429435E+02  0.67635046129E+02 -0.16124317610E+03  0.21444915147E+03  0.12000000000E+03 0.  0.
<mgrwt>
<rscale>  0 0.33757482E+03</rscale>
<asrwt>0</asrwt>
<pdfrwt beam="1">  1        2 0.12737356E+00 0.33757482E+03</pdfrwt>
<pdfrwt beam="2">  1       -2 0.52938801E-02 0.33757482E+03</pdfrwt>
<totfact> 0.61107225E+03</totfact>
</mgrwt>
</event>
<event>
 4    1  0.1733772E-004  0.2931999E+03  0.7818608E-02  0.1088690E+00
          2   -1    0    0  501    0  0.00000000000E+00  0.00000000000E+00  0.96314116196E+03  0.96314116196E+03  0.00000000000E+00 0. -1.
         -2   -1    0    0    0  501 -0.00000000000E+00 -0.00000000000E+00 -0.22314018310E+02  0.22314018310E+02  0.00000000000E+00 0. -1.
         25    1    1    2    0    0 -0.83204499623E+02 -0.12548099207E+02  0.45921271333E+03  0.48203398182E+03  0.12000000000E+03 0.  0.
         25    1    1    2    0    0  0.83204499623E+02  0.12548099207E+02  0.48161443032E+03  0.50342119845E+03  0.12000000000E+03 0.  0.
<mgrwt>
<rscale>  0 0.29319993E+03</rscale>
<asrwt>0</asrwt>
<pdfrwt beam="1">  1        2 0.14817553E+00 0.29319993E+03</pdfrwt>
<pdfrwt beam="2">  1       -2 0.34329266E-02 0.29319993E+03</pdfrwt>
<totfact> 0.95793618E+03</totfact>
</mgrwt>
</event>
<event>
 4    1  0.1733772E-004  0.2465982E+03  0.7818608E-02  0.1115474E+00
         -2   -1    0    0    0  501 -0.00000000000E+00  0.00000000000E+00  0.59271586969E+01  0.59271586969E+01  0.00000000000E+00 0.  1.
          2   -1    0    0  501    0  0.00000000000E+00 -0.00000000000E+00 -0.25649168837E+04  0.25649168837E+04  0.00000000000E+00 0.  1.
         25    1    1    2    0    0 -0.74079427123E+01 -0.17510419933E+02 -0.10605210208E+04  0.10674578811E+04  0.12000000000E+03 0.  0.
         25    1    1    2    0    0  0.74079427123E+01  0.17510419933E+02 -0.14984687042E+04  0.15033861613E+04  0.12000000000E+03 0.  0.
<mgrwt>
<rscale>  0 0.24659821E+03</rscale>
<asrwt>0</asrwt>
<pdfrwt beam="1">  1        2 0.39460387E+00 0.24659821E+03</pdfrwt>
<pdfrwt beam="2">  1       -2 0.91186763E-03 0.24659821E+03</pdfrwt>
<totfact> 0.90003194E+03</totfact>
</mgrwt>
</event>
<event>
 4    1  0.1733772E-004  0.3078713E+03  0.7818608E-02  0.1081371E+00
          2   -1    0    0  501    0  0.00000000000E+00  0.00000000000E+00  0.11348389534E+04  0.11348389534E+04  0.00000000000E+00 0. -1.
         -2   -1    0    0    0  501 -0.00000000000E+00 -0.00000000000E+00 -0.20880653981E+02  0.20880653981E+02  0.00000000000E+00 0. -1.
         25    1    1    2    0    0  0.78569205030E+02 -0.47160517647E+02  0.66953029185E+03  0.68634397070E+03  0.12000000000E+03 0.  0.
         25    1    1    2    0    0 -0.78569205030E+02  0.47160517647E+02  0.44442800757E+03  0.46937563668E+03  0.12000000000E+03 0.  0.
<mgrwt>
<rscale>  0 0.30787127E+03</rscale>
<asrwt>0</asrwt>
<pdfrwt beam="1">  1        2 0.17459056E+00 0.30787127E+03</pdfrwt>
<pdfrwt beam="2">  1       -2 0.32124092E-02 0.30787127E+03</pdfrwt>
<totfact> 0.83475664E+03</totfact>
</mgrwt>
</event>
<event>
 4    1  0.1733772E-004  0.2776681E+03  0.7818608E-02  0.1096969E+00
          2   -1    0    0  501    0  0.00000000000E+00  0.00000000000E+00  0.10275064138E+04  0.10275064138E+04  0.00000000000E+00 0. -1.
         -2   -1    0    0    0  501 -0.00000000000E+00 -0.00000000000E+00 -0.18758898366E+02  0.18758898366E+02  0.00000000000E+00 0. -1.
         25    1    1    2    0    0 -0.50096901947E+02 -0.44337559097E+02  0.57967522290E+03  0.59573390266E+03  0.12000000000E+03 0.  0.
         25    1    1    2    0    0  0.50096901947E+02  0.44337559097E+02  0.42907229250E+03  0.45053140948E+03  0.12000000000E+03 0.  0.
<mgrwt>
<rscale>  0 0.27766806E+03</rscale>
<asrwt>0</asrwt>
<pdfrwt beam="1">  1        2 0.15807787E+00 0.27766806E+03</pdfrwt>
<pdfrwt beam="2">  1       -2 0.28859852E-02 0.27766806E+03</pdfrwt>
<totfact> 0.11312680E+04</totfact>
</mgrwt>
</event>
<event>
 4    1  0.1733772E-004  0.4537987E+03  0.7818608E-02  0.1026595E+00
          2   -1    0    0  501    0  0.00000000000E+00  0.00000000000E+00  0.33007474872E+03  0.33007474872E+03  0.00000000000E+00 0. -1.
         -2   -1    0    0    0  501 -0.00000000000E+00 -0.00000000000E+00 -0.15597472460E+03  0.15597472460E+03  0.00000000000E+00 0. -1.
         25    1    1    2    0    0  0.16885427333E+03 -0.87387704062E+02  0.54300151534E+02  0.23129393183E+03  0.12000000000E+03 0.  0.
         25    1    1    2    0    0 -0.16885427333E+03  0.87387704062E+02  0.11979987259E+03  0.25475554148E+03  0.12000000000E+03 0.  0.
<mgrwt>
<rscale>  0 0.45379871E+03</rscale>
<asrwt>0</asrwt>
<pdfrwt beam="1">  1        2 0.50780730E-01 0.45379871E+03</pdfrwt>
<pdfrwt beam="2">  1       -2 0.23996112E-01 0.45379871E+03</pdfrwt>
<totfact> 0.15165996E+03</totfact>
</mgrwt>
</event>
<event>
 4    1  0.1733772E-004  0.3401871E+03  0.7818608E-02  0.1066716E+00
          1   -1    0    0  501    0  0.00000000000E+00  0.00000000000E+00  0.99758819338E+02  0.99758819338E+02  0.00000000000E+00 0.  1.
         -1   -1    0    0    0  501 -0.00000000000E+00 -0.00000000000E+00 -0.29001758496E+03  0.29001758496E+03  0.00000000000E+00 0.  1.
         25    1    1    2    0    0  0.28665626621E+02  0.45596620514E+02 -0.21869767472E+03  0.25520470779E+03  0.12000000000E+03 0.  0.
         25    1    1    2    0    0 -0.28665626621E+02 -0.45596620514E+02  0.28438909090E+02  0.13457169651E+03  0.12000000000E+03 0.  0.
<mgrwt>
<rscale>  0 0.34018708E+03</rscale>
<asrwt>0</asrwt>
<pdfrwt beam="1">  1        1 0.15347511E-01 0.34018708E+03</pdfrwt>
<pdfrwt beam="2">  1       -1 0.44618089E-01 0.34018708E+03</pdfrwt>
<totfact> 0.18375660E+03</totfact>
</mgrwt>
</event>
<event>
 4    1  0.1733772E-004  0.2558890E+03  0.7818608E-02  0.1109639E+00
         -2   -1    0    0    0  501 -0.00000000000E+00  0.00000000000E+00  0.80651348757E+01  0.80651348757E+01  0.00000000000E+00 0. -1.
          2   -1    0    0  501    0  0.00000000000E+00 -0.00000000000E+00 -0.20296981054E+04  0.20296981054E+04  0.00000000000E+00 0. -1.
         25    1    1    2    0    0 -0.46125999472E+01  0.22436665168E+02 -0.13135444100E+04  0.13192132492E+04  0.12000000000E+03 0.  0.
         25    1    1    2    0    0  0.46125999472E+01 -0.22436665168E+02 -0.70808856059E+03  0.71854999107E+03  0.12000000000E+03 0.  0.
<mgrwt>
<rscale>  0 0.25588895E+03</rscale>
<asrwt>0</asrwt>
<pdfrwt beam="1">  1        2 0.31226176E+00 0.25588895E+03</pdfrwt>
<pdfrwt beam="2">  1       -2 0.12407880E-02 0.25588895E+03</pdfrwt>
<totfact> 0.11143224E+04</totfact>
</mgrwt>
</event>
<event>
 4    1  0.1733772E-004  0.2665155E+03  0.7818608E-02  0.1103291E+00
         -1   -1    0    0    0  501 -0.00000000000E+00  0.00000000000E+00  0.36825710605E+03  0.36825710605E+03  0.00000000000E+00 0.  1.
          1   -1    0    0  501    0  0.00000000000E+00 -0.00000000000E+00 -0.48220741762E+02  0.48220741762E+02  0.00000000000E+00 0.  1.
         25    1    1    2    0    0 -0.46413196683E+01 -0.30971379446E+02  0.23620352737E+03  0.26678244795E+03  0.12000000000E+03 0.  0.
         25    1    1    2    0    0  0.46413196683E+01  0.30971379446E+02  0.83832836916E+02  0.14969539986E+03  0.12000000000E+03 0.  0.
<mgrwt>
<rscale>  0 0.26651552E+03</rscale>
<asrwt>0</asrwt>
<pdfrwt beam="1">  1        1 0.74185759E-02 0.26651552E+03</pdfrwt>
<pdfrwt beam="2">  1       -1 0.56654938E-01 0.26651552E+03</pdfrwt>
<totfact> 0.31148972E+03</totfact>
</mgrwt>
</event>
<event>
 4    1  0.1733772E-004  0.2566715E+03  0.7818608E-02  0.1109160E+00
          3   -1    0    0  501    0  0.00000000000E+00  0.00000000000E+00  0.94863978544E+02  0.94863978544E+02  0.00000000000E+00 0. -1.
         -3   -1    0    0    0  501 -0.00000000000E+00 -0.00000000000E+00 -0.17361765236E+03  0.17361765236E+03  0.00000000000E+00 0. -1.
         25    1    1    2    0    0  0.26911601449E+02 -0.35403546694E+02 -0.29321186269E+02  0.13129119306E+03  0.12000000000E+03 0.  0.
         25    1    1    2    0    0 -0.26911601449E+02  0.35403546694E+02 -0.49432487550E+02  0.13719043785E+03  0.12000000000E+03 0.  0.
<mgrwt>
<rscale>  0 0.25667147E+03</rscale>
<asrwt>0</asrwt>
<pdfrwt beam="1">  1        3 0.14594458E-01 0.25667147E+03</pdfrwt>
<pdfrwt beam="2">  1       -3 0.26710408E-01 0.25667147E+03</pdfrwt>
<totfact> 0.13076524E+03</totfact>
</mgrwt>
</event>
<event>
 4    1  0.1733772E-004  0.2882763E+03  0.7818608E-02  0.1091253E+00
          2   -1    0    0  501    0  0.00000000000E+00  0.00000000000E+00  0.11092358299E+04  0.11092358299E+04  0.00000000000E+00 0.  1.
         -2   -1    0    0    0  501 -0.00000000000E+00 -0.00000000000E+00 -0.18729836309E+02  0.18729836309E+02  0.00000000000E+00 0.  1.
         25    1    1    2    0    0 -0.44265825421E+02 -0.65812021209E+02  0.50915334795E+03  0.52908205145E+03  0.12000000000E+03 0.  0.
         25    1    1    2    0    0  0.44265825421E+02  0.65812021209E+02  0.58135264569E+03  0.59888361481E+03  0.12000000000E+03 0.  0.
<mgrwt>
<rscale>  0 0.28827629E+03</rscale>
<asrwt>0</asrwt>
<pdfrwt beam="1">  1        2 0.17065162E+00 0.28827629E+03</pdfrwt>
<pdfrwt beam="2">  1       -2 0.28815141E-02 0.28827629E+03</pdfrwt>
<totfact> 0.10147138E+04</totfact>
</mgrwt>
</event>
<event>
 4    1  0.1733772E-004  0.2928316E+03  0.7818608E-02  0.1088880E+00
         -2   -1    0    0    0  501 -0.00000000000E+00  0.00000000000E+00  0.68933987596E+03  0.68933987596E+03  0.00000000000E+00 0.  1.
          2   -1    0    0  501    0  0.00000000000E+00 -0.00000000000E+00 -0.31098716294E+02  0.31098716294E+02  0.00000000000E+00 0.  1.
         25    1    1    2    0    0 -0.17419813404E+01 -0.71752750696E+02  0.22227399370E+03  0.26259706778E+03  0.12000000000E+03 0.  0.
         25    1    1    2    0    0  0.17419813404E+01  0.71752750696E+02  0.43596716596E+03  0.45784152447E+03  0.12000000000E+03 0.  0.
<mgrwt>
<rscale>  0 0.29283159E+03</rscale>
<asrwt>0</asrwt>
<pdfrwt beam="1">  1        2 0.47844184E-02 0.29283159E+03</pdfrwt>
<pdfrwt beam="2">  1       -2 0.10605228E+00 0.29283159E+03</pdfrwt>
<totfact> 0.12470000E+03</totfact>
</mgrwt>
</event>
<event>
 4    1  0.1733772E-004  0.2669841E+03  0.7818608E-02  0.1103018E+00
          2   -1    0    0  501    0  0.00000000000E+00  0.00000000000E+00  0.12472107288E+04  0.12472107288E+04  0.00000000000E+00 0. -1.
         -2   -1    0    0    0  501 -0.00000000000E+00 -0.00000000000E+00 -0.14287982277E+02  0.14287982277E+02  0.00000000000E+00 0. -1.
         25    1    1    2    0    0  0.41443668136E+02 -0.41226615731E+02  0.60839654300E+03  0.62286721298E+03  0.12000000000E+03 0.  0.
         25    1    1    2    0    0 -0.41443668136E+02  0.41226615731E+02  0.62452620352E+03  0.63863149810E+03  0.12000000000E+03 0.  0.
<mgrwt>
<rscale>  0 0.26698408E+03</rscale>
<asrwt>0</asrwt>
<pdfrwt beam="1">  1        2 0.19187849E+00 0.26698408E+03</pdfrwt>
<pdfrwt beam="2">  1       -2 0.21981521E-02 0.26698408E+03</pdfrwt>
<totfact> 0.12603996E+04</totfact>
</mgrwt>
</event>
<event>
 4    1  0.1733772E-004  0.2447962E+03  0.7818608E-02  0.1116638E+00
         -2   -1    0    0    0  501 -0.00000000000E+00  0.00000000000E+00  0.13330809370E+02  0.13330809370E+02  0.00000000000E+00 0.  1.
          2   -1    0    0  501    0  0.00000000000E+00 -0.00000000000E+00 -0.11238099851E+04  0.11238099851E+04  0.00000000000E+00 0.  1.
         25    1    1    2    0    0 -0.35584459371E+01  0.18713907308E+02 -0.62389259033E+03  0.63561374838E+03  0.12000000000E+03 0.  0.
         25    1    1    2    0    0  0.35584459371E+01 -0.18713907308E+02 -0.48658658537E+03  0.50152704605E+03  0.12000000000E+03 0.  0.
<mgrwt>
<rscale>  0 0.24479621E+03</rscale>
<asrwt>0</asrwt>
<pdfrwt beam="1">  1        2 0.17289386E+00 0.24479621E+03</pdfrwt>
<pdfrwt beam="2">  1       -2 0.20508935E-02 0.24479621E+03</pdfrwt>
<totfact> 0.16360009E+04</totfact>
</mgrwt>
</event>
<event>
 4    1  0.1733772E-004  0.2955728E+03  0.7818608E-02  0.1087475E+00
          2   -1    0    0  501    0  0.00000000000E+00  0.00000000000E+00  0.14774945134E+03  0.14774945134E+03  0.00000000000E+00 0. -1.
         -2   -1    0    0    0  501 -0.00000000000E+00 -0.00000000000E+00 -0.14782337041E+03  0.14782337041E+03  0.00000000000E+00 0. -1.
         25    1    1    2    0    0  0.37948649229E+02 -0.76869278062E+02 -0.96200691724E+01  0.14778880749E+03  0.12000000000E+03 0.  0.
         25    1    1    2    0    0 -0.37948649229E+02  0.76869278062E+02  0.95461501030E+01  0.14778401426E+03  0.12000000000E+03 0.  0.
<mgrwt>
<rscale>  0 0.29557281E+03</rscale>
<asrwt>0</asrwt>
<pdfrwt beam="1">  1        2 0.22730685E-01 0.29557281E+03</pdfrwt>
<pdfrwt beam="2">  1       -2 0.22742057E-01 0.29557281E+03</pdfrwt>
<totfact> 0.40173134E+03</totfact>
</mgrwt>
</event>
<event>
 4    1  0.1733772E-004  0.2705261E+03  0.7818608E-02  0.1100979E+00
          2   -1    0    0  501    0  0.00000000000E+00  0.00000000000E+00  0.15259244485E+04  0.15259244485E+04  0.00000000000E+00 0.  1.
         -2   -1    0    0    0  501 -0.00000000000E+00 -0.00000000000E+00 -0.11990173854E+02  0.11990173854E+02  0.00000000000E+00 0.  1.
         25    1    1    2    0    0  0.16162931701E+02 -0.60244531131E+02  0.77024540856E+03  0.78202853739E+03  0.12000000000E+03 0.  0.
         25    1    1    2    0    0 -0.16162931701E+02  0.60244531131E+02  0.74368886605E+03  0.75588608492E+03  0.12000000000E+03 0.  0.
<mgrwt>
<rscale>  0 0.27052615E+03</rscale>
<asrwt>0</asrwt>
<pdfrwt beam="1">  1        2 0.23475745E+00 0.27052615E+03</pdfrwt>
<pdfrwt beam="2">  1       -2 0.18446433E-02 0.27052615E+03</pdfrwt>
<totfact> 0.11502522E+04</totfact>
</mgrwt>
</event>
<event>
 4    1  0.1733772E-004  0.2410500E+03  0.7818608E-02  0.1119095E+00
         -2   -1    0    0    0  501 -0.00000000000E+00  0.00000000000E+00  0.53139046480E+02  0.53139046480E+02  0.00000000000E+00 0. -1.
          2   -1    0    0  501    0  0.00000000000E+00 -0.00000000000E+00 -0.27336345689E+03  0.27336345689E+03  0.00000000000E+00 0. -1.
         25    1    1    2    0    0 -0.65689587415E+01 -0.79495367765E+01 -0.11615866720E+03  0.16732956200E+03  0.12000000000E+03 0.  0.
         25    1    1    2    0    0  0.65689587415E+01  0.79495367765E+01 -0.10406574321E+03  0.15917294137E+03  0.12000000000E+03 0.  0.
<mgrwt>
<rscale>  0 0.24104998E+03</rscale>
<asrwt>0</asrwt>
<pdfrwt beam="1">  1        2 0.42055916E-01 0.24104998E+03</pdfrwt>
<pdfrwt beam="2">  1       -2 0.81752379E-02 0.24104998E+03</pdfrwt>
<totfact> 0.10870516E+04</totfact>
</mgrwt>
</event>
<event>
 4    1  0.1733772E-004  0.2535129E+03  0.7818608E-02  0.1111105E+00
         -1   -1    0    0    0  501 -0.00000000000E+00  0.00000000000E+00  0.83057152491E+01  0.83057152491E+01  0.00000000000E+00 0. -1.
          1   -1    0    0  501    0  0.00000000000E+00 -0.00000000000E+00 -0.19344752719E+04  0.19344752719E+04  0.00000000000E+00 0. -1.
         25    1    1    2    0    0 -0.10680799245E+02 -0.23526950885E+02 -0.12053760136E+04  0.12116100573E+04  0.12000000000E+03 0.  0.
         25    1    1    2    0    0  0.10680799245E+02  0.23526950885E+02 -0.72079354305E+03  0.73117092981E+03  0.12000000000E+03 0.  0.
<mgrwt>
<rscale>  0 0.25351292E+03</rscale>
<asrwt>0</asrwt>
<pdfrwt beam="1">  1        1 0.29761216E+00 0.25351292E+03</pdfrwt>
<pdfrwt beam="2">  1       -1 0.12777999E-02 0.25351292E+03</pdfrwt>
<totfact> 0.49013415E+03</totfact>
</mgrwt>
</event>
<event>
 4    1  0.1733772E-004  0.2746691E+03  0.7818608E-02  0.1098637E+00
         -2   -1    0    0    0  501 -0.00000000000E+00  0.00000000000E+00  0.50276966508E+02  0.50276966508E+02  0.00000000000E+00 0. -1.
          2   -1    0    0  501    0  0.00000000000E+00 -0.00000000000E+00 -0.37513754780E+03  0.37513754780E+03  0.00000000000E+00 0. -1.
         25    1    1    2    0    0 -0.34125815591E+01 -0.31840860910E+02 -0.25320906658E+03  0.28202893032E+03  0.12000000000E+03 0.  0.
         25    1    1    2    0    0  0.34125815591E+01  0.31840860910E+02 -0.71651514711E+02  0.14338558399E+03  0.12000000000E+03 0.  0.
<mgrwt>
<rscale>  0 0.27466909E+03</rscale>
<asrwt>0</asrwt>
<pdfrwt beam="1">  1        2 0.57713466E-01 0.27466909E+03</pdfrwt>
<pdfrwt beam="2">  1       -2 0.77349184E-02 0.27466909E+03</pdfrwt>
<totfact> 0.84800243E+03</totfact>
</mgrwt>
</event>
<event>
 4    1  0.1733772E-004  0.2628051E+03  0.7818608E-02  0.1105469E+00
         -1   -1    0    0    0  501 -0.00000000000E+00  0.00000000000E+00  0.74639585943E+03  0.74639585943E+03  0.00000000000E+00 0.  1.
          1   -1    0    0  501    0  0.00000000000E+00 -0.00000000000E+00 -0.23133349929E+02  0.23133349929E+02  0.00000000000E+00 0.  1.
         25    1    1    2    0    0 -0.88542674623E+01 -0.39072750142E+02  0.25762846749E+03  0.28701481689E+03  0.12000000000E+03 0.  0.
         25    1    1    2    0    0  0.88542674623E+01  0.39072750142E+02  0.46563404201E+03  0.48251439247E+03  0.12000000000E+03 0.  0.
<mgrwt>
<rscale>  0 0.26280515E+03</rscale>
<asrwt>0</asrwt>
<pdfrwt beam="1">  1        1 0.35589775E-02 0.26280515E+03</pdfrwt>
<pdfrwt beam="2">  1       -1 0.11483011E+00 0.26280515E+03</pdfrwt>
<totfact> 0.19621207E+03</totfact>
</mgrwt>
</event>
<event>
 4    1  0.1733772E-004  0.5397138E+03  0.7818608E-02  0.1003903E+00
          2   -1    0    0  501    0  0.00000000000E+00  0.00000000000E+00  0.61311524274E+03  0.61311524274E+03  0.00000000000E+00 0.  1.
         -2   -1    0    0    0  501 -0.00000000000E+00 -0.00000000000E+00 -0.11877495178E+03  0.11877495178E+03  0.00000000000E+00 0.  1.
         25    1    1    2    0    0  0.17144358329E+03  0.56152437457E+02  0.29029203882E+02  0.21860625142E+03  0.12000000000E+03 0.  0.
         25    1    1    2    0    0 -0.17144358329E+03 -0.56152437457E+02  0.46531108708E+03  0.51328394309E+03  0.12000000000E+03 0.  0.
<mgrwt>
<rscale>  0 0.53971375E+03</rscale>
<asrwt>0</asrwt>
<pdfrwt beam="1">  1        2 0.94325420E-01 0.53971375E+03</pdfrwt>
<pdfrwt beam="2">  1       -2 0.18273070E-01 0.53971375E+03</pdfrwt>
<totfact> 0.12095633E+03</totfact>
</mgrwt>
</event>
<event>
 4    1  0.1733772E-004  0.2465932E+03  0.7818608E-02  0.1115477E+00
         -2   -1    0    0    0  501 -0.00000000000E+00  0.00000000000E+00  0.19608180759E+02  0.19608180759E+02  0.00000000000E+00 0. -1.
          2   -1    0    0  501    0  0.00000000000E+00 -0.00000000000E+00 -0.77529134804E+03  0.77529134804E+03  0.00000000000E+00 0. -1.
         25    1    1    2    0    0 -0.23460241405E+02 -0.81679289699E+01 -0.33400223953E+03  0.35577323396E+03  0.12000000000E+03 0.  0.
         25    1    1    2    0    0  0.23460241405E+02  0.81679289699E+01 -0.42168092775E+03  0.43912629484E+03  0.12000000000E+03 0.  0.
<mgrwt>
<rscale>  0 0.24659321E+03</rscale>
<asrwt>0</asrwt>
<pdfrwt beam="1">  1        2 0.11927558E+00 0.24659321E+03</pdfrwt>
<pdfrwt beam="2">  1       -2 0.30166435E-02 0.24659321E+03</pdfrwt>
<totfact> 0.15358156E+04</totfact>
</mgrwt>
</event>
<event>
 4    1  0.1733772E-004  0.2533700E+03  0.7818608E-02  0.1111193E+00
         -1   -1    0    0    0  501 -0.00000000000E+00  0.00000000000E+00  0.69009861893E+02  0.69009861893E+02  0.00000000000E+00 0.  1.
          1   -1    0    0  501    0  0.00000000000E+00 -0.00000000000E+00 -0.23256217779E+03  0.23256217779E+03  0.00000000000E+00 0.  1.
         25    1    1    2    0    0  0.80301132596E+00  0.16955335624E+02 -0.12568560056E+03  0.17459953729E+03  0.12000000000E+03 0.  0.
         25    1    1    2    0    0 -0.80301132596E+00 -0.16955335624E+02 -0.37866715335E+02  0.12697250239E+03  0.12000000000E+03 0.  0.
<mgrwt>
<rscale>  0 0.25336996E+03</rscale>
<asrwt>0</asrwt>
<pdfrwt beam="1">  1        1 0.35778797E-01 0.25336996E+03</pdfrwt>
<pdfrwt beam="2">  1       -1 0.10616902E-01 0.25336996E+03</pdfrwt>
<totfact> 0.66391867E+03</totfact>
</mgrwt>
</event>
<event>
 4    1  0.1733772E-004  0.2737981E+03  0.7818608E-02  0.1099125E+00
         -1   -1    0    0    0  501 -0.00000000000E+00  0.00000000000E+00  0.19579143121E+02  0.19579143121E+02  0.00000000000E+00 0. -1.
          1   -1    0    0  501    0  0.00000000000E+00 -0.00000000000E+00 -0.95721023161E+03  0.95721023161E+03  0.00000000000E+00 0. -1.
         25    1    1    2    0    0 -0.18032223677E+02  0.23474251952E+02 -0.25880953224E+03  0.28680755843E+03  0.12000000000E+03 0.  0.
         25    1    1    2    0    0  0.18032223677E+02 -0.23474251952E+02 -0.67882155625E+03  0.68998181630E+03  0.12000000000E+03 0.  0.
<mgrwt>
<rscale>  0 0.27379815E+03</rscale>
<asrwt>0</asrwt>
<pdfrwt beam="1">  1        1 0.14726309E+00 0.27379815E+03</pdfrwt>
<pdfrwt beam="2">  1       -1 0.30121763E-02 0.27379815E+03</pdfrwt>
<totfact> 0.64553797E+03</totfact>
</mgrwt>
</event>
<event>
 4    1  0.1733772E-004  0.3243958E+03  0.7818608E-02  0.1073644E+00
          2   -1    0    0  501    0  0.00000000000E+00  0.00000000000E+00  0.54664036835E+03  0.54664036835E+03  0.00000000000E+00 0.  1.
         -2   -1    0    0    0  501 -0.00000000000E+00 -0.00000000000E+00 -0.48127000390E+02  0.48127000390E+02  0.00000000000E+00 0.  1.
         25    1    1    2    0    0  0.43604721357E+01 -0.10885048592E+03  0.23755706800E+03  0.28757747227E+03  0.12000000000E+03 0.  0.
         25    1    1    2    0    0 -0.43604721357E+01  0.10885048592E+03  0.26095629996E+03  0.30718989647E+03  0.12000000000E+03 0.  0.
<mgrwt>
<rscale>  0 0.32439582E+03</rscale>
<asrwt>0</asrwt>
<pdfrwt beam="1">  1        2 0.84098514E-01 0.32439582E+03</pdfrwt>
<pdfrwt beam="2">  1       -2 0.74041543E-02 0.32439582E+03</pdfrwt>
<totfact> 0.60130715E+03</totfact>
</mgrwt>
</event>
<event>
 4    1  0.1733772E-004  0.3093145E+03  0.7818608E-02  0.1080675E+00
         -2   -1    0    0    0  501 -0.00000000000E+00  0.00000000000E+00  0.10799906828E+02  0.10799906828E+02  0.00000000000E+00 0.  1.
          2   -1    0    0  501    0  0.00000000000E+00 -0.00000000000E+00 -0.22147293886E+04  0.22147293886E+04  0.00000000000E+00 0.  1.
         25    1    1    2    0    0 -0.55411974566E+02  0.23213163443E+02 -0.16550722672E+04  0.16605040041E+04  0.12000000000E+03 0.  0.
         25    1    1    2    0    0  0.55411974566E+02 -0.23213163443E+02 -0.54885721450E+03  0.56502529129E+03  0.12000000000E+03 0.  0.
<mgrwt>
<rscale>  0 0.30931454E+03</rscale>
<asrwt>0</asrwt>
<pdfrwt beam="1">  1        2 0.34072826E+00 0.30931454E+03</pdfrwt>
<pdfrwt beam="2">  1       -2 0.16615209E-02 0.30931454E+03</pdfrwt>
<totfact> 0.58063763E+03</totfact>
</mgrwt>
</event>
<event>
 4    1  0.1733772E-004  0.3106355E+03  0.7818608E-02  0.1080042E+00
          3   -1    0    0  501    0  0.00000000000E+00  0.00000000000E+00  0.85397448204E+02  0.85397448204E+02  0.00000000000E+00 0.  1.
         -3   -1    0    0    0  501 -0.00000000000E+00 -0.00000000000E+00 -0.28248629413E+03  0.28248629413E+03  0.00000000000E+00 0.  1.
         25    1    1    2    0    0 -0.73345220076E+02 -0.12529148145E+02 -0.17517754769E+03  0.22499705348E+03  0.12000000000E+03 0.  0.
         25    1    1    2    0    0  0.73345220076E+02  0.12529148145E+02 -0.21911298240E+02  0.14288668885E+03  0.12000000000E+03 0.  0.
<mgrwt>
<rscale>  0 0.31063553E+03</rscale>
<asrwt>0</asrwt>
<pdfrwt beam="1">  1        3 0.13138069E-01 0.31063553E+03</pdfrwt>
<pdfrwt beam="2">  1       -3 0.43459429E-01 0.31063553E+03</pdfrwt>
<totfact> 0.63212727E+02</totfact>
</mgrwt>
</event>
<event>
 4    1  0.1733772E-004  0.3813082E+03  0.7818608E-02  0.1050451E+00
         -2   -1    0    0    0  501 -0.00000000000E+00  0.00000000000E+00  0.84435269439E+02  0.84435269439E+02  0.00000000000E+00 0.  1.
          2   -1    0    0  501    0  0.00000000000E+00 -0.00000000000E+00 -0.43049534859E+03  0.43049534859E+03  0.00000000000E+00 0.  1.
         25    1    1    2    0    0 -0.87631558351E+02  0.11876978478E+03 -0.19029439353E+03  0.26906785018E+03  0.12000000000E+03 0.  0.
         25    1    1    2    0    0  0.87631558351E+02 -0.11876978478E+03 -0.15576568563E+03  0.24586276785E+03  0.12000000000E+03 0.  0.
<mgrwt>
<rscale>  0 0.38130823E+03</rscale>
<asrwt>0</asrwt>
<pdfrwt beam="1">  1        2 0.66230055E-01 0.38130823E+03</pdfrwt>
<pdfrwt beam="2">  1       -2 0.12990041E-01 0.38130823E+03</pdfrwt>
<totfact> 0.32140346E+03</totfact>
</mgrwt>
</event>
<event>
 4    1  0.1733772E-004  0.2969239E+03  0.7818608E-02  0.1086789E+00
          2   -1    0    0  501    0  0.00000000000E+00  0.00000000000E+00  0.86270325322E+03  0.86270325322E+03  0.00000000000E+00 0. -1.
         -2   -1    0    0    0  501 -0.00000000000E+00 -0.00000000000E+00 -0.25548705815E+02  0.25548705815E+02  0.00000000000E+00 0. -1.
         25    1    1    2    0    0  0.53681803214E+02 -0.63279101586E+02  0.33638024441E+03  0.36665740075E+03  0.12000000000E+03 0.  0.
         25    1    1    2    0    0 -0.53681803214E+02  0.63279101586E+02  0.50077430299E+03  0.52159455828E+03  0.12000000000E+03 0.  0.
<mgrwt>
<rscale>  0 0.29692391E+03</rscale>
<asrwt>0</asrwt>
<pdfrwt beam="1">  1        2 0.13272356E+00 0.29692391E+03</pdfrwt>
<pdfrwt beam="2">  1       -2 0.39305708E-02 0.29692391E+03</pdfrwt>
<totfact> 0.90741918E+03</totfact>
</mgrwt>
</event>
<event>
 4    1  0.1733772E-004  0.2408299E+03  0.7818608E-02  0.1119241E+00
         -2   -1    0    0    0  501 -0.00000000000E+00  0.00000000000E+00  0.49396599283E+02  0.49396599283E+02  0.00000000000E+00 0.  1.
          2   -1    0    0  501    0  0.00000000000E+00 -0.00000000000E+00 -0.29353750124E+03  0.29353750124E+03  0.00000000000E+00 0.  1.
         25    1    1    2    0    0  0.65366251159E+01  0.74902455428E+01 -0.12070234645E+03  0.17049307225E+03  0.12000000000E+03 0.  0.
         25    1    1    2    0    0 -0.65366251159E+01 -0.74902455428E+01 -0.12343855550E+03  0.17244102827E+03  0.12000000000E+03 0.  0.
<mgrwt>
<rscale>  0 0.24082985E+03</rscale>
<asrwt>0</asrwt>
<pdfrwt beam="1">  1        2 0.45159615E-01 0.24082985E+03</pdfrwt>
<pdfrwt beam="2">  1       -2 0.75994769E-02 0.24082985E+03</pdfrwt>
<totfact> 0.11283729E+04</totfact>
</mgrwt>
</event>
<event>
 4    1  0.1733772E-004  0.2616501E+03  0.7818608E-02  0.1106156E+00
          2   -1    0    0  501    0  0.00000000000E+00  0.00000000000E+00  0.11074419775E+04  0.11074419775E+04  0.00000000000E+00 0.  1.
         -2   -1    0    0    0  501 -0.00000000000E+00 -0.00000000000E+00 -0.15454707997E+02  0.15454707997E+02  0.00000000000E+00 0.  1.
         25    1    1    2    0    0  0.33902963137E+01 -0.48356410055E+02  0.62802443801E+03  0.64122112507E+03  0.12000000000E+03 0.  0.
         25    1    1    2    0    0 -0.33902963137E+01  0.48356410055E+02  0.46396283151E+03  0.48167556044E+03  0.12000000000E+03 0.  0.
<mgrwt>
<rscale>  0 0.26165009E+03</rscale>
<asrwt>0</asrwt>
<pdfrwt beam="1">  1        2 0.17037563E+00 0.26165009E+03</pdfrwt>
<pdfrwt beam="2">  1       -2 0.23776482E-02 0.26165009E+03</pdfrwt>
<totfact> 0.13485128E+04</totfact>
</mgrwt>
</event>
<event>
 4    1  0.1733772E-004  0.2864349E+03  0.7818608E-02  0.1092225E+00
         -1   -1    0    0    0  501 -0.00000000000E+00  0.00000000000E+00  0.31608520102E+02  0.31608520102E+02  0.00000000000E+00 0.  1.
          1   -1    0    0  501    0  0.00000000000E+00 -0.00000000000E+00 -0.64891471095E+03  0.64891471095E+03  0.00000000000E+00 0.  1.
         25    1    1    2    0    0 -0.26332008494E+02 -0.79489152690E+01 -0.13479954013E+03  0.18255814401E+03  0.12000000000E+03 0.  0.
         25    1    1    2    0    0  0.26332008494E+02  0.79489152690E+01 -0.48250665072E+03  0.49796508704E+03  0.12000000000E+03 0.  0.
<mgrwt>
<rscale>  0 0.28643487E+03</rscale>
<asrwt>0</asrwt>
<pdfrwt beam="1">  1        1 0.99833025E-01 0.28643487E+03</pdfrwt>
<pdfrwt beam="2">  1       -1 0.48628496E-02 0.28643487E+03</pdfrwt>
<totfact> 0.57661365E+03</totfact>
</mgrwt>
</event>
<event>
 4    1  0.1733772E-004  0.3569158E+03  0.7818608E-02  0.1059812E+00
          1   -1    0    0  501    0  0.00000000000E+00  0.00000000000E+00  0.48080410803E+03  0.48080410803E+03  0.00000000000E+00 0. -1.
         -1   -1    0    0    0  501 -0.00000000000E+00 -0.00000000000E+00 -0.66237403438E+02  0.66237403438E+02  0.00000000000E+00 0. -1.
         25    1    1    2    0    0 -0.22854429750E+02  0.92562276609E+02  0.34739774855E+03  0.37970422135E+03  0.12000000000E+03 0.  0.
         25    1    1    2    0    0  0.22854429750E+02 -0.92562276609E+02  0.67168956044E+02  0.16733729012E+03  0.12000000000E+03 0.  0.
<mgrwt>
<rscale>  0 0.35691576E+03</rscale>
<asrwt>0</asrwt>
<pdfrwt beam="1">  1        1 0.73969861E-01 0.35691576E+03</pdfrwt>
<pdfrwt beam="2">  1       -1 0.10190370E-01 0.35691576E+03</pdfrwt>
<totfact> 0.28255010E+03</totfact>
</mgrwt>
</event>
<event>
 4    1  0.1733772E-004  0.2591957E+03  0.7818608E-02  0.1107627E+00
         -2   -1    0    0    0  501 -0.00000000000E+00  0.00000000000E+00  0.14391594714E+03  0.14391594714E+03  0.00000000000E+00 0.  1.
          2   -1    0    0  501    0  0.00000000000E+00 -0.00000000000E+00 -0.11670422621E+03  0.11670422621E+03  0.00000000000E+00 0.  1.
         25    1    1    2    0    0 -0.10895272929E+02 -0.45269399362E+02 -0.15625954776E+01  0.12872632674E+03  0.12000000000E+03 0.  0.
         25    1    1    2    0    0  0.10895272929E+02  0.45269399362E+02  0.28774316411E+02  0.13189384662E+03  0.12000000000E+03 0.  0.
<mgrwt>
<rscale>  0 0.25919567E+03</rscale>
<asrwt>0</asrwt>
<pdfrwt beam="1">  1        2 0.17954496E-01 0.25919567E+03</pdfrwt>
<pdfrwt beam="2">  1       -2 0.22140915E-01 0.25919567E+03</pdfrwt>
<totfact> 0.54889782E+03</totfact>
</mgrwt>
</event>
<event>
 4    1  0.1733772E-004  0.3631634E+03  0.7818608E-02  0.1057338E+00
          1   -1    0    0  501    0  0.00000000000E+00  0.00000000000E+00  0.15036337700E+04  0.15036337700E+04  0.00000000000E+00 0. -1.
         -1   -1    0    0    0  501 -0.00000000000E+00 -0.00000000000E+00 -0.21928149176E+02  0.21928149176E+02  0.00000000000E+00 0. -1.
         25    1    1    2    0    0  0.78758463591E+02  0.46543165508E+02  0.11651657830E+04  0.11748959374E+04  0.12000000000E+03 0.  0.
         25    1    1    2    0    0 -0.78758463591E+02 -0.46543165508E+02  0.31653983777E+03  0.35066598172E+03  0.12000000000E+03 0.  0.
<mgrwt>
<rscale>  0 0.36316336E+03</rscale>
<asrwt>0</asrwt>
<pdfrwt beam="1">  1        1 0.23132819E+00 0.36316336E+03</pdfrwt>
<pdfrwt beam="2">  1       -1 0.33735626E-02 0.36316336E+03</pdfrwt>
<totfact> 0.22540820E+03</totfact>
</mgrwt>
</event>
<event>
 4    1  0.1733772E-004  0.3047745E+03  0.7818608E-02  0.1082878E+00
         -2   -1    0    0    0  501 -0.00000000000E+00  0.00000000000E+00  0.50246073794E+02  0.50246073794E+02  0.00000000000E+00 0. -1.
          2   -1    0    0  501    0  0.00000000000E+00 -0.00000000000E+00 -0.46216306462E+03  0.46216306462E+03  0.00000000000E+00 0. -1.
         25    1    1    2    0    0  0.57432565709E+02 -0.36724211346E+02 -0.31458891461E+03  0.34353071551E+03  0.12000000000E+03 0.  0.
         25    1    1    2    0    0 -0.57432565709E+02  0.36724211346E+02 -0.97328076218E+02  0.16887842291E+03  0.12000000000E+03 0.  0.
<mgrwt>
<rscale>  0 0.30477454E+03</rscale>
<asrwt>0</asrwt>
<pdfrwt beam="1">  1        2 0.71102009E-01 0.30477454E+03</pdfrwt>
<pdfrwt beam="2">  1       -2 0.77301653E-02 0.30477454E+03</pdfrwt>
<totfact> 0.67796838E+03</totfact>
</mgrwt>
</event>
<event>
 4    1  0.1733772E-004  0.2898988E+03  0.7818608E-02  0.1090402E+00
         -2   -1    0    0    0  501 -0.00000000000E+00  0.00000000000E+00  0.25649124813E+02  0.25649124813E+02  0.00000000000E+00 0. -1.
          2   -1    0    0  501    0  0.00000000000E+00 -0.00000000000E+00 -0.81914419997E+03  0.81914419997E+03  0.00000000000E+00 0. -1.
         25    1    1    2    0    0 -0.64201035099E+02 -0.35136908868E+02 -0.49993935627E+03  0.51932238082E+03  0.12000000000E+03 0.  0.
         25    1    1    2    0    0  0.64201035099E+02  0.35136908868E+02 -0.29355571888E+03  0.32547094395E+03  0.12000000000E+03 0.  0.
<mgrwt>
<rscale>  0 0.28989882E+03</rscale>
<asrwt>0</asrwt>
<pdfrwt beam="1">  1        2 0.12602218E+00 0.28989882E+03</pdfrwt>
<pdfrwt beam="2">  1       -2 0.39460194E-02 0.28989882E+03</pdfrwt>
<totfact> 0.96439859E+03</totfact>
</mgrwt>
</event>
<event>
 4    1  0.1733772E-004  0.2986693E+03  0.7818608E-02  0.1085908E+00
         -1   -1    0    0    0  501 -0.00000000000E+00  0.00000000000E+00  0.39399120982E+03  0.39399120982E+03  0.00000000000E+00 0. -1.
          1   -1    0    0  501    0  0.00000000000E+00 -0.00000000000E+00 -0.56602365228E+02  0.56602365228E+02  0.00000000000E+00 0. -1.
         25    1    1    2    0    0 -0.52069514184E+02 -0.68643174613E+02  0.20166895978E+03  0.24998697779E+03  0.12000000000E+03 0.  0.
         25    1    1    2    0    0  0.52069514184E+02  0.68643174613E+02  0.13571988481E+03  0.20060659725E+03  0.12000000000E+03 0.  0.
<mgrwt>
<rscale>  0 0.29866928E+03</rscale>
<asrwt>0</asrwt>
<pdfrwt beam="1">  1        1 0.87080565E-02 0.29866928E+03</pdfrwt>
<pdfrwt beam="2">  1       -1 0.60614030E-01 0.29866928E+03</pdfrwt>
<totfact> 0.22064539E+03</totfact>
</mgrwt>
</event>
<event>
 4    1  0.1733772E-004  0.3132671E+03  0.7818608E-02  0.1078790E+00
          1   -1    0    0  501    0  0.00000000000E+00  0.00000000000E+00  0.52001349061E+03  0.52001349061E+03  0.00000000000E+00 0.  1.
         -1   -1    0    0    0  501 -0.00000000000E+00 -0.00000000000E+00 -0.47179686075E+02  0.47179686075E+02  0.00000000000E+00 0.  1.
         25    1    1    2    0    0 -0.77791504564E+02 -0.62246140473E+02  0.26252767412E+03  0.30536352085E+03  0.12000000000E+03 0.  0.
         25    1    1    2    0    0  0.77791504564E+02  0.62246140473E+02  0.21030613042E+03  0.26182965584E+03  0.12000000000E+03 0.  0.
<mgrwt>
<rscale>  0 0.31326713E+03</rscale>
<asrwt>0</asrwt>
<pdfrwt beam="1">  1        1 0.80002072E-01 0.31326713E+03</pdfrwt>
<pdfrwt beam="2">  1       -1 0.72584136E-02 0.31326713E+03</pdfrwt>
<totfact> 0.42828381E+03</totfact>
</mgrwt>
</event>
<event>
 4    1  0.1733772E-004  0.2553015E+03  0.7818608E-02  0.1109999E+00
         -2   -1    0    0    0  501 -0.00000000000E+00  0.00000000000E+00  0.38964119662E+02  0.38964119662E+02  0.00000000000E+00 0.  1.
          2   -1    0    0  501    0  0.00000000000E+00 -0.00000000000E+00 -0.41819807393E+03  0.41819807393E+03  0.00000000000E+00 0.  1.
         25    1    1    2    0    0  0.29325167636E+02 -0.30272424070E+02 -0.17013769794E+03  0.21242227138E+03  0.12000000000E+03 0.  0.
         25    1    1    2    0    0 -0.29325167636E+02  0.30272424070E+02 -0.20909625632E+03  0.24473992221E+03  0.12000000000E+03 0.  0.
<mgrwt>
<rscale>  0 0.25530155E+03</rscale>
<asrwt>0</asrwt>
<pdfrwt beam="1">  1        2 0.64338165E-01 0.25530155E+03</pdfrwt>
<pdfrwt beam="2">  1       -2 0.59944800E-02 0.25530155E+03</pdfrwt>
<totfact> 0.11140247E+04</totfact>
</mgrwt>
</event>
<event>
 4    1  0.1733772E-004  0.2833995E+03  0.7818608E-02  0.1093847E+00
         -3   -1    0    0    0  501 -0.00000000000E+00  0.00000000000E+00  0.81672069022E+02  0.81672069022E+02  0.00000000000E+00 0.  1.
          3   -1    0    0  501    0  0.00000000000E+00 -0.00000000000E+00 -0.24584690456E+03  0.24584690456E+03  0.00000000000E+00 0.  1.
         25    1    1    2    0    0  0.36935276862E+02  0.59967852123E+02 -0.11306452427E+03  0.17928732419E+03  0.12000000000E+03 0.  0.
         25    1    1    2    0    0 -0.36935276862E+02 -0.59967852123E+02 -0.51110311268E+02  0.14823164940E+03  0.12000000000E+03 0.  0.
<mgrwt>
<rscale>  0 0.28339954E+03</rscale>
<asrwt>0</asrwt>
<pdfrwt beam="1">  1        3 0.37822601E-01 0.28339954E+03</pdfrwt>
<pdfrwt beam="2">  1       -3 0.12564934E-01 0.28339954E+03</pdfrwt>
<totfact> 0.88728239E+02</totfact>
</mgrwt>
</event>
<event>
 4    1  0.1733772E-004  0.2736205E+03  0.7818608E-02  0.1099225E+00
          2   -1    0    0  501    0  0.00000000000E+00  0.00000000000E+00  0.12888061474E+03  0.12888061474E+03  0.00000000000E+00 0. -1.
         -2   -1    0    0    0  501 -0.00000000000E+00 -0.00000000000E+00 -0.14522779550E+03  0.14522779550E+03  0.00000000000E+00 0. -1.
         25    1    1    2    0    0 -0.14927792251E+02  0.49294305067E+02  0.32694740347E+02  0.13461691402E+03  0.12000000000E+03 0.  0.
         25    1    1    2    0    0  0.14927792251E+02 -0.49294305067E+02 -0.49041921108E+02  0.13949149623E+03  0.12000000000E+03 0.  0.
<mgrwt>
<rscale>  0 0.27362052E+03</rscale>
<asrwt>0</asrwt>
<pdfrwt beam="1">  1        2 0.19827787E-01 0.27362052E+03</pdfrwt>
<pdfrwt beam="2">  1       -2 0.22342738E-01 0.27362052E+03</pdfrwt>
<totfact> 0.48288980E+03</totfact>
</mgrwt>
</event>
<event>
 4    1  0.1733772E-004  0.4224582E+03  0.7818608E-02  0.1036269E+00
          1   -1    0    0  501    0  0.00000000000E+00  0.00000000000E+00  0.22185689660E+04  0.22185689660E+04  0.00000000000E+00 0. -1.
         -1   -1    0    0    0  501 -0.00000000000E+00 -0.00000000000E+00 -0.20111040845E+02  0.20111040845E+02  0.00000000000E+00 0. -1.
         25    1    1    2    0    0  0.39838533734E+02  0.40887216156E+02  0.19693086478E+04  0.19737870766E+04  0.12000000000E+03 0.  0.
         25    1    1    2    0    0 -0.39838533734E+02 -0.40887216156E+02  0.22914927737E+03  0.26489293032E+03  0.12000000000E+03 0.  0.
<mgrwt>
<rscale>  0 0.42245819E+03</rscale>
<asrwt>0</asrwt>
<pdfrwt beam="1">  1        1 0.34131811E+00 0.42245819E+03</pdfrwt>
<pdfrwt beam="2">  1       -1 0.30940080E-02 0.42245819E+03</pdfrwt>
<totfact> 0.86302573E+02</totfact>
</mgrwt>
</event>
<event>
 4    1  0.1733772E-004  0.2909933E+03  0.7818608E-02  0.1089832E+00
         -2   -1    0    0    0  501 -0.00000000000E+00  0.00000000000E+00  0.47492784888E+02  0.47492784888E+02  0.00000000000E+00 0.  1.
          2   -1    0    0  501    0  0.00000000000E+00 -0.00000000000E+00 -0.44573674894E+03  0.44573674894E+03  0.00000000000E+00 0.  1.
         25    1    1    2    0    0  0.54164040363E+02 -0.41461031385E+02 -0.27710088828E+03  0.30957658613E+03  0.12000000000E+03 0.  0.
         25    1    1    2    0    0 -0.54164040363E+02  0.41461031385E+02 -0.12114307577E+03  0.18365294770E+03  0.12000000000E+03 0.  0.
<mgrwt>
<rscale>  0 0.29099333E+03</rscale>
<asrwt>0</asrwt>
<pdfrwt beam="1">  1        2 0.68574883E-01 0.29099333E+03</pdfrwt>
<pdfrwt beam="2">  1       -2 0.73065824E-02 0.29099333E+03</pdfrwt>
<totfact> 0.76933228E+03</totfact>
</mgrwt>
</event>
<event>
 4    1  0.1733772E-004  0.2858677E+03  0.7818608E-02  0.1092527E+00
         -4   -1    0    0    0  501 -0.00000000000E+00  0.00000000000E+00  0.60231851318E+03  0.60231851318E+03  0.00000000000E+00 0. -1.
          4   -1    0    0  501    0  0.00000000000E+00 -0.00000000000E+00 -0.33919068666E+02  0.33919068666E+02  0.00000000000E+00 0. -1.
         25    1    1    2    0    0  0.13021456135E+02  0.28248674163E+02  0.12584232073E+03  0.17664607440E+03  0.12000000000E+03 0.  0.
         25    1    1    2    0    0 -0.13021456135E+02 -0.28248674163E+02  0.44255712378E+03  0.45959150745E+03  0.12000000000E+03 0.  0.
<mgrwt>
<rscale>  0 0.28586768E+03</rscale>
<asrwt>0</asrwt>
<pdfrwt beam="1">  1        4 0.52183187E-02 0.28586768E+03</pdfrwt>
<pdfrwt beam="2">  1       -4 0.92664379E-01 0.28586768E+03</pdfrwt>
<totfact> 0.42707114E+02</totfact>
</mgrwt>
</event>
<event>
 4    1  0.1733772E-004  0.2738037E+03  0.7818608E-02  0.1099122E+00
          1   -1    0    0  501    0  0.00000000000E+00  0.00000000000E+00  0.10683017978E+04  0.10683017978E+04  0.00000000000E+00 0. -1.
         -1   -1    0    0    0  501 -0.00000000000E+00 -0.00000000000E+00 -0.17543843423E+02  0.17543843423E+02  0.00000000000E+00 0. -1.
         25    1    1    2    0    0 -0.28578596037E+02  0.51438015574E+02  0.40776739499E+03  0.42911170343E+03  0.12000000000E+03 0.  0.
         25    1    1    2    0    0  0.28578596037E+02 -0.51438015574E+02  0.64299055934E+03  0.65673393775E+03  0.12000000000E+03 0.  0.
<mgrwt>
<rscale>  0 0.27380372E+03</rscale>
<asrwt>0</asrwt>
<pdfrwt beam="1">  1        1 0.16435407E+00 0.27380372E+03</pdfrwt>
<pdfrwt beam="2">  1       -1 0.26990537E-02 0.27380372E+03</pdfrwt>
<totfact> 0.62719394E+03</totfact>
</mgrwt>
</event>
<event>
 4    1  0.1733772E-004  0.2566657E+03  0.7818608E-02  0.1109163E+00
          2   -1    0    0  501    0  0.00000000000E+00  0.00000000000E+00  0.16463254702E+04  0.16463254702E+04  0.00000000000E+00 0. -1.
         -2   -1    0    0    0  501 -0.00000000000E+00 -0.00000000000E+00 -0.10003683720E+02  0.10003683720E+02  0.00000000000E+00 0. -1.
         25    1    1    2    0    0  0.16894356487E+02 -0.30061305134E+02  0.10096190782E+04  0.10173100729E+04  0.12000000000E+03 0.  0.
         25    1    1    2    0    0 -0.16894356487E+02  0.30061305134E+02  0.62670270826E+03  0.63901908100E+03  0.12000000000E+03 0.  0.
<mgrwt>
<rscale>  0 0.25666569E+03</rscale>
<asrwt>0</asrwt>
<pdfrwt beam="1">  1        2 0.25328063E+00 0.25666569E+03</pdfrwt>
<pdfrwt beam="2">  1       -2 0.15390296E-02 0.25666569E+03</pdfrwt>
<totfact> 0.12931961E+04</totfact>
</mgrwt>
</event>
<event>
 4    1  0.1733772E-004  0.2993962E+03  0.7818608E-02  0.1085543E+00
          2   -1    0    0  501    0  0.00000000000E+00  0.00000000000E+00  0.20605828917E+04  0.20605828917E+04  0.00000000000E+00 0.  1.
         -2   -1    0    0    0  501 -0.00000000000E+00 -0.00000000000E+00 -0.10875331244E+02  0.10875331244E+02  0.00000000000E+00 0.  1.
         25    1    1    2    0    0  0.51011536794E+02  0.73367942316E+02  0.10590927936E+04  0.10696086094E+04  0.12000000000E+03 0.  0.
         25    1    1    2    0    0 -0.51011536794E+02 -0.73367942316E+02  0.99061476693E+03  0.10018496136E+04  0.12000000000E+03 0.  0.
<mgrwt>
<rscale>  0 0.29939620E+03</rscale>
<asrwt>0</asrwt>
<pdfrwt beam="1">  1        2 0.31701244E+00 0.29939620E+03</pdfrwt>
<pdfrwt beam="2">  1       -2 0.16731295E-02 0.29939620E+03</pdfrwt>
<totfact> 0.69415870E+03</totfact>
</mgrwt>
</event>
<event>
 4    1  0.1733772E-004  0.3657653E+03  0.7818608E-02  0.1056324E+00
          1   -1    0    0  501    0  0.00000000000E+00  0.00000000000E+00  0.10613595500E+04  0.10613595500E+04  0.00000000000E+00 0. -1.
         -1   -1    0    0    0  501 -0.00000000000E+00 -0.00000000000E+00 -0.31512471704E+02  0.31512471704E+02  0.00000000000E+00 0. -1.
         25    1    1    2    0    0  0.83148364296E+02  0.55614061296E+02  0.79900228364E+03  0.81413219047E+03  0.12000000000E+03 0.  0.
         25    1    1    2    0    0 -0.83148364296E+02 -0.55614061296E+02  0.23084479468E+03  0.27873983126E+03  0.12000000000E+03 0.  0.
<mgrwt>
<rscale>  0 0.36576530E+03</rscale>
<asrwt>0</asrwt>
<pdfrwt beam="1">  1        1 0.16328606E+00 0.36576530E+03</pdfrwt>
<pdfrwt beam="2">  1       -1 0.48480734E-02 0.36576530E+03</pdfrwt>
<totfact> 0.26598444E+03</totfact>
</mgrwt>
</event>
<event>
 4    1  0.1733772E-004  0.2772383E+03  0.7818608E-02  0.1097207E+00
         -2   -1    0    0    0  501 -0.00000000000E+00  0.00000000000E+00  0.27992065289E+03  0.27992065289E+03  0.00000000000E+00 0.  1.
          2   -1    0    0  501    0  0.00000000000E+00 -0.00000000000E+00 -0.68645393586E+02  0.68645393586E+02  0.00000000000E+00 0.  1.
         25    1    1    2    0    0 -0.26439002514E+01  0.20697177686E+02  0.22429834853E+02  0.12384854002E+03  0.12000000000E+03 0.  0.
         25    1    1    2    0    0  0.26439002514E+01 -0.20697177686E+02  0.18884542445E+03  0.22471750646E+03  0.12000000000E+03 0.  0.
<mgrwt>
<rscale>  0 0.27723826E+03</rscale>
<asrwt>0</asrwt>
<pdfrwt beam="1">  1        2 0.10560830E-01 0.27723826E+03</pdfrwt>
<pdfrwt beam="2">  1       -2 0.43064715E-01 0.27723826E+03</pdfrwt>
<totfact> 0.30788003E+03</totfact>
</mgrwt>
</event>
<event>
 4    1  0.1733772E-004  0.4112254E+03  0.7818608E-02  0.1039961E+00
         -2   -1    0    0    0  501 -0.00000000000E+00  0.00000000000E+00  0.53230600189E+02  0.53230600189E+02  0.00000000000E+00 0. -1.
          2   -1    0    0  501    0  0.00000000000E+00 -0.00000000000E+00 -0.79421562949E+03  0.79421562949E+03  0.00000000000E+00 0. -1.
         25    1    1    2    0    0 -0.10282754814E+03 -0.12213758484E+03 -0.47114399852E+03  0.51173016486E+03  0.12000000000E+03 0.  0.
         25    1    1    2    0    0  0.10282754814E+03  0.12213758484E+03 -0.26984103078E+03  0.33571606482E+03  0.12000000000E+03 0.  0.
<mgrwt>
<rscale>  0 0.41122536E+03</rscale>
<asrwt>0</asrwt>
<pdfrwt beam="1">  1        2 0.12218702E+00 0.41122536E+03</pdfrwt>
<pdfrwt beam="2">  1       -2 0.81893232E-02 0.41122536E+03</pdfrwt>
<totfact> 0.32797555E+03</totfact>
</mgrwt>
</event>
<event>
 4    1  0.1733772E-004  0.2915108E+03  0.7818608E-02  0.1089563E+00
         -2   -1    0    0    0  501 -0.00000000000E+00  0.00000000000E+00  0.12235952337E+02  0.12235952337E+02  0.00000000000E+00 0.  1.
          2   -1    0    0  501    0  0.00000000000E+00 -0.00000000000E+00 -0.17362476222E+04  0.17362476222E+04  0.00000000000E+00 0.  1.
         25    1    1    2    0    0  0.14027330116E+02 -0.79534846721E+02 -0.75436122110E+03  0.76810377537E+03  0.12000000000E+03 0.  0.
         25    1    1    2    0    0 -0.14027330116E+02  0.79534846721E+02 -0.96965044872E+03  0.98037979913E+03  0.12000000000E+03 0.  0.
<mgrwt>
<rscale>  0 0.29151084E+03</rscale>
<asrwt>0</asrwt>
<pdfrwt beam="1">  1        2 0.26711500E+00 0.29151084E+03</pdfrwt>
<pdfrwt beam="2">  1       -2 0.18824543E-02 0.29151084E+03</pdfrwt>
<totfact> 0.86497100E+03</totfact>
</mgrwt>
</event>
<event>
 4    1  0.1733772E-004  0.2834647E+03  0.7818608E-02  0.1093812E+00
         -2   -1    0    0    0  501 -0.00000000000E+00  0.00000000000E+00  0.13961638151E+02  0.13961638151E+02  0.00000000000E+00 0. -1.
          2   -1    0    0  501    0  0.00000000000E+00 -0.00000000000E+00 -0.14388037221E+04  0.14388037221E+04  0.00000000000E+00 0. -1.
         25    1    1    2    0    0  0.40898059592E+02  0.59769348307E+02 -0.82029420366E+03  0.83218243603E+03  0.12000000000E+03 0.  0.
         25    1    1    2    0    0 -0.40898059592E+02 -0.59769348307E+02 -0.60454788026E+03  0.62058292420E+03  0.12000000000E+03 0.  0.
<mgrwt>
<rscale>  0 0.28346469E+03</rscale>
<asrwt>0</asrwt>
<pdfrwt beam="1">  1        2 0.22135447E+00 0.28346469E+03</pdfrwt>
<pdfrwt beam="2">  1       -2 0.21479439E-02 0.28346469E+03</pdfrwt>
<totfact> 0.10249264E+04</totfact>
</mgrwt>
</event>
<event>
 4    1  0.1733772E-004  0.2622936E+03  0.7818608E-02  0.1105773E+00
          2   -1    0    0  501    0  0.00000000000E+00  0.00000000000E+00  0.20321025392E+04  0.20321025392E+04  0.00000000000E+00 0.  1.
         -2   -1    0    0    0  501 -0.00000000000E+00 -0.00000000000E+00 -0.84638872660E+01  0.84638872660E+01  0.00000000000E+00 0.  1.
         25    1    1    2    0    0 -0.29482462655E+02  0.41579406381E+02  0.11222319633E+04  0.11297799087E+04  0.12000000000E+03 0.  0.
         25    1    1    2    0    0  0.29482462655E+02 -0.41579406381E+02  0.90140668868E+03  0.91078651782E+03  0.12000000000E+03 0.  0.
<mgrwt>
<rscale>  0 0.26229363E+03</rscale>
<asrwt>0</asrwt>
<pdfrwt beam="1">  1        2 0.31263077E+00 0.26229363E+03</pdfrwt>
<pdfrwt beam="2">  1       -2 0.13021381E-02 0.26229363E+03</pdfrwt>
<totfact> 0.10360519E+04</totfact>
</mgrwt>
</event>
<event>
 4    1  0.1733772E-004  0.3055885E+03  0.7818608E-02  0.1082480E+00
          2   -1    0    0  501    0  0.00000000000E+00  0.00000000000E+00  0.82995192936E+03  0.82995192936E+03  0.00000000000E+00 0. -1.
         -2   -1    0    0    0  501 -0.00000000000E+00 -0.00000000000E+00 -0.28129430875E+02  0.28129430875E+02  0.00000000000E+00 0. -1.
         25    1    1    2    0    0  0.58072788730E+02  0.48466210200E+02  0.24145812568E+03  0.28004186968E+03  0.12000000000E+03 0.  0.
         25    1    1    2    0    0 -0.58072788730E+02 -0.48466210200E+02  0.56036437281E+03  0.57803949055E+03  0.12000000000E+03 0.  0.
<mgrwt>
<rscale>  0 0.30558845E+03</rscale>
<asrwt>0</asrwt>
<pdfrwt beam="1">  1        2 0.12768489E+00 0.30558845E+03</pdfrwt>
<pdfrwt beam="2">  1       -2 0.43276054E-02 0.30558845E+03</pdfrwt>
<totfact> 0.82606894E+03</totfact>
</mgrwt>
</event>
<event>
 4    1  0.1733772E-004  0.2522268E+03  0.7818608E-02  0.1111906E+00
          2   -1    0    0  501    0  0.00000000000E+00  0.00000000000E+00  0.25195233273E+03  0.25195233273E+03  0.00000000000E+00 0. -1.
         -2   -1    0    0    0  501 -0.00000000000E+00 -0.00000000000E+00 -0.63125384377E+02  0.63125384377E+02  0.00000000000E+00 0. -1.
         25    1    1    2    0    0  0.75117053155E+01 -0.35980372437E+02  0.10989403354E+03  0.16681640065E+03  0.12000000000E+03 0.  0.
         25    1    1    2    0    0 -0.75117053155E+01  0.35980372437E+02  0.78932914815E+02  0.14826131646E+03  0.12000000000E+03 0.  0.
<mgrwt>
<rscale>  0 0.25222679E+03</rscale>
<asrwt>0</asrwt>
<pdfrwt beam="1">  1        2 0.38761897E-01 0.25222679E+03</pdfrwt>
<pdfrwt beam="2">  1       -2 0.97115977E-02 0.25222679E+03</pdfrwt>
<totfact> 0.90719625E+03</totfact>
</mgrwt>
</event>
<event>
 4    1  0.1733772E-004  0.2586203E+03  0.7818608E-02  0.1107975E+00
          2   -1    0    0  501    0  0.00000000000E+00  0.00000000000E+00  0.61885835617E+03  0.61885835617E+03  0.00000000000E+00 0.  1.
         -2   -1    0    0    0  501 -0.00000000000E+00 -0.00000000000E+00 -0.27019286023E+02  0.27019286023E+02  0.00000000000E+00 0.  1.
         25    1    1    2    0    0 -0.27632055879E+02 -0.33283510887E+02  0.34888487700E+03  0.37147271772E+03  0.12000000000E+03 0.  0.
         25    1    1    2    0    0  0.27632055879E+02  0.33283510887E+02  0.24295419314E+03  0.27440492447E+03  0.12000000000E+03 0.  0.
<mgrwt>
<rscale>  0 0.25862027E+03</rscale>
<asrwt>0</asrwt>
<pdfrwt beam="1">  1        2 0.95208967E-01 0.25862027E+03</pdfrwt>
<pdfrwt beam="2">  1       -2 0.41568137E-02 0.25862027E+03</pdfrwt>
<totfact> 0.12512403E+04</totfact>
</mgrwt>
</event>
<event>
 4    1  0.1733772E-004  0.2727197E+03  0.7818608E-02  0.1099733E+00
         -1   -1    0    0    0  501 -0.00000000000E+00  0.00000000000E+00  0.15171375540E+03  0.15171375540E+03  0.00000000000E+00 0.  1.
          1   -1    0    0  501    0  0.00000000000E+00 -0.00000000000E+00 -0.12255977990E+03  0.12255977990E+03  0.00000000000E+00 0.  1.
         25    1    1    2    0    0  0.36816751098E+02 -0.46577293695E+02 -0.11437108679E+02  0.13437159262E+03  0.12000000000E+03 0.  0.
         25    1    1    2    0    0 -0.36816751098E+02  0.46577293695E+02  0.40591084187E+02  0.13990194268E+03  0.12000000000E+03 0.  0.
<mgrwt>
<rscale>  0 0.27271967E+03</rscale>
<asrwt>0</asrwt>
<pdfrwt beam="1">  1        1 0.18855351E-01 0.27271967E+03</pdfrwt>
<pdfrwt beam="2">  1       -1 0.23340578E-01 0.27271967E+03</pdfrwt>
<totfact> 0.42789971E+03</totfact>
</mgrwt>
</event>
<event>
 4    1  0.1733772E-004  0.2575824E+03  0.7818608E-02  0.1108605E+00
         -2   -1    0    0    0  501 -0.00000000000E+00  0.00000000000E+00  0.73084302039E+01  0.73084302039E+01  0.00000000000E+00 0. -1.
          2   -1    0    0  501    0  0.00000000000E+00 -0.00000000000E+00 -0.22695953030E+04  0.22695953030E+04  0.00000000000E+00 0. -1.
         25    1    1    2    0    0 -0.27645971346E+00 -0.15004027132E+02 -0.15226832007E+04  0.15274780938E+04  0.12000000000E+03 0.  0.
         25    1    1    2    0    0  0.27645971346E+00  0.15004027132E+02 -0.73960367213E+03  0.74942563946E+03  0.12000000000E+03 0.  0.
<mgrwt>
<rscale>  0 0.25758244E+03</rscale>
<asrwt>0</asrwt>
<pdfrwt beam="1">  1        2 0.34916868E+00 0.25758244E+03</pdfrwt>
<pdfrwt beam="2">  1       -2 0.11243733E-02 0.25758244E+03</pdfrwt>
<totfact> 0.96019432E+03</totfact>
</mgrwt>
</event>
<event>
 4    1  0.1733772E-004  0.3718679E+03  0.7818608E-02  0.1053981E+00
         -2   -1    0    0    0  501 -0.00000000000E+00  0.00000000000E+00  0.33675277727E+02  0.33675277727E+02  0.00000000000E+00 0. -1.
          2   -1    0    0  501    0  0.00000000000E+00 -0.00000000000E+00 -0.10266116822E+04  0.10266116822E+04  0.00000000000E+00 0. -1.
         25    1    1    2    0    0 -0.27255857485E+02  0.13487382248E+03 -0.59677388543E+03  0.62407763947E+03  0.12000000000E+03 0.  0.
         25    1    1    2    0    0  0.27255857485E+02 -0.13487382248E+03 -0.39616251905E+03  0.43620932046E+03  0.12000000000E+03 0.  0.
<mgrwt>
<rscale>  0 0.37186790E+03</rscale>
<asrwt>0</asrwt>
<pdfrwt beam="1">  1        2 0.15794023E+00 0.37186790E+03</pdfrwt>
<pdfrwt beam="2">  1       -2 0.51808128E-02 0.37186790E+03</pdfrwt>
<totfact> 0.47098576E+03</totfact>
</mgrwt>
</event>
<event>
 4    1  0.1733772E-004  0.2954970E+03  0.7818608E-02  0.1087514E+00
         -1   -1    0    0    0  501 -0.00000000000E+00  0.00000000000E+00  0.15364402358E+02  0.15364402358E+02  0.00000000000E+00 0.  1.
          1   -1    0    0  501    0  0.00000000000E+00 -0.00000000000E+00 -0.14207920734E+04  0.14207920734E+04  0.00000000000E+00 0.  1.
         25    1    1    2    0    0 -0.10871512274E+02  0.30269338576E+02 -0.10913790555E+04  0.10984273601E+04  0.12000000000E+03 0.  0.
         25    1    1    2    0    0  0.10871512274E+02 -0.30269338576E+02 -0.31404861554E+03  0.33772911565E+03  0.12000000000E+03 0.  0.
<mgrwt>
<rscale>  0 0.29549701E+03</rscale>
<asrwt>0</asrwt>
<pdfrwt beam="1">  1        1 0.21858346E+00 0.29549701E+03</pdfrwt>
<pdfrwt beam="2">  1       -1 0.23637535E-02 0.29549701E+03</pdfrwt>
<totfact> 0.43397626E+03</totfact>
</mgrwt>
</event>
<event>
 4    1  0.1733772E-004  0.5064338E+03  0.7818608E-02  0.1012113E+00
         -1   -1    0    0    0  501 -0.00000000000E+00  0.00000000000E+00  0.39957825603E+02  0.39957825603E+02  0.00000000000E+00 0. -1.
          1   -1    0    0  501    0  0.00000000000E+00 -0.00000000000E+00 -0.16046615628E+04  0.16046615628E+04  0.00000000000E+00 0. -1.
         25    1    1    2    0    0 -0.13333555319E+03 -0.26836343956E+02 -0.20855153639E+03  0.27639157446E+03  0.12000000000E+03 0.  0.
         25    1    1    2    0    0  0.13333555319E+03  0.26836343956E+02 -0.13561522008E+04  0.13682278139E+04  0.12000000000E+03 0.  0.
<mgrwt>
<rscale>  0 0.50643375E+03</rscale>
<asrwt>0</asrwt>
<pdfrwt beam="1">  1        1 0.24687105E+00 0.50643375E+03</pdfrwt>
<pdfrwt beam="2">  1       -1 0.61473568E-02 0.50643375E+03</pdfrwt>
<totfact> 0.77286413E+02</totfact>
</mgrwt>
</event>
<event>
 4    1  0.1733772E-004  0.2806285E+03  0.7818608E-02  0.1095346E+00
         -1   -1    0    0    0  501 -0.00000000000E+00  0.00000000000E+00  0.42721873423E+02  0.42721873423E+02  0.00000000000E+00 0. -1.
          1   -1    0    0  501    0  0.00000000000E+00 -0.00000000000E+00 -0.46084324900E+03  0.46084324900E+03  0.00000000000E+00 0. -1.
         25    1    1    2    0    0 -0.32740053393E+02  0.64834932813E+02 -0.21543209949E+03  0.25707288674E+03  0.12000000000E+03 0.  0.
         25    1    1    2    0    0  0.32740053393E+02 -0.64834932813E+02 -0.20268927609E+03  0.24649223568E+03  0.12000000000E+03 0.  0.
<mgrwt>
<rscale>  0 0.28062849E+03</rscale>
<asrwt>0</asrwt>
<pdfrwt beam="1">  1        1 0.70898967E-01 0.28062849E+03</pdfrwt>
<pdfrwt beam="2">  1       -1 0.65725954E-02 0.28062849E+03</pdfrwt>
<totfact> 0.58310066E+03</totfact>
</mgrwt>
</event>
<event>
 4    1  0.1733772E-004  0.2844968E+03  0.7818608E-02  0.1093258E+00
          1   -1    0    0  501    0  0.00000000000E+00  0.00000000000E+00  0.58271773337E+03  0.58271773337E+03  0.00000000000E+00 0.  1.
         -1   -1    0    0    0  501 -0.00000000000E+00 -0.00000000000E+00 -0.34724553521E+02  0.34724553521E+02  0.00000000000E+00 0.  1.
         25    1    1    2    0    0 -0.59678023452E+02  0.28213265510E+02  0.35740933983E+03  0.38275173551E+03  0.12000000000E+03 0.  0.
         25    1    1    2    0    0  0.59678023452E+02 -0.28213265510E+02  0.19058384002E+03  0.23469055139E+03  0.12000000000E+03 0.  0.
<mgrwt>
<rscale>  0 0.28449684E+03</rscale>
<asrwt>0</asrwt>
<pdfrwt beam="1">  1        1 0.89648875E-01 0.28449684E+03</pdfrwt>
<pdfrwt beam="2">  1       -1 0.53422394E-02 0.28449684E+03</pdfrwt>
<totfact> 0.58210671E+03</totfact>
</mgrwt>
</event>
<event>
 4    1  0.1733772E-004  0.2525678E+03  0.7818608E-02  0.1111693E+00
          2   -1    0    0  501    0  0.00000000000E+00  0.00000000000E+00  0.22384877954E+04  0.22384877954E+04  0.00000000000E+00 0. -1.
         -2   -1    0    0    0  501 -0.00000000000E+00 -0.00000000000E+00 -0.71242870310E+01  0.71242870310E+01  0.00000000000E+00 0. -1.
         25    1    1    2    0    0  0.16711927911E+02 -0.82842296006E+01  0.14236424389E+04  0.14288126927E+04  0.12000000000E+03 0.  0.
         25    1    1    2    0    0 -0.16711927911E+02  0.82842296006E+01  0.80772106947E+03  0.81679938973E+03  0.12000000000E+03 0.  0.
<mgrwt>
<rscale>  0 0.25256785E+03</rscale>
<asrwt>0</asrwt>
<pdfrwt beam="1">  1        2 0.34438218E+00 0.25256785E+03</pdfrwt>
<pdfrwt beam="2">  1       -2 0.10960459E-02 0.25256785E+03</pdfrwt>
<totfact> 0.10350196E+04</totfact>
</mgrwt>
</event>
<event>
 4    1  0.1733772E-004  0.3179184E+03  0.7818608E-02  0.1076611E+00
         -1   -1    0    0    0  501 -0.00000000000E+00  0.00000000000E+00  0.10242272908E+03  0.10242272908E+03  0.00000000000E+00 0. -1.
          1   -1    0    0  501    0  0.00000000000E+00 -0.00000000000E+00 -0.24670331423E+03  0.24670331423E+03  0.00000000000E+00 0. -1.
         25    1    1    2    0    0 -0.54676472675E+02 -0.19649973836E+02  0.22915094300E+02  0.13528022650E+03  0.12000000000E+03 0.  0.
         25    1    1    2    0    0  0.54676472675E+02  0.19649973836E+02 -0.16719567945E+03  0.21384581680E+03  0.12000000000E+03 0.  0.
<mgrwt>
<rscale>  0 0.31791840E+03</rscale>
<asrwt>0</asrwt>
<pdfrwt beam="1">  1        1 0.37954355E-01 0.31791840E+03</pdfrwt>
<pdfrwt beam="2">  1       -1 0.15757343E-01 0.31791840E+03</pdfrwt>
<totfact> 0.33358067E+03</totfact>
</mgrwt>
</event>
<event>
 4    1  0.1733772E-004  0.2892957E+03  0.7818608E-02  0.1090717E+00
          1   -1    0    0  501    0  0.00000000000E+00  0.00000000000E+00  0.54042519034E+02  0.54042519034E+02  0.00000000000E+00 0. -1.
         -1   -1    0    0    0  501 -0.00000000000E+00 -0.00000000000E+00 -0.38715821005E+03  0.38715821005E+03  0.00000000000E+00 0. -1.
         25    1    1    2    0    0  0.34833849078E+02  0.50929183297E+02 -0.87080165285E+02  0.16059306940E+03  0.12000000000E+03 0.  0.
         25    1    1    2    0    0 -0.34833849078E+02 -0.50929183297E+02 -0.24603552573E+03  0.28060765969E+03  0.12000000000E+03 0.  0.
<mgrwt>
<rscale>  0 0.28929573E+03</rscale>
<asrwt>0</asrwt>
<pdfrwt beam="1">  1        1 0.83142336E-02 0.28929573E+03</pdfrwt>
<pdfrwt beam="2">  1       -1 0.59562802E-01 0.28929573E+03</pdfrwt>
<totfact> 0.24287688E+03</totfact>
</mgrwt>
</event>
<event>
 4    1  0.1733772E-004  0.2746525E+03  0.7818608E-02  0.1098646E+00
         -2   -1    0    0    0  501 -0.00000000000E+00  0.00000000000E+00  0.65394455089E+01  0.65394455089E+01  0.00000000000E+00 0. -1.
          2   -1    0    0  501    0  0.00000000000E+00 -0.00000000000E+00 -0.28838074621E+04  0.28838074621E+04  0.00000000000E+00 0. -1.
         25    1    1    2    0    0  0.63501737875E+02  0.19618053559E+02 -0.15061520734E+04  0.15123859980E+04  0.12000000000E+03 0.  0.
         25    1    1    2    0    0 -0.63501737875E+02 -0.19618053559E+02 -0.13711159432E+04  0.13779609096E+04  0.12000000000E+03 0.  0.
<mgrwt>
<rscale>  0 0.27465252E+03</rscale>
<asrwt>0</asrwt>
<pdfrwt beam="1">  1        2 0.44366310E+00 0.27465252E+03</pdfrwt>
<pdfrwt beam="2">  1       -2 0.10060676E-02 0.27465252E+03</pdfrwt>
<totfact> 0.51519731E+03</totfact>
</mgrwt>
</event>
<event>
 4    1  0.1733772E-004  0.2644427E+03  0.7818608E-02  0.1104503E+00
         -1   -1    0    0    0  501 -0.00000000000E+00  0.00000000000E+00  0.20401075497E+02  0.20401075497E+02  0.00000000000E+00 0. -1.
          1   -1    0    0  501    0  0.00000000000E+00 -0.00000000000E+00 -0.85693969704E+03  0.85693969704E+03  0.00000000000E+00 0. -1.
         25    1    1    2    0    0 -0.43851402613E+01  0.33221180832E+02 -0.27140304646E+03  0.29863437501E+03  0.12000000000E+03 0.  0.
         25    1    1    2    0    0  0.43851402613E+01 -0.33221180832E+02 -0.56513557508E+03  0.57870639752E+03  0.12000000000E+03 0.  0.
<mgrwt>
<rscale>  0 0.26444275E+03</rscale>
<asrwt>0</asrwt>
<pdfrwt beam="1">  1        1 0.13183685E+00 0.26444275E+03</pdfrwt>
<pdfrwt beam="2">  1       -1 0.31386277E-02 0.26444275E+03</pdfrwt>
<totfact> 0.72722311E+03</totfact>
</mgrwt>
</event>
<event>
 4    1  0.1733772E-004  0.2606056E+03  0.7818608E-02  0.1106780E+00
          1   -1    0    0  501    0  0.00000000000E+00  0.00000000000E+00  0.52012996420E+03  0.52012996420E+03  0.00000000000E+00 0. -1.
         -1   -1    0    0    0  501 -0.00000000000E+00 -0.00000000000E+00 -0.32643408636E+02  0.32643408636E+02  0.00000000000E+00 0. -1.
         25    1    1    2    0    0  0.31480047254E+02  0.39454143875E+02  0.23189689158E+03  0.26593945019E+03  0.12000000000E+03 0.  0.
         25    1    1    2    0    0 -0.31480047254E+02 -0.39454143875E+02  0.25558966398E+03  0.28683392264E+03  0.12000000000E+03 0.  0.
<mgrwt>
<rscale>  0 0.26060556E+03</rscale>
<asrwt>0</asrwt>
<pdfrwt beam="1">  1        1 0.80019988E-01 0.26060556E+03</pdfrwt>
<pdfrwt beam="2">  1       -1 0.50220632E-02 0.26060556E+03</pdfrwt>
<totfact> 0.74318215E+03</totfact>
</mgrwt>
</event>
<event>
 4    1  0.1733772E-004  0.2886075E+03  0.7818608E-02  0.1091078E+00
         -2   -1    0    0    0  501 -0.00000000000E+00  0.00000000000E+00  0.26883447081E+02  0.26883447081E+02  0.00000000000E+00 0.  1.
          2   -1    0    0  501    0  0.00000000000E+00 -0.00000000000E+00 -0.77458714333E+03  0.77458714333E+03  0.00000000000E+00 0.  1.
         25    1    1    2    0    0 -0.10549697988E+02 -0.29321398415E+02 -0.16879273014E+03  0.20943262946E+03  0.12000000000E+03 0.  0.
         25    1    1    2    0    0  0.10549697988E+02  0.29321398415E+02 -0.57891096611E+03  0.59203796095E+03  0.12000000000E+03 0.  0.
<mgrwt>
<rscale>  0 0.28860750E+03</rscale>
<asrwt>0</asrwt>
<pdfrwt beam="1">  1        2 0.11916728E+00 0.28860750E+03</pdfrwt>
<pdfrwt beam="2">  1       -2 0.41359140E-02 0.28860750E+03</pdfrwt>
<totfact> 0.96466329E+03</totfact>
</mgrwt>
</event>
<event>
 4    1  0.1733772E-004  0.2544901E+03  0.7818608E-02  0.1110500E+00
          2   -1    0    0  501    0  0.00000000000E+00  0.00000000000E+00  0.38451147094E+03  0.38451147094E+03  0.00000000000E+00 0.  1.
         -2   -1    0    0    0  501 -0.00000000000E+00 -0.00000000000E+00 -0.42108776314E+02  0.42108776314E+02  0.00000000000E+00 0.  1.
         25    1    1    2    0    0 -0.38071753720E+02  0.13372186908E+02  0.14979664426E+03  0.19613084522E+03  0.12000000000E+03 0.  0.
         25    1    1    2    0    0  0.38071753720E+02 -0.13372186908E+02  0.19260605037E+03  0.23048940204E+03  0.12000000000E+03 0.  0.
<mgrwt>
<rscale>  0 0.25449014E+03</rscale>
<asrwt>0</asrwt>
<pdfrwt beam="1">  1        2 0.59155608E-01 0.25449014E+03</pdfrwt>
<pdfrwt beam="2">  1       -2 0.64782736E-02 0.25449014E+03</pdfrwt>
<totfact> 0.10830637E+04</totfact>
</mgrwt>
</event>
<event>
 4    1  0.1733772E-004  0.2539039E+03  0.7818608E-02  0.1110862E+00
         -1   -1    0    0    0  501 -0.00000000000E+00  0.00000000000E+00  0.81217883782E+02  0.81217883782E+02  0.00000000000E+00 0. -1.
          1   -1    0    0  501    0  0.00000000000E+00 -0.00000000000E+00 -0.19843895826E+03  0.19843895826E+03  0.00000000000E+00 0. -1.
         25    1    1    2    0    0  0.26614399153E+02  0.23519436040E+02 -0.35108473852E+02  0.12997728667E+03  0.12000000000E+03 0.  0.
         25    1    1    2    0    0 -0.26614399153E+02 -0.23519436040E+02 -0.82112600622E+02  0.14967955537E+03  0.12000000000E+03 0.  0.
<mgrwt>
<rscale>  0 0.25390386E+03</rscale>
<asrwt>0</asrwt>
<pdfrwt beam="1">  1        1 0.30529070E-01 0.25390386E+03</pdfrwt>
<pdfrwt beam="2">  1       -1 0.12495059E-01 0.25390386E+03</pdfrwt>
<totfact> 0.62899772E+03</totfact>
</mgrwt>
</event>
<event>
 4    1  0.1733772E-004  0.2405719E+03  0.7818608E-02  0.1119412E+00
          4   -1    0    0  501    0  0.00000000000E+00  0.00000000000E+00  0.74974946187E+03  0.74974946187E+03  0.00000000000E+00 0. -1.
         -4   -1    0    0    0  501 -0.00000000000E+00 -0.00000000000E+00 -0.19298055488E+02  0.19298055488E+02  0.00000000000E+00 0. -1.
         25    1    1    2    0    0 -0.24142047026E+01 -0.11768345344E+01  0.34015753785E+03  0.36071368685E+03  0.12000000000E+03 0.  0.
         25    1    1    2    0    0  0.24142047026E+01  0.11768345344E+01  0.39029386853E+03  0.40833383051E+03  0.12000000000E+03 0.  0.
<mgrwt>
<rscale>  0 0.24057187E+03</rscale>
<asrwt>0</asrwt>
<pdfrwt beam="1">  1        4 0.11534605E+00 0.24057187E+03</pdfrwt>
<pdfrwt beam="2">  1       -4 0.29689322E-02 0.24057187E+03</pdfrwt>
<totfact> 0.61453957E+02</totfact>
</mgrwt>
</event>
<event>
 4    1  0.1733772E-004  0.2806187E+03  0.7818608E-02  0.1095352E+00
         -1   -1    0    0    0  501 -0.00000000000E+00  0.00000000000E+00  0.36617455567E+02  0.36617455567E+02  0.00000000000E+00 0. -1.
          1   -1    0    0  501    0  0.00000000000E+00 -0.00000000000E+00 -0.53763193315E+03  0.53763193315E+03  0.00000000000E+00 0. -1.
         25    1    1    2    0    0 -0.41017535528E+02  0.19552501349E+01 -0.37329708656E+03  0.39425496327E+03  0.12000000000E+03 0.  0.
         25    1    1    2    0    0  0.41017535528E+02 -0.19552501349E+01 -0.12771739102E+03  0.17999442545E+03  0.12000000000E+03 0.  0.
<mgrwt>
<rscale>  0 0.28061870E+03</rscale>
<asrwt>0</asrwt>
<pdfrwt beam="1">  1        1 0.82712608E-01 0.28061870E+03</pdfrwt>
<pdfrwt beam="2">  1       -1 0.56334545E-02 0.28061870E+03</pdfrwt>
<totfact> 0.59966333E+03</totfact>
</mgrwt>
</event>
<event>
 4    1  0.1733772E-004  0.2962791E+03  0.7818608E-02  0.1087116E+00
         -2   -1    0    0    0  501 -0.00000000000E+00  0.00000000000E+00  0.20329933465E+02  0.20329933465E+02  0.00000000000E+00 0.  1.
          2   -1    0    0  501    0  0.00000000000E+00 -0.00000000000E+00 -0.10794587794E+04  0.10794587794E+04  0.00000000000E+00 0.  1.
         25    1    1    2    0    0 -0.84309913125E+02  0.68281450428E+01 -0.60292134417E+03  0.62053922702E+03  0.12000000000E+03 0.  0.
         25    1    1    2    0    0  0.84309913125E+02 -0.68281450428E+01 -0.45620750178E+03  0.47924948586E+03  0.12000000000E+03 0.  0.
<mgrwt>
<rscale>  0 0.29627909E+03</rscale>
<asrwt>0</asrwt>
<pdfrwt beam="1">  1        2 0.16607060E+00 0.29627909E+03</pdfrwt>
<pdfrwt beam="2">  1       -2 0.31276818E-02 0.29627909E+03</pdfrwt>
<totfact> 0.93567713E+03</totfact>
</mgrwt>
</event>
<event>
 4    1  0.1733772E-004  0.3224997E+03  0.7818608E-02  0.1074505E+00
          3   -1    0    0  501    0  0.00000000000E+00  0.00000000000E+00  0.12684449200E+03  0.12684449200E+03  0.00000000000E+00 0. -1.
         -3   -1    0    0    0  501 -0.00000000000E+00 -0.00000000000E+00 -0.20498726990E+03  0.20498726990E+03  0.00000000000E+00 0. -1.
         25    1    1    2    0    0  0.10712458454E+02 -0.18390705263E+02  0.69570556483E+02  0.14033188211E+03  0.12000000000E+03 0.  0.
         25    1    1    2    0    0 -0.10712458454E+02  0.18390705263E+02 -0.14771333438E+03  0.19149987979E+03  0.12000000000E+03 0.  0.
<mgrwt>
<rscale>  0 0.32249965E+03</rscale>
<asrwt>0</asrwt>
<pdfrwt beam="1">  1        3 0.19514537E-01 0.32249965E+03</pdfrwt>
<pdfrwt beam="2">  1       -3 0.31536503E-01 0.32249965E+03</pdfrwt>
<totfact> 0.59079394E+02</totfact>
</mgrwt>
</event>
<event>
 4    1  0.1733772E-004  0.3688225E+03  0.7818608E-02  0.1055144E+00
         -1   -1    0    0    0  501 -0.00000000000E+00  0.00000000000E+00  0.46579520046E+02  0.46579520046E+02  0.00000000000E+00 0. -1.
          1   -1    0    0  501    0  0.00000000000E+00 -0.00000000000E+00 -0.73009590566E+03  0.73009590566E+03  0.00000000000E+00 0. -1.
         25    1    1    2    0    0 -0.33454601778E+02 -0.10550797825E+03 -0.52237326073E+03  0.54728874224E+03  0.12000000000E+03 0.  0.
         25    1    1    2    0    0  0.33454601778E+02  0.10550797825E+03 -0.16114312488E+03  0.22938668347E+03  0.12000000000E+03 0.  0.
<mgrwt>
<rscale>  0 0.36882254E+03</rscale>
<asrwt>0</asrwt>
<pdfrwt beam="1">  1        1 0.11232244E+00 0.36882254E+03</pdfrwt>
<pdfrwt beam="2">  1       -1 0.71660804E-02 0.36882254E+03</pdfrwt>
<totfact> 0.27083156E+03</totfact>
</mgrwt>
</event>
<event>
 4    1  0.1733772E-004  0.2962252E+03  0.7818608E-02  0.1087143E+00
          4   -1    0    0  501    0  0.00000000000E+00  0.00000000000E+00  0.12406942354E+03  0.12406942354E+03  0.00000000000E+00 0.  1.
         -4   -1    0    0    0  501 -0.00000000000E+00 -0.00000000000E+00 -0.17681502301E+03  0.17681502301E+03  0.00000000000E+00 0.  1.
         25    1    1    2    0    0 -0.18501335370E+02  0.50687049406E+02  0.42710662817E+02  0.13833176463E+03  0.12000000000E+03 0.  0.
         25    1    1    2    0    0  0.18501335370E+02 -0.50687049406E+02 -0.95456262290E+02  0.16255268192E+03  0.12000000000E+03 0.  0.
<mgrwt>
<rscale>  0 0.29622517E+03</rscale>
<asrwt>0</asrwt>
<pdfrwt beam="1">  1        4 0.19087604E-01 0.29622517E+03</pdfrwt>
<pdfrwt beam="2">  1       -4 0.27202311E-01 0.29622517E+03</pdfrwt>
<totfact> 0.59441505E+02</totfact>
</mgrwt>
</event>
<event>
 4    1  0.1733772E-004  0.2801350E+03  0.7818608E-02  0.1095615E+00
          2   -1    0    0  501    0  0.00000000000E+00  0.00000000000E+00  0.17162426909E+04  0.17162426909E+04  0.00000000000E+00 0. -1.
         -2   -1    0    0    0  501 -0.00000000000E+00 -0.00000000000E+00 -0.11431313708E+02  0.11431313708E+02  0.00000000000E+00 0. -1.
         25    1    1    2    0    0  0.16471549400E+02  0.23495997115E+02  0.12612898062E+04  0.12673102813E+04  0.12000000000E+03 0.  0.
         25    1    1    2    0    0 -0.16471549400E+02 -0.23495997115E+02  0.44352157101E+03  0.46036372334E+03  0.12000000000E+03 0.  0.
<mgrwt>
<rscale>  0 0.28013503E+03</rscale>
<asrwt>0</asrwt>
<pdfrwt beam="1">  1        2 0.26403713E+00 0.28013503E+03</pdfrwt>
<pdfrwt beam="2">  1       -2 0.17586650E-02 0.28013503E+03</pdfrwt>
<totfact> 0.97889934E+03</totfact>
</mgrwt>
</event>
<event>
 4    1  0.1733772E-004  0.3090151E+03  0.7818608E-02  0.1080819E+00
          1   -1    0    0  501    0  0.00000000000E+00  0.00000000000E+00  0.27361330192E+03  0.27361330192E+03  0.00000000000E+00 0.  1.
         -1   -1    0    0    0  501 -0.00000000000E+00 -0.00000000000E+00 -0.87249355440E+02  0.87249355440E+02  0.00000000000E+00 0.  1.
         25    1    1    2    0    0  0.81043800204E+02  0.34539917974E+02  0.44870727183E+02  0.15548146399E+03  0.12000000000E+03 0.  0.
         25    1    1    2    0    0 -0.81043800204E+02 -0.34539917974E+02  0.14149321930E+03  0.20538119338E+03  0.12000000000E+03 0.  0.
<mgrwt>
<rscale>  0 0.30901511E+03</rscale>
<asrwt>0</asrwt>
<pdfrwt beam="1">  1        1 0.42094354E-01 0.30901511E+03</pdfrwt>
<pdfrwt beam="2">  1       -1 0.13422978E-01 0.30901511E+03</pdfrwt>
<totfact> 0.37748300E+03</totfact>
</mgrwt>
</event>
<event>
 4    1  0.1733772E-004  0.3881287E+03  0.7818608E-02  0.1047970E+00
         -2   -1    0    0    0  501 -0.00000000000E+00  0.00000000000E+00  0.29709142889E+02  0.29709142889E+02  0.00000000000E+00 0. -1.
          2   -1    0    0  501    0  0.00000000000E+00 -0.00000000000E+00 -0.12676560717E+04  0.12676560717E+04  0.00000000000E+00 0. -1.
         25    1    1    2    0    0 -0.12018578885E+03 -0.93700109154E+02 -0.63920694266E+03  0.66798940848E+03  0.12000000000E+03 0.  0.
         25    1    1    2    0    0  0.12018578885E+03  0.93700109154E+02 -0.59873998611E+03  0.62937580606E+03  0.12000000000E+03 0.  0.
<mgrwt>
<rscale>  0 0.38812872E+03</rscale>
<asrwt>0</asrwt>
<pdfrwt beam="1">  1        2 0.19502396E+00 0.38812872E+03</pdfrwt>
<pdfrwt beam="2">  1       -2 0.45706385E-02 0.38812872E+03</pdfrwt>
<totfact> 0.41205302E+03</totfact>
</mgrwt>
</event>
<event>
 4    1  0.1733772E-004  0.2939230E+03  0.7818608E-02  0.1088319E+00
          1   -1    0    0  501    0  0.00000000000E+00  0.00000000000E+00  0.18777013110E+03  0.18777013110E+03  0.00000000000E+00 0. -1.
         -1   -1    0    0    0  501 -0.00000000000E+00 -0.00000000000E+00 -0.11502190774E+03  0.11502190774E+03  0.00000000000E+00 0. -1.
         25    1    1    2    0    0  0.73795508488E+02 -0.27355684524E+02  0.37390564028E+01  0.14355518483E+03  0.12000000000E+03 0.  0.
         25    1    1    2    0    0 -0.73795508488E+02  0.27355684524E+02  0.69009166957E+02  0.15923685400E+03  0.12000000000E+03 0.  0.
<mgrwt>
<rscale>  0 0.29392297E+03</rscale>
<asrwt>0</asrwt>
<pdfrwt beam="1">  1        1 0.28887712E-01 0.29392297E+03</pdfrwt>
<pdfrwt beam="2">  1       -1 0.17695678E-01 0.29392297E+03</pdfrwt>
<totfact> 0.39018933E+03</totfact>
</mgrwt>
</event>
<event>
 4    1  0.1733772E-004  0.2868710E+03  0.7818608E-02  0.1091994E+00
          2   -1    0    0  501    0  0.00000000000E+00  0.00000000000E+00  0.21117228938E+03  0.21117228938E+03  0.00000000000E+00 0.  1.
         -2   -1    0    0    0  501 -0.00000000000E+00 -0.00000000000E+00 -0.97426348633E+02  0.97426348633E+02  0.00000000000E+00 0.  1.
         25    1    1    2    0    0  0.74688466313E+02  0.16720509370E+01  0.83059725154E+02  0.16395145836E+03  0.12000000000E+03 0.  0.
         25    1    1    2    0    0 -0.74688466313E+02 -0.16720509370E+01  0.30686215591E+02  0.14464717965E+03  0.12000000000E+03 0.  0.
<mgrwt>
<rscale>  0 0.28687102E+03</rscale>
<asrwt>0</asrwt>
<pdfrwt beam="1">  1        2 0.32488045E-01 0.28687102E+03</pdfrwt>
<pdfrwt beam="2">  1       -2 0.14988669E-01 0.28687102E+03</pdfrwt>
<totfact> 0.54757050E+03</totfact>
</mgrwt>
</event>
<event>
 4    1  0.1733772E-004  0.3607711E+03  0.7818608E-02  0.1058279E+00
         -2   -1    0    0    0  501 -0.00000000000E+00  0.00000000000E+00  0.49701978125E+03  0.49701978125E+03  0.00000000000E+00 0.  1.
          2   -1    0    0  501    0  0.00000000000E+00 -0.00000000000E+00 -0.65468106827E+02  0.65468106827E+02  0.00000000000E+00 0.  1.
         25    1    1    2    0    0 -0.27678317199E+02 -0.11694842249E+03  0.31056153529E+03  0.35396537962E+03  0.12000000000E+03 0.  0.
         25    1    1    2    0    0  0.27678317199E+02  0.11694842249E+03  0.12099013914E+03  0.20852250846E+03  0.12000000000E+03 0.  0.
<mgrwt>
<rscale>  0 0.36077109E+03</rscale>
<asrwt>0</asrwt>
<pdfrwt beam="1">  1        2 0.10072017E-01 0.36077109E+03</pdfrwt>
<pdfrwt beam="2">  1       -2 0.76464579E-01 0.36077109E+03</pdfrwt>
<totfact> 0.10053398E+03</totfact>
</mgrwt>
</event>
<event>
 4    1  0.1733772E-004  0.3048994E+03  0.7818608E-02  0.1082817E+00
          2   -1    0    0  501    0  0.00000000000E+00  0.00000000000E+00  0.22007903996E+04  0.22007903996E+04  0.00000000000E+00 0.  1.
         -2   -1    0    0    0  501 -0.00000000000E+00 -0.00000000000E+00 -0.10560254800E+02  0.10560254800E+02  0.00000000000E+00 0.  1.
         25    1    1    2    0    0  0.22480532789E+02  0.63605680645E+02  0.62008385260E+03  0.63518110899E+03  0.12000000000E+03 0.  0.
         25    1    1    2    0    0 -0.22480532789E+02 -0.63605680645E+02  0.15701462922E+04  0.15761695454E+04  0.12000000000E+03 0.  0.
<mgrwt>
<rscale>  0 0.30489938E+03</rscale>
<asrwt>0</asrwt>
<pdfrwt beam="1">  1        2 0.33858277E+00 0.30489938E+03</pdfrwt>
<pdfrwt beam="2">  1       -2 0.16246563E-02 0.30489938E+03</pdfrwt>
<totfact> 0.61053223E+03</totfact>
</mgrwt>
</event>
<event>
 4    1  0.1733772E-004  0.3940658E+03  0.7818608E-02  0.1045854E+00
         -1   -1    0    0    0  501 -0.00000000000E+00  0.00000000000E+00  0.45058657046E+02  0.45058657046E+02  0.00000000000E+00 0. -1.
          1   -1    0    0  501    0  0.00000000000E+00 -0.00000000000E+00 -0.86158704492E+03  0.86158704492E+03  0.00000000000E+00 0. -1.
         25    1    1    2    0    0 -0.90679994811E+02  0.39293367859E+02 -0.68678886655E+03  0.70416317529E+03  0.12000000000E+03 0.  0.
         25    1    1    2    0    0  0.90679994811E+02 -0.39293367859E+02 -0.12973952133E+03  0.20248252668E+03  0.12000000000E+03 0.  0.
<mgrwt>
<rscale>  0 0.39406576E+03</rscale>
<asrwt>0</asrwt>
<pdfrwt beam="1">  1        1 0.13255186E+00 0.39406576E+03</pdfrwt>
<pdfrwt beam="2">  1       -1 0.69321009E-02 0.39406576E+03</pdfrwt>
<totfact> 0.22034658E+03</totfact>
</mgrwt>
</event>
<event>
 4    1  0.1733772E-004  0.2477076E+03  0.7818608E-02  0.1114762E+00
         -1   -1    0    0    0  501 -0.00000000000E+00  0.00000000000E+00  0.64662548690E+01  0.64662548690E+01  0.00000000000E+00 0. -1.
          1   -1    0    0  501    0  0.00000000000E+00 -0.00000000000E+00 -0.23722793486E+04  0.23722793486E+04  0.00000000000E+00 0. -1.
         25    1    1    2    0    0  0.19167146750E+02 -0.10875460580E+02 -0.13875454161E+04  0.13928991123E+04  0.12000000000E+03 0.  0.
         25    1    1    2    0    0 -0.19167146750E+02  0.10875460580E+02 -0.97826767759E+03  0.98584649118E+03  0.12000000000E+03 0.  0.
<mgrwt>
<rscale>  0 0.24770759E+03</rscale>
<asrwt>0</asrwt>
<pdfrwt beam="1">  1        1 0.36496648E+00 0.24770759E+03</pdfrwt>
<pdfrwt beam="2">  1       -1 0.99480727E-03 0.24770759E+03</pdfrwt>
<totfact> 0.36526367E+03</totfact>
</mgrwt>
</event>
<event>
 4    1  0.1733772E-004  0.3994943E+03  0.7818608E-02  0.1043955E+00
         -2   -1    0    0    0  501 -0.00000000000E+00  0.00000000000E+00  0.19050650299E+04  0.19050650299E+04  0.00000000000E+00 0.  1.
          2   -1    0    0  501    0  0.00000000000E+00 -0.00000000000E+00 -0.20943599837E+02  0.20943599837E+02  0.00000000000E+00 0.  1.
         25    1    1    2    0    0  0.14953770893E+03  0.35787921461E+02  0.73432606845E+03  0.75978752064E+03  0.12000000000E+03 0.  0.
         25    1    1    2    0    0 -0.14953770893E+03 -0.35787921461E+02  0.11497953617E+04  0.11662211091E+04  0.12000000000E+03 0.  0.
<mgrwt>
<rscale>  0 0.39949428E+03</rscale>
<asrwt>0</asrwt>
<pdfrwt beam="1">  1        2 0.32220938E-02 0.39949428E+03</pdfrwt>
<pdfrwt beam="2">  1       -2 0.29308679E+00 0.39949428E+03</pdfrwt>
<totfact> 0.11293090E+02</totfact>
</mgrwt>
</event>
<event>
 4    1  0.1733772E-004  0.2637691E+03  0.7818608E-02  0.1104900E+00
          4   -1    0    0  501    0  0.00000000000E+00  0.00000000000E+00  0.38640272879E+03  0.38640272879E+03  0.00000000000E+00 0.  1.
         -4   -1    0    0    0  501 -0.00000000000E+00 -0.00000000000E+00 -0.45014002903E+02  0.45014002903E+02  0.00000000000E+00 0.  1.
         25    1    1    2    0    0  0.42486873338E+02  0.11665535556E+02  0.22375174800E+03  0.25769374043E+03  0.12000000000E+03 0.  0.
         25    1    1    2    0    0 -0.42486873338E+02 -0.11665535556E+02  0.11763697789E+03  0.17372299126E+03  0.12000000000E+03 0.  0.
<mgrwt>
<rscale>  0 0.26376909E+03</rscale>
<asrwt>0</asrwt>
<pdfrwt beam="1">  1        4 0.59446572E-01 0.26376909E+03</pdfrwt>
<pdfrwt beam="2">  1       -4 0.69252315E-02 0.26376909E+03</pdfrwt>
<totfact> 0.70732974E+02</totfact>
</mgrwt>
</event>
<event>
 4    1  0.1733772E-004  0.2875878E+03  0.7818608E-02  0.1091615E+00
         -2   -1    0    0    0  501 -0.00000000000E+00  0.00000000000E+00  0.43330122258E+03  0.43330122258E+03  0.00000000000E+00 0.  1.
          2   -1    0    0  501    0  0.00000000000E+00 -0.00000000000E+00 -0.47718950576E+02  0.47718950576E+02  0.00000000000E+00 0.  1.
         25    1    1    2    0    0 -0.18220202141E+02 -0.74737852546E+02  0.22448055401E+03  0.26591209355E+03  0.12000000000E+03 0.  0.
         25    1    1    2    0    0  0.18220202141E+02  0.74737852546E+02  0.16110171799E+03  0.21510807960E+03  0.12000000000E+03 0.  0.
<mgrwt>
<rscale>  0 0.28758776E+03</rscale>
<asrwt>0</asrwt>
<pdfrwt beam="1">  1        2 0.73413773E-02 0.28758776E+03</pdfrwt>
<pdfrwt beam="2">  1       -2 0.66661724E-01 0.28758776E+03</pdfrwt>
<totfact> 0.20106890E+03</totfact>
</mgrwt>
</event>
<event>
 4    1  0.1733772E-004  0.2713898E+03  0.7818608E-02  0.1100487E+00
         -2   -1    0    0    0  501 -0.00000000000E+00  0.00000000000E+00  0.31021486542E+02  0.31021486542E+02  0.00000000000E+00 0. -1.
          2   -1    0    0  501    0  0.00000000000E+00 -0.00000000000E+00 -0.59355956247E+03  0.59355956247E+03  0.00000000000E+00 0. -1.
         25    1    1    2    0    0  0.62715962706E+01  0.61307305574E+02 -0.31502866636E+03  0.34269662862E+03  0.12000000000E+03 0.  0.
         25    1    1    2    0    0 -0.62715962706E+01 -0.61307305574E+02 -0.24750940957E+03  0.28188442039E+03  0.12000000000E+03 0.  0.
<mgrwt>
<rscale>  0 0.27138976E+03</rscale>
<asrwt>0</asrwt>
<pdfrwt beam="1">  1        2 0.91316860E-01 0.27138976E+03</pdfrwt>
<pdfrwt beam="2">  1       -2 0.47725362E-02 0.27138976E+03</pdfrwt>
<totfact> 0.10682611E+04</totfact>
</mgrwt>
</event>
<event>
 4    1  0.1733772E-004  0.3880049E+03  0.7818608E-02  0.1048014E+00
         -2   -1    0    0    0  501 -0.00000000000E+00  0.00000000000E+00  0.44242298343E+02  0.44242298343E+02  0.00000000000E+00 0. -1.
          2   -1    0    0  501    0  0.00000000000E+00 -0.00000000000E+00 -0.85070076968E+03  0.85070076968E+03  0.00000000000E+00 0. -1.
         25    1    1    2    0    0  0.88591330125E+02  0.86154698139E+02 -0.19736750240E+03  0.26196371273E+03  0.12000000000E+03 0.  0.
         25    1    1    2    0    0 -0.88591330125E+02 -0.86154698139E+02 -0.60909096893E+03  0.63297935529E+03  0.12000000000E+03 0.  0.
<mgrwt>
<rscale>  0 0.38800493E+03</rscale>
<asrwt>0</asrwt>
<pdfrwt beam="1">  1        2 0.13087703E+00 0.38800493E+03</pdfrwt>
<pdfrwt beam="2">  1       -2 0.68065079E-02 0.38800493E+03</pdfrwt>
<totfact> 0.40064235E+03</totfact>
</mgrwt>
</event>
<event>
 4    1  0.1733772E-004  0.3016647E+03  0.7818608E-02  0.1084411E+00
          2   -1    0    0  501    0  0.00000000000E+00  0.00000000000E+00  0.19006672161E+03  0.19006672161E+03  0.00000000000E+00 0.  1.
         -2   -1    0    0    0  501 -0.00000000000E+00 -0.00000000000E+00 -0.11969689260E+03  0.11969689260E+03  0.00000000000E+00 0.  1.
         25    1    1    2    0    0 -0.37525158445E+02  0.81604914169E+02  0.17913827954E+02  0.15095828816E+03  0.12000000000E+03 0.  0.
         25    1    1    2    0    0  0.37525158445E+02 -0.81604914169E+02  0.52456001061E+02  0.15880532604E+03  0.12000000000E+03 0.  0.
<mgrwt>
<rscale>  0 0.30166469E+03</rscale>
<asrwt>0</asrwt>
<pdfrwt beam="1">  1        2 0.29241034E-01 0.30166469E+03</pdfrwt>
<pdfrwt beam="2">  1       -2 0.18414907E-01 0.30166469E+03</pdfrwt>
<totfact> 0.43612573E+03</totfact>
</mgrwt>
</event>
<event>
 4    1  0.1733772E-004  0.2605108E+03  0.7818608E-02  0.1106837E+00
          1   -1    0    0  501    0  0.00000000000E+00  0.00000000000E+00  0.36570310931E+03  0.36570310931E+03  0.00000000000E+00 0.  1.
         -1   -1    0    0    0  501 -0.00000000000E+00 -0.00000000000E+00 -0.46394123653E+02  0.46394123653E+02  0.00000000000E+00 0.  1.
         25    1    1    2    0    0  0.40868623842E+02 -0.88246840387E+01  0.11440174311E+03  0.17098502358E+03  0.12000000000E+03 0.  0.
         25    1    1    2    0    0 -0.40868623842E+02  0.88246840387E+01  0.20490724255E+03  0.24111220938E+03  0.12000000000E+03 0.  0.
<mgrwt>
<rscale>  0 0.26051085E+03</rscale>
<asrwt>0</asrwt>
<pdfrwt beam="1">  1        1 0.56262015E-01 0.26051085E+03</pdfrwt>
<pdfrwt beam="2">  1       -1 0.71375577E-02 0.26051085E+03</pdfrwt>
<totfact> 0.69129412E+03</totfact>
</mgrwt>
</event>
<event>
 4    1  0.1733772E-004  0.3191287E+03  0.7818608E-02  0.1076051E+00
          2   -1    0    0  501    0  0.00000000000E+00  0.00000000000E+00  0.14989355495E+02  0.14989355495E+02  0.00000000000E+00 0.  1.
         -2   -1    0    0    0  501 -0.00000000000E+00 -0.00000000000E+00 -0.16985906758E+04  0.16985906758E+04  0.00000000000E+00 0.  1.
         25    1    1    2    0    0 -0.69937162840E+02  0.60878659391E+02 -0.57529733644E+03  0.59494910979E+03  0.12000000000E+03 0.  0.
         25    1    1    2    0    0  0.69937162840E+02 -0.60878659391E+02 -0.11083039838E+04  0.11186309215E+04  0.12000000000E+03 0.  0.
<mgrwt>
<rscale>  0 0.31912869E+03</rscale>
<asrwt>0</asrwt>
<pdfrwt beam="1">  1        2 0.23060557E-02 0.31912869E+03</pdfrwt>
<pdfrwt beam="2">  1       -2 0.26132152E+00 0.31912869E+03</pdfrwt>
<totfact> 0.27662890E+02</totfact>
</mgrwt>
</event>
<event>
 4    1  0.1733772E-004  0.3920717E+03  0.7818608E-02  0.1046560E+00
          1   -1    0    0  501    0  0.00000000000E+00  0.00000000000E+00  0.49415030806E+03  0.49415030806E+03  0.00000000000E+00 0. -1.
         -1   -1    0    0    0  501 -0.00000000000E+00 -0.00000000000E+00 -0.77769966973E+02  0.77769966973E+02  0.00000000000E+00 0. -1.
         25    1    1    2    0    0  0.15288354383E+03 -0.19997442630E+02  0.23156499978E+03  0.30297792793E+03  0.12000000000E+03 0.  0.
         25    1    1    2    0    0 -0.15288354383E+03  0.19997442630E+02  0.18481534131E+03  0.26894234711E+03  0.12000000000E+03 0.  0.
<mgrwt>
<rscale>  0 0.39207169E+03</rscale>
<asrwt>0</asrwt>
<pdfrwt beam="1">  1        1 0.76023122E-01 0.39207169E+03</pdfrwt>
<pdfrwt beam="2">  1       -1 0.11964611E-01 0.39207169E+03</pdfrwt>
<totfact> 0.21199509E+03</totfact>
</mgrwt>
</event>
<event>
 4    1  0.1733772E-004  0.2581686E+03  0.7818608E-02  0.1108249E+00
         -1   -1    0    0    0  501 -0.00000000000E+00  0.00000000000E+00  0.30885720488E+03  0.30885720488E+03  0.00000000000E+00 0. -1.
          1   -1    0    0  501    0  0.00000000000E+00 -0.00000000000E+00 -0.53949696715E+02  0.53949696715E+02  0.00000000000E+00 0. -1.
         25    1    1    2    0    0 -0.21731793066E+02 -0.41709013199E+02  0.13747391278E+03  0.18844359715E+03  0.12000000000E+03 0.  0.
         25    1    1    2    0    0  0.21731793066E+02  0.41709013199E+02  0.11743359539E+03  0.17436330445E+03  0.12000000000E+03 0.  0.
<mgrwt>
<rscale>  0 0.25816857E+03</rscale>
<asrwt>0</asrwt>
<pdfrwt beam="1">  1        1 0.82999535E-02 0.25816857E+03</pdfrwt>
<pdfrwt beam="2">  1       -1 0.47516492E-01 0.25816857E+03</pdfrwt>
<totfact> 0.37064512E+03</totfact>
</mgrwt>
</event>
<event>
 4    1  0.1733772E-004  0.3410203E+03  0.7818608E-02  0.1066362E+00
         -2   -1    0    0    0  501 -0.00000000000E+00  0.00000000000E+00  0.27494546300E+02  0.27494546300E+02  0.00000000000E+00 0. -1.
          2   -1    0    0  501    0  0.00000000000E+00 -0.00000000000E+00 -0.10574358132E+04  0.10574358132E+04  0.00000000000E+00 0. -1.
         25    1    1    2    0    0 -0.38745820712E+02 -0.11428907614E+03 -0.54841137882E+03  0.57421099951E+03  0.12000000000E+03 0.  0.
         25    1    1    2    0    0  0.38745820712E+02  0.11428907614E+03 -0.48152988810E+03  0.51071936001E+03  0.12000000000E+03 0.  0.
<mgrwt>
<rscale>  0 0.34102034E+03</rscale>
<asrwt>0</asrwt>
<pdfrwt beam="1">  1        2 0.16268243E+00 0.34102034E+03</pdfrwt>
<pdfrwt beam="2">  1       -2 0.42299302E-02 0.34102034E+03</pdfrwt>
<totfact> 0.61403527E+03</totfact>
</mgrwt>
</event>
<event>
 4    1  0.1733772E-004  0.3019694E+03  0.7818608E-02  0.1084260E+00
         -2   -1    0    0    0  501 -0.00000000000E+00  0.00000000000E+00  0.12537278023E+03  0.12537278023E+03  0.00000000000E+00 0.  1.
          2   -1    0    0  501    0  0.00000000000E+00 -0.00000000000E+00 -0.18182875733E+03  0.18182875733E+03  0.00000000000E+00 0.  1.
         25    1    1    2    0    0  0.80373591237E+02 -0.43933098050E+02 -0.30790674950E+02  0.15407172660E+03  0.12000000000E+03 0.  0.
         25    1    1    2    0    0 -0.80373591237E+02  0.43933098050E+02 -0.25665302147E+02  0.15312981097E+03  0.12000000000E+03 0.  0.
<mgrwt>
<rscale>  0 0.30196938E+03</rscale>
<asrwt>0</asrwt>
<pdfrwt beam="1">  1        2 0.27973655E-01 0.30196938E+03</pdfrwt>
<pdfrwt beam="2">  1       -2 0.19288120E-01 0.30196938E+03</pdfrwt>
<totfact> 0.42331933E+03</totfact>
</mgrwt>
</event>
<event>
 4    1  0.1733772E-004  0.2794386E+03  0.7818608E-02  0.1095996E+00
         -2   -1    0    0    0  501 -0.00000000000E+00  0.00000000000E+00  0.10477036153E+02  0.10477036153E+02  0.00000000000E+00 0. -1.
          2   -1    0    0  501    0  0.00000000000E+00 -0.00000000000E+00 -0.18632632716E+04  0.18632632716E+04  0.00000000000E+00 0. -1.
         25    1    1    2    0    0  0.58092049818E+02  0.17563250244E+02 -0.11806959693E+04  0.11883291320E+04  0.12000000000E+03 0.  0.
         25    1    1    2    0    0 -0.58092049818E+02 -0.17563250244E+02 -0.67209026608E+03  0.68541117569E+03  0.12000000000E+03 0.  0.
<mgrwt>
<rscale>  0 0.27943856E+03</rscale>
<asrwt>0</asrwt>
<pdfrwt beam="1">  1        2 0.28665583E+00 0.27943856E+03</pdfrwt>
<pdfrwt beam="2">  1       -2 0.16118520E-02 0.27943856E+03</pdfrwt>
<totfact> 0.93104342E+03</totfact>
</mgrwt>
</event>
<event>
 4    1  0.1733772E-004  0.3174965E+03  0.7818608E-02  0.1076807E+00
         -2   -1    0    0    0  501 -0.00000000000E+00  0.00000000000E+00  0.20268248109E+02  0.20268248109E+02  0.00000000000E+00 0. -1.
          2   -1    0    0  501    0  0.00000000000E+00 -0.00000000000E+00 -0.12433735787E+04  0.12433735787E+04  0.00000000000E+00 0. -1.
         25    1    1    2    0    0  0.15154815373E+02  0.69583746748E+02 -0.91281239616E+03  0.92341650236E+03  0.12000000000E+03 0.  0.
         25    1    1    2    0    0 -0.15154815373E+02 -0.69583746748E+02 -0.31029293441E+03  0.34022532444E+03  0.12000000000E+03 0.  0.
<mgrwt>
<rscale>  0 0.31749648E+03</rscale>
<asrwt>0</asrwt>
<pdfrwt beam="1">  1        2 0.19128831E+00 0.31749648E+03</pdfrwt>
<pdfrwt beam="2">  1       -2 0.31181909E-02 0.31749648E+03</pdfrwt>
<totfact> 0.75667570E+03</totfact>
</mgrwt>
</event>
<event>
 4    1  0.1733772E-004  0.2572652E+03  0.7818608E-02  0.1108798E+00
          2   -1    0    0  501    0  0.00000000000E+00  0.00000000000E+00  0.46644969392E+03  0.46644969392E+03  0.00000000000E+00 0. -1.
         -2   -1    0    0    0  501 -0.00000000000E+00 -0.00000000000E+00 -0.35472941855E+02  0.35472941855E+02  0.00000000000E+00 0. -1.
         25    1    1    2    0    0 -0.42827462242E+01 -0.45102224077E+02  0.19659390105E+03  0.23473754378E+03  0.12000000000E+03 0.  0.
         25    1    1    2    0    0  0.42827462242E+01  0.45102224077E+02  0.23438285102E+03  0.26718509199E+03  0.12000000000E+03 0.  0.
<mgrwt>
<rscale>  0 0.25726518E+03</rscale>
<asrwt>0</asrwt>
<pdfrwt beam="1">  1        2 0.71761487E-01 0.25726518E+03</pdfrwt>
<pdfrwt beam="2">  1       -2 0.54573760E-02 0.25726518E+03</pdfrwt>
<totfact> 0.11411251E+04</totfact>
</mgrwt>
</event>
<event>
 4    1  0.1733772E-004  0.2497294E+03  0.7818608E-02  0.1113476E+00
          2   -1    0    0  501    0  0.00000000000E+00  0.00000000000E+00  0.28899725479E+03  0.28899725479E+03  0.00000000000E+00 0.  1.
         -2   -1    0    0    0  501 -0.00000000000E+00 -0.00000000000E+00 -0.53949273885E+02  0.53949273885E+02  0.00000000000E+00 0.  1.
         25    1    1    2    0    0  0.20141318545E+02  0.27901829995E+02  0.12115920170E+03  0.17396475789E+03  0.12000000000E+03 0.  0.
         25    1    1    2    0    0 -0.20141318545E+02 -0.27901829995E+02  0.11388877920E+03  0.16898177079E+03  0.12000000000E+03 0.  0.
<mgrwt>
<rscale>  0 0.24972939E+03</rscale>
<asrwt>0</asrwt>
<pdfrwt beam="1">  1        2 0.44461115E-01 0.24972939E+03</pdfrwt>
<pdfrwt beam="2">  1       -2 0.82998885E-02 0.24972939E+03</pdfrwt>
<totfact> 0.10018509E+04</totfact>
</mgrwt>
</event>
<event>
 4    1  0.1733772E-004  0.3039467E+03  0.7818608E-02  0.1083284E+00
          2   -1    0    0  501    0  0.00000000000E+00  0.00000000000E+00  0.93427133170E+03  0.93427133170E+03  0.00000000000E+00 0.  1.
         -2   -1    0    0    0  501 -0.00000000000E+00 -0.00000000000E+00 -0.24720765591E+02  0.24720765591E+02  0.00000000000E+00 0.  1.
         25    1    1    2    0    0 -0.27597486166E+02 -0.44962540559E+02  0.21216528386E+03  0.24939398343E+03  0.12000000000E+03 0.  0.
         25    1    1    2    0    0  0.27597486166E+02  0.44962540559E+02  0.69738528225E+03  0.70959811386E+03  0.12000000000E+03 0.  0.
<mgrwt>
<rscale>  0 0.30394672E+03</rscale>
<asrwt>0</asrwt>
<pdfrwt beam="1">  1        2 0.14373402E+00 0.30394672E+03</pdfrwt>
<pdfrwt beam="2">  1       -2 0.38031954E-02 0.30394672E+03</pdfrwt>
<totfact> 0.85733079E+03</totfact>
</mgrwt>
</event>
<event>
 4    1  0.1733772E-004  0.3228440E+03  0.7818608E-02  0.1074348E+00
          2   -1    0    0  501    0  0.00000000000E+00  0.00000000000E+00  0.20041893090E+04  0.20041893090E+04  0.00000000000E+00 0. -1.
         -2   -1    0    0    0  501 -0.00000000000E+00 -0.00000000000E+00 -0.13001294966E+02  0.13001294966E+02  0.00000000000E+00 0. -1.
         25    1    1    2    0    0 -0.10083172922E+03  0.30519490999E+02  0.11432655227E+04  0.11543632584E+04  0.12000000000E+03 0.  0.
         25    1    1    2    0    0  0.10083172922E+03 -0.30519490999E+02  0.84792249134E+03  0.86282734557E+03  0.12000000000E+03 0.  0.
<mgrwt>
<rscale>  0 0.32284396E+03</rscale>
<asrwt>0</asrwt>
<pdfrwt beam="1">  1        2 0.30833657E+00 0.32284396E+03</pdfrwt>
<pdfrwt beam="2">  1       -2 0.20002008E-02 0.32284396E+03</pdfrwt>
<totfact> 0.57147356E+03</totfact>
</mgrwt>
</event>
<event>
 4    1  0.1733772E-004  0.3248555E+03  0.7818608E-02  0.1073436E+00
         -1   -1    0    0    0  501 -0.00000000000E+00  0.00000000000E+00  0.17930021439E+02  0.17930021439E+02  0.00000000000E+00 0.  1.
          1   -1    0    0  501    0  0.00000000000E+00 -0.00000000000E+00 -0.14714305052E+04  0.14714305052E+04  0.00000000000E+00 0.  1.
         25    1    1    2    0    0  0.38911810712E+02 -0.59599694799E+02 -0.34546181176E+03  0.37257229636E+03  0.12000000000E+03 0.  0.
         25    1    1    2    0    0 -0.38911810712E+02  0.59599694799E+02 -0.11080386720E+04  0.11167882302E+04  0.12000000000E+03 0.  0.
<mgrwt>
<rscale>  0 0.32485554E+03</rscale>
<asrwt>0</asrwt>
<pdfrwt beam="1">  1        1 0.22637392E+00 0.32485554E+03</pdfrwt>
<pdfrwt beam="2">  1       -1 0.27584648E-02 0.32485554E+03</pdfrwt>
<totfact> 0.31965771E+03</totfact>
</mgrwt>
</event>
<event>
 4    1  0.1733772E-004  0.2889335E+03  0.7818608E-02  0.1090907E+00
         -2   -1    0    0    0  501 -0.00000000000E+00  0.00000000000E+00  0.13184245195E+02  0.13184245195E+02  0.00000000000E+00 0.  1.
          2   -1    0    0  501    0  0.00000000000E+00 -0.00000000000E+00 -0.15829989886E+04  0.15829989886E+04  0.00000000000E+00 0.  1.
         25    1    1    2    0    0  0.10483148075E+02 -0.17702797288E+02 -0.12145108172E+04  0.12205981364E+04  0.12000000000E+03 0.  0.
         25    1    1    2    0    0 -0.10483148075E+02  0.17702797288E+02 -0.35530392615E+03  0.37558509736E+03  0.12000000000E+03 0.  0.
<mgrwt>
<rscale>  0 0.28893353E+03</rscale>
<asrwt>0</asrwt>
<pdfrwt beam="1">  1        2 0.24353822E+00 0.28893353E+03</pdfrwt>
<pdfrwt beam="2">  1       -2 0.20283462E-02 0.28893353E+03</pdfrwt>
<totfact> 0.93386715E+03</totfact>
</mgrwt>
</event>
<event>
 4    1  0.1733772E-004  0.2758082E+03  0.7818608E-02  0.1098001E+00
          2   -1    0    0  501    0  0.00000000000E+00  0.00000000000E+00  0.10051172480E+04  0.10051172480E+04  0.00000000000E+00 0.  1.
         -2   -1    0    0    0  501 -0.00000000000E+00 -0.00000000000E+00 -0.18920725043E+02  0.18920725043E+02  0.00000000000E+00 0.  1.
         25    1    1    2    0    0  0.50644908750E+02  0.27205971410E+02  0.35858831327E+03  0.38247960740E+03  0.12000000000E+03 0.  0.
         25    1    1    2    0    0 -0.50644908750E+02 -0.27205971410E+02  0.62760820972E+03  0.64155836568E+03  0.12000000000E+03 0.  0.
<mgrwt>
<rscale>  0 0.27580825E+03</rscale>
<asrwt>0</asrwt>
<pdfrwt beam="1">  1        2 0.15463338E+00 0.27580825E+03</pdfrwt>
<pdfrwt beam="2">  1       -2 0.29108816E-02 0.27580825E+03</pdfrwt>
<totfact> 0.11522458E+04</totfact>
</mgrwt>
</event>
<event>
 4    1  0.1733772E-004  0.2605490E+03  0.7818608E-02  0.1106814E+00
         -2   -1    0    0    0  501 -0.00000000000E+00  0.00000000000E+00  0.60055896789E+02  0.60055896789E+02  0.00000000000E+00 0.  1.
          2   -1    0    0  501    0  0.00000000000E+00 -0.00000000000E+00 -0.28259417268E+03  0.28259417268E+03  0.00000000000E+00 0.  1.
         25    1    1    2    0    0 -0.49750950314E+02 -0.27445093184E+00 -0.12416887123E+03  0.17970292419E+03  0.12000000000E+03 0.  0.
         25    1    1    2    0    0  0.49750950314E+02  0.27445093184E+00 -0.98369404660E+02  0.16294714528E+03  0.12000000000E+03 0.  0.
<mgrwt>
<rscale>  0 0.26054901E+03</rscale>
<asrwt>0</asrwt>
<pdfrwt beam="1">  1        2 0.43476027E-01 0.26054901E+03</pdfrwt>
<pdfrwt beam="2">  1       -2 0.92393686E-02 0.26054901E+03</pdfrwt>
<totfact> 0.86881541E+03</totfact>
</mgrwt>
</event>
<event>
 4    1  0.1733772E-004  0.3741719E+03  0.7818608E-02  0.1053109E+00
          2   -1    0    0  501    0  0.00000000000E+00  0.00000000000E+00  0.34633207454E+03  0.34633207454E+03  0.00000000000E+00 0. -1.
         -2   -1    0    0    0  501 -0.00000000000E+00 -0.00000000000E+00 -0.10106242588E+03  0.10106242588E+03  0.00000000000E+00 0. -1.
         25    1    1    2    0    0  0.37283291386E+02 -0.12617121368E+03  0.19123819060E+03  0.26130683979E+03  0.12000000000E+03 0.  0.
         25    1    1    2    0    0 -0.37283291386E+02  0.12617121368E+03  0.54031458070E+02  0.18608766063E+03  0.12000000000E+03 0.  0.
<mgrwt>
<rscale>  0 0.37417194E+03</rscale>
<asrwt>0</asrwt>
<pdfrwt beam="1">  1        2 0.53281857E-01 0.37417194E+03</pdfrwt>
<pdfrwt beam="2">  1       -2 0.15548066E-01 0.37417194E+03</pdfrwt>
<totfact> 0.30296155E+03</totfact>
</mgrwt>
</event>
<event>
 4    1  0.1733772E-004  0.2714362E+03  0.7818608E-02  0.1100460E+00
         -2   -1    0    0    0  501 -0.00000000000E+00  0.00000000000E+00  0.86288252151E+02  0.86288252151E+02  0.00000000000E+00 0. -1.
          2   -1    0    0  501    0  0.00000000000E+00 -0.00000000000E+00 -0.21346359854E+03  0.21346359854E+03  0.00000000000E+00 0. -1.
         25    1    1    2    0    0  0.33407199978E+02 -0.50690522064E+02 -0.83764706735E+02  0.15843641037E+03  0.12000000000E+03 0.  0.
         25    1    1    2    0    0 -0.33407199978E+02  0.50690522064E+02 -0.43410639656E+02  0.14131544032E+03  0.12000000000E+03 0.  0.
<mgrwt>
<rscale>  0 0.27143619E+03</rscale>
<asrwt>0</asrwt>
<pdfrwt beam="1">  1        2 0.32840554E-01 0.27143619E+03</pdfrwt>
<pdfrwt beam="2">  1       -2 0.13275116E-01 0.27143619E+03</pdfrwt>
<totfact> 0.65927330E+03</totfact>
</mgrwt>
</event>
<event>
 4    1  0.1733772E-004  0.2582281E+03  0.7818608E-02  0.1108213E+00
          1   -1    0    0  501    0  0.00000000000E+00  0.00000000000E+00  0.34344632014E+03  0.34344632014E+03  0.00000000000E+00 0. -1.
         -1   -1    0    0    0  501 -0.00000000000E+00 -0.00000000000E+00 -0.48538689408E+02  0.48538689408E+02  0.00000000000E+00 0. -1.
         25    1    1    2    0    0  0.28929431841E+01  0.44258806134E+02  0.12102076796E+03  0.17610575606E+03  0.12000000000E+03 0.  0.
         25    1    1    2    0    0 -0.28929431841E+01 -0.44258806134E+02  0.17388686277E+03  0.21587925349E+03  0.12000000000E+03 0.  0.
<mgrwt>
<rscale>  0 0.25822807E+03</rscale>
<asrwt>0</asrwt>
<pdfrwt beam="1">  1        1 0.52837894E-01 0.25822807E+03</pdfrwt>
<pdfrwt beam="2">  1       -1 0.74674909E-02 0.25822807E+03</pdfrwt>
<totfact> 0.69866670E+03</totfact>
</mgrwt>
</event>
<event>
 4    1  0.1733772E-004  0.2421974E+03  0.7818608E-02  0.1118338E+00
         -1   -1    0    0    0  501 -0.00000000000E+00  0.00000000000E+00  0.83834857972E+01  0.83834857972E+01  0.00000000000E+00 0.  1.
          1   -1    0    0  501    0  0.00000000000E+00 -0.00000000000E+00 -0.17492604094E+04  0.17492604094E+04  0.00000000000E+00 0.  1.
         25    1    1    2    0    0  0.13008845832E+02  0.97309976588E+01 -0.86326381825E+03  0.87171574626E+03  0.12000000000E+03 0.  0.
         25    1    1    2    0    0 -0.13008845832E+02 -0.97309976588E+01 -0.87761310537E+03  0.88592814895E+03  0.12000000000E+03 0.  0.
<mgrwt>
<rscale>  0 0.24219744E+03</rscale>
<asrwt>0</asrwt>
<pdfrwt beam="1">  1        1 0.26911716E+00 0.24219744E+03</pdfrwt>
<pdfrwt beam="2">  1       -1 0.12897662E-02 0.24219744E+03</pdfrwt>
<totfact> 0.63710747E+03</totfact>
</mgrwt>
</event>
<event>
 4    1  0.1733772E-004  0.3169003E+03  0.7818608E-02  0.1077085E+00
         -1   -1    0    0    0  501 -0.00000000000E+00  0.00000000000E+00  0.46462579606E+02  0.46462579606E+02  0.00000000000E+00 0. -1.
          1   -1    0    0  501    0  0.00000000000E+00 -0.00000000000E+00 -0.54035854020E+03  0.54035854020E+03  0.00000000000E+00 0. -1.
         25    1    1    2    0    0  0.84190618320E+02 -0.45223810759E+02 -0.17350085175E+03  0.23159403885E+03  0.12000000000E+03 0.  0.
         25    1    1    2    0    0 -0.84190618320E+02  0.45223810759E+02 -0.32039510885E+03  0.35522708096E+03  0.12000000000E+03 0.  0.
<mgrwt>
<rscale>  0 0.31690031E+03</rscale>
<asrwt>0</asrwt>
<pdfrwt beam="1">  1        1 0.83132081E-01 0.31690031E+03</pdfrwt>
<pdfrwt beam="2">  1       -1 0.71480894E-02 0.31690031E+03</pdfrwt>
<totfact> 0.41633590E+03</totfact>
</mgrwt>
</event>
<event>
 4    1  0.1733772E-004  0.3582302E+03  0.7818608E-02  0.1059287E+00
          1   -1    0    0  501    0  0.00000000000E+00  0.00000000000E+00  0.24715174195E+04  0.24715174195E+04  0.00000000000E+00 0.  1.
         -1   -1    0    0    0  501 -0.00000000000E+00 -0.00000000000E+00 -0.12980777383E+02  0.12980777383E+02  0.00000000000E+00 0.  1.
         25    1    1    2    0    0  0.90454610794E+02 -0.96722171196E+02  0.13127832480E+04  0.13248913432E+04  0.12000000000E+03 0.  0.
         25    1    1    2    0    0 -0.90454610794E+02  0.96722171196E+02  0.11457533942E+04  0.11596068538E+04  0.12000000000E+03 0.  0.
<mgrwt>
<rscale>  0 0.35823019E+03</rscale>
<asrwt>0</asrwt>
<pdfrwt beam="1">  1        1 0.38023308E+00 0.35823019E+03</pdfrwt>
<pdfrwt beam="2">  1       -1 0.19970446E-02 0.35823019E+03</pdfrwt>
<totfact> 0.11285641E+03</totfact>
</mgrwt>
</event>
<event>
 4    1  0.1733772E-004  0.2845463E+03  0.7818608E-02  0.1093231E+00
         -2   -1    0    0    0  501 -0.00000000000E+00  0.00000000000E+00  0.68029129275E+02  0.68029129275E+02  0.00000000000E+00 0.  1.
          2   -1    0    0  501    0  0.00000000000E+00 -0.00000000000E+00 -0.29754381176E+03  0.29754381176E+03  0.00000000000E+00 0.  1.
         25    1    1    2    0    0  0.14799006548E+02 -0.53862338726E+02 -0.18178036957E+03  0.22486499258E+03  0.12000000000E+03 0.  0.
         25    1    1    2    0    0 -0.14799006548E+02  0.53862338726E+02 -0.47734312912E+02  0.14070794845E+03  0.12000000000E+03 0.  0.
<mgrwt>
<rscale>  0 0.28454628E+03</rscale>
<asrwt>0</asrwt>
<pdfrwt beam="1">  1        2 0.45775971E-01 0.28454628E+03</pdfrwt>
<pdfrwt beam="2">  1       -2 0.10466020E-01 0.28454628E+03</pdfrwt>
<totfact> 0.67673017E+03</totfact>
</mgrwt>
</event>
<event>
 4    1  0.1733772E-004  0.3625420E+03  0.7818608E-02  0.1057582E+00
          1   -1    0    0  501    0  0.00000000000E+00  0.00000000000E+00  0.11610036549E+04  0.11610036549E+04  0.00000000000E+00 0.  1.
         -1   -1    0    0    0  501 -0.00000000000E+00 -0.00000000000E+00 -0.28302386892E+02  0.28302386892E+02  0.00000000000E+00 0.  1.
         25    1    1    2    0    0 -0.86112313210E+02 -0.60445334313E+02  0.28434124500E+03  0.32606581013E+03  0.12000000000E+03 0.  0.
         25    1    1    2    0    0  0.86112313210E+02  0.60445334313E+02  0.84836002303E+03  0.86324023168E+03  0.12000000000E+03 0.  0.
<mgrwt>
<rscale>  0 0.36254200E+03</rscale>
<asrwt>0</asrwt>
<pdfrwt beam="1">  1        1 0.17861591E+00 0.36254200E+03</pdfrwt>
<pdfrwt beam="2">  1       -1 0.43542143E-02 0.36254200E+03</pdfrwt>
<totfact> 0.26472668E+03</totfact>
</mgrwt>
</event>
<event>
 4    1  0.1733772E-004  0.3195194E+03  0.7818608E-02  0.1075871E+00
          2   -1    0    0  501    0  0.00000000000E+00  0.00000000000E+00  0.55465487854E+03  0.55465487854E+03  0.00000000000E+00 0.  1.
         -2   -1    0    0    0  501 -0.00000000000E+00 -0.00000000000E+00 -0.46016296513E+02  0.46016296513E+02  0.00000000000E+00 0.  1.
         25    1    1    2    0    0  0.57167467714E+02 -0.66738130098E+02  0.14468483288E+03  0.20749891142E+03  0.12000000000E+03 0.  0.
         25    1    1    2    0    0 -0.57167467714E+02  0.66738130098E+02  0.36395374915E+03  0.39317226364E+03  0.12000000000E+03 0.  0.
<mgrwt>
<rscale>  0 0.31951941E+03</rscale>
<asrwt>0</asrwt>
<pdfrwt beam="1">  1        2 0.85331515E-01 0.31951941E+03</pdfrwt>
<pdfrwt beam="2">  1       -2 0.70794306E-02 0.31951941E+03</pdfrwt>
<totfact> 0.63391722E+03</totfact>
</mgrwt>
</event>
<event>
 4    1  0.1733772E-004  0.3294625E+03  0.7818608E-02  0.1071375E+00
         -2   -1    0    0    0  501 -0.00000000000E+00  0.00000000000E+00  0.16704499843E+03  0.16704499843E+03  0.00000000000E+00 0.  1.
          2   -1    0    0  501    0  0.00000000000E+00 -0.00000000000E+00 -0.16244955377E+03  0.16244955377E+03  0.00000000000E+00 0.  1.
         25    1    1    2    0    0 -0.95968340370E+02 -0.44183026681E+02  0.41979324446E+02  0.16530071349E+03  0.12000000000E+03 0.  0.
         25    1    1    2    0    0  0.95968340370E+02  0.44183026681E+02 -0.37383879790E+02  0.16419383870E+03  0.12000000000E+03 0.  0.
<mgrwt>
<rscale>  0 0.32946250E+03</rscale>
<asrwt>0</asrwt>
<pdfrwt beam="1">  1        2 0.24992239E-01 0.32946250E+03</pdfrwt>
<pdfrwt beam="2">  1       -2 0.25699231E-01 0.32946250E+03</pdfrwt>
<totfact> 0.29186151E+03</totfact>
</mgrwt>
</event>
<event>
 4    1  0.1733772E-004  0.2559966E+03  0.7818608E-02  0.1109573E+00
          2   -1    0    0  501    0  0.00000000000E+00  0.00000000000E+00  0.25134178318E+04  0.25134178318E+04  0.00000000000E+00 0.  1.
         -2   -1    0    0    0  501 -0.00000000000E+00 -0.00000000000E+00 -0.65184401434E+01  0.65184401434E+01  0.00000000000E+00 0.  1.
         25    1    1    2    0    0 -0.23792211933E+00  0.17405218516E+02  0.16569864450E+04  0.16614171894E+04  0.12000000000E+03 0.  0.
         25    1    1    2    0    0  0.23792211933E+00 -0.17405218516E+02  0.84991294663E+03  0.85851908255E+03  0.12000000000E+03 0.  0.
<mgrwt>
<rscale>  0 0.25599659E+03</rscale>
<asrwt>0</asrwt>
<pdfrwt beam="1">  1        2 0.38667889E+00 0.25599659E+03</pdfrwt>
<pdfrwt beam="2">  1       -2 0.10028390E-02 0.25599659E+03</pdfrwt>
<totfact> 0.83706989E+03</totfact>
</mgrwt>
</event>
<event>
 4    1  0.1733772E-004  0.3095728E+03  0.7818608E-02  0.1080551E+00
          1   -1    0    0  501    0  0.00000000000E+00  0.00000000000E+00  0.56318727155E+03  0.56318727155E+03  0.00000000000E+00 0.  1.
         -1   -1    0    0    0  501 -0.00000000000E+00 -0.00000000000E+00 -0.42541490220E+02  0.42541490220E+02  0.00000000000E+00 0.  1.
         25    1    1    2    0    0 -0.41693844312E+02  0.43786321816E+02  0.10998811716E+03  0.17364620511E+03  0.12000000000E+03 0.  0.
         25    1    1    2    0    0  0.41693844312E+02 -0.43786321816E+02  0.41065766417E+03  0.43208255666E+03  0.12000000000E+03 0.  0.
<mgrwt>
<rscale>  0 0.30957278E+03</rscale>
<asrwt>0</asrwt>
<pdfrwt beam="1">  1        1 0.86644190E-01 0.30957278E+03</pdfrwt>
<pdfrwt beam="2">  1       -1 0.65448451E-02 0.30957278E+03</pdfrwt>
<totfact> 0.44977100E+03</totfact>
</mgrwt>
</event>
<event>
 4    1  0.1733772E-004  0.2739004E+03  0.7818608E-02  0.1099068E+00
         -1   -1    0    0    0  501 -0.00000000000E+00  0.00000000000E+00  0.25897486931E+02  0.25897486931E+02  0.00000000000E+00 0.  1.
          1   -1    0    0  501    0  0.00000000000E+00 -0.00000000000E+00 -0.72421526784E+03  0.72421526784E+03  0.00000000000E+00 0.  1.
         25    1    1    2    0    0 -0.41306362232E+02  0.50789137414E+02 -0.37200693902E+03  0.39632677769E+03  0.12000000000E+03 0.  0.
         25    1    1    2    0    0  0.41306362232E+02 -0.50789137414E+02 -0.32631084189E+03  0.35378597708E+03  0.12000000000E+03 0.  0.
<mgrwt>
<rscale>  0 0.27390039E+03</rscale>
<asrwt>0</asrwt>
<pdfrwt beam="1">  1        1 0.11141773E+00 0.27390039E+03</pdfrwt>
<pdfrwt beam="2">  1       -1 0.39842291E-02 0.27390039E+03</pdfrwt>
<totfact> 0.66131873E+03</totfact>
</mgrwt>
</event>
<event>
 4    1  0.1733772E-004  0.2979976E+03  0.7818608E-02  0.1086246E+00
         -2   -1    0    0    0  501 -0.00000000000E+00  0.00000000000E+00  0.13019087775E+02  0.13019087775E+02  0.00000000000E+00 0.  1.
          2   -1    0    0  501    0  0.00000000000E+00 -0.00000000000E+00 -0.17052379571E+04  0.17052379571E+04  0.00000000000E+00 0.  1.
         25    1    1    2    0    0  0.32598786286E+02  0.67927214495E+02 -0.11118377457E+04  0.11208300318E+04  0.12000000000E+03 0.  0.
         25    1    1    2    0    0 -0.32598786286E+02 -0.67927214495E+02 -0.58038112359E+03  0.59742701308E+03  0.12000000000E+03 0.  0.
<mgrwt>
<rscale>  0 0.29799760E+03</rscale>
<asrwt>0</asrwt>
<pdfrwt beam="1">  1        2 0.26234411E+00 0.29799760E+03</pdfrwt>
<pdfrwt beam="2">  1       -2 0.20029380E-02 0.29799760E+03</pdfrwt>
<totfact> 0.81992131E+03</totfact>
</mgrwt>
</event>
<event>
 4    1  0.1733772E-004  0.3737482E+03  0.7818608E-02  0.1053269E+00
         -1   -1    0    0    0  501 -0.00000000000E+00  0.00000000000E+00  0.40757601589E+03  0.40757601589E+03  0.00000000000E+00 0. -1.
          1   -1    0    0  501    0  0.00000000000E+00 -0.00000000000E+00 -0.85682007728E+02  0.85682007728E+02  0.00000000000E+00 0. -1.
         25    1    1    2    0    0 -0.10973272389E+03 -0.27702732873E+01  0.28242938253E+03  0.32590689042E+03  0.12000000000E+03 0.  0.
         25    1    1    2    0    0  0.10973272389E+03  0.27702732873E+01  0.39464625634E+02  0.16735113320E+03  0.12000000000E+03 0.  0.
<mgrwt>
<rscale>  0 0.37374821E+03</rscale>
<asrwt>0</asrwt>
<pdfrwt beam="1">  1        1 0.13181848E-01 0.37374821E+03</pdfrwt>
<pdfrwt beam="2">  1       -1 0.62704001E-01 0.37374821E+03</pdfrwt>
<totfact> 0.11847110E+03</totfact>
</mgrwt>
</event>
<event>
 4    1  0.1733772E-004  0.3388292E+03  0.7818608E-02  0.1067296E+00
         -1   -1    0    0    0  501 -0.00000000000E+00  0.00000000000E+00  0.29009160449E+03  0.29009160449E+03  0.00000000000E+00 0. -1.
          1   -1    0    0  501    0  0.00000000000E+00 -0.00000000000E+00 -0.98938799712E+02  0.98938799712E+02  0.00000000000E+00 0. -1.
         25    1    1    2    0    0  0.10126617284E+03  0.44742181486E+02  0.43659547204E+02  0.16900549289E+03  0.12000000000E+03 0.  0.
         25    1    1    2    0    0 -0.10126617284E+03 -0.44742181486E+02  0.14749325758E+03  0.22002491131E+03  0.12000000000E+03 0.  0.
<mgrwt>
<rscale>  0 0.33882925E+03</rscale>
<asrwt>0</asrwt>
<pdfrwt beam="1">  1        1 0.15221354E-01 0.33882925E+03</pdfrwt>
<pdfrwt beam="2">  1       -1 0.44629477E-01 0.33882925E+03</pdfrwt>
<totfact> 0.18567329E+03</totfact>
</mgrwt>
</event>
<event>
 4    1  0.1733772E-004  0.2578875E+03  0.7818608E-02  0.1108419E+00
          2   -1    0    0  501    0  0.00000000000E+00  0.00000000000E+00  0.16391351887E+04  0.16391351887E+04  0.00000000000E+00 0.  1.
         -2   -1    0    0    0  501 -0.00000000000E+00 -0.00000000000E+00 -0.10143456469E+02  0.10143456469E+02  0.00000000000E+00 0.  1.
         25    1    1    2    0    0  0.17323116159E+02 -0.43265108221E+02  0.86172470416E+03  0.87128722342E+03  0.12000000000E+03 0.  0.
         25    1    1    2    0    0 -0.17323116159E+02  0.43265108221E+02  0.76726702803E+03  0.77799142170E+03  0.12000000000E+03 0.  0.
<mgrwt>
<rscale>  0 0.25788754E+03</rscale>
<asrwt>0</asrwt>
<pdfrwt beam="1">  1        2 0.25217444E+00 0.25788754E+03</pdfrwt>
<pdfrwt beam="2">  1       -2 0.15605331E-02 0.25788754E+03</pdfrwt>
<totfact> 0.12784943E+04</totfact>
</mgrwt>
</event>
<event>
 4    1  0.1733772E-004  0.2526462E+03  0.7818608E-02  0.1111644E+00
         -1   -1    0    0    0  501 -0.00000000000E+00  0.00000000000E+00  0.10070677465E+03  0.10070677465E+03  0.00000000000E+00 0.  1.
          1   -1    0    0  501    0  0.00000000000E+00 -0.00000000000E+00 -0.15845532910E+03  0.15845532910E+03  0.00000000000E+00 0.  1.
         25    1    1    2    0    0  0.86753046698E+01  0.33953811511E+02 -0.10256731195E+02  0.12543254268E+03  0.12000000000E+03 0.  0.
         25    1    1    2    0    0 -0.86753046698E+01 -0.33953811511E+02 -0.47491823256E+02  0.13372956107E+03  0.12000000000E+03 0.  0.
<mgrwt>
<rscale>  0 0.25264620E+03</rscale>
<asrwt>0</asrwt>
<pdfrwt beam="1">  1        1 0.24377743E-01 0.25264620E+03</pdfrwt>
<pdfrwt beam="2">  1       -1 0.15493350E-01 0.25264620E+03</pdfrwt>
<totfact> 0.59566959E+03</totfact>
</mgrwt>
</event>
<event>
 4    1  0.1733772E-004  0.2457097E+03  0.7818608E-02  0.1116047E+00
         -2   -1    0    0    0  501 -0.00000000000E+00  0.00000000000E+00  0.10183300001E+02  0.10183300001E+02  0.00000000000E+00 0.  1.
          2   -1    0    0  501    0  0.00000000000E+00 -0.00000000000E+00 -0.14821633313E+04  0.14821633313E+04  0.00000000000E+00 0.  1.
         25    1    1    2    0    0 -0.36015508409E+01  0.24595341684E+02 -0.68324672541E+03  0.69414983237E+03  0.12000000000E+03 0.  0.
         25    1    1    2    0    0  0.36015508409E+01 -0.24595341684E+02 -0.78873330594E+03  0.79819679898E+03  0.12000000000E+03 0.  0.
<mgrwt>
<rscale>  0 0.24570970E+03</rscale>
<asrwt>0</asrwt>
<pdfrwt beam="1">  1        2 0.22802508E+00 0.24570970E+03</pdfrwt>
<pdfrwt beam="2">  1       -2 0.15666619E-02 0.24570970E+03</pdfrwt>
<totfact> 0.15376559E+04</totfact>
</mgrwt>
</event>
<event>
 4    1  0.1733772E-004  0.2750683E+03  0.7818608E-02  0.1098413E+00
         -1   -1    0    0    0  501 -0.00000000000E+00  0.00000000000E+00  0.18145697202E+03  0.18145697202E+03  0.00000000000E+00 0.  1.
          1   -1    0    0  501    0  0.00000000000E+00 -0.00000000000E+00 -0.10424316372E+03  0.10424316372E+03  0.00000000000E+00 0.  1.
         25    1    1    2    0    0 -0.12599422945E+02  0.64999741316E+02  0.50537253277E+02  0.14607438447E+03  0.12000000000E+03 0.  0.
         25    1    1    2    0    0  0.12599422945E+02 -0.64999741316E+02  0.26676555027E+02  0.13962575127E+03  0.12000000000E+03 0.  0.
<mgrwt>
<rscale>  0 0.27506835E+03</rscale>
<asrwt>0</asrwt>
<pdfrwt beam="1">  1        1 0.16037410E-01 0.27506835E+03</pdfrwt>
<pdfrwt beam="2">  1       -1 0.27916457E-01 0.27506835E+03</pdfrwt>
<totfact> 0.39192601E+03</totfact>
</mgrwt>
</event>
<event>
 4    1  0.1733772E-004  0.2441781E+03  0.7818608E-02  0.1117040E+00
          3   -1    0    0  501    0  0.00000000000E+00  0.00000000000E+00  0.79667584066E+02  0.79667584066E+02  0.00000000000E+00 0. -1.
         -3   -1    0    0    0  501 -0.00000000000E+00 -0.00000000000E+00 -0.18709916990E+03  0.18709916990E+03  0.00000000000E+00 0. -1.
         25    1    1    2    0    0  0.20970021082E+02  0.54123831036E+01 -0.60334554730E+02  0.13604886684E+03  0.12000000000E+03 0.  0.
         25    1    1    2    0    0 -0.20970021082E+02 -0.54123831036E+01 -0.47097031104E+02  0.13071788712E+03  0.12000000000E+03 0.  0.
<mgrwt>
<rscale>  0 0.24417812E+03</rscale>
<asrwt>0</asrwt>
<pdfrwt beam="1">  1        3 0.12256551E-01 0.24417812E+03</pdfrwt>
<pdfrwt beam="2">  1       -3 0.28784488E-01 0.24417812E+03</pdfrwt>
<totfact> 0.15255806E+03</totfact>
</mgrwt>
</event>
<event>
 4    1  0.1733772E-004  0.3023405E+03  0.7818608E-02  0.1084076E+00
         -1   -1    0    0    0  501 -0.00000000000E+00  0.00000000000E+00  0.22302654997E+02  0.22302654997E+02  0.00000000000E+00 0. -1.
          1   -1    0    0  501    0  0.00000000000E+00 -0.00000000000E+00 -0.10246512475E+04  0.10246512475E+04  0.00000000000E+00 0. -1.
         25    1    1    2    0    0  0.62229048670E+02 -0.60992244644E+02 -0.60272057717E+03  0.62069686848E+03  0.12000000000E+03 0.  0.
         25    1    1    2    0    0 -0.62229048670E+02  0.60992244644E+02 -0.39962801535E+03  0.42625703402E+03  0.12000000000E+03 0.  0.
<mgrwt>
<rscale>  0 0.30234049E+03</rscale>
<asrwt>0</asrwt>
<pdfrwt beam="1">  1        1 0.15763872E+00 0.30234049E+03</pdfrwt>
<pdfrwt beam="2">  1       -1 0.34311763E-02 0.30234049E+03</pdfrwt>
<totfact> 0.47442559E+03</totfact>
</mgrwt>
</event>
<event>
 4    1  0.1733772E-004  0.4313609E+03  0.7818608E-02  0.1033431E+00
         -4   -1    0    0    0  501 -0.00000000000E+00  0.00000000000E+00  0.16307968016E+03  0.16307968016E+03  0.00000000000E+00 0. -1.
          4   -1    0    0  501    0  0.00000000000E+00 -0.00000000000E+00 -0.28524736942E+03  0.28524736942E+03  0.00000000000E+00 0. -1.
         25    1    1    2    0    0  0.17159483507E+02 -0.14775156662E+03  0.42813345540E+02  0.19585187227E+03  0.12000000000E+03 0.  0.
         25    1    1    2    0    0 -0.17159483507E+02  0.14775156662E+03 -0.16498103480E+03  0.25247517731E+03  0.12000000000E+03 0.  0.
<mgrwt>
<rscale>  0 0.43136087E+03</rscale>
<asrwt>0</asrwt>
<pdfrwt beam="1">  1        4 0.43884210E-01 0.43136087E+03</pdfrwt>
<pdfrwt beam="2">  1       -4 0.25089182E-01 0.43136087E+03</pdfrwt>
<totfact> 0.14672310E+02</totfact>
</mgrwt>
</event>
<event>
 4    1  0.1733772E-004  0.2474834E+03  0.7818608E-02  0.1114906E+00
         -2   -1    0    0    0  501 -0.00000000000E+00  0.00000000000E+00  0.15969125667E+03  0.15969125667E+03  0.00000000000E+00 0.  1.
          2   -1    0    0  501    0  0.00000000000E+00 -0.00000000000E+00 -0.95885109614E+02  0.95885109614E+02  0.00000000000E+00 0.  1.
         25    1    1    2    0    0 -0.20098133538E+02  0.10440331114E+02  0.52533277641E+02  0.13293863526E+03  0.12000000000E+03 0.  0.
         25    1    1    2    0    0  0.20098133538E+02 -0.10440331114E+02  0.11272869415E+02  0.12263773102E+03  0.12000000000E+03 0.  0.
<mgrwt>
<rscale>  0 0.24748344E+03</rscale>
<asrwt>0</asrwt>
<pdfrwt beam="1">  1        2 0.14751555E-01 0.24748344E+03</pdfrwt>
<pdfrwt beam="2">  1       -2 0.24567886E-01 0.24748344E+03</pdfrwt>
<totfact> 0.57532431E+03</totfact>
</mgrwt>
</event>
<event>
 4    1  0.1733772E-004  0.2680996E+03  0.7818608E-02  0.1102372E+00
         -1   -1    0    0    0  501 -0.00000000000E+00  0.00000000000E+00  0.78381865969E+03  0.78381865969E+03  0.00000000000E+00 0. -1.
          1   -1    0    0  501    0  0.00000000000E+00 -0.00000000000E+00 -0.22925398515E+02  0.22925398515E+02  0.00000000000E+00 0. -1.
         25    1    1    2    0    0  0.39336146326E+02 -0.41853520031E+02  0.42991949401E+03  0.45003313309E+03  0.12000000000E+03 0.  0.
         25    1    1    2    0    0 -0.39336146326E+02  0.41853520031E+02  0.33097376716E+03  0.35671092511E+03  0.12000000000E+03 0.  0.
<mgrwt>
<rscale>  0 0.26809965E+03</rscale>
<asrwt>0</asrwt>
<pdfrwt beam="1">  1        1 0.35269850E-02 0.26809965E+03</pdfrwt>
<pdfrwt beam="2">  1       -1 0.12058747E+00 0.26809965E+03</pdfrwt>
<totfact> 0.17711078E+03</totfact>
</mgrwt>
</event>
<event>
 4    1  0.1733772E-004  0.2870400E+03  0.7818608E-02  0.1091905E+00
          2   -1    0    0  501    0  0.00000000000E+00  0.00000000000E+00  0.37954201146E+03  0.37954201146E+03  0.00000000000E+00 0.  1.
         -2   -1    0    0    0  501 -0.00000000000E+00 -0.00000000000E+00 -0.54270640080E+02  0.54270640080E+02  0.00000000000E+00 0.  1.
         25    1    1    2    0    0 -0.34118928399E+02 -0.10213518883E+02  0.26874765299E+03  0.29646874748E+03  0.12000000000E+03 0.  0.
         25    1    1    2    0    0  0.34118928399E+02  0.10213518883E+02  0.56523718395E+02  0.13734390407E+03  0.12000000000E+03 0.  0.
<mgrwt>
<rscale>  0 0.28703998E+03</rscale>
<asrwt>0</asrwt>
<pdfrwt beam="1">  1        2 0.58391077E-01 0.28703998E+03</pdfrwt>
<pdfrwt beam="2">  1       -2 0.83493295E-02 0.28703998E+03</pdfrwt>
<totfact> 0.74420513E+03</totfact>
</mgrwt>
</event>
<event>
 4    1  0.1733772E-004  0.2741067E+03  0.7818608E-02  0.1098952E+00
         -2   -1    0    0    0  501 -0.00000000000E+00  0.00000000000E+00  0.35041990435E+03  0.35041990435E+03  0.00000000000E+00 0.  1.
          2   -1    0    0  501    0  0.00000000000E+00 -0.00000000000E+00 -0.53603170381E+02  0.53603170381E+02  0.00000000000E+00 0.  1.
         25    1    1    2    0    0 -0.28511153305E+01  0.30030445830E+02  0.23528046040E+03  0.26583237497E+03  0.12000000000E+03 0.  0.
         25    1    1    2    0    0  0.28511153305E+01 -0.30030445830E+02  0.61536273564E+02  0.13819069976E+03  0.12000000000E+03 0.  0.
<mgrwt>
<rscale>  0 0.27410668E+03</rscale>
<asrwt>0</asrwt>
<pdfrwt beam="1">  1        2 0.82466418E-02 0.27410668E+03</pdfrwt>
<pdfrwt beam="2">  1       -2 0.53910753E-01 0.27410668E+03</pdfrwt>
<totfact> 0.26880866E+03</totfact>
</mgrwt>
</event>
<event>
 4    1  0.1733772E-004  0.2565444E+03  0.7818608E-02  0.1109237E+00
         -1   -1    0    0    0  501 -0.00000000000E+00  0.00000000000E+00  0.31161221283E+02  0.31161221283E+02  0.00000000000E+00 0. -1.
          1   -1    0    0  501    0  0.00000000000E+00 -0.00000000000E+00 -0.52802028813E+03  0.52802028813E+03  0.00000000000E+00 0. -1.
         25    1    1    2    0    0 -0.17612589427E+02  0.33159126911E+02 -0.19311465286E+03  0.23044088213E+03  0.12000000000E+03 0.  0.
         25    1    1    2    0    0  0.17612589427E+02 -0.33159126911E+02 -0.30374441399E+03  0.32874062729E+03  0.12000000000E+03 0.  0.
<mgrwt>
<rscale>  0 0.25654440E+03</rscale>
<asrwt>0</asrwt>
<pdfrwt beam="1">  1        1 0.81233889E-01 0.25654440E+03</pdfrwt>
<pdfrwt beam="2">  1       -1 0.47940341E-02 0.25654440E+03</pdfrwt>
<totfact> 0.78031615E+03</totfact>
</mgrwt>
</event>
<event>
 4    1  0.1733772E-004  0.2849368E+03  0.7818608E-02  0.1093023E+00
          2   -1    0    0  501    0  0.00000000000E+00  0.00000000000E+00  0.79891280030E+03  0.79891280030E+03  0.00000000000E+00 0.  1.
         -2   -1    0    0    0  501 -0.00000000000E+00 -0.00000000000E+00 -0.25406083288E+02  0.25406083288E+02  0.00000000000E+00 0.  1.
         25    1    1    2    0    0  0.35705950822E+02  0.52745489684E+02  0.51085695155E+03  0.52861311614E+03  0.12000000000E+03 0.  0.
         25    1    1    2    0    0 -0.35705950822E+02 -0.52745489684E+02  0.26264976546E+03  0.29570576745E+03  0.12000000000E+03 0.  0.
<mgrwt>
<rscale>  0 0.28493680E+03</rscale>
<asrwt>0</asrwt>
<pdfrwt beam="1">  1        2 0.12290964E+00 0.28493680E+03</pdfrwt>
<pdfrwt beam="2">  1       -2 0.39086288E-02 0.28493680E+03</pdfrwt>
<totfact> 0.10096375E+04</totfact>
</mgrwt>
</event>
<event>
 4    1  0.1733772E-004  0.2547396E+03  0.7818608E-02  0.1110346E+00
         -2   -1    0    0    0  501 -0.00000000000E+00  0.00000000000E+00  0.53755774897E+02  0.53755774897E+02  0.00000000000E+00 0. -1.
          2   -1    0    0  501    0  0.00000000000E+00 -0.00000000000E+00 -0.30179214010E+03  0.30179214010E+03  0.00000000000E+00 0. -1.
         25    1    1    2    0    0  0.84612256580E+01  0.98211497032E+01 -0.18079926083E+03  0.21738541818E+03  0.12000000000E+03 0.  0.
         25    1    1    2    0    0 -0.84612256580E+01 -0.98211497032E+01 -0.67237104366E+02  0.13816249681E+03  0.12000000000E+03 0.  0.
<mgrwt>
<rscale>  0 0.25473963E+03</rscale>
<asrwt>0</asrwt>
<pdfrwt beam="1">  1        2 0.46429558E-01 0.25473963E+03</pdfrwt>
<pdfrwt beam="2">  1       -2 0.82701195E-02 0.25473963E+03</pdfrwt>
<totfact> 0.96259904E+03</totfact>
</mgrwt>
</event>
<event>
 4    1  0.1733772E-004  0.2840792E+03  0.7818608E-02  0.1093482E+00
         -2   -1    0    0    0  501 -0.00000000000E+00  0.00000000000E+00  0.71795866385E+02  0.71795866385E+02  0.00000000000E+00 0.  1.
          2   -1    0    0  501    0  0.00000000000E+00 -0.00000000000E+00 -0.28100851439E+03  0.28100851439E+03  0.00000000000E+00 0.  1.
         25    1    1    2    0    0 -0.47920929063E+02  0.55477907244E+02 -0.12947692371E+03  0.19115043136E+03  0.12000000000E+03 0.  0.
         25    1    1    2    0    0  0.47920929063E+02 -0.55477907244E+02 -0.79735724296E+02  0.16165394942E+03  0.12000000000E+03 0.  0.
<mgrwt>
<rscale>  0 0.28407921E+03</rscale>
<asrwt>0</asrwt>
<pdfrwt beam="1">  1        2 0.43232078E-01 0.28407921E+03</pdfrwt>
<pdfrwt beam="2">  1       -2 0.11045518E-01 0.28407921E+03</pdfrwt>
<totfact> 0.66019174E+03</totfact>
</mgrwt>
</event>
<event>
 4    1  0.1733772E-004  0.2913753E+03  0.7818608E-02  0.1089633E+00
          2   -1    0    0  501    0  0.00000000000E+00  0.00000000000E+00  0.39066975743E+04  0.39066975743E+04  0.00000000000E+00 0. -1.
         -2   -1    0    0    0  501 -0.00000000000E+00 -0.00000000000E+00 -0.54329492934E+01  0.54329492934E+01  0.00000000000E+00 0. -1.
         25    1    1    2    0    0 -0.38097374246E+02 -0.16023716194E+02  0.99022278010E+03  0.99832325609E+03  0.12000000000E+03 0.  0.
         25    1    1    2    0    0  0.38097374246E+02  0.16023716194E+02  0.29110418449E+04  0.29138072675E+04  0.12000000000E+03 0.  0.
<mgrwt>
<rscale>  0 0.29137529E+03</rscale>
<asrwt>0</asrwt>
<pdfrwt beam="1">  1        2 0.60102815E+00 0.29137529E+03</pdfrwt>
<pdfrwt beam="2">  1       -2 0.83584148E-03 0.29137529E+03</pdfrwt>
<totfact> 0.14503239E+03</totfact>
</mgrwt>
</event>
<event>
 4    1  0.1733772E-004  0.2635562E+03  0.7818608E-02  0.1105025E+00
         -1   -1    0    0    0  501 -0.00000000000E+00  0.00000000000E+00  0.71029269984E+03  0.71029269984E+03  0.00000000000E+00 0.  1.
          1   -1    0    0  501    0  0.00000000000E+00 -0.00000000000E+00 -0.24448327552E+02  0.24448327552E+02  0.00000000000E+00 0.  1.
         25    1    1    2    0    0  0.51892286644E+02  0.65877024316E+01  0.38513326592E+03  0.40677246681E+03  0.12000000000E+03 0.  0.
         25    1    1    2    0    0 -0.51892286644E+02 -0.65877024316E+01  0.30071110636E+03  0.32796856058E+03  0.12000000000E+03 0.  0.
<mgrwt>
<rscale>  0 0.26355621E+03</rscale>
<asrwt>0</asrwt>
<pdfrwt beam="1">  1        1 0.37612817E-02 0.26355621E+03</pdfrwt>
<pdfrwt beam="2">  1       -1 0.10927578E+00 0.26355621E+03</pdfrwt>
<totfact> 0.20373343E+03</totfact>
</mgrwt>
</event>
<event>
 4    1  0.1733772E-004  0.4383924E+03  0.7818608E-02  0.1031241E+00
          2   -1    0    0  501    0  0.00000000000E+00  0.00000000000E+00  0.56543597194E+03  0.56543597194E+03  0.00000000000E+00 0. -1.
         -2   -1    0    0    0  501 -0.00000000000E+00 -0.00000000000E+00 -0.84973319414E+02  0.84973319414E+02  0.00000000000E+00 0. -1.
         25    1    1    2    0    0 -0.68479573703E+02  0.15819145135E+03  0.14718808512E+03  0.25647284397E+03  0.12000000000E+03 0.  0.
         25    1    1    2    0    0  0.68479573703E+02 -0.15819145135E+03  0.33327456740E+03  0.39393644738E+03  0.12000000000E+03 0.  0.
<mgrwt>
<rscale>  0 0.43839239E+03</rscale>
<asrwt>0</asrwt>
<pdfrwt beam="1">  1        2 0.86990147E-01 0.43839239E+03</pdfrwt>
<pdfrwt beam="2">  1       -2 0.13072819E-01 0.43839239E+03</pdfrwt>
<totfact> 0.23376709E+03</totfact>
</mgrwt>
</event>
<event>
 4    1  0.1733772E-004  0.2671917E+03  0.7818608E-02  0.1102898E+00
         -2   -1    0    0    0  501 -0.00000000000E+00  0.00000000000E+00  0.52577353756E+03  0.52577353756E+03  0.00000000000E+00 0.  1.
          2   -1    0    0  501    0  0.00000000000E+00 -0.00000000000E+00 -0.33945884238E+02  0.33945884238E+02  0.00000000000E+00 0.  1.
         25    1    1    2    0    0  0.11826537194E+02  0.25884042104E+02  0.13832068055E+03  0.18531719101E+03  0.12000000000E+03 0.  0.
         25    1    1    2    0    0 -0.11826537194E+02 -0.25884042104E+02  0.35350697278E+03  0.37440223079E+03  0.12000000000E+03 0.  0.
<mgrwt>
<rscale>  0 0.26719167E+03</rscale>
<asrwt>0</asrwt>
<pdfrwt beam="1">  1        2 0.52224441E-02 0.26719167E+03</pdfrwt>
<pdfrwt beam="2">  1       -2 0.80888231E-01 0.26719167E+03</pdfrwt>
<totfact> 0.20558286E+03</totfact>
</mgrwt>
</event>
<event>
 4    1  0.1733772E-004  0.3747470E+03  0.7818608E-02  0.1052893E+00
         -2   -1    0    0    0  501 -0.00000000000E+00  0.00000000000E+00  0.90448516174E+02  0.90448516174E+02  0.00000000000E+00 0.  1.
          2   -1    0    0  501    0  0.00000000000E+00 -0.00000000000E+00 -0.38816360278E+03  0.38816360278E+03  0.00000000000E+00 0.  1.
         25    1    1    2    0    0  0.41195132401E+02  0.51140785639E+02 -0.31239598660E+03  0.34103324080E+03  0.12000000000E+03 0.  0.
         25    1    1    2    0    0 -0.41195132401E+02 -0.51140785639E+02  0.14680899990E+02  0.13757887815E+03  0.12000000000E+03 0.  0.
<mgrwt>
<rscale>  0 0.37474696E+03</rscale>
<asrwt>0</asrwt>
<pdfrwt beam="1">  1        2 0.59717478E-01 0.37474696E+03</pdfrwt>
<pdfrwt beam="2">  1       -2 0.13915156E-01 0.37474696E+03</pdfrwt>
<totfact> 0.32158395E+03</totfact>
</mgrwt>
</event>
<event>
 4    1  0.1733772E-004  0.2976542E+03  0.7818608E-02  0.1086419E+00
          4   -1    0    0  501    0  0.00000000000E+00  0.00000000000E+00  0.11309247628E+02  0.11309247628E+02  0.00000000000E+00 0.  1.
         -4   -1    0    0    0  501 -0.00000000000E+00 -0.00000000000E+00 -0.19585306848E+04  0.19585306848E+04  0.00000000000E+00 0.  1.
         25    1    1    2    0    0  0.42372312638E+01 -0.69704543000E+02 -0.61890030533E+03  0.63428248074E+03  0.12000000000E+03 0.  0.
         25    1    1    2    0    0 -0.42372312638E+01  0.69704543000E+02 -0.13283211319E+04  0.13355574517E+04  0.12000000000E+03 0.  0.
<mgrwt>
<rscale>  0 0.29765422E+03</rscale>
<asrwt>0</asrwt>
<pdfrwt beam="1">  1        4 0.17398863E-02 0.29765422E+03</pdfrwt>
<pdfrwt beam="2">  1       -4 0.30131205E+00 0.29765422E+03</pdfrwt>
<totfact> 0.84260268E+01</totfact>
</mgrwt>
</event>
<event>
 4    1  0.1733772E-004  0.3449092E+03  0.7818608E-02  0.1064724E+00
         -2   -1    0    0    0  501 -0.00000000000E+00  0.00000000000E+00  0.58450085722E+02  0.58450085722E+02  0.00000000000E+00 0.  1.
          2   -1    0    0  501    0  0.00000000000E+00 -0.00000000000E+00 -0.50882029753E+03  0.50882029753E+03  0.00000000000E+00 0.  1.
         25    1    1    2    0    0 -0.13429355864E+02 -0.10797115387E+03 -0.32252092358E+03  0.36091254316E+03  0.12000000000E+03 0.  0.
         25    1    1    2    0    0  0.13429355864E+02  0.10797115387E+03 -0.12784928823E+03  0.20635784009E+03  0.12000000000E+03 0.  0.
<mgrwt>
<rscale>  0 0.34490921E+03</rscale>
<asrwt>0</asrwt>
<pdfrwt beam="1">  1        2 0.78280044E-01 0.34490921E+03</pdfrwt>
<pdfrwt beam="2">  1       -2 0.89923211E-02 0.34490921E+03</pdfrwt>
<totfact> 0.48133583E+03</totfact>
</mgrwt>
</event>
<event>
 4    1  0.1733772E-004  0.4757309E+03  0.7818608E-02  0.1020315E+00
         -2   -1    0    0    0  501 -0.00000000000E+00  0.00000000000E+00  0.92779644177E+03  0.92779644177E+03  0.00000000000E+00 0.  1.
          2   -1    0    0  501    0  0.00000000000E+00 -0.00000000000E+00 -0.60983176072E+02  0.60983176072E+02  0.00000000000E+00 0.  1.
         25    1    1    2    0    0  0.16783730452E+03 -0.28980367501E+02  0.67193685529E+03  0.70349723524E+03  0.12000000000E+03 0.  0.
         25    1    1    2    0    0 -0.16783730452E+03  0.28980367501E+02  0.19487641040E+03  0.28528238260E+03  0.12000000000E+03 0.  0.
<mgrwt>
<rscale>  0 0.47573091E+03</rscale>
<asrwt>0</asrwt>
<pdfrwt beam="1">  1        2 0.93820278E-02 0.47573091E+03</pdfrwt>
<pdfrwt beam="2">  1       -2 0.14273790E+00 0.47573091E+03</pdfrwt>
<totfact> 0.25020831E+02</totfact>
</mgrwt>
</event>
<event>
 4    1  0.1733772E-004  0.4840915E+03  0.7818608E-02  0.1018017E+00
          1   -1    0    0  501    0  0.00000000000E+00  0.00000000000E+00  0.54679855787E+03  0.54679855787E+03  0.00000000000E+00 0. -1.
         -1   -1    0    0    0  501 -0.00000000000E+00 -0.00000000000E+00 -0.10714391326E+03  0.10714391326E+03  0.00000000000E+00 0. -1.
         25    1    1    2    0    0 -0.31451264492E+02  0.19883584466E+03  0.30156598458E+03  0.38192527831E+03  0.12000000000E+03 0.  0.
         25    1    1    2    0    0  0.31451264492E+02 -0.19883584466E+03  0.13808866003E+03  0.27201719282E+03  0.12000000000E+03 0.  0.
<mgrwt>
<rscale>  0 0.48409147E+03</rscale>
<asrwt>0</asrwt>
<pdfrwt beam="1">  1        1 0.84122853E-01 0.48409147E+03</pdfrwt>
<pdfrwt beam="2">  1       -1 0.16483679E-01 0.48409147E+03</pdfrwt>
<totfact> 0.11063148E+03</totfact>
</mgrwt>
</event>
<event>
 4    1  0.1733772E-004  0.2628331E+03  0.7818608E-02  0.1105453E+00
          2   -1    0    0  501    0  0.00000000000E+00  0.00000000000E+00  0.92995958023E+03  0.92995958023E+03  0.00000000000E+00 0. -1.
         -2   -1    0    0    0  501 -0.00000000000E+00 -0.00000000000E+00 -0.18571031928E+02  0.18571031928E+02  0.00000000000E+00 0. -1.
         25    1    1    2    0    0  0.51593240925E+01  0.16531418486E+02  0.63866090032E+03  0.65006742114E+03  0.12000000000E+03 0.  0.
         25    1    1    2    0    0 -0.51593240925E+01 -0.16531418486E+02  0.27272764798E+03  0.29846319102E+03  0.12000000000E+03 0.  0.
<mgrwt>
<rscale>  0 0.26283310E+03</rscale>
<asrwt>0</asrwt>
<pdfrwt beam="1">  1        2 0.14307067E+00 0.26283310E+03</pdfrwt>
<pdfrwt beam="2">  1       -2 0.28570826E-02 0.26283310E+03</pdfrwt>
<totfact> 0.13171244E+04</totfact>
</mgrwt>
</event>
<event>
 4    1  0.1733772E-004  0.2989935E+03  0.7818608E-02  0.1085745E+00
          2   -1    0    0  501    0  0.00000000000E+00  0.00000000000E+00  0.94981383617E+03  0.94981383617E+03  0.00000000000E+00 0. -1.
         -2   -1    0    0    0  501 -0.00000000000E+00 -0.00000000000E+00 -0.23530172486E+02  0.23530172486E+02  0.00000000000E+00 0. -1.
         25    1    1    2    0    0 -0.87715683827E+02  0.16708757145E+01  0.51486588827E+03  0.53589524715E+03  0.12000000000E+03 0.  0.
         25    1    1    2    0    0  0.87715683827E+02 -0.16708757145E+01  0.41141777541E+03  0.43744876150E+03  0.12000000000E+03 0.  0.
<mgrwt>
<rscale>  0 0.29899353E+03</rscale>
<asrwt>0</asrwt>
<pdfrwt beam="1">  1        2 0.14612518E+00 0.29899353E+03</pdfrwt>
<pdfrwt beam="2">  1       -2 0.36200273E-02 0.29899353E+03</pdfrwt>
<totfact> 0.90231429E+03</totfact>
</mgrwt>
</event>
<event>
 4    1  0.1733772E-004  0.3448263E+03  0.7818608E-02  0.1064759E+00
         -2   -1    0    0    0  501 -0.00000000000E+00  0.00000000000E+00  0.11282480045E+02  0.11282480045E+02  0.00000000000E+00 0. -1.
          2   -1    0    0  501    0  0.00000000000E+00 -0.00000000000E+00 -0.26347309436E+04  0.26347309436E+04  0.00000000000E+00 0. -1.
         25    1    1    2    0    0 -0.27168802573E+01 -0.75191347630E+02 -0.55733309484E+03  0.57504895339E+03  0.12000000000E+03 0.  0.
         25    1    1    2    0    0  0.27168802573E+01  0.75191347630E+02 -0.20661153687E+04  0.20709644702E+04  0.12000000000E+03 0.  0.
<mgrwt>
<rscale>  0 0.34482633E+03</rscale>
<asrwt>0</asrwt>
<pdfrwt beam="1">  1        2 0.40534351E+00 0.34482633E+03</pdfrwt>
<pdfrwt beam="2">  1       -2 0.17357649E-02 0.34482633E+03</pdfrwt>
<totfact> 0.32015384E+03</totfact>
</mgrwt>
</event>
<event>
 4    1  0.1733772E-004  0.2774695E+03  0.7818608E-02  0.1097079E+00
         -2   -1    0    0    0  501 -0.00000000000E+00  0.00000000000E+00  0.15846982945E+02  0.15846982945E+02  0.00000000000E+00 0. -1.
          2   -1    0    0  501    0  0.00000000000E+00 -0.00000000000E+00 -0.12145739106E+04  0.12145739106E+04  0.00000000000E+00 0. -1.
         25    1    1    2    0    0 -0.11432587221E+02  0.59188759840E+02 -0.75382696647E+03  0.76569518003E+03  0.12000000000E+03 0.  0.
         25    1    1    2    0    0  0.11432587221E+02 -0.59188759840E+02 -0.44489996123E+03  0.46472571356E+03  0.12000000000E+03 0.  0.
<mgrwt>
<rscale>  0 0.27746951E+03</rscale>
<asrwt>0</asrwt>
<pdfrwt beam="1">  1        2 0.18685754E+00 0.27746951E+03</pdfrwt>
<pdfrwt beam="2">  1       -2 0.24379972E-02 0.27746951E+03</pdfrwt>
<totfact> 0.11296651E+04</totfact>
</mgrwt>
</event>
<event>
 4    1  0.1733772E-004  0.2424609E+03  0.7818608E-02  0.1118164E+00
         -1   -1    0    0    0  501 -0.00000000000E+00  0.00000000000E+00  0.23602734936E+02  0.23602734936E+02  0.00000000000E+00 0.  1.
          1   -1    0    0  501    0  0.00000000000E+00 -0.00000000000E+00 -0.62267464590E+03  0.62267464590E+03  0.00000000000E+00 0.  1.
         25    1    1    2    0    0 -0.61395982194E+01 -0.68576525326E+01 -0.26071643611E+03  0.28715463103E+03  0.12000000000E+03 0.  0.
         25    1    1    2    0    0  0.61395982194E+01  0.68576525326E+01 -0.33835547486E+03  0.35912274981E+03  0.12000000000E+03 0.  0.
<mgrwt>
<rscale>  0 0.24246092E+03</rscale>
<asrwt>0</asrwt>
<pdfrwt beam="1">  1        1 0.95796107E-01 0.24246092E+03</pdfrwt>
<pdfrwt beam="2">  1       -1 0.36311897E-02 0.24246092E+03</pdfrwt>
<totfact> 0.93896264E+03</totfact>
</mgrwt>
</event>
<event>
 4    1  0.1733772E-004  0.3731525E+03  0.7818608E-02  0.1053494E+00
          2   -1    0    0  501    0  0.00000000000E+00  0.00000000000E+00  0.36392747492E+04  0.36392747492E+04  0.00000000000E+00 0.  1.
         -2   -1    0    0    0  501 -0.00000000000E+00 -0.00000000000E+00 -0.95652820208E+01  0.95652820208E+01  0.00000000000E+00 0.  1.
         25    1    1    2    0    0  0.52607411137E+02 -0.96814290379E+02  0.92560238515E+03  0.93982994309E+03  0.12000000000E+03 0.  0.
         25    1    1    2    0    0 -0.52607411137E+02  0.96814290379E+02  0.27041070820E+04  0.27090100881E+04  0.12000000000E+03 0.  0.
<mgrwt>
<rscale>  0 0.37315246E+03</rscale>
<asrwt>0</asrwt>
<pdfrwt beam="1">  1        2 0.55988732E+00 0.37315246E+03</pdfrwt>
<pdfrwt beam="2">  1       -2 0.14715848E-02 0.37315246E+03</pdfrwt>
<totfact> 0.97261070E+02</totfact>
</mgrwt>
</event>
<event>
 4    1  0.1733772E-004  0.2664228E+03  0.7818608E-02  0.1103345E+00
          2   -1    0    0  501    0  0.00000000000E+00  0.00000000000E+00  0.50635415407E+03  0.50635415407E+03  0.00000000000E+00 0. -1.
         -2   -1    0    0    0  501 -0.00000000000E+00 -0.00000000000E+00 -0.35045180666E+02  0.35045180666E+02  0.00000000000E+00 0. -1.
         25    1    1    2    0    0  0.51184016064E+02 -0.26933374789E+02  0.23514592070E+03  0.27025694108E+03  0.12000000000E+03 0.  0.
         25    1    1    2    0    0 -0.51184016064E+02  0.26933374789E+02  0.23616305271E+03  0.27114239366E+03  0.12000000000E+03 0.  0.
<mgrwt>
<rscale>  0 0.26642277E+03</rscale>
<asrwt>0</asrwt>
<pdfrwt beam="1">  1        2 0.77900634E-01 0.26642277E+03</pdfrwt>
<pdfrwt beam="2">  1       -2 0.53915666E-02 0.26642277E+03</pdfrwt>
<totfact> 0.10625940E+04</totfact>
</mgrwt>
</event>
<event>
 4    1  0.1733772E-004  0.2499785E+03  0.7818608E-02  0.1113318E+00
          3   -1    0    0  501    0  0.00000000000E+00  0.00000000000E+00  0.35266406358E+03  0.35266406358E+03  0.00000000000E+00 0.  1.
         -3   -1    0    0    0  501 -0.00000000000E+00 -0.00000000000E+00 -0.44297982964E+02  0.44297982964E+02  0.00000000000E+00 0.  1.
         25    1    1    2    0    0  0.23519811437E+02 -0.15430171104E+02  0.12121427646E+03  0.17287039228E+03  0.12000000000E+03 0.  0.
         25    1    1    2    0    0 -0.23519811437E+02  0.15430171104E+02  0.18715180416E+03  0.22409165426E+03  0.12000000000E+03 0.  0.
<mgrwt>
<rscale>  0 0.24997845E+03</rscale>
<asrwt>0</asrwt>
<pdfrwt beam="1">  1        3 0.54256008E-01 0.24997845E+03</pdfrwt>
<pdfrwt beam="2">  1       -3 0.68150745E-02 0.24997845E+03</pdfrwt>
<totfact> 0.11812492E+03</totfact>
</mgrwt>
</event>
<event>
 4    1  0.1733772E-004  0.3096921E+03  0.7818608E-02  0.1080494E+00
          2   -1    0    0  501    0  0.00000000000E+00  0.00000000000E+00  0.46207833303E+02  0.46207833303E+02  0.00000000000E+00 0. -1.
         -2   -1    0    0    0  501 -0.00000000000E+00 -0.00000000000E+00 -0.51890132233E+03  0.51890132233E+03  0.00000000000E+00 0. -1.
         25    1    1    2    0    0 -0.73583935389E+02 -0.59762783750E+02 -0.19198179830E+03  0.24544489554E+03  0.12000000000E+03 0.  0.
         25    1    1    2    0    0  0.73583935389E+02  0.59762783750E+02 -0.28071169073E+03  0.31966426009E+03  0.12000000000E+03 0.  0.
<mgrwt>
<rscale>  0 0.30969214E+03</rscale>
<asrwt>0</asrwt>
<pdfrwt beam="1">  1        2 0.71088975E-02 0.30969214E+03</pdfrwt>
<pdfrwt beam="2">  1       -2 0.79830971E-01 0.30969214E+03</pdfrwt>
<totfact> 0.14207063E+03</totfact>
</mgrwt>
</event>
<event>
 4    1  0.1733772E-004  0.4190412E+03  0.7818608E-02  0.1037379E+00
          2   -1    0    0  501    0  0.00000000000E+00  0.00000000000E+00  0.30061635525E+03  0.30061635525E+03  0.00000000000E+00 0.  1.
         -2   -1    0    0    0  501 -0.00000000000E+00 -0.00000000000E+00 -0.14602958922E+03  0.14602958922E+03  0.00000000000E+00 0.  1.
         25    1    1    2    0    0 -0.11404591472E+03  0.75282255273E+02  0.18819056290E+03  0.26170513290E+03  0.12000000000E+03 0.  0.
         25    1    1    2    0    0  0.11404591472E+03 -0.75282255273E+02 -0.33603796868E+02  0.18494081158E+03  0.12000000000E+03 0.  0.
<mgrwt>
<rscale>  0 0.41904120E+03</rscale>
<asrwt>0</asrwt>
<pdfrwt beam="1">  1        2 0.46248670E-01 0.41904120E+03</pdfrwt>
<pdfrwt beam="2">  1       -2 0.22466091E-01 0.41904120E+03</pdfrwt>
<totfact> 0.18859820E+03</totfact>
</mgrwt>
</event>
<event>
 4    1  0.1733772E-004  0.2571301E+03  0.7818608E-02  0.1108880E+00
         -2   -1    0    0    0  501 -0.00000000000E+00  0.00000000000E+00  0.82701685925E+02  0.82701685925E+02  0.00000000000E+00 0. -1.
          2   -1    0    0  501    0  0.00000000000E+00 -0.00000000000E+00 -0.19986256125E+03  0.19986256125E+03  0.00000000000E+00 0. -1.
         25    1    1    2    0    0  0.21018972732E+02 -0.40735062592E+02 -0.64377488325E+02  0.14368578058E+03  0.12000000000E+03 0.  0.
         25    1    1    2    0    0 -0.21018972732E+02  0.40735062592E+02 -0.52783386999E+02  0.13887846659E+03  0.12000000000E+03 0.  0.
<mgrwt>
<rscale>  0 0.25713009E+03</rscale>
<asrwt>0</asrwt>
<pdfrwt beam="1">  1        2 0.30748086E-01 0.25713009E+03</pdfrwt>
<pdfrwt beam="2">  1       -2 0.12723336E-01 0.25713009E+03</pdfrwt>
<totfact> 0.75740315E+03</totfact>
</mgrwt>
</event>
<event>
 4    1  0.1733772E-004  0.2963241E+03  0.7818608E-02  0.1087093E+00
          4   -1    0    0  501    0  0.00000000000E+00  0.00000000000E+00  0.10437379954E+03  0.10437379954E+03  0.00000000000E+00 0. -1.
         -4   -1    0    0    0  501 -0.00000000000E+00 -0.00000000000E+00 -0.21032090079E+03  0.21032090079E+03  0.00000000000E+00 0. -1.
         25    1    1    2    0    0 -0.50841009257E+02 -0.64650214931E+02 -0.82776336166E+02  0.16738094378E+03  0.12000000000E+03 0.  0.
         25    1    1    2    0    0  0.50841009257E+02  0.64650214931E+02 -0.23170765078E+02  0.14731375654E+03  0.12000000000E+03 0.  0.
<mgrwt>
<rscale>  0 0.29632409E+03</rscale>
<asrwt>0</asrwt>
<pdfrwt beam="1">  1        4 0.16057508E-01 0.29632409E+03</pdfrwt>
<pdfrwt beam="2">  1       -4 0.32357062E-01 0.29632409E+03</pdfrwt>
<totfact> 0.58191913E+02</totfact>
</mgrwt>
</event>
<event>
 4    1  0.1733772E-004  0.2739427E+03  0.7818608E-02  0.1099044E+00
          2   -1    0    0  501    0  0.00000000000E+00  0.00000000000E+00  0.17351859412E+04  0.17351859412E+04  0.00000000000E+00 0.  1.
         -2   -1    0    0    0  501 -0.00000000000E+00 -0.00000000000E+00 -0.10812187968E+02  0.10812187968E+02  0.00000000000E+00 0.  1.
         25    1    1    2    0    0  0.29938172571E+02  0.39432492762E+02  0.58364279304E+03  0.59790477965E+03  0.12000000000E+03 0.  0.
         25    1    1    2    0    0 -0.29938172571E+02 -0.39432492762E+02  0.11407309602E+04  0.11480933495E+04  0.12000000000E+03 0.  0.
<mgrwt>
<rscale>  0 0.27394274E+03</rscale>
<asrwt>0</asrwt>
<pdfrwt beam="1">  1        2 0.26695146E+00 0.27394274E+03</pdfrwt>
<pdfrwt beam="2">  1       -2 0.16634149E-02 0.27394274E+03</pdfrwt>
<totfact> 0.10377419E+04</totfact>
</mgrwt>
</event>
<event>
 4    1  0.1733772E-004  0.2650855E+03  0.7818608E-02  0.1104126E+00
          1   -1    0    0  501    0  0.00000000000E+00  0.00000000000E+00  0.19404369888E+03  0.19404369888E+03  0.00000000000E+00 0. -1.
         -1   -1    0    0    0  501 -0.00000000000E+00 -0.00000000000E+00 -0.90534137974E+02  0.90534137974E+02  0.00000000000E+00 0. -1.
         25    1    1    2    0    0  0.21580588866E+01 -0.90283281471E+01  0.11134705203E+03  0.16396442884E+03  0.12000000000E+03 0.  0.
         25    1    1    2    0    0 -0.21580588866E+01  0.90283281471E+01 -0.78374911247E+01  0.12061340802E+03  0.12000000000E+03 0.  0.
<mgrwt>
<rscale>  0 0.26508549E+03</rscale>
<asrwt>0</asrwt>
<pdfrwt beam="1">  1        1 0.29852877E-01 0.26508549E+03</pdfrwt>
<pdfrwt beam="2">  1       -1 0.13928329E-01 0.26508549E+03</pdfrwt>
<totfact> 0.54643143E+03</totfact>
</mgrwt>
</event>
<event>
 4    1  0.1733772E-004  0.2954685E+03  0.7818608E-02  0.1087528E+00
         -2   -1    0    0    0  501 -0.00000000000E+00  0.00000000000E+00  0.84121036001E+01  0.84121036001E+01  0.00000000000E+00 0. -1.
          2   -1    0    0  501    0  0.00000000000E+00 -0.00000000000E+00 -0.25945252325E+04  0.25945252325E+04  0.00000000000E+00 0. -1.
         25    1    1    2    0    0 -0.56859046605E+02 -0.22719346694E+02 -0.18271996950E+04  0.18321593395E+04  0.12000000000E+03 0.  0.
         25    1    1    2    0    0  0.56859046605E+02  0.22719346694E+02 -0.75891343390E+03  0.77077799660E+03  0.12000000000E+03 0.  0.
<mgrwt>
<rscale>  0 0.29546854E+03</rscale>
<asrwt>0</asrwt>
<pdfrwt beam="1">  1        2 0.39915787E+00 0.29546854E+03</pdfrwt>
<pdfrwt beam="2">  1       -2 0.12941693E-02 0.29546854E+03</pdfrwt>
<totfact> 0.52047008E+03</totfact>
</mgrwt>
</event>
<event>
 4    1  0.1733772E-004  0.4684817E+03  0.7818608E-02  0.1022350E+00
          2   -1    0    0  501    0  0.00000000000E+00  0.00000000000E+00  0.44533423256E+03  0.44533423256E+03  0.00000000000E+00 0. -1.
         -2   -1    0    0    0  501 -0.00000000000E+00 -0.00000000000E+00 -0.12320807227E+03  0.12320807227E+03  0.00000000000E+00 0. -1.
         25    1    1    2    0    0 -0.14975576425E+02 -0.18171005963E+03  0.57901519249E+02  0.22582161011E+03  0.12000000000E+03 0.  0.
         25    1    1    2    0    0  0.14975576425E+02  0.18171005963E+03  0.26422464104E+03  0.34272069473E+03  0.12000000000E+03 0.  0.
<mgrwt>
<rscale>  0 0.46848169E+03</rscale>
<asrwt>0</asrwt>
<pdfrwt beam="1">  1        2 0.68512958E-01 0.46848169E+03</pdfrwt>
<pdfrwt beam="2">  1       -2 0.18955088E-01 0.46848169E+03</pdfrwt>
<totfact> 0.16441356E+03</totfact>
</mgrwt>
</event>
<event>
 4    1  0.1733772E-004  0.3752291E+03  0.7818608E-02  0.1052711E+00
         -1   -1    0    0    0  501 -0.00000000000E+00  0.00000000000E+00  0.62190580105E+03  0.62190580105E+03  0.00000000000E+00 0.  1.
          1   -1    0    0  501    0  0.00000000000E+00 -0.00000000000E+00 -0.56598945543E+02  0.56598945543E+02  0.00000000000E+00 0.  1.
         25    1    1    2    0    0  0.36513102642E+02  0.11042818992E+03  0.43684904553E+03  0.46772286706E+03  0.12000000000E+03 0.  0.
         25    1    1    2    0    0 -0.36513102642E+02 -0.11042818992E+03  0.12845780997E+03  0.21078187952E+03  0.12000000000E+03 0.  0.
<mgrwt>
<rscale>  0 0.37522906E+03</rscale>
<asrwt>0</asrwt>
<pdfrwt beam="1">  1        1 0.87075305E-02 0.37522906E+03</pdfrwt>
<pdfrwt beam="2">  1       -1 0.95677811E-01 0.37522906E+03</pdfrwt>
<totfact> 0.86336461E+02</totfact>
</mgrwt>
</event>
<event>
 4    1  0.1733772E-004  0.2584394E+03  0.7818608E-02  0.1108085E+00
         -3   -1    0    0    0  501 -0.00000000000E+00  0.00000000000E+00  0.33522831514E+02  0.33522831514E+02  0.00000000000E+00 0.  1.
          3   -1    0    0  501    0  0.00000000000E+00 -0.00000000000E+00 -0.49810022276E+03  0.49810022276E+03  0.00000000000E+00 0.  1.
         25    1    1    2    0    0 -0.44489502691E+02 -0.17693483027E+02 -0.23704873740E+03  0.26997125605E+03  0.12000000000E+03 0.  0.
         25    1    1    2    0    0  0.44489502691E+02  0.17693483027E+02 -0.22752865384E+03  0.26165179822E+03  0.12000000000E+03 0.  0.
<mgrwt>
<rscale>  0 0.25843939E+03</rscale>
<asrwt>0</asrwt>
<pdfrwt beam="1">  1        3 0.76630800E-01 0.25843939E+03</pdfrwt>
<pdfrwt beam="2">  1       -3 0.51573589E-02 0.25843939E+03</pdfrwt>
<totfact> 0.89802377E+02</totfact>
</mgrwt>
</event>
<event>
 4    1  0.1733772E-004  0.3574039E+03  0.7818608E-02  0.1059617E+00
          1   -1    0    0  501    0  0.00000000000E+00  0.00000000000E+00  0.45000899213E+02  0.45000899213E+02  0.00000000000E+00 0. -1.
         -1   -1    0    0    0  501 -0.00000000000E+00 -0.00000000000E+00 -0.70963877724E+03  0.70963877724E+03  0.00000000000E+00 0. -1.
         25    1    1    2    0    0 -0.12930017294E+03  0.26230416163E+02 -0.35618984884E+03  0.39834379357E+03  0.12000000000E+03 0.  0.
         25    1    1    2    0    0  0.12930017294E+03 -0.26230416163E+02 -0.30844802918E+03  0.35629588288E+03  0.12000000000E+03 0.  0.
<mgrwt>
<rscale>  0 0.35740388E+03</rscale>
<asrwt>0</asrwt>
<pdfrwt beam="1">  1        1 0.69232152E-02 0.35740388E+03</pdfrwt>
<pdfrwt beam="2">  1       -1 0.10917520E+00 0.35740388E+03</pdfrwt>
<totfact> 0.87768220E+02</totfact>
</mgrwt>
</event>
<event>
 4    1  0.1733772E-004  0.2996585E+03  0.7818608E-02  0.1085411E+00
         -3   -1    0    0    0  501 -0.00000000000E+00  0.00000000000E+00  0.12929774034E+02  0.12929774034E+02  0.00000000000E+00 0.  1.
          3   -1    0    0  501    0  0.00000000000E+00 -0.00000000000E+00 -0.17362097211E+04  0.17362097211E+04  0.00000000000E+00 0.  1.
         25    1    1    2    0    0 -0.34502151450E+02 -0.67234769800E+02 -0.57940578809E+03  0.59650815585E+03  0.12000000000E+03 0.  0.
         25    1    1    2    0    0  0.34502151450E+02  0.67234769800E+02 -0.11438741590E+04  0.11526313393E+04  0.12000000000E+03 0.  0.
<mgrwt>
<rscale>  0 0.29965847E+03</rscale>
<asrwt>0</asrwt>
<pdfrwt beam="1">  1        3 0.26710901E+00 0.29965847E+03</pdfrwt>
<pdfrwt beam="2">  1       -3 0.19891974E-02 0.29965847E+03</pdfrwt>
<totfact> 0.16300617E+02</totfact>
</mgrwt>
</event>
<event>
 4    1  0.1733772E-004  0.2779991E+03  0.7818608E-02  0.1096787E+00
         -2   -1    0    0    0  501 -0.00000000000E+00  0.00000000000E+00  0.12724421250E+02  0.12724421250E+02  0.00000000000E+00 0.  1.
          2   -1    0    0  501    0  0.00000000000E+00 -0.00000000000E+00 -0.15184085242E+04  0.15184085242E+04  0.00000000000E+00 0.  1.
         25    1    1    2    0    0 -0.50226984140E+02  0.13466167275E+02 -0.49352500144E+03  0.51055951136E+03  0.12000000000E+03 0.  0.
         25    1    1    2    0    0  0.50226984140E+02 -0.13466167275E+02 -0.10121591016E+04  0.10205734341E+04  0.12000000000E+03 0.  0.
<mgrwt>
<rscale>  0 0.27799906E+03</rscale>
<asrwt>0</asrwt>
<pdfrwt beam="1">  1        2 0.23360143E+00 0.27799906E+03</pdfrwt>
<pdfrwt beam="2">  1       -2 0.19576023E-02 0.27799906E+03</pdfrwt>
<totfact> 0.10644406E+04</totfact>
</mgrwt>
</event>
<event>
 4    1  0.1733772E-004  0.3169902E+03  0.7818608E-02  0.1077043E+00
         -2   -1    0    0    0  501 -0.00000000000E+00  0.00000000000E+00  0.12987766641E+03  0.12987766641E+03  0.00000000000E+00 0. -1.
          2   -1    0    0  501    0  0.00000000000E+00 -0.00000000000E+00 -0.19341818097E+03  0.19341818097E+03  0.00000000000E+00 0. -1.
         25    1    1    2    0    0  0.98509665746E+02 -0.86971998074E+01 -0.48588326245E+00  0.15549929779E+03  0.12000000000E+03 0.  0.
         25    1    1    2    0    0 -0.98509665746E+02  0.86971998074E+01 -0.63054631296E+02  0.16779654960E+03  0.12000000000E+03 0.  0.
<mgrwt>
<rscale>  0 0.31699023E+03</rscale>
<asrwt>0</asrwt>
<pdfrwt beam="1">  1        2 0.29756643E-01 0.31699023E+03</pdfrwt>
<pdfrwt beam="2">  1       -2 0.19981180E-01 0.31699023E+03</pdfrwt>
<totfact> 0.37267563E+03</totfact>
</mgrwt>
</event>
<event>
 4    1  0.1733772E-004  0.2477687E+03  0.7818608E-02  0.1114723E+00
          2   -1    0    0  501    0  0.00000000000E+00  0.00000000000E+00  0.32117537490E+02  0.32117537490E+02  0.00000000000E+00 0.  1.
         -2   -1    0    0    0  501 -0.00000000000E+00 -0.00000000000E+00 -0.47784901398E+03  0.47784901398E+03  0.00000000000E+00 0.  1.
         25    1    1    2    0    0  0.28838425853E+02 -0.16231033449E+01 -0.20098209322E+03  0.23585608125E+03  0.12000000000E+03 0.  0.
         25    1    1    2    0    0 -0.28838425853E+02  0.16231033449E+01 -0.24474938327E+03  0.27411047022E+03  0.12000000000E+03 0.  0.
<mgrwt>
<rscale>  0 0.24776871E+03</rscale>
<asrwt>0</asrwt>
<pdfrwt beam="1">  1        2 0.49411600E-02 0.24776871E+03</pdfrwt>
<pdfrwt beam="2">  1       -2 0.73515228E-01 0.24776871E+03</pdfrwt>
<totfact> 0.27185770E+03</totfact>
</mgrwt>
</event>
<event>
 4    1  0.1733772E-004  0.2772124E+03  0.7818608E-02  0.1097221E+00
         -2   -1    0    0    0  501 -0.00000000000E+00  0.00000000000E+00  0.78485762975E+02  0.78485762975E+02  0.00000000000E+00 0.  1.
          2   -1    0    0  501    0  0.00000000000E+00 -0.00000000000E+00 -0.24477914613E+03  0.24477914613E+03  0.00000000000E+00 0.  1.
         25    1    1    2    0    0  0.10939185896E+02  0.67981346356E+02 -0.92941382728E+02  0.16667102287E+03  0.12000000000E+03 0.  0.
         25    1    1    2    0    0 -0.10939185896E+02 -0.67981346356E+02 -0.73352000429E+02  0.15659388624E+03  0.12000000000E+03 0.  0.
<mgrwt>
<rscale>  0 0.27721240E+03</rscale>
<asrwt>0</asrwt>
<pdfrwt beam="1">  1        2 0.37658329E-01 0.27721240E+03</pdfrwt>
<pdfrwt beam="2">  1       -2 0.12074733E-01 0.27721240E+03</pdfrwt>
<totfact> 0.66324382E+03</totfact>
</mgrwt>
</event>
<event>
 4    1  0.1733772E-004  0.2444694E+03  0.7818608E-02  0.1116851E+00
          2   -1    0    0  501    0  0.00000000000E+00  0.00000000000E+00  0.13918637272E+03  0.13918637272E+03  0.00000000000E+00 0. -1.
         -2   -1    0    0    0  501 -0.00000000000E+00 -0.00000000000E+00 -0.10734762709E+03  0.10734762709E+03  0.00000000000E+00 0. -1.
         25    1    1    2    0    0 -0.91871108494E+01  0.17674868739E+02  0.37960828456E+01  0.12170133210E+03  0.12000000000E+03 0.  0.
         25    1    1    2    0    0  0.91871108494E+01 -0.17674868739E+02  0.28042662793E+02  0.12483266771E+03  0.12000000000E+03 0.  0.
<mgrwt>
<rscale>  0 0.24446944E+03</rscale>
<asrwt>0</asrwt>
<pdfrwt beam="1">  1        2 0.21413288E-01 0.24446944E+03</pdfrwt>
<pdfrwt beam="2">  1       -2 0.16515019E-01 0.24446944E+03</pdfrwt>
<totfact> 0.73620061E+03</totfact>
</mgrwt>
</event>
<event>
 4    1  0.1733772E-004  0.3094495E+03  0.7818608E-02  0.1080610E+00
         -1   -1    0    0    0  501 -0.00000000000E+00  0.00000000000E+00  0.18828520388E+04  0.18828520388E+04  0.00000000000E+00 0.  1.
          1   -1    0    0  501    0  0.00000000000E+00 -0.00000000000E+00 -0.12714617135E+02  0.12714617135E+02  0.00000000000E+00 0.  1.
         25    1    1    2    0    0 -0.89539246415E+02 -0.19773603978E+02  0.11411179368E+04  0.11510683810E+04  0.12000000000E+03 0.  0.
         25    1    1    2    0    0  0.89539246415E+02  0.19773603978E+02  0.72901948490E+03  0.74449827497E+03  0.12000000000E+03 0.  0.
<mgrwt>
<rscale>  0 0.30944946E+03</rscale>
<asrwt>0</asrwt>
<pdfrwt beam="1">  1        1 0.19560964E-02 0.30944946E+03</pdfrwt>
<pdfrwt beam="2">  1       -1 0.28966932E+00 0.30944946E+03</pdfrwt>
<totfact> 0.27915866E+02</totfact>
</mgrwt>
</event>
<event>
 4    1  0.1733772E-004  0.2993920E+03  0.7818608E-02  0.1085545E+00
         -3   -1    0    0    0  501 -0.00000000000E+00  0.00000000000E+00  0.29475318013E+03  0.29475318013E+03  0.00000000000E+00 0. -1.
          3   -1    0    0  501    0  0.00000000000E+00 -0.00000000000E+00 -0.76025967213E+02  0.76025967213E+02  0.00000000000E+00 0. -1.
         25    1    1    2    0    0  0.41105380945E+02 -0.58608537239E+02  0.17587468435E+03  0.22462528258E+03  0.12000000000E+03 0.  0.
         25    1    1    2    0    0 -0.41105380945E+02  0.58608537239E+02  0.42852528567E+02  0.14615386476E+03  0.12000000000E+03 0.  0.
<mgrwt>
<rscale>  0 0.29939202E+03</rscale>
<asrwt>0</asrwt>
<pdfrwt beam="1">  1        3 0.11696303E-01 0.29939202E+03</pdfrwt>
<pdfrwt beam="2">  1       -3 0.45346642E-01 0.29939202E+03</pdfrwt>
<totfact> 0.70572128E+02</totfact>
</mgrwt>
</event>
<event>
 4    1  0.1733772E-004  0.3635003E+03  0.7818608E-02  0.1057206E+00
          2   -1    0    0  501    0  0.00000000000E+00  0.00000000000E+00  0.86831467523E+03  0.86831467523E+03  0.00000000000E+00 0.  1.
         -2   -1    0    0    0  501 -0.00000000000E+00 -0.00000000000E+00 -0.38042794766E+02  0.38042794766E+02  0.00000000000E+00 0.  1.
         25    1    1    2    0    0 -0.21480673845E+02 -0.11787462072E+03  0.25206440864E+03  0.30379649712E+03  0.12000000000E+03 0.  0.
         25    1    1    2    0    0  0.21480673845E+02  0.11787462072E+03  0.57820747183E+03  0.60256097288E+03  0.12000000000E+03 0.  0.
<mgrwt>
<rscale>  0 0.36350030E+03</rscale>
<asrwt>0</asrwt>
<pdfrwt beam="1">  1        2 0.13358686E+00 0.36350030E+03</pdfrwt>
<pdfrwt beam="2">  1       -2 0.58527383E-02 0.36350030E+03</pdfrwt>
<totfact> 0.49242147E+03</totfact>
</mgrwt>
</event>
<event>
 4    1  0.1733772E-004  0.3072494E+03  0.7818608E-02  0.1081672E+00
         -2   -1    0    0    0  501 -0.00000000000E+00  0.00000000000E+00  0.18976035159E+02  0.18976035159E+02  0.00000000000E+00 0. -1.
          2   -1    0    0  501    0  0.00000000000E+00 -0.00000000000E+00 -0.12437027176E+04  0.12437027176E+04  0.00000000000E+00 0. -1.
         25    1    1    2    0    0  0.69478183579E+02 -0.42388517926E+02 -0.40376038222E+03  0.42900635274E+03  0.12000000000E+03 0.  0.
         25    1    1    2    0    0 -0.69478183579E+02  0.42388517926E+02 -0.82096630024E+03  0.83367240003E+03  0.12000000000E+03 0.  0.
<mgrwt>
<rscale>  0 0.30724939E+03</rscale>
<asrwt>0</asrwt>
<pdfrwt beam="1">  1        2 0.19133889E+00 0.30724939E+03</pdfrwt>
<pdfrwt beam="2">  1       -2 0.29193899E-02 0.30724939E+03</pdfrwt>
<totfact> 0.83411902E+03</totfact>
</mgrwt>
</event>
<event>
 4    1  0.1733772E-004  0.2662936E+03  0.7818608E-02  0.1103420E+00
          2   -1    0    0  501    0  0.00000000000E+00  0.00000000000E+00  0.14347002184E+04  0.14347002184E+04  0.00000000000E+00 0. -1.
         -2   -1    0    0    0  501 -0.00000000000E+00 -0.00000000000E+00 -0.12356640508E+02  0.12356640508E+02  0.00000000000E+00 0. -1.
         25    1    1    2    0    0 -0.41470848940E+01  0.56627803751E+02  0.76663343239E+03  0.77804288194E+03  0.12000000000E+03 0.  0.
         25    1    1    2    0    0  0.41470848940E+01 -0.56627803751E+02  0.65571014545E+03  0.66901397693E+03  0.12000000000E+03 0.  0.
<mgrwt>
<rscale>  0 0.26629363E+03</rscale>
<asrwt>0</asrwt>
<pdfrwt beam="1">  1        2 0.22072298E+00 0.26629363E+03</pdfrwt>
<pdfrwt beam="2">  1       -2 0.19010228E-02 0.26629363E+03</pdfrwt>
<totfact> 0.12312629E+04</totfact>
</mgrwt>
</event>
<event>
 4    1  0.1733772E-004  0.3238753E+03  0.7818608E-02  0.1073879E+00
          1   -1    0    0  501    0  0.00000000000E+00  0.00000000000E+00  0.10263129255E+04  0.10263129255E+04  0.00000000000E+00 0.  1.
         -1   -1    0    0    0  501 -0.00000000000E+00 -0.00000000000E+00 -0.25551461784E+02  0.25551461784E+02  0.00000000000E+00 0.  1.
         25    1    1    2    0    0 -0.86617725924E+01 -0.23780178098E+02  0.15692843004E+03  0.19916589901E+03  0.12000000000E+03 0.  0.
         25    1    1    2    0    0  0.86617725924E+01  0.23780178098E+02  0.84383303366E+03  0.85269848826E+03  0.12000000000E+03 0.  0.
<mgrwt>
<rscale>  0 0.32387526E+03</rscale>
<asrwt>0</asrwt>
<pdfrwt beam="1">  1        1 0.15789427E+00 0.32387526E+03</pdfrwt>
<pdfrwt beam="2">  1       -1 0.39309949E-02 0.32387526E+03</pdfrwt>
<totfact> 0.38665010E+03</totfact>
</mgrwt>
</event>
<event>
 4    1  0.1733772E-004  0.2934048E+03  0.7818608E-02  0.1088585E+00
          1   -1    0    0  501    0  0.00000000000E+00  0.00000000000E+00  0.33089953550E+03  0.33089953550E+03  0.00000000000E+00 0.  1.
         -1   -1    0    0    0  501 -0.00000000000E+00 -0.00000000000E+00 -0.65039682749E+02  0.65039682749E+02  0.00000000000E+00 0.  1.
         25    1    1    2    0    0  0.72433730900E+01 -0.82898040808E+02  0.11398693491E+03  0.18525002822E+03  0.12000000000E+03 0.  0.
         25    1    1    2    0    0 -0.72433730900E+01  0.82898040808E+02  0.15187291784E+03  0.21068919003E+03  0.12000000000E+03 0.  0.
<mgrwt>
<rscale>  0 0.29340485E+03</rscale>
<asrwt>0</asrwt>
<pdfrwt beam="1">  1        1 0.50907620E-01 0.29340485E+03</pdfrwt>
<pdfrwt beam="2">  1       -1 0.10006105E-01 0.29340485E+03</pdfrwt>
<totfact> 0.46941360E+03</totfact>
</mgrwt>
</event>
<event>
 4    1  0.1733772E-004  0.3283323E+03  0.7818608E-02  0.1071877E+00
         -1   -1    0    0    0  501 -0.00000000000E+00  0.00000000000E+00  0.64076125671E+03  0.64076125671E+03  0.00000000000E+00 0.  1.
          1   -1    0    0  501    0  0.00000000000E+00 -0.00000000000E+00 -0.42060164188E+02  0.42060164188E+02  0.00000000000E+00 0.  1.
         25    1    1    2    0    0 -0.87855504405E+02  0.30353789868E+02  0.16929939380E+03  0.22738123703E+03  0.12000000000E+03 0.  0.
         25    1    1    2    0    0  0.87855504405E+02 -0.30353789868E+02  0.42940169872E+03  0.45544018386E+03  0.12000000000E+03 0.  0.
<mgrwt>
<rscale>  0 0.32833229E+03</rscale>
<asrwt>0</asrwt>
<pdfrwt beam="1">  1        1 0.64707950E-02 0.32833229E+03</pdfrwt>
<pdfrwt beam="2">  1       -1 0.98578648E-01 0.32833229E+03</pdfrwt>
<totfact> 0.12144692E+03</totfact>
</mgrwt>
</event>
<event>
 4    1  0.1733772E-004  0.2565771E+03  0.7818608E-02  0.1109217E+00
          2   -1    0    0  501    0  0.00000000000E+00  0.00000000000E+00  0.27535183642E+04  0.27535183642E+04  0.00000000000E+00 0.  1.
         -2   -1    0    0    0  501 -0.00000000000E+00 -0.00000000000E+00 -0.59770607075E+01  0.59770607075E+01  0.00000000000E+00 0.  1.
         25    1    1    2    0    0  0.69965795480E+01  0.37923512612E+02  0.11168172279E+04  0.11239074097E+04  0.12000000000E+03 0.  0.
         25    1    1    2    0    0 -0.69965795480E+01 -0.37923512612E+02  0.16307240755E+04  0.16355880152E+04  0.12000000000E+03 0.  0.
<mgrwt>
<rscale>  0 0.25657706E+03</rscale>
<asrwt>0</asrwt>
<pdfrwt beam="1">  1        2 0.42361720E+00 0.25657706E+03</pdfrwt>
<pdfrwt beam="2">  1       -2 0.91955000E-03 0.25657706E+03</pdfrwt>
<totfact> 0.69771519E+03</totfact>
</mgrwt>
</event>
<event>
 4    1  0.1733772E-004  0.2884526E+03  0.7818608E-02  0.1091160E+00
         -1   -1    0    0    0  501 -0.00000000000E+00  0.00000000000E+00  0.29650224207E+02  0.29650224207E+02  0.00000000000E+00 0. -1.
          1   -1    0    0  501    0  0.00000000000E+00 -0.00000000000E+00 -0.70155368498E+03  0.70155368498E+03  0.00000000000E+00 0. -1.
         25    1    1    2    0    0  0.44624437258E+02 -0.33429594529E+02 -0.19050070447E+03  0.23194696936E+03  0.12000000000E+03 0.  0.
         25    1    1    2    0    0 -0.44624437258E+02  0.33429594529E+02 -0.48140275630E+03  0.49925693983E+03  0.12000000000E+03 0.  0.
<mgrwt>
<rscale>  0 0.28845259E+03</rscale>
<asrwt>0</asrwt>
<pdfrwt beam="1">  1        1 0.10793132E+00 0.28845259E+03</pdfrwt>
<pdfrwt beam="2">  1       -1 0.45615737E-02 0.28845259E+03</pdfrwt>
<totfact> 0.56706487E+03</totfact>
</mgrwt>
</event>
<event>
 4    1  0.1733772E-004  0.2898701E+03  0.7818608E-02  0.1090417E+00
         -1   -1    0    0    0  501 -0.00000000000E+00  0.00000000000E+00  0.64787012922E+03  0.64787012922E+03  0.00000000000E+00 0.  1.
          1   -1    0    0  501    0  0.00000000000E+00 -0.00000000000E+00 -0.32423433715E+02  0.32423433715E+02  0.00000000000E+00 0.  1.
         25    1    1    2    0    0  0.10878177481E+02 -0.75815990510E+02  0.24389072069E+03  0.28239880099E+03  0.12000000000E+03 0.  0.
         25    1    1    2    0    0 -0.10878177481E+02  0.75815990510E+02  0.37155597482E+03  0.39789476195E+03  0.12000000000E+03 0.  0.
<mgrwt>
<rscale>  0 0.28987014E+03</rscale>
<asrwt>0</asrwt>
<pdfrwt beam="1">  1        1 0.49882210E-02 0.28987014E+03</pdfrwt>
<pdfrwt beam="2">  1       -1 0.99672318E-01 0.28987014E+03</pdfrwt>
<totfact> 0.16965316E+03</totfact>
</mgrwt>
</event>
<event>
 4    1  0.1733772E-004  0.4403679E+03  0.7818608E-02  0.1030634E+00
          2   -1    0    0  501    0  0.00000000000E+00  0.00000000000E+00  0.24462708663E+04  0.24462708663E+04  0.00000000000E+00 0. -1.
         -2   -1    0    0    0  501 -0.00000000000E+00 -0.00000000000E+00 -0.19818313079E+02  0.19818313079E+02  0.00000000000E+00 0. -1.
         25    1    1    2    0    0  0.72983470702E+02  0.12526853720E+03  0.18532569807E+04  0.18627882944E+04  0.12000000000E+03 0.  0.
         25    1    1    2    0    0 -0.72983470702E+02 -0.12526853720E+03  0.57319557257E+03  0.60330088498E+03  0.12000000000E+03 0.  0.
<mgrwt>
<rscale>  0 0.44036785E+03</rscale>
<asrwt>0</asrwt>
<pdfrwt beam="1">  1        2 0.37634912E+00 0.44036785E+03</pdfrwt>
<pdfrwt beam="2">  1       -2 0.30489732E-02 0.44036785E+03</pdfrwt>
<totfact> 0.17470522E+03</totfact>
</mgrwt>
</event>
<event>
 4    1  0.1733772E-004  0.2998325E+03  0.7818608E-02  0.1085324E+00
          2   -1    0    0  501    0  0.00000000000E+00  0.00000000000E+00  0.33406630869E+03  0.33406630869E+03  0.00000000000E+00 0. -1.
         -2   -1    0    0    0  501 -0.00000000000E+00 -0.00000000000E+00 -0.67276727780E+02  0.67276727780E+02  0.00000000000E+00 0. -1.
         25    1    1    2    0    0 -0.51619317692E+02 -0.19371346621E+02  0.38412995172E+02  0.13753312774E+03  0.12000000000E+03 0.  0.
         25    1    1    2    0    0  0.51619317692E+02  0.19371346621E+02  0.22837658574E+03  0.26380990872E+03  0.12000000000E+03 0.  0.
<mgrwt>
<rscale>  0 0.29983254E+03</rscale>
<asrwt>0</asrwt>
<pdfrwt beam="1">  1        2 0.51394816E-01 0.29983254E+03</pdfrwt>
<pdfrwt beam="2">  1       -2 0.10350266E-01 0.29983254E+03</pdfrwt>
<totfact> 0.60902584E+03</totfact>
</mgrwt>
</event>
<event>
 4    1  0.1733772E-004  0.3256709E+03  0.7818608E-02  0.1073069E+00
          1   -1    0    0  501    0  0.00000000000E+00  0.00000000000E+00  0.33039884188E+02  0.33039884188E+02  0.00000000000E+00 0.  1.
         -1   -1    0    0    0  501 -0.00000000000E+00 -0.00000000000E+00 -0.80252637478E+03  0.80252637478E+03  0.00000000000E+00 0.  1.
         25    1    1    2    0    0  0.97652957007E+02 -0.95047371846E+01 -0.51274297748E+03  0.53566015439E+03  0.12000000000E+03 0.  0.
         25    1    1    2    0    0 -0.97652957007E+02  0.95047371846E+01 -0.25674351311E+03  0.29990610458E+03  0.12000000000E+03 0.  0.
<mgrwt>
<rscale>  0 0.32567087E+03</rscale>
<asrwt>0</asrwt>
<pdfrwt beam="1">  1        1 0.50830592E-02 0.32567087E+03</pdfrwt>
<pdfrwt beam="2">  1       -1 0.12346559E+00 0.32567087E+03</pdfrwt>
<totfact> 0.10069386E+03</totfact>
</mgrwt>
</event>
<event>
 4    1  0.1733772E-004  0.3323957E+03  0.7818608E-02  0.1070082E+00
         -2   -1    0    0    0  501 -0.00000000000E+00  0.00000000000E+00  0.23378254785E+03  0.23378254785E+03  0.00000000000E+00 0.  1.
          2   -1    0    0  501    0  0.00000000000E+00 -0.00000000000E+00 -0.11815134810E+03  0.11815134810E+03  0.00000000000E+00 0.  1.
         25    1    1    2    0    0 -0.58544729358E+02 -0.22872803819E+02  0.15976172200E+03  0.20946230761E+03  0.12000000000E+03 0.  0.
         25    1    1    2    0    0  0.58544729358E+02  0.22872803819E+02 -0.44130522260E+02  0.14247158834E+03  0.12000000000E+03 0.  0.
<mgrwt>
<rscale>  0 0.33239569E+03</rscale>
<asrwt>0</asrwt>
<pdfrwt beam="1">  1        2 0.18177131E-01 0.33239569E+03</pdfrwt>
<pdfrwt beam="2">  1       -2 0.35966546E-01 0.33239569E+03</pdfrwt>
<totfact> 0.22722976E+03</totfact>
</mgrwt>
</event>
<event>
 4    1  0.1733772E-004  0.3981726E+03  0.7818608E-02  0.1044414E+00
         -2   -1    0    0    0  501 -0.00000000000E+00  0.00000000000E+00  0.95348995443E+02  0.95348995443E+02  0.00000000000E+00 0.  1.
          2   -1    0    0  501    0  0.00000000000E+00 -0.00000000000E+00 -0.41568724578E+03  0.41568724578E+03  0.00000000000E+00 0.  1.
         25    1    1    2    0    0  0.10515242834E+03  0.11895693466E+03 -0.16690888573E+03  0.25974287598E+03  0.12000000000E+03 0.  0.
         25    1    1    2    0    0 -0.10515242834E+03 -0.11895693466E+03 -0.15342936460E+03  0.25129336523E+03  0.12000000000E+03 0.  0.
<mgrwt>
<rscale>  0 0.39817263E+03</rscale>
<asrwt>0</asrwt>
<pdfrwt beam="1">  1        2 0.63951885E-01 0.39817263E+03</pdfrwt>
<pdfrwt beam="2">  1       -2 0.14669076E-01 0.39817263E+03</pdfrwt>
<totfact> 0.27348907E+03</totfact>
</mgrwt>
</event>
<event>
 4    1  0.1733772E-004  0.3281726E+03  0.7818608E-02  0.1071948E+00
         -4   -1    0    0    0  501 -0.00000000000E+00  0.00000000000E+00  0.58804890030E+03  0.58804890030E+03  0.00000000000E+00 0.  1.
          4   -1    0    0  501    0  0.00000000000E+00 -0.00000000000E+00 -0.45785855161E+02  0.45785855161E+02  0.00000000000E+00 0.  1.
         25    1    1    2    0    0  0.59780528314E+01 -0.10885358576E+03  0.31997287374E+03  0.35870249536E+03  0.12000000000E+03 0.  0.
         25    1    1    2    0    0 -0.59780528314E+01  0.10885358576E+03  0.22229017140E+03  0.27513226010E+03  0.12000000000E+03 0.  0.
<mgrwt>
<rscale>  0 0.32817265E+03</rscale>
<asrwt>0</asrwt>
<pdfrwt beam="1">  1        4 0.70439782E-02 0.32817265E+03</pdfrwt>
<pdfrwt beam="2">  1       -4 0.90469056E-01 0.32817265E+03</pdfrwt>
<totfact> 0.28002049E+02</totfact>
</mgrwt>
</event>
<event>
 4    1  0.1733772E-004  0.2795593E+03  0.7818608E-02  0.1095930E+00
         -1   -1    0    0    0  501 -0.00000000000E+00  0.00000000000E+00  0.27577240331E+02  0.27577240331E+02  0.00000000000E+00 0.  1.
          1   -1    0    0  501    0  0.00000000000E+00 -0.00000000000E+00 -0.70849566243E+03  0.70849566243E+03  0.00000000000E+00 0.  1.
         25    1    1    2    0    0  0.13096260412E+01 -0.67108333065E+02 -0.27420904153E+03  0.30675045549E+03  0.12000000000E+03 0.  0.
         25    1    1    2    0    0 -0.13096260412E+01  0.67108333065E+02 -0.40670938057E+03  0.42932244727E+03  0.12000000000E+03 0.  0.
<mgrwt>
<rscale>  0 0.27955933E+03</rscale>
<asrwt>0</asrwt>
<pdfrwt beam="1">  1        1 0.10899931E+00 0.27955933E+03</pdfrwt>
<pdfrwt beam="2">  1       -1 0.42426531E-02 0.27955933E+03</pdfrwt>
<totfact> 0.62236725E+03</totfact>
</mgrwt>
</event>
<event>
 4    1  0.1733772E-004  0.2635927E+03  0.7818608E-02  0.1105004E+00
         -2   -1    0    0    0  501 -0.00000000000E+00  0.00000000000E+00  0.88511900984E+02  0.88511900984E+02  0.00000000000E+00 0.  1.
          2   -1    0    0  501    0  0.00000000000E+00 -0.00000000000E+00 -0.19624797752E+03  0.19624797752E+03  0.00000000000E+00 0.  1.
         25    1    1    2    0    0 -0.25334812140E+02 -0.12531951234E+02 -0.10420803647E+03  0.16142557843E+03  0.12000000000E+03 0.  0.
         25    1    1    2    0    0  0.25334812140E+02  0.12531951234E+02 -0.35280400701E+01  0.12333430007E+03  0.12000000000E+03 0.  0.
<mgrwt>
<rscale>  0 0.26359273E+03</rscale>
<asrwt>0</asrwt>
<pdfrwt beam="1">  1        2 0.30191997E-01 0.26359273E+03</pdfrwt>
<pdfrwt beam="2">  1       -2 0.13617215E-01 0.26359273E+03</pdfrwt>
<totfact> 0.69252831E+03</totfact>
</mgrwt>
</event>
<event>
 4    1  0.1733772E-004  0.3646502E+03  0.7818608E-02  0.1056758E+00
         -1   -1    0    0    0  501 -0.00000000000E+00  0.00000000000E+00  0.20910976309E+02  0.20910976309E+02  0.00000000000E+00 0. -1.
          1   -1    0    0  501    0  0.00000000000E+00 -0.00000000000E+00 -0.15897126112E+04  0.15897126112E+04  0.00000000000E+00 0. -1.
         25    1    1    2    0    0 -0.13129829251E+03  0.39872272610E+02 -0.80057114332E+03  0.82106223592E+03  0.12000000000E+03 0.  0.
         25    1    1    2    0    0  0.13129829251E+03 -0.39872272610E+02 -0.76823049155E+03  0.78956135156E+03  0.12000000000E+03 0.  0.
<mgrwt>
<rscale>  0 0.36465020E+03</rscale>
<asrwt>0</asrwt>
<pdfrwt beam="1">  1        1 0.24457129E+00 0.36465020E+03</pdfrwt>
<pdfrwt beam="2">  1       -1 0.32170718E-02 0.36465020E+03</pdfrwt>
<totfact> 0.21201452E+03</totfact>
</mgrwt>
</event>
<event>
 4    1  0.1733772E-004  0.3341955E+03  0.7818608E-02  0.1069295E+00
         -1   -1    0    0    0  501 -0.00000000000E+00  0.00000000000E+00  0.11350680090E+03  0.11350680090E+03  0.00000000000E+00 0.  1.
          1   -1    0    0  501    0  0.00000000000E+00 -0.00000000000E+00 -0.24599112303E+03  0.24599112303E+03  0.00000000000E+00 0.  1.
         25    1    1    2    0    0 -0.10422331618E+03 -0.42202614930E+02 -0.98118539733E+02  0.19149623542E+03  0.12000000000E+03 0.  0.
         25    1    1    2    0    0  0.10422331618E+03  0.42202614930E+02 -0.34365782392E+02  0.16800168851E+03  0.12000000000E+03 0.  0.
<mgrwt>
<rscale>  0 0.33419554E+03</rscale>
<asrwt>0</asrwt>
<pdfrwt beam="1">  1        1 0.37844787E-01 0.33419554E+03</pdfrwt>
<pdfrwt beam="2">  1       -1 0.17462585E-01 0.33419554E+03</pdfrwt>
<totfact> 0.28413707E+03</totfact>
</mgrwt>
</event>
<event>
 4    1  0.1733772E-004  0.2542686E+03  0.7818608E-02  0.1110636E+00
         -4   -1    0    0    0  501 -0.00000000000E+00  0.00000000000E+00  0.20117646064E+04  0.20117646064E+04  0.00000000000E+00 0. -1.
          4   -1    0    0  501    0  0.00000000000E+00 -0.00000000000E+00 -0.80343070511E+01  0.80343070511E+01  0.00000000000E+00 0. -1.
         25    1    1    2    0    0 -0.17965591495E+02 -0.32692599388E+02  0.11549856520E+04  0.11618018010E+04  0.12000000000E+03 0.  0.
         25    1    1    2    0    0  0.17965591495E+02  0.32692599388E+02  0.84874464734E+03  0.85799711242E+03  0.12000000000E+03 0.  0.
<mgrwt>
<rscale>  0 0.25426863E+03</rscale>
<asrwt>0</asrwt>
<pdfrwt beam="1">  1        4 0.12360488E-02 0.25426863E+03</pdfrwt>
<pdfrwt beam="2">  1       -4 0.30950185E+00 0.25426863E+03</pdfrwt>
<totfact> 0.12618458E+02</totfact>
</mgrwt>
</event>
<event>
 4    1  0.1733772E-004  0.2495269E+03  0.7818608E-02  0.1113604E+00
         -2   -1    0    0    0  501 -0.00000000000E+00  0.00000000000E+00  0.65278922541E+01  0.65278922541E+01  0.00000000000E+00 0. -1.
          2   -1    0    0  501    0  0.00000000000E+00 -0.00000000000E+00 -0.23845246740E+04  0.23845246740E+04  0.00000000000E+00 0. -1.
         25    1    1    2    0    0  0.33827614659E+02  0.46353884603E+01 -0.11923972160E+04  0.11989065498E+04  0.12000000000E+03 0.  0.
         25    1    1    2    0    0 -0.33827614659E+02 -0.46353884603E+01 -0.11855995658E+04  0.11921460165E+04  0.12000000000E+03 0.  0.
<mgrwt>
<rscale>  0 0.24952691E+03</rscale>
<asrwt>0</asrwt>
<pdfrwt beam="1">  1        2 0.36684963E+00 0.24952691E+03</pdfrwt>
<pdfrwt beam="2">  1       -2 0.10042920E-02 0.24952691E+03</pdfrwt>
<totfact> 0.98130805E+03</totfact>
</mgrwt>
</event>
<event>
 4    1  0.1733772E-004  0.3173857E+03  0.7818608E-02  0.1076859E+00
         -2   -1    0    0    0  501 -0.00000000000E+00  0.00000000000E+00  0.41419485332E+02  0.41419485332E+02  0.00000000000E+00 0.  1.
          2   -1    0    0  501    0  0.00000000000E+00 -0.00000000000E+00 -0.60800896522E+03  0.60800896522E+03  0.00000000000E+00 0.  1.
         25    1    1    2    0    0 -0.34827264875E+02 -0.43802124458E+02 -0.10430534096E+03  0.16855612904E+03  0.12000000000E+03 0.  0.
         25    1    1    2    0    0  0.34827264875E+02  0.43802124458E+02 -0.46228413893E+03  0.48087232151E+03  0.12000000000E+03 0.  0.
<mgrwt>
<rscale>  0 0.31738569E+03</rscale>
<asrwt>0</asrwt>
<pdfrwt beam="1">  1        2 0.93539849E-01 0.31738569E+03</pdfrwt>
<pdfrwt beam="2">  1       -2 0.63722280E-02 0.31738569E+03</pdfrwt>
<totfact> 0.67079721E+03</totfact>
</mgrwt>
</event>
<event>
 4    1  0.1733772E-004  0.3063265E+03  0.7818608E-02  0.1082120E+00
          2   -1    0    0  501    0  0.00000000000E+00  0.00000000000E+00  0.22354426762E+03  0.22354426762E+03  0.00000000000E+00 0.  1.
         -2   -1    0    0    0  501 -0.00000000000E+00 -0.00000000000E+00 -0.10494111403E+03  0.10494111403E+03  0.00000000000E+00 0.  1.
         25    1    1    2    0    0  0.25755713712E+02  0.61343979551E+02  0.13228785491E+03  0.19059516566E+03  0.12000000000E+03 0.  0.
         25    1    1    2    0    0 -0.25755713712E+02 -0.61343979551E+02 -0.13684701314E+02  0.13789021599E+03  0.12000000000E+03 0.  0.
<mgrwt>
<rscale>  0 0.30632652E+03</rscale>
<asrwt>0</asrwt>
<pdfrwt beam="1">  1        2 0.34391426E-01 0.30632652E+03</pdfrwt>
<pdfrwt beam="2">  1       -2 0.16144787E-01 0.30632652E+03</pdfrwt>
<totfact> 0.45568869E+03</totfact>
</mgrwt>
</event>
<event>
 4    1  0.1733772E-004  0.2665369E+03  0.7818608E-02  0.1103278E+00
         -1   -1    0    0    0  501 -0.00000000000E+00  0.00000000000E+00  0.46702225869E+03  0.46702225869E+03  0.00000000000E+00 0. -1.
          1   -1    0    0  501    0  0.00000000000E+00 -0.00000000000E+00 -0.38029191857E+02  0.38029191857E+02  0.00000000000E+00 0. -1.
         25    1    1    2    0    0  0.29342944178E+02 -0.49809549488E+02  0.22264213585E+03  0.25944463812E+03  0.12000000000E+03 0.  0.
         25    1    1    2    0    0 -0.29342944178E+02  0.49809549488E+02  0.20635093098E+03  0.24560681242E+03  0.12000000000E+03 0.  0.
<mgrwt>
<rscale>  0 0.26653689E+03</rscale>
<asrwt>0</asrwt>
<pdfrwt beam="1">  1        1 0.58506452E-02 0.26653689E+03</pdfrwt>
<pdfrwt beam="2">  1       -1 0.71849574E-01 0.26653689E+03</pdfrwt>
<totfact> 0.27120774E+03</totfact>
</mgrwt>
</event>
<event>
 4    1  0.1733772E-004  0.2563907E+03  0.7818608E-02  0.1109331E+00
         -2   -1    0    0    0  501 -0.00000000000E+00  0.00000000000E+00  0.36726567724E+02  0.36726567724E+02  0.00000000000E+00 0. -1.
          2   -1    0    0  501    0  0.00000000000E+00 -0.00000000000E+00 -0.44747039905E+03  0.44747039905E+03  0.00000000000E+00 0. -1.
         25    1    1    2    0    0 -0.42595898661E+02  0.14754796393E+02 -0.20800048811E+03  0.24432829892E+03  0.12000000000E+03 0.  0.
         25    1    1    2    0    0  0.42595898661E+02 -0.14754796393E+02 -0.20274334321E+03  0.23986866785E+03  0.12000000000E+03 0.  0.
<mgrwt>
<rscale>  0 0.25639073E+03</rscale>
<asrwt>0</asrwt>
<pdfrwt beam="1">  1        2 0.68841598E-01 0.25639073E+03</pdfrwt>
<pdfrwt beam="2">  1       -2 0.56502414E-02 0.25639073E+03</pdfrwt>
<totfact> 0.11327245E+04</totfact>
</mgrwt>
</event>
<event>
 4    1  0.1733772E-004  0.2624850E+03  0.7818608E-02  0.1105659E+00
          1   -1    0    0  501    0  0.00000000000E+00  0.00000000000E+00  0.42138053771E+03  0.42138053771E+03  0.00000000000E+00 0.  1.
         -1   -1    0    0    0  501 -0.00000000000E+00 -0.00000000000E+00 -0.40876571720E+02  0.40876571720E+02  0.00000000000E+00 0.  1.
         25    1    1    2    0    0 -0.18664747054E+02 -0.49084219040E+02  0.17584139291E+03  0.21926657019E+03  0.12000000000E+03 0.  0.
         25    1    1    2    0    0  0.18664747054E+02  0.49084219040E+02  0.20466257307E+03  0.24299053924E+03  0.12000000000E+03 0.  0.
<mgrwt>
<rscale>  0 0.26248498E+03</rscale>
<asrwt>0</asrwt>
<pdfrwt beam="1">  1        1 0.64827772E-01 0.26248498E+03</pdfrwt>
<pdfrwt beam="2">  1       -1 0.62887036E-02 0.26248498E+03</pdfrwt>
<totfact> 0.69873184E+03</totfact>
</mgrwt>
</event>
<event>
 4    1  0.1733772E-004  0.2457339E+03  0.7818608E-02  0.1116031E+00
         -2   -1    0    0    0  501 -0.00000000000E+00  0.00000000000E+00  0.89500093178E+01  0.89500093178E+01  0.00000000000E+00 0.  1.
          2   -1    0    0  501    0  0.00000000000E+00 -0.00000000000E+00 -0.16867338839E+04  0.16867338839E+04  0.00000000000E+00 0.  1.
         25    1    1    2    0    0  0.64819405952E+01  0.25570203682E+02 -0.84343321174E+03  0.85233528235E+03  0.12000000000E+03 0.  0.
         25    1    1    2    0    0 -0.64819405952E+01 -0.25570203682E+02 -0.83435066287E+03  0.84334861090E+03  0.12000000000E+03 0.  0.
<mgrwt>
<rscale>  0 0.24573387E+03</rscale>
<asrwt>0</asrwt>
<pdfrwt beam="1">  1        2 0.25949768E+00 0.24573387E+03</pdfrwt>
<pdfrwt beam="2">  1       -2 0.13769237E-02 0.24573387E+03</pdfrwt>
<totfact> 0.14468648E+04</totfact>
</mgrwt>
</event>
<event>
 4    1  0.1733772E-004  0.2888902E+03  0.7818608E-02  0.1090930E+00
         -1   -1    0    0    0  501 -0.00000000000E+00  0.00000000000E+00  0.52077243140E+01  0.52077243140E+01  0.00000000000E+00 0.  1.
          1   -1    0    0  501    0  0.00000000000E+00 -0.00000000000E+00 -0.40064294186E+04  0.40064294186E+04  0.00000000000E+00 0.  1.
         25    1    1    2    0    0  0.77901425686E+02 -0.11899649335E+02 -0.22219869037E+04  0.22266198674E+04  0.12000000000E+03 0.  0.
         25    1    1    2    0    0 -0.77901425686E+02  0.11899649335E+02 -0.17792347906E+04  0.17850172755E+04  0.12000000000E+03 0.  0.
<mgrwt>
<rscale>  0 0.28889015E+03</rscale>
<asrwt>0</asrwt>
<pdfrwt beam="1">  1        1 0.61637487E+00 0.28889015E+03</pdfrwt>
<pdfrwt beam="2">  1       -1 0.80118691E-03 0.28889015E+03</pdfrwt>
<totfact> 0.32000678E+02</totfact>
</mgrwt>
</event>
<event>
 4    1  0.1733772E-004  0.2645471E+03  0.7818608E-02  0.1104442E+00
         -1   -1    0    0    0  501 -0.00000000000E+00  0.00000000000E+00  0.29520798713E+03  0.29520798713E+03  0.00000000000E+00 0. -1.
          1   -1    0    0  501    0  0.00000000000E+00 -0.00000000000E+00 -0.59267665733E+02  0.59267665733E+02  0.00000000000E+00 0. -1.
         25    1    1    2    0    0 -0.52660997194E+01 -0.31729908161E+02  0.57128158187E+02  0.13674116182E+03  0.12000000000E+03 0.  0.
         25    1    1    2    0    0  0.52660997194E+01  0.31729908161E+02  0.17881216322E+03  0.21773449105E+03  0.12000000000E+03 0.  0.
<mgrwt>
<rscale>  0 0.26454707E+03</rscale>
<asrwt>0</asrwt>
<pdfrwt beam="1">  1        1 0.91181026E-02 0.26454707E+03</pdfrwt>
<pdfrwt beam="2">  1       -1 0.45416612E-01 0.26454707E+03</pdfrwt>
<totfact> 0.35466471E+03</totfact>
</mgrwt>
</event>
<event>
 4    1  0.1733772E-004  0.2952495E+03  0.7818608E-02  0.1087640E+00
          1   -1    0    0  501    0  0.00000000000E+00  0.00000000000E+00  0.44153068947E+03  0.44153068947E+03  0.00000000000E+00 0. -1.
         -1   -1    0    0    0  501 -0.00000000000E+00 -0.00000000000E+00 -0.49357984729E+02  0.49357984729E+02  0.00000000000E+00 0. -1.
         25    1    1    2    0    0  0.44461912435E+02 -0.56659551985E+02  0.27417477058E+03  0.30782945167E+03  0.12000000000E+03 0.  0.
         25    1    1    2    0    0 -0.44461912435E+02  0.56659551985E+02  0.11799793415E+03  0.18305922253E+03  0.12000000000E+03 0.  0.
<mgrwt>
<rscale>  0 0.29524949E+03</rscale>
<asrwt>0</asrwt>
<pdfrwt beam="1">  1        1 0.67927796E-01 0.29524949E+03</pdfrwt>
<pdfrwt beam="2">  1       -1 0.75935364E-02 0.29524949E+03</pdfrwt>
<totfact> 0.49573546E+03</totfact>
</mgrwt>
</event>
<event>
 4    1  0.1733772E-004  0.2997631E+03  0.7818608E-02  0.1085359E+00
         -2   -1    0    0    0  501 -0.00000000000E+00  0.00000000000E+00  0.41107094370E+02  0.41107094370E+02  0.00000000000E+00 0. -1.
          2   -1    0    0  501    0  0.00000000000E+00 -0.00000000000E+00 -0.54648672900E+03  0.54648672900E+03  0.00000000000E+00 0. -1.
         25    1    1    2    0    0 -0.58988945677E+02 -0.24890998725E+02 -0.37612327362E+03  0.39995996611E+03  0.12000000000E+03 0.  0.
         25    1    1    2    0    0  0.58988945677E+02  0.24890998725E+02 -0.12925636101E+03  0.18763385726E+03  0.12000000000E+03 0.  0.
<mgrwt>
<rscale>  0 0.29976312E+03</rscale>
<asrwt>0</asrwt>
<pdfrwt beam="1">  1        2 0.84074879E-01 0.29976312E+03</pdfrwt>
<pdfrwt beam="2">  1       -2 0.63241686E-02 0.29976312E+03</pdfrwt>
<totfact> 0.76650054E+03</totfact>
</mgrwt>
</event>
<event>
 4    1  0.1733772E-004  0.3573584E+03  0.7818608E-02  0.1059635E+00
         -1   -1    0    0    0  501 -0.00000000000E+00  0.00000000000E+00  0.11330848226E+02  0.11330848226E+02  0.00000000000E+00 0. -1.
          1   -1    0    0  501    0  0.00000000000E+00 -0.00000000000E+00 -0.28176410002E+04  0.28176410002E+04  0.00000000000E+00 0. -1.
         25    1    1    2    0    0  0.57507341210E+02  0.69369638794E+02 -0.63535056923E+03  0.65283197448E+03  0.12000000000E+03 0.  0.
         25    1    1    2    0    0 -0.57507341210E+02 -0.69369638794E+02 -0.21709595827E+04  0.21761398739E+04  0.12000000000E+03 0.  0.
<mgrwt>
<rscale>  0 0.35735843E+03</rscale>
<asrwt>0</asrwt>
<pdfrwt beam="1">  1        1 0.43348317E+00 0.35735843E+03</pdfrwt>
<pdfrwt beam="2">  1       -1 0.17432077E-02 0.35735843E+03</pdfrwt>
<totfact> 0.80279572E+02</totfact>
</mgrwt>
</event>
<event>
 4    1  0.1733772E-004  0.2778624E+03  0.7818608E-02  0.1096862E+00
         -4   -1    0    0    0  501 -0.00000000000E+00  0.00000000000E+00  0.32613217468E+02  0.32613217468E+02  0.00000000000E+00 0. -1.
          4   -1    0    0  501    0  0.00000000000E+00 -0.00000000000E+00 -0.59184240675E+03  0.59184240675E+03  0.00000000000E+00 0. -1.
         25    1    1    2    0    0  0.62967826495E+02 -0.10413080921E+02 -0.34430196107E+03  0.37015837127E+03  0.12000000000E+03 0.  0.
         25    1    1    2    0    0 -0.62967826495E+02  0.10413080921E+02 -0.21492722821E+03  0.25429725294E+03  0.12000000000E+03 0.  0.
<mgrwt>
<rscale>  0 0.27786245E+03</rscale>
<asrwt>0</asrwt>
<pdfrwt beam="1">  1        4 0.91052675E-01 0.27786245E+03</pdfrwt>
<pdfrwt beam="2">  1       -4 0.50174183E-02 0.27786245E+03</pdfrwt>
<totfact> 0.47224960E+02</totfact>
</mgrwt>
</event>
<event>
 4    1  0.1733772E-004  0.2455887E+03  0.7818608E-02  0.1116125E+00
          2   -1    0    0  501    0  0.00000000000E+00  0.00000000000E+00  0.71052140552E+03  0.71052140552E+03  0.00000000000E+00 0. -1.
         -2   -1    0    0    0  501 -0.00000000000E+00 -0.00000000000E+00 -0.21221672856E+02  0.21221672856E+02  0.00000000000E+00 0. -1.
         25    1    1    2    0    0 -0.19473810994E+02 -0.10860057209E+01  0.39608862774E+03  0.41432669447E+03  0.12000000000E+03 0.  0.
         25    1    1    2    0    0  0.19473810994E+02  0.10860057209E+01  0.29321110493E+03  0.31741638391E+03  0.12000000000E+03 0.  0.
<mgrwt>
<rscale>  0 0.24558870E+03</rscale>
<asrwt>0</asrwt>
<pdfrwt beam="1">  1        2 0.10931097E+00 0.24558870E+03</pdfrwt>
<pdfrwt beam="2">  1       -2 0.32648733E-02 0.24558870E+03</pdfrwt>
<totfact> 0.15202445E+04</totfact>
</mgrwt>
</event>
<event>
 4    1  0.1733772E-004  0.2972109E+03  0.7818608E-02  0.1086643E+00
         -1   -1    0    0    0  501 -0.00000000000E+00  0.00000000000E+00  0.64544572755E+03  0.64544572755E+03  0.00000000000E+00 0. -1.
          1   -1    0    0  501    0  0.00000000000E+00 -0.00000000000E+00 -0.34214475702E+02  0.34214475702E+02  0.00000000000E+00 0. -1.
         25    1    1    2    0    0  0.82238096979E+02 -0.14476792064E+02  0.36658796245E+03  0.39466367494E+03  0.12000000000E+03 0.  0.
         25    1    1    2    0    0 -0.82238096979E+02  0.14476792064E+02  0.24464328940E+03  0.28499652831E+03  0.12000000000E+03 0.  0.
<mgrwt>
<rscale>  0 0.29721095E+03</rscale>
<asrwt>0</asrwt>
<pdfrwt beam="1">  1        1 0.52637660E-02 0.29721095E+03</pdfrwt>
<pdfrwt beam="2">  1       -1 0.99299333E-01 0.29721095E+03</pdfrwt>
<totfact> 0.15883256E+03</totfact>
</mgrwt>
</event>
<event>
 4    1  0.1733772E-004  0.2657100E+03  0.7818608E-02  0.1103760E+00
          2   -1    0    0  501    0  0.00000000000E+00  0.00000000000E+00  0.31310898005E+03  0.31310898005E+03  0.00000000000E+00 0.  1.
         -2   -1    0    0    0  501 -0.00000000000E+00 -0.00000000000E+00 -0.56371571073E+02  0.56371571073E+02  0.00000000000E+00 0.  1.
         25    1    1    2    0    0 -0.35945411799E+02 -0.93884109988E+01  0.18850425519E+03  0.22652608926E+03  0.12000000000E+03 0.  0.
         25    1    1    2    0    0  0.35945411799E+02  0.93884109988E+01  0.68233153785E+02  0.14295446186E+03  0.12000000000E+03 0.  0.
<mgrwt>
<rscale>  0 0.26570996E+03</rscale>
<asrwt>0</asrwt>
<pdfrwt beam="1">  1        2 0.48170611E-01 0.26570996E+03</pdfrwt>
<pdfrwt beam="2">  1       -2 0.86725496E-02 0.26570996E+03</pdfrwt>
<totfact> 0.86044735E+03</totfact>
</mgrwt>
</event>
<event>
 4    1  0.1733772E-004  0.5124738E+03  0.7818608E-02  0.1010573E+00
          2   -1    0    0  501    0  0.00000000000E+00  0.00000000000E+00  0.12993887644E+04  0.12993887644E+04  0.00000000000E+00 0. -1.
         -2   -1    0    0    0  501 -0.00000000000E+00 -0.00000000000E+00 -0.50529418433E+02  0.50529418433E+02  0.00000000000E+00 0. -1.
         25    1    1    2    0    0 -0.12963753349E+03  0.31162341804E+02  0.11064117818E+04  0.11208586051E+04  0.12000000000E+03 0.  0.
         25    1    1    2    0    0  0.12963753349E+03 -0.31162341804E+02  0.14244756420E+03  0.22905957780E+03  0.12000000000E+03 0.  0.
<mgrwt>
<rscale>  0 0.51247384E+03</rscale>
<asrwt>0</asrwt>
<pdfrwt beam="1">  1        2 0.19990594E+00 0.51247384E+03</pdfrwt>
<pdfrwt beam="2">  1       -2 0.77737577E-02 0.51247384E+03</pdfrwt>
<totfact> 0.17280560E+03</totfact>
</mgrwt>
</event>
<event>
 4    1  0.1733772E-004  0.2718928E+03  0.7818608E-02  0.1100201E+00
         -1   -1    0    0    0  501 -0.00000000000E+00  0.00000000000E+00  0.16584891939E+03  0.16584891939E+03  0.00000000000E+00 0.  1.
          1   -1    0    0  501    0  0.00000000000E+00 -0.00000000000E+00 -0.11143531767E+03  0.11143531767E+03  0.00000000000E+00 0.  1.
         25    1    1    2    0    0  0.59101247504E+02 -0.22959630549E+02  0.35193107027E+02  0.14020933233E+03  0.12000000000E+03 0.  0.
         25    1    1    2    0    0 -0.59101247504E+02  0.22959630549E+02  0.19220494694E+02  0.13707490473E+03  0.12000000000E+03 0.  0.
<mgrwt>
<rscale>  0 0.27189282E+03</rscale>
<asrwt>0</asrwt>
<pdfrwt beam="1">  1        1 0.17143895E-01 0.27189282E+03</pdfrwt>
<pdfrwt beam="2">  1       -1 0.25515218E-01 0.27189282E+03</pdfrwt>
<totfact> 0.41757860E+03</totfact>
</mgrwt>
</event>
<event>
 4    1  0.1733772E-004  0.2931906E+03  0.7818608E-02  0.1088695E+00
         -3   -1    0    0    0  501 -0.00000000000E+00  0.00000000000E+00  0.17661252919E+03  0.17661252919E+03  0.00000000000E+00 0.  1.
          3   -1    0    0  501    0  0.00000000000E+00 -0.00000000000E+00 -0.12167985639E+03  0.12167985639E+03  0.00000000000E+00 0.  1.
         25    1    1    2    0    0  0.77960217862E+02 -0.11721388771E+02  0.57561469203E+02  0.15468842639E+03  0.12000000000E+03 0.  0.
         25    1    1    2    0    0 -0.77960217862E+02  0.11721388771E+02 -0.26287964047E+01  0.14360395919E+03  0.12000000000E+03 0.  0.
<mgrwt>
<rscale>  0 0.29319064E+03</rscale>
<asrwt>0</asrwt>
<pdfrwt beam="1">  1        3 0.18719978E-01 0.29319064E+03</pdfrwt>
<pdfrwt beam="2">  1       -3 0.27171158E-01 0.29319064E+03</pdfrwt>
<totfact> 0.83252869E+02</totfact>
</mgrwt>
</event>
<event>
 4    1  0.1733772E-004  0.2931961E+03  0.7818608E-02  0.1088692E+00
          2   -1    0    0  501    0  0.00000000000E+00  0.00000000000E+00  0.26616046571E+02  0.26616046571E+02  0.00000000000E+00 0.  1.
         -2   -1    0    0    0  501 -0.00000000000E+00 -0.00000000000E+00 -0.80744490567E+03  0.80744490567E+03  0.00000000000E+00 0.  1.
         25    1    1    2    0    0  0.44116139317E+02  0.65733083030E+02 -0.30875959596E+03  0.34058708145E+03  0.12000000000E+03 0.  0.
         25    1    1    2    0    0 -0.44116139317E+02 -0.65733083030E+02 -0.47206926314E+03  0.49347387079E+03  0.12000000000E+03 0.  0.
<mgrwt>
<rscale>  0 0.29319612E+03</rscale>
<asrwt>0</asrwt>
<pdfrwt beam="1">  1        2 0.40947767E-02 0.29319612E+03</pdfrwt>
<pdfrwt beam="2">  1       -2 0.12422228E+00 0.29319612E+03</pdfrwt>
<totfact> 0.10499223E+03</totfact>
</mgrwt>
</event>
<event>
 4    1  0.1733772E-004  0.2942374E+03  0.7818608E-02  0.1088157E+00
         -2   -1    0    0    0  501 -0.00000000000E+00  0.00000000000E+00  0.15884607648E+02  0.15884607648E+02  0.00000000000E+00 0. -1.
          2   -1    0    0  501    0  0.00000000000E+00 -0.00000000000E+00 -0.13625716698E+04  0.13625716698E+04  0.00000000000E+00 0. -1.
         25    1    1    2    0    0  0.80771708317E+02 -0.14931938941E+02 -0.77777295662E+03  0.79125078434E+03  0.12000000000E+03 0.  0.
         25    1    1    2    0    0 -0.80771708317E+02  0.14931938941E+02 -0.56891410551E+03  0.58720549308E+03  0.12000000000E+03 0.  0.
<mgrwt>
<rscale>  0 0.29423743E+03</rscale>
<asrwt>0</asrwt>
<pdfrwt beam="1">  1        2 0.20962639E+00 0.29423743E+03</pdfrwt>
<pdfrwt beam="2">  1       -2 0.24437861E-02 0.29423743E+03</pdfrwt>
<totfact> 0.93246080E+03</totfact>
</mgrwt>
</event>
<event>
 4    1  0.1733772E-004  0.2494726E+03  0.7818608E-02  0.1113639E+00
         -1   -1    0    0    0  501 -0.00000000000E+00  0.00000000000E+00  0.95522340573E+02  0.95522340573E+02  0.00000000000E+00 0.  1.
          1   -1    0    0  501    0  0.00000000000E+00 -0.00000000000E+00 -0.16288492879E+03  0.16288492879E+03  0.00000000000E+00 0.  1.
         25    1    1    2    0    0  0.22354201091E+02  0.14780414774E+01 -0.60236438190E+02  0.13612613048E+03  0.12000000000E+03 0.  0.
         25    1    1    2    0    0 -0.22354201091E+02 -0.14780414774E+01 -0.71261500280E+01  0.12228113889E+03  0.12000000000E+03 0.  0.
<mgrwt>
<rscale>  0 0.24947264E+03</rscale>
<asrwt>0</asrwt>
<pdfrwt beam="1">  1        1 0.25059220E-01 0.24947264E+03</pdfrwt>
<pdfrwt beam="2">  1       -1 0.14695745E-01 0.24947264E+03</pdfrwt>
<totfact> 0.62509094E+03</totfact>
</mgrwt>
</event>
<event>
 4    1  0.1733772E-004  0.2746130E+03  0.7818608E-02  0.1098668E+00
         -1   -1    0    0    0  501 -0.00000000000E+00  0.00000000000E+00  0.30763925389E+03  0.30763925389E+03  0.00000000000E+00 0.  1.
          1   -1    0    0  501    0  0.00000000000E+00 -0.00000000000E+00 -0.61283050111E+02  0.61283050111E+02  0.00000000000E+00 0.  1.
         25    1    1    2    0    0 -0.14549391842E+02  0.40257524611E+02  0.19195206656E+03  0.23038652076E+03  0.12000000000E+03 0.  0.
         25    1    1    2    0    0  0.14549391842E+02 -0.40257524611E+02  0.54404137213E+02  0.13853578324E+03  0.12000000000E+03 0.  0.
<mgrwt>
<rscale>  0 0.27461298E+03</rscale>
<asrwt>0</asrwt>
<pdfrwt beam="1">  1        1 0.94281618E-02 0.27461298E+03</pdfrwt>
<pdfrwt beam="2">  1       -1 0.47329115E-01 0.27461298E+03</pdfrwt>
<totfact> 0.31481664E+03</totfact>
</mgrwt>
</event>
<event>
 4    1  0.1733772E-004  0.2867645E+03  0.7818608E-02  0.1092051E+00
          2   -1    0    0  501    0  0.00000000000E+00  0.00000000000E+00  0.20693238873E+04  0.20693238873E+04  0.00000000000E+00 0. -1.
         -2   -1    0    0    0  501 -0.00000000000E+00 -0.00000000000E+00 -0.99348709125E+01  0.99348709125E+01  0.00000000000E+00 0. -1.
         25    1    1    2    0    0  0.39736301787E+02 -0.63973960292E+02  0.86971315269E+03  0.88117683199E+03  0.12000000000E+03 0.  0.
         25    1    1    2    0    0 -0.39736301787E+02  0.63973960292E+02  0.11896758637E+04  0.11980819262E+04  0.12000000000E+03 0.  0.
<mgrwt>
<rscale>  0 0.28676447E+03</rscale>
<asrwt>0</asrwt>
<pdfrwt beam="1">  1        2 0.31835718E+00 0.28676447E+03</pdfrwt>
<pdfrwt beam="2">  1       -2 0.15284433E-02 0.28676447E+03</pdfrwt>
<totfact> 0.78416601E+03</totfact>
</mgrwt>
</event>
<event>
 4    1  0.1733772E-004  0.2739545E+03  0.7818608E-02  0.1099037E+00
          1   -1    0    0  501    0  0.00000000000E+00  0.00000000000E+00  0.20399118631E+02  0.20399118631E+02  0.00000000000E+00 0. -1.
         -1   -1    0    0    0  501 -0.00000000000E+00 -0.00000000000E+00 -0.91978332693E+03  0.91978332693E+03  0.00000000000E+00 0. -1.
         25    1    1    2    0    0  0.27454094319E+02  0.11777942035E+02 -0.65186296492E+03  0.66348908977E+03  0.12000000000E+03 0.  0.
         25    1    1    2    0    0 -0.27454094319E+02 -0.11777942035E+02 -0.24752124338E+03  0.27669335579E+03  0.12000000000E+03 0.  0.
<mgrwt>
<rscale>  0 0.27395452E+03</rscale>
<asrwt>0</asrwt>
<pdfrwt beam="1">  1        1 0.31383272E-02 0.27395452E+03</pdfrwt>
<pdfrwt beam="2">  1       -1 0.14150507E+00 0.27395452E+03</pdfrwt>
<totfact> 0.14062345E+03</totfact>
</mgrwt>
</event>
<event>
 4    1  0.1733772E-004  0.3851488E+03  0.7818608E-02  0.1049047E+00
         -4   -1    0    0    0  501 -0.00000000000E+00  0.00000000000E+00  0.72556431966E+02  0.72556431966E+02  0.00000000000E+00 0.  1.
          4   -1    0    0  501    0  0.00000000000E+00 -0.00000000000E+00 -0.51111799882E+03  0.51111799882E+03  0.00000000000E+00 0.  1.
         25    1    1    2    0    0 -0.52144551538E+02  0.34919834749E+02 -0.11788649982E+02  0.13593167910E+03  0.12000000000E+03 0.  0.
         25    1    1    2    0    0  0.52144551538E+02 -0.34919834749E+02 -0.42677291688E+03  0.44774275169E+03  0.12000000000E+03 0.  0.
<mgrwt>
<rscale>  0 0.38514879E+03</rscale>
<asrwt>0</asrwt>
<pdfrwt beam="1">  1        4 0.78633539E-01 0.38514879E+03</pdfrwt>
<pdfrwt beam="2">  1       -4 0.11162528E-01 0.38514879E+03</pdfrwt>
<totfact> 0.17947245E+02</totfact>
</mgrwt>
</event>
<event>
 4    1  0.1733772E-004  0.3010649E+03  0.7818608E-02  0.1084710E+00
          2   -1    0    0  501    0  0.00000000000E+00  0.00000000000E+00  0.84896325634E+02  0.84896325634E+02  0.00000000000E+00 0.  1.
         -2   -1    0    0    0  501 -0.00000000000E+00 -0.00000000000E+00 -0.26691393631E+03  0.26691393631E+03  0.00000000000E+00 0.  1.
         25    1    1    2    0    0 -0.17534270930E+02  0.51509114545E+02 -0.59418916731E+01  0.13189369058E+03  0.12000000000E+03 0.  0.
         25    1    1    2    0    0  0.17534270930E+02 -0.51509114545E+02 -0.17607571900E+03  0.21991657137E+03  0.12000000000E+03 0.  0.
<mgrwt>
<rscale>  0 0.30106486E+03</rscale>
<asrwt>0</asrwt>
<pdfrwt beam="1">  1        2 0.13060973E-01 0.30106486E+03</pdfrwt>
<pdfrwt beam="2">  1       -2 0.41063682E-01 0.30106486E+03</pdfrwt>
<totfact> 0.26086708E+03</totfact>
</mgrwt>
</event>
<event>
 4    1  0.1733772E-004  0.3478185E+03  0.7818608E-02  0.1063514E+00
          3   -1    0    0  501    0  0.00000000000E+00  0.00000000000E+00  0.31051664690E+02  0.31051664690E+02  0.00000000000E+00 0.  1.
         -3   -1    0    0    0  501 -0.00000000000E+00 -0.00000000000E+00 -0.97400361549E+03  0.97400361549E+03  0.00000000000E+00 0.  1.
         25    1    1    2    0    0 -0.45441621225E+01  0.66482887792E+02 -0.78005202149E+03  0.79203647644E+03  0.12000000000E+03 0.  0.
         25    1    1    2    0    0  0.45441621225E+01 -0.66482887792E+02 -0.16289992931E+03  0.21301880375E+03  0.12000000000E+03 0.  0.
<mgrwt>
<rscale>  0 0.34781854E+03</rscale>
<asrwt>0</asrwt>
<pdfrwt beam="1">  1        3 0.47771791E-02 0.34781854E+03</pdfrwt>
<pdfrwt beam="2">  1       -3 0.14984671E+00 0.34781854E+03</pdfrwt>
<totfact> 0.21611290E+02</totfact>
</mgrwt>
</event>
<event>
 4    1  0.1733772E-004  0.2758136E+03  0.7818608E-02  0.1097998E+00
         -2   -1    0    0    0  501 -0.00000000000E+00  0.00000000000E+00  0.27409311717E+02  0.27409311717E+02  0.00000000000E+00 0. -1.
          2   -1    0    0  501    0  0.00000000000E+00 -0.00000000000E+00 -0.69386200758E+03  0.69386200758E+03  0.00000000000E+00 0. -1.
         25    1    1    2    0    0 -0.13603504995E+02 -0.47808536657E+02 -0.21203920023E+03  0.24865907174E+03  0.12000000000E+03 0.  0.
         25    1    1    2    0    0  0.13603504995E+02  0.47808536657E+02 -0.45441349563E+03  0.47261224755E+03  0.12000000000E+03 0.  0.
<mgrwt>
<rscale>  0 0.27581356E+03</rscale>
<asrwt>0</asrwt>
<pdfrwt beam="1">  1        2 0.10674799E+00 0.27581356E+03</pdfrwt>
<pdfrwt beam="2">  1       -2 0.42168175E-02 0.27581356E+03</pdfrwt>
<totfact> 0.10715653E+04</totfact>
</mgrwt>
</event>
<event>
 4    1  0.1733772E-004  0.4692212E+03  0.7818608E-02  0.1022140E+00
         -1   -1    0    0    0  501 -0.00000000000E+00  0.00000000000E+00  0.92151495889E+02  0.92151495889E+02  0.00000000000E+00 0. -1.
          1   -1    0    0  501    0  0.00000000000E+00 -0.00000000000E+00 -0.59730045953E+03  0.59730045953E+03  0.00000000000E+00 0. -1.
         25    1    1    2    0    0 -0.18269682834E+03  0.85139149439E+02 -0.25832658226E+03  0.34894043755E+03  0.12000000000E+03 0.  0.
         25    1    1    2    0    0  0.18269682834E+03 -0.85139149439E+02 -0.24682238138E+03  0.34051151787E+03  0.12000000000E+03 0.  0.
<mgrwt>
<rscale>  0 0.46922119E+03</rscale>
<asrwt>0</asrwt>
<pdfrwt beam="1">  1        1 0.91892378E-01 0.46922119E+03</pdfrwt>
<pdfrwt beam="2">  1       -1 0.14177153E-01 0.46922119E+03</pdfrwt>
<totfact> 0.12469611E+03</totfact>
</mgrwt>
</event>
<event>
 4    1  0.1733772E-004  0.3086143E+03  0.7818608E-02  0.1081012E+00
         -2   -1    0    0    0  501 -0.00000000000E+00  0.00000000000E+00  0.13604810512E+02  0.13604810512E+02  0.00000000000E+00 0. -1.
          2   -1    0    0  501    0  0.00000000000E+00 -0.00000000000E+00 -0.17501678896E+04  0.17501678896E+04  0.00000000000E+00 0. -1.
         25    1    1    2    0    0 -0.43317968128E+02  0.86767038619E+02 -0.88197062902E+03  0.89536425873E+03  0.12000000000E+03 0.  0.
         25    1    1    2    0    0  0.43317968128E+02 -0.86767038619E+02 -0.85459245004E+03  0.86840844136E+03  0.12000000000E+03 0.  0.
<mgrwt>
<rscale>  0 0.30861434E+03</rscale>
<asrwt>0</asrwt>
<pdfrwt beam="1">  1        2 0.26925672E+00 0.30861434E+03</pdfrwt>
<pdfrwt beam="2">  1       -2 0.20930469E-02 0.30861434E+03</pdfrwt>
<totfact> 0.72770172E+03</totfact>
</mgrwt>
</event>
<event>
 4    1  0.1733772E-004  0.3859396E+03  0.7818608E-02  0.1048760E+00
         -1   -1    0    0    0  501 -0.00000000000E+00  0.00000000000E+00  0.55044181505E+03  0.55044181505E+03  0.00000000000E+00 0. -1.
          1   -1    0    0  501    0  0.00000000000E+00 -0.00000000000E+00 -0.67649922604E+02  0.67649922604E+02  0.00000000000E+00 0. -1.
         25    1    1    2    0    0  0.75643394563E+01 -0.68186141866E+02  0.45704213631E+03  0.47748726007E+03  0.12000000000E+03 0.  0.
         25    1    1    2    0    0 -0.75643394563E+01  0.68186141866E+02  0.25749756138E+02  0.14060447758E+03  0.12000000000E+03 0.  0.
<mgrwt>
<rscale>  0 0.38593961E+03</rscale>
<asrwt>0</asrwt>
<pdfrwt beam="1">  1        1 0.10407681E-01 0.38593961E+03</pdfrwt>
<pdfrwt beam="2">  1       -1 0.84683353E-01 0.38593961E+03</pdfrwt>
<totfact> 0.88236236E+02</totfact>
</mgrwt>
</event>
<event>
 4    1  0.1733772E-004  0.3954453E+03  0.7818608E-02  0.1045368E+00
         -1   -1    0    0    0  501 -0.00000000000E+00  0.00000000000E+00  0.13602293469E+03  0.13602293469E+03  0.00000000000E+00 0.  1.
          1   -1    0    0  501    0  0.00000000000E+00 -0.00000000000E+00 -0.28740928330E+03  0.28740928330E+03  0.00000000000E+00 0.  1.
         25    1    1    2    0    0  0.53355061339E+02  0.79860388010E+02  0.57487107007E+02  0.16410122369E+03  0.12000000000E+03 0.  0.
         25    1    1    2    0    0 -0.53355061339E+02 -0.79860388010E+02 -0.20887345562E+03  0.25933099430E+03  0.12000000000E+03 0.  0.
<mgrwt>
<rscale>  0 0.39544534E+03</rscale>
<asrwt>0</asrwt>
<pdfrwt beam="1">  1        1 0.44216812E-01 0.39544534E+03</pdfrwt>
<pdfrwt beam="2">  1       -1 0.20926605E-01 0.39544534E+03</pdfrwt>
<totfact> 0.17402087E+03</totfact>
</mgrwt>
</event>
<event>
 4    1  0.1733772E-004  0.3913226E+03  0.7818608E-02  0.1046826E+00
         -2   -1    0    0    0  501 -0.00000000000E+00  0.00000000000E+00  0.11563480581E+03  0.11563480581E+03  0.00000000000E+00 0.  1.
          2   -1    0    0  501    0  0.00000000000E+00 -0.00000000000E+00 -0.33107106955E+03  0.33107106955E+03  0.00000000000E+00 0.  1.
         25    1    1    2    0    0  0.15049744339E+02  0.56459671074E+02  0.55600850460E+02  0.14458784124E+03  0.12000000000E+03 0.  0.
         25    1    1    2    0    0 -0.15049744339E+02 -0.56459671074E+02 -0.27103711421E+03  0.30211803412E+03  0.12000000000E+03 0.  0.
<mgrwt>
<rscale>  0 0.39132257E+03</rscale>
<asrwt>0</asrwt>
<pdfrwt beam="1">  1        2 0.50934010E-01 0.39132257E+03</pdfrwt>
<pdfrwt beam="2">  1       -2 0.17789970E-01 0.39132257E+03</pdfrwt>
<totfact> 0.25378504E+03</totfact>
</mgrwt>
</event>
<event>
 4    1  0.1733772E-004  0.2472022E+03  0.7818608E-02  0.1115086E+00
          1   -1    0    0  501    0  0.00000000000E+00  0.00000000000E+00  0.28270349329E+03  0.28270349329E+03  0.00000000000E+00 0.  1.
         -1   -1    0    0    0  501 -0.00000000000E+00 -0.00000000000E+00 -0.54039755063E+02  0.54039755063E+02  0.00000000000E+00 0.  1.
         25    1    1    2    0    0 -0.20685684333E+02 -0.18871074382E+02  0.12748362738E+03  0.17730225671E+03  0.12000000000E+03 0.  0.
         25    1    1    2    0    0  0.20685684333E+02  0.18871074382E+02  0.10118011085E+03  0.15944099164E+03  0.12000000000E+03 0.  0.
<mgrwt>
<rscale>  0 0.24720216E+03</rscale>
<asrwt>0</asrwt>
<pdfrwt beam="1">  1        1 0.43492844E-01 0.24720216E+03</pdfrwt>
<pdfrwt beam="2">  1       -1 0.83138086E-02 0.24720216E+03</pdfrwt>
<totfact> 0.75640160E+03</totfact>
</mgrwt>
</event>
<event>
 4    1  0.1733772E-004  0.4388164E+03  0.7818608E-02  0.1031111E+00
         -2   -1    0    0    0  501 -0.00000000000E+00  0.00000000000E+00  0.43454756514E+02  0.43454756514E+02  0.00000000000E+00 0. -1.
          2   -1    0    0  501    0  0.00000000000E+00 -0.00000000000E+00 -0.11078177563E+04  0.11078177563E+04  0.00000000000E+00 0. -1.
         25    1    1    2    0    0  0.61049658850E+02  0.70856872304E+02 -0.94694211279E+03  0.95908660827E+03  0.12000000000E+03 0.  0.
         25    1    1    2    0    0 -0.61049658850E+02 -0.70856872304E+02 -0.11742088698E+03  0.19218590452E+03  0.12000000000E+03 0.  0.
<mgrwt>
<rscale>  0 0.43881637E+03</rscale>
<asrwt>0</asrwt>
<pdfrwt beam="1">  1        2 0.17043347E+00 0.43881637E+03</pdfrwt>
<pdfrwt beam="2">  1       -2 0.66853482E-02 0.43881637E+03</pdfrwt>
<totfact> 0.28357255E+03</totfact>
</mgrwt>
</event>
<event>
 4    1  0.1733772E-004  0.2923914E+03  0.7818608E-02  0.1089107E+00
          2   -1    0    0  501    0  0.00000000000E+00  0.00000000000E+00  0.18080004873E+03  0.18080004873E+03  0.00000000000E+00 0.  1.
         -2   -1    0    0    0  501 -0.00000000000E+00 -0.00000000000E+00 -0.11821444346E+03  0.11821444346E+03  0.00000000000E+00 0.  1.
         25    1    1    2    0    0 -0.26649958614E+02 -0.32987402626E+02  0.10485826776E+03  0.16490495852E+03  0.12000000000E+03 0.  0.
         25    1    1    2    0    0  0.26649958614E+02  0.32987402626E+02 -0.42272662493E+02  0.13410953367E+03  0.12000000000E+03 0.  0.
<mgrwt>
<rscale>  0 0.29239136E+03</rscale>
<asrwt>0</asrwt>
<pdfrwt beam="1">  1        2 0.27815392E-01 0.29239136E+03</pdfrwt>
<pdfrwt beam="2">  1       -2 0.18186837E-01 0.29239136E+03</pdfrwt>
<totfact> 0.47029973E+03</totfact>
</mgrwt>
</event>
<event>
 4    1  0.1733772E-004  0.2966002E+03  0.7818608E-02  0.1086953E+00
          2   -1    0    0  501    0  0.00000000000E+00  0.00000000000E+00  0.10481212967E+04  0.10481212967E+04  0.00000000000E+00 0. -1.
         -2   -1    0    0    0  501 -0.00000000000E+00 -0.00000000000E+00 -0.20983185278E+02  0.20983185278E+02  0.00000000000E+00 0. -1.
         25    1    1    2    0    0  0.60968190964E+02 -0.45667087062E+02  0.36105353859E+03  0.38802353135E+03  0.12000000000E+03 0.  0.
         25    1    1    2    0    0 -0.60968190964E+02  0.45667087062E+02  0.66608457286E+03  0.68108095066E+03  0.12000000000E+03 0.  0.
<mgrwt>
<rscale>  0 0.29660022E+03</rscale>
<asrwt>0</asrwt>
<pdfrwt beam="1">  1        2 0.16124939E+00 0.29660022E+03</pdfrwt>
<pdfrwt beam="2">  1       -2 0.32281832E-02 0.29660022E+03</pdfrwt>
<totfact> 0.93183467E+03</totfact>
</mgrwt>
</event>
<event>
 4    1  0.1733772E-004  0.3275002E+03  0.7818608E-02  0.1072248E+00
          2   -1    0    0  501    0  0.00000000000E+00  0.00000000000E+00  0.91241433596E+02  0.91241433596E+02  0.00000000000E+00 0. -1.
         -2   -1    0    0    0  501 -0.00000000000E+00 -0.00000000000E+00 -0.29388074698E+03  0.29388074698E+03  0.00000000000E+00 0. -1.
         25    1    1    2    0    0 -0.10086275870E+03  0.13525622855E+02 -0.15466482042E+03  0.22062965630E+03  0.12000000000E+03 0.  0.
         25    1    1    2    0    0  0.10086275870E+03 -0.13525622855E+02 -0.47974492969E+02  0.16449252427E+03  0.12000000000E+03 0.  0.
<mgrwt>
<rscale>  0 0.32750023E+03</rscale>
<asrwt>0</asrwt>
<pdfrwt beam="1">  1        2 0.14037144E-01 0.32750023E+03</pdfrwt>
<pdfrwt beam="2">  1       -2 0.45212422E-01 0.32750023E+03</pdfrwt>
<totfact> 0.19873514E+03</totfact>
</mgrwt>
</event>
<event>
 4    1  0.1733772E-004  0.2842767E+03  0.7818608E-02  0.1093376E+00
          2   -1    0    0  501    0  0.00000000000E+00  0.00000000000E+00  0.78971580950E+03  0.78971580950E+03  0.00000000000E+00 0. -1.
         -2   -1    0    0    0  501 -0.00000000000E+00 -0.00000000000E+00 -0.25583007481E+02  0.25583007481E+02  0.00000000000E+00 0. -1.
         25    1    1    2    0    0 -0.44076077807E+02  0.61699787433E+02  0.40309104778E+03  0.42735460358E+03  0.12000000000E+03 0.  0.
         25    1    1    2    0    0  0.44076077807E+02 -0.61699787433E+02  0.36104175424E+03  0.38794421340E+03  0.12000000000E+03 0.  0.
<mgrwt>
<rscale>  0 0.28427666E+03</rscale>
<asrwt>0</asrwt>
<pdfrwt beam="1">  1        2 0.12149472E+00 0.28427666E+03</pdfrwt>
<pdfrwt beam="2">  1       -2 0.39358479E-02 0.28427666E+03</pdfrwt>
<totfact> 0.10138943E+04</totfact>
</mgrwt>
</event>
<event>
 4    1  0.1733772E-004  0.6095161E+03  0.7818608E-02  0.9885858E-01
         -2   -1    0    0    0  501 -0.00000000000E+00  0.00000000000E+00  0.10649803667E+03  0.10649803667E+03  0.00000000000E+00 0.  1.
          2   -1    0    0  501    0  0.00000000000E+00 -0.00000000000E+00 -0.87210489505E+03  0.87210489505E+03  0.00000000000E+00 0.  1.
         25    1    1    2    0    0 -0.48422635181E+02  0.45999645633E+02 -0.81960715170E+03  0.83103345427E+03  0.12000000000E+03 0.  0.
         25    1    1    2    0    0  0.48422635181E+02 -0.45999645633E+02  0.54000293328E+02  0.14756947745E+03  0.12000000000E+03 0.  0.
<mgrwt>
<rscale>  0 0.60951607E+03</rscale>
<asrwt>0</asrwt>
<pdfrwt beam="1">  1        2 0.13416998E+00 0.60951607E+03</pdfrwt>
<pdfrwt beam="2">  1       -2 0.16384314E-01 0.60951607E+03</pdfrwt>
<totfact> 0.92941556E+02</totfact>
</mgrwt>
</event>
<event>
 4    1  0.1733772E-004  0.2982530E+03  0.7818608E-02  0.1086117E+00
          3   -1    0    0  501    0  0.00000000000E+00  0.00000000000E+00  0.92131943674E+02  0.92131943674E+02  0.00000000000E+00 0. -1.
         -3   -1    0    0    0  501 -0.00000000000E+00 -0.00000000000E+00 -0.24137902421E+03  0.24137902421E+03  0.00000000000E+00 0. -1.
         25    1    1    2    0    0 -0.70759518906E+02 -0.53195775213E+02 -0.76212289700E+02  0.16746645371E+03  0.12000000000E+03 0.  0.
         25    1    1    2    0    0  0.70759518906E+02  0.53195775213E+02 -0.73034790840E+02  0.16604451418E+03  0.12000000000E+03 0.  0.
<mgrwt>
<rscale>  0 0.29825304E+03</rscale>
<asrwt>0</asrwt>
<pdfrwt beam="1">  1        3 0.14174145E-01 0.29825304E+03</pdfrwt>
<pdfrwt beam="2">  1       -3 0.37135234E-01 0.29825304E+03</pdfrwt>
<totfact> 0.75142466E+02</totfact>
</mgrwt>
</event>
<event>
 4    1  0.1733772E-004  0.2565945E+03  0.7818608E-02  0.1109207E+00
          2   -1    0    0  501    0  0.00000000000E+00  0.00000000000E+00  0.35569681471E+02  0.35569681471E+02  0.00000000000E+00 0. -1.
         -2   -1    0    0    0  501 -0.00000000000E+00 -0.00000000000E+00 -0.46275879245E+03  0.46275879245E+03  0.00000000000E+00 0. -1.
         25    1    1    2    0    0 -0.38521621897E+02 -0.19888290600E+02 -0.23970267310E+03  0.27154526501E+03  0.12000000000E+03 0.  0.
         25    1    1    2    0    0  0.38521621897E+02  0.19888290600E+02 -0.18748643788E+03  0.22678320891E+03  0.12000000000E+03 0.  0.
<mgrwt>
<rscale>  0 0.25659449E+03</rscale>
<asrwt>0</asrwt>
<pdfrwt beam="1">  1        2 0.54722589E-02 0.25659449E+03</pdfrwt>
<pdfrwt beam="2">  1       -2 0.71193658E-01 0.25659449E+03</pdfrwt>
<totfact> 0.25500963E+03</totfact>
</mgrwt>
</event>
<event>
 4    1  0.1733772E-004  0.2788680E+03  0.7818608E-02  0.1096309E+00
          2   -1    0    0  501    0  0.00000000000E+00  0.00000000000E+00  0.37557236286E+04  0.37557236286E+04  0.00000000000E+00 0.  1.
         -2   -1    0    0    0  501 -0.00000000000E+00 -0.00000000000E+00 -0.51765912817E+01  0.51765912817E+01  0.00000000000E+00 0.  1.
         25    1    1    2    0    0  0.35477719095E+02 -0.59731386279E+02  0.16773695312E+04  0.16830909219E+04  0.12000000000E+03 0.  0.
         25    1    1    2    0    0 -0.35477719095E+02  0.59731386279E+02  0.20731775061E+04  0.20778092980E+04  0.12000000000E+03 0.  0.
<mgrwt>
<rscale>  0 0.27886804E+03</rscale>
<asrwt>0</asrwt>
<pdfrwt beam="1">  1        2 0.57780146E+00 0.27886804E+03</pdfrwt>
<pdfrwt beam="2">  1       -2 0.79640166E-03 0.27886804E+03</pdfrwt>
<totfact> 0.20077731E+03</totfact>
</mgrwt>
</event>
<event>
 4    1  0.1733772E-004  0.2678983E+03  0.7818608E-02  0.1102489E+00
         -1   -1    0    0    0  501 -0.00000000000E+00  0.00000000000E+00  0.26787387676E+03  0.26787387676E+03  0.00000000000E+00 0.  1.
          1   -1    0    0  501    0  0.00000000000E+00 -0.00000000000E+00 -0.66980663665E+02  0.66980663665E+02  0.00000000000E+00 0.  1.
         25    1    1    2    0    0 -0.25824416726E+02  0.22512778314E+02  0.16127918442E+03  0.20392327237E+03  0.12000000000E+03 0.  0.
         25    1    1    2    0    0  0.25824416726E+02 -0.22512778314E+02  0.39614028676E+02  0.13093126806E+03  0.12000000000E+03 0.  0.
<mgrwt>
<rscale>  0 0.26789826E+03</rscale>
<asrwt>0</asrwt>
<pdfrwt beam="1">  1        1 0.10304718E-01 0.26789826E+03</pdfrwt>
<pdfrwt beam="2">  1       -1 0.41211365E-01 0.26789826E+03</pdfrwt>
<totfact> 0.35842421E+03</totfact>
</mgrwt>
</event>
<event>
 4    1  0.1733772E-004  0.2785067E+03  0.7818608E-02  0.1096507E+00
         -4   -1    0    0    0  501 -0.00000000000E+00  0.00000000000E+00  0.69527750684E+03  0.69527750684E+03  0.00000000000E+00 0.  1.
          4   -1    0    0  501    0  0.00000000000E+00 -0.00000000000E+00 -0.27890300878E+02  0.27890300878E+02  0.00000000000E+00 0.  1.
         25    1    1    2    0    0 -0.70060053210E+02 -0.83831763251E+01  0.34298713179E+03  0.37016058850E+03  0.12000000000E+03 0.  0.
         25    1    1    2    0    0  0.70060053210E+02  0.83831763251E+01  0.32440007417E+03  0.35300721922E+03  0.12000000000E+03 0.  0.
<mgrwt>
<rscale>  0 0.27850672E+03</rscale>
<asrwt>0</asrwt>
<pdfrwt beam="1">  1        4 0.42908161E-02 0.27850672E+03</pdfrwt>
<pdfrwt beam="2">  1       -4 0.10696576E+00 0.27850672E+03</pdfrwt>
<totfact> 0.41747960E+02</totfact>
</mgrwt>
</event>
<event>
 4    1  0.1733772E-004  0.2617258E+03  0.7818608E-02  0.1106111E+00
         -2   -1    0    0    0  501 -0.00000000000E+00  0.00000000000E+00  0.39675009231E+02  0.39675009231E+02  0.00000000000E+00 0.  1.
          2   -1    0    0  501    0  0.00000000000E+00 -0.00000000000E+00 -0.43163440947E+03  0.43163440947E+03  0.00000000000E+00 0.  1.
         25    1    1    2    0    0 -0.49804019271E+02 -0.15610672193E+02 -0.19421002398E+03  0.23418297726E+03  0.12000000000E+03 0.  0.
         25    1    1    2    0    0  0.49804019271E+02  0.15610672193E+02 -0.19774937626E+03  0.23712644144E+03  0.12000000000E+03 0.  0.
<mgrwt>
<rscale>  0 0.26172580E+03</rscale>
<asrwt>0</asrwt>
<pdfrwt beam="1">  1        2 0.66405297E-01 0.26172580E+03</pdfrwt>
<pdfrwt beam="2">  1       -2 0.61038473E-02 0.26172580E+03</pdfrwt>
<totfact> 0.10479448E+04</totfact>
</mgrwt>
</event>
<event>
 4    1  0.1733772E-004  0.2515009E+03  0.7818608E-02  0.1112360E+00
         -1   -1    0    0    0  501 -0.00000000000E+00  0.00000000000E+00  0.45591085063E+02  0.45591085063E+02  0.00000000000E+00 0. -1.
          1   -1    0    0  501    0  0.00000000000E+00 -0.00000000000E+00 -0.34684788957E+03  0.34684788957E+03  0.00000000000E+00 0. -1.
         25    1    1    2    0    0 -0.36671033115E+02  0.82399249724E+01 -0.14951340245E+03  0.19536355481E+03  0.12000000000E+03 0.  0.
         25    1    1    2    0    0  0.36671033115E+02 -0.82399249724E+01 -0.15174340206E+03  0.19707541983E+03  0.12000000000E+03 0.  0.
<mgrwt>
<rscale>  0 0.25150087E+03</rscale>
<asrwt>0</asrwt>
<pdfrwt beam="1">  1        1 0.53361215E-01 0.25150087E+03</pdfrwt>
<pdfrwt beam="2">  1       -1 0.70140129E-02 0.25150087E+03</pdfrwt>
<totfact> 0.75808919E+03</totfact>
</mgrwt>
</event>
<event>
 4    1  0.1733772E-004  0.2524647E+03  0.7818608E-02  0.1111757E+00
         -2   -1    0    0    0  501 -0.00000000000E+00  0.00000000000E+00  0.30179168339E+02  0.30179168339E+02  0.00000000000E+00 0.  1.
          2   -1    0    0  501    0  0.00000000000E+00 -0.00000000000E+00 -0.52800030142E+03  0.52800030142E+03  0.00000000000E+00 0.  1.
         25    1    1    2    0    0  0.87191692132E+01 -0.38118960924E+02 -0.24371095982E+03  0.27445238391E+03  0.12000000000E+03 0.  0.
         25    1    1    2    0    0 -0.87191692132E+01  0.38118960924E+02 -0.25411017326E+03  0.28372708585E+03  0.12000000000E+03 0.  0.
<mgrwt>
<rscale>  0 0.25246473E+03</rscale>
<asrwt>0</asrwt>
<pdfrwt beam="1">  1        2 0.81230814E-01 0.25246473E+03</pdfrwt>
<pdfrwt beam="2">  1       -2 0.46429491E-02 0.25246473E+03</pdfrwt>
<totfact> 0.12690381E+04</totfact>
</mgrwt>
</event>
<event>
 4    1  0.1733772E-004  0.3562571E+03  0.7818608E-02  0.1060076E+00
          2   -1    0    0  501    0  0.00000000000E+00  0.00000000000E+00  0.85573886266E+02  0.85573886266E+02  0.00000000000E+00 0. -1.
         -2   -1    0    0    0  501 -0.00000000000E+00 -0.00000000000E+00 -0.37078808703E+03  0.37078808703E+03  0.00000000000E+00 0. -1.
         25    1    1    2    0    0 -0.14988626308E+02 -0.11867353533E+02 -0.30945229946E+03  0.33245483699E+03  0.12000000000E+03 0.  0.
         25    1    1    2    0    0  0.14988626308E+02  0.11867353533E+02  0.24238098697E+02  0.12390713630E+03  0.12000000000E+03 0.  0.
<mgrwt>
<rscale>  0 0.35625708E+03</rscale>
<asrwt>0</asrwt>
<pdfrwt beam="1">  1        2 0.13165213E-01 0.35625708E+03</pdfrwt>
<pdfrwt beam="2">  1       -2 0.57044321E-01 0.35625708E+03</pdfrwt>
<totfact> 0.13472297E+03</totfact>
</mgrwt>
</event>
<event>
 4    1  0.1733772E-004  0.2447393E+03  0.7818608E-02  0.1116675E+00
          2   -1    0    0  501    0  0.00000000000E+00  0.00000000000E+00  0.11033346151E+04  0.11033346151E+04  0.00000000000E+00 0. -1.
         -2   -1    0    0    0  501 -0.00000000000E+00 -0.00000000000E+00 -0.13571885931E+02  0.13571885931E+02  0.00000000000E+00 0. -1.
         25    1    1    2    0    0  0.12973237042E+02  0.66716750563E+01  0.63165274551E+03  0.64311585817E+03  0.12000000000E+03 0.  0.
         25    1    1    2    0    0 -0.12973237042E+02 -0.66716750563E+01  0.45810998363E+03  0.47379064282E+03  0.12000000000E+03 0.  0.
<mgrwt>
<rscale>  0 0.24473930E+03</rscale>
<asrwt>0</asrwt>
<pdfrwt beam="1">  1        2 0.16974372E+00 0.24473930E+03</pdfrwt>
<pdfrwt beam="2">  1       -2 0.20879833E-02 0.24473930E+03</pdfrwt>
<totfact> 0.16378128E+04</totfact>
</mgrwt>
</event>
<event>
 4    1  0.1733772E-004  0.4114756E+03  0.7818608E-02  0.1039877E+00
          2   -1    0    0  501    0  0.00000000000E+00  0.00000000000E+00  0.27849090467E+04  0.27849090467E+04  0.00000000000E+00 0. -1.
         -2   -1    0    0    0  501 -0.00000000000E+00 -0.00000000000E+00 -0.15199078712E+02  0.15199078712E+02  0.00000000000E+00 0. -1.
         25    1    1    2    0    0  0.27048355568E+02  0.89866265594E+02  0.44387539261E+03  0.46928980747E+03  0.12000000000E+03 0.  0.
         25    1    1    2    0    0 -0.27048355568E+02 -0.89866265594E+02  0.23258345754E+04  0.23308183180E+04  0.12000000000E+03 0.  0.
<mgrwt>
<rscale>  0 0.41147565E+03</rscale>
<asrwt>0</asrwt>
<pdfrwt beam="1">  1        2 0.42844714E+00 0.41147565E+03</pdfrwt>
<pdfrwt beam="2">  1       -2 0.23383220E-02 0.41147565E+03</pdfrwt>
<totfact> 0.16787715E+03</totfact>
</mgrwt>
</event>
<event>
 4    1  0.1733772E-004  0.3019877E+03  0.7818608E-02  0.1084251E+00
          2   -1    0    0  501    0  0.00000000000E+00  0.00000000000E+00  0.90993743234E+03  0.90993743234E+03  0.00000000000E+00 0. -1.
         -2   -1    0    0    0  501 -0.00000000000E+00 -0.00000000000E+00 -0.25055725788E+02  0.25055725788E+02  0.00000000000E+00 0. -1.
         25    1    1    2    0    0  0.13355218082E+02  0.86704682298E+02  0.52453671070E+03  0.54519246570E+03  0.12000000000E+03 0.  0.
         25    1    1    2    0    0 -0.13355218082E+02 -0.86704682298E+02  0.36034499586E+03  0.38980069243E+03  0.12000000000E+03 0.  0.
<mgrwt>
<rscale>  0 0.30198770E+03</rscale>
<asrwt>0</asrwt>
<pdfrwt beam="1">  1        2 0.13999035E+00 0.30198770E+03</pdfrwt>
<pdfrwt beam="2">  1       -2 0.38547277E-02 0.30198770E+03</pdfrwt>
<totfact> 0.87068649E+03</totfact>
</mgrwt>
</event>
<event>
 4    1  0.1733772E-004  0.3317482E+03  0.7818608E-02  0.1070366E+00
          2   -1    0    0  501    0  0.00000000000E+00  0.00000000000E+00  0.13935921211E+04  0.13935921211E+04  0.00000000000E+00 0. -1.
         -2   -1    0    0    0  501 -0.00000000000E+00 -0.00000000000E+00 -0.19743378899E+02  0.19743378899E+02  0.00000000000E+00 0. -1.
         25    1    1    2    0    0 -0.23521719571E+02 -0.96845567032E+02  0.92723818419E+03  0.94026750734E+03  0.12000000000E+03 0.  0.
         25    1    1    2    0    0  0.23521719571E+02  0.96845567032E+02  0.44661055796E+03  0.47306799261E+03  0.12000000000E+03 0.  0.
<mgrwt>
<rscale>  0 0.33174820E+03</rscale>
<asrwt>0</asrwt>
<pdfrwt beam="1">  1        2 0.21439871E+00 0.33174820E+03</pdfrwt>
<pdfrwt beam="2">  1       -2 0.30374440E-02 0.33174820E+03</pdfrwt>
<totfact> 0.64971232E+03</totfact>
</mgrwt>
</event>
<event>
 4    1  0.1733772E-004  0.2586075E+03  0.7818608E-02  0.1107983E+00
         -2   -1    0    0    0  501 -0.00000000000E+00  0.00000000000E+00  0.41509179174E+03  0.41509179174E+03  0.00000000000E+00 0. -1.
          2   -1    0    0  501    0  0.00000000000E+00 -0.00000000000E+00 -0.40278953633E+02  0.40278953633E+02  0.00000000000E+00 0. -1.
         25    1    1    2    0    0 -0.26233121206E+02 -0.37803661775E+02  0.21244339263E+03  0.24829315046E+03  0.12000000000E+03 0.  0.
         25    1    1    2    0    0  0.26233121206E+02  0.37803661775E+02  0.16236944548E+03  0.20707759492E+03  0.12000000000E+03 0.  0.
<mgrwt>
<rscale>  0 0.25860753E+03</rscale>
<asrwt>0</asrwt>
<pdfrwt beam="1">  1        2 0.61967624E-02 0.25860753E+03</pdfrwt>
<pdfrwt beam="2">  1       -2 0.63860273E-01 0.25860753E+03</pdfrwt>
<totfact> 0.27312930E+03</totfact>
</mgrwt>
</event>
<event>
 4    1  0.1733772E-004  0.2446668E+03  0.7818608E-02  0.1116722E+00
          2   -1    0    0  501    0  0.00000000000E+00  0.00000000000E+00  0.58210612511E+03  0.58210612511E+03  0.00000000000E+00 0.  1.
         -2   -1    0    0    0  501 -0.00000000000E+00 -0.00000000000E+00 -0.25709151686E+02  0.25709151686E+02  0.00000000000E+00 0.  1.
         25    1    1    2    0    0  0.64410423003E+00  0.18809786028E+02  0.31430422695E+03  0.33695900344E+03  0.12000000000E+03 0.  0.
         25    1    1    2    0    0 -0.64410423003E+00 -0.18809786028E+02  0.24209274647E+03  0.27085627335E+03  0.12000000000E+03 0.  0.
<mgrwt>
<rscale>  0 0.24466675E+03</rscale>
<asrwt>0</asrwt>
<pdfrwt beam="1">  1        2 0.89554779E-01 0.24466675E+03</pdfrwt>
<pdfrwt beam="2">  1       -2 0.39552545E-02 0.24466675E+03</pdfrwt>
<totfact> 0.14437118E+04</totfact>
</mgrwt>
</event>
<event>
 4    1  0.1733772E-004  0.2758949E+03  0.7818608E-02  0.1097952E+00
          2   -1    0    0  501    0  0.00000000000E+00  0.00000000000E+00  0.72426243332E+02  0.72426243332E+02  0.00000000000E+00 0. -1.
         -2   -1    0    0    0  501 -0.00000000000E+00 -0.00000000000E+00 -0.26274315109E+03  0.26274315109E+03  0.00000000000E+00 0. -1.
         25    1    1    2    0    0 -0.59756132395E+02 -0.27025746164E+02 -0.11717072078E+03  0.18008376974E+03  0.12000000000E+03 0.  0.
         25    1    1    2    0    0  0.59756132395E+02  0.27025746164E+02 -0.73146186979E+02  0.15508562469E+03  0.12000000000E+03 0.  0.
<mgrwt>
<rscale>  0 0.27589490E+03</rscale>
<asrwt>0</asrwt>
<pdfrwt beam="1">  1        2 0.11142499E-01 0.27589490E+03</pdfrwt>
<pdfrwt beam="2">  1       -2 0.40422023E-01 0.27589490E+03</pdfrwt>
<totfact> 0.32553902E+03</totfact>
</mgrwt>
</event>
<event>
 4    1  0.1733772E-004  0.2809337E+03  0.7818608E-02  0.1095180E+00
         -1   -1    0    0    0  501 -0.00000000000E+00  0.00000000000E+00  0.49994542192E+02  0.49994542192E+02  0.00000000000E+00 0. -1.
          1   -1    0    0  501    0  0.00000000000E+00 -0.00000000000E+00 -0.39466186197E+03  0.39466186197E+03  0.00000000000E+00 0. -1.
         25    1    1    2    0    0 -0.29073899185E+02 -0.48659087930E+02 -0.99492379432E+02  0.16586660911E+03  0.12000000000E+03 0.  0.
         25    1    1    2    0    0  0.29073899185E+02  0.48659087930E+02 -0.24517494035E+03  0.27878979505E+03  0.12000000000E+03 0.  0.
<mgrwt>
<rscale>  0 0.28093372E+03</rscale>
<asrwt>0</asrwt>
<pdfrwt beam="1">  1        1 0.60717208E-01 0.28093372E+03</pdfrwt>
<pdfrwt beam="2">  1       -1 0.76914683E-02 0.28093372E+03</pdfrwt>
<totfact> 0.56124267E+03</totfact>
</mgrwt>
</event>
<event>
 4    1  0.1733772E-004  0.3182991E+03  0.7818608E-02  0.1076435E+00
          2   -1    0    0  501    0  0.00000000000E+00  0.00000000000E+00  0.31710517947E+04  0.31710517947E+04  0.00000000000E+00 0. -1.
         -2   -1    0    0    0  501 -0.00000000000E+00 -0.00000000000E+00 -0.79874387657E+01  0.79874387657E+01  0.00000000000E+00 0. -1.
         25    1    1    2    0    0  0.43111833315E+02  0.64010009663E+02  0.22858282980E+04  0.22902766032E+04  0.12000000000E+03 0.  0.
         25    1    1    2    0    0 -0.43111833315E+02 -0.64010009663E+02  0.87723605799E+03  0.88876263026E+03  0.12000000000E+03 0.  0.
<mgrwt>
<rscale>  0 0.31829912E+03</rscale>
<asrwt>0</asrwt>
<pdfrwt beam="1">  1        2 0.48785312E+00 0.31829912E+03</pdfrwt>
<pdfrwt beam="2">  1       -2 0.12288393E-02 0.31829912E+03</pdfrwt>
<totfact> 0.25821578E+03</totfact>
</mgrwt>
</event>
<event>
 4    1  0.1733772E-004  0.2611768E+03  0.7818608E-02  0.1106438E+00
         -2   -1    0    0    0  501 -0.00000000000E+00  0.00000000000E+00  0.11655529025E+02  0.11655529025E+02  0.00000000000E+00 0.  1.
          2   -1    0    0  501    0  0.00000000000E+00 -0.00000000000E+00 -0.14631105549E+04  0.14631105549E+04  0.00000000000E+00 0.  1.
         25    1    1    2    0    0 -0.49946729739E+02 -0.10688900834E+02 -0.76335245069E+03  0.77441325686E+03  0.12000000000E+03 0.  0.
         25    1    1    2    0    0  0.49946729739E+02  0.10688900834E+02 -0.68810257513E+03  0.70035282702E+03  0.12000000000E+03 0.  0.
<mgrwt>
<rscale>  0 0.26117678E+03</rscale>
<asrwt>0</asrwt>
<pdfrwt beam="1">  1        2 0.22509390E+00 0.26117678E+03</pdfrwt>
<pdfrwt beam="2">  1       -2 0.17931586E-02 0.26117678E+03</pdfrwt>
<totfact> 0.12943785E+04</totfact>
</mgrwt>
</event>
<event>
 4    1  0.1733772E-004  0.2454273E+03  0.7818608E-02  0.1116229E+00
          2   -1    0    0  501    0  0.00000000000E+00  0.00000000000E+00  0.35145655330E+03  0.35145655330E+03  0.00000000000E+00 0. -1.
         -2   -1    0    0    0  501 -0.00000000000E+00 -0.00000000000E+00 -0.42846377553E+02  0.42846377553E+02  0.00000000000E+00 0. -1.
         25    1    1    2    0    0  0.16561330278E+02 -0.11462813744E+02  0.17985789201E+03  0.21715094998E+03  0.12000000000E+03 0.  0.
         25    1    1    2    0    0 -0.16561330278E+02  0.11462813744E+02  0.12875228374E+03  0.17715198087E+03  0.12000000000E+03 0.  0.
<mgrwt>
<rscale>  0 0.24542730E+03</rscale>
<asrwt>0</asrwt>
<pdfrwt beam="1">  1        2 0.54070237E-01 0.24542730E+03</pdfrwt>
<pdfrwt beam="2">  1       -2 0.65917506E-02 0.24542730E+03</pdfrwt>
<totfact> 0.11599231E+04</totfact>
</mgrwt>
</event>
<event>
 4    1  0.1733772E-004  0.3386421E+03  0.7818608E-02  0.1067376E+00
          2   -1    0    0  501    0  0.00000000000E+00  0.00000000000E+00  0.63937475800E+03  0.63937475800E+03  0.00000000000E+00 0.  1.
         -2   -1    0    0    0  501 -0.00000000000E+00 -0.00000000000E+00 -0.44840074011E+02  0.44840074011E+02  0.00000000000E+00 0.  1.
         25    1    1    2    0    0 -0.12521822761E+02  0.92036008422E+02  0.44903365504E+03  0.47398169400E+03  0.12000000000E+03 0.  0.
         25    1    1    2    0    0  0.12521822761E+02 -0.92036008422E+02  0.14550102895E+03  0.21023313801E+03  0.12000000000E+03 0.  0.
<mgrwt>
<rscale>  0 0.33864206E+03</rscale>
<asrwt>0</asrwt>
<pdfrwt beam="1">  1        2 0.98365341E-01 0.33864206E+03</pdfrwt>
<pdfrwt beam="2">  1       -2 0.68984734E-02 0.33864206E+03</pdfrwt>
<totfact> 0.55980308E+03</totfact>
</mgrwt>
</event>
<event>
 4    1  0.1733772E-004  0.2662889E+03  0.7818608E-02  0.1103423E+00
         -4   -1    0    0    0  501 -0.00000000000E+00  0.00000000000E+00  0.55814510594E+03  0.55814510594E+03  0.00000000000E+00 0. -1.
          4   -1    0    0  501    0  0.00000000000E+00 -0.00000000000E+00 -0.31761356246E+02  0.31761356246E+02  0.00000000000E+00 0. -1.
         25    1    1    2    0    0 -0.19696491011E+02 -0.54207843820E+02  0.26541098818E+03  0.29693338434E+03  0.12000000000E+03 0.  0.
         25    1    1    2    0    0  0.19696491011E+02  0.54207843820E+02  0.26097276151E+03  0.29297307784E+03  0.12000000000E+03 0.  0.
<mgrwt>
<rscale>  0 0.26628891E+03</rscale>
<asrwt>0</asrwt>
<pdfrwt beam="1">  1        4 0.48863629E-02 0.26628891E+03</pdfrwt>
<pdfrwt beam="2">  1       -4 0.85868470E-01 0.26628891E+03</pdfrwt>
<totfact> 0.56022505E+02</totfact>
</mgrwt>
</event>
<event>
 4    1  0.1733772E-004  0.4409922E+03  0.7818608E-02  0.1030443E+00
         -2   -1    0    0    0  501 -0.00000000000E+00  0.00000000000E+00  0.75953127737E+02  0.75953127737E+02  0.00000000000E+00 0.  1.
          2   -1    0    0  501    0  0.00000000000E+00 -0.00000000000E+00 -0.64011216243E+03  0.64011216243E+03  0.00000000000E+00 0.  1.
         25    1    1    2    0    0 -0.36233260329E+02 -0.17563140635E+03 -0.35576459409E+03  0.41608615269E+03  0.12000000000E+03 0.  0.
         25    1    1    2    0    0  0.36233260329E+02  0.17563140635E+03 -0.20839444060E+03  0.29997913748E+03  0.12000000000E+03 0.  0.
<mgrwt>
<rscale>  0 0.44099216E+03</rscale>
<asrwt>0</asrwt>
<pdfrwt beam="1">  1        2 0.98478795E-01 0.44099216E+03</pdfrwt>
<pdfrwt beam="2">  1       -2 0.11685096E-01 0.44099216E+03</pdfrwt>
<totfact> 0.24256721E+03</totfact>
</mgrwt>
</event>
<event>
 4    1  0.1733772E-004  0.2619355E+03  0.7818608E-02  0.1105986E+00
          2   -1    0    0  501    0  0.00000000000E+00  0.00000000000E+00  0.88792386648E+02  0.88792386648E+02  0.00000000000E+00 0. -1.
         -2   -1    0    0    0  501 -0.00000000000E+00 -0.00000000000E+00 -0.19317590620E+03  0.19317590620E+03  0.00000000000E+00 0. -1.
         25    1    1    2    0    0  0.10267158186E+02  0.29885710979E+01  0.30999595315E+01  0.12051537596E+03  0.12000000000E+03 0.  0.
         25    1    1    2    0    0 -0.10267158186E+02 -0.29885710979E+01 -0.10748347908E+03  0.16145291688E+03  0.12000000000E+03 0.  0.
<mgrwt>
<rscale>  0 0.26193549E+03</rscale>
<asrwt>0</asrwt>
<pdfrwt beam="1">  1        2 0.13660367E-01 0.26193549E+03</pdfrwt>
<pdfrwt beam="2">  1       -2 0.29719370E-01 0.26193549E+03</pdfrwt>
<totfact> 0.44995201E+03</totfact>
</mgrwt>
</event>
<event>
 4    1  0.1733772E-004  0.2861704E+03  0.7818608E-02  0.1092366E+00
         -2   -1    0    0    0  501 -0.00000000000E+00  0.00000000000E+00  0.22835201685E+02  0.22835201685E+02  0.00000000000E+00 0. -1.
          2   -1    0    0  501    0  0.00000000000E+00 -0.00000000000E+00 -0.89657086167E+03  0.89657086167E+03  0.00000000000E+00 0. -1.
         25    1    1    2    0    0 -0.57794013824E+02  0.14863906259E+02 -0.59790189304E+03  0.61273791905E+03  0.12000000000E+03 0.  0.
         25    1    1    2    0    0  0.57794013824E+02 -0.14863906259E+02 -0.27583376695E+03  0.30666814430E+03  0.12000000000E+03 0.  0.
<mgrwt>
<rscale>  0 0.28617041E+03</rscale>
<asrwt>0</asrwt>
<pdfrwt beam="1">  1        2 0.13793397E+00 0.28617041E+03</pdfrwt>
<pdfrwt beam="2">  1       -2 0.35131083E-02 0.28617041E+03</pdfrwt>
<totfact> 0.10195305E+04</totfact>
</mgrwt>
</event>
<event>
 4    1  0.1733772E-004  0.2708308E+03  0.7818608E-02  0.1100805E+00
          1   -1    0    0  501    0  0.00000000000E+00  0.00000000000E+00  0.66133120347E+02  0.66133120347E+02  0.00000000000E+00 0.  1.
         -1   -1    0    0    0  501 -0.00000000000E+00 -0.00000000000E+00 -0.27727911310E+03  0.27727911310E+03  0.00000000000E+00 0.  1.
         25    1    1    2    0    0  0.54452555442E+02  0.43262247589E+01 -0.14472790500E+03  0.19578039611E+03  0.12000000000E+03 0.  0.
         25    1    1    2    0    0 -0.54452555442E+02 -0.43262247589E+01 -0.66418087752E+02  0.14763183734E+03  0.12000000000E+03 0.  0.
<mgrwt>
<rscale>  0 0.27083082E+03</rscale>
<asrwt>0</asrwt>
<pdfrwt beam="1">  1        1 0.10174326E-01 0.27083082E+03</pdfrwt>
<pdfrwt beam="2">  1       -1 0.42658325E-01 0.27083082E+03</pdfrwt>
<totfact> 0.34287984E+03</totfact>
</mgrwt>
</event>
<event>
 4    1  0.1733772E-004  0.3117244E+03  0.7818608E-02  0.1079522E+00
         -2   -1    0    0    0  501 -0.00000000000E+00  0.00000000000E+00  0.20822484553E+02  0.20822484553E+02  0.00000000000E+00 0. -1.
          2   -1    0    0  501    0  0.00000000000E+00 -0.00000000000E+00 -0.11666730563E+04  0.11666730563E+04  0.00000000000E+00 0. -1.
         25    1    1    2    0    0  0.54337918277E+02  0.67464609847E+02 -0.38673177124E+03  0.41408398403E+03  0.12000000000E+03 0.  0.
         25    1    1    2    0    0 -0.54337918277E+02 -0.67464609847E+02 -0.75911880052E+03  0.77341155683E+03  0.12000000000E+03 0.  0.
<mgrwt>
<rscale>  0 0.31172444E+03</rscale>
<asrwt>0</asrwt>
<pdfrwt beam="1">  1        2 0.17948816E+00 0.31172444E+03</pdfrwt>
<pdfrwt beam="2">  1       -2 0.32034592E-02 0.31172444E+03</pdfrwt>
<totfact> 0.80355673E+03</totfact>
</mgrwt>
</event>
<event>
 4    1  0.1733772E-004  0.3792861E+03  0.7818608E-02  0.1051198E+00
          2   -1    0    0  501    0  0.00000000000E+00  0.00000000000E+00  0.11446857813E+04  0.11446857813E+04  0.00000000000E+00 0.  1.
         -2   -1    0    0    0  501 -0.00000000000E+00 -0.00000000000E+00 -0.31418655969E+02  0.31418655969E+02  0.00000000000E+00 0.  1.
         25    1    1    2    0    0  0.99492118001E+02  0.26575883156E+02  0.88125328740E+03  0.89532804919E+03  0.12000000000E+03 0.  0.
         25    1    1    2    0    0 -0.99492118001E+02 -0.26575883156E+02  0.23201383790E+03  0.28077638805E+03  0.12000000000E+03 0.  0.
<mgrwt>
<rscale>  0 0.37928611E+03</rscale>
<asrwt>0</asrwt>
<pdfrwt beam="1">  1        2 0.17610547E+00 0.37928611E+03</pdfrwt>
<pdfrwt beam="2">  1       -2 0.48336403E-02 0.37928611E+03</pdfrwt>
<totfact> 0.44518401E+03</totfact>
</mgrwt>
</event>
<event>
 4    1  0.1733772E-004  0.3294368E+03  0.7818608E-02  0.1071386E+00
         -1   -1    0    0    0  501 -0.00000000000E+00  0.00000000000E+00  0.26387454709E+03  0.26387454709E+03  0.00000000000E+00 0. -1.
          1   -1    0    0  501    0  0.00000000000E+00 -0.00000000000E+00 -0.10282217290E+03  0.10282217290E+03  0.00000000000E+00 0. -1.
         25    1    1    2    0    0  0.99151670872E+02  0.27063322302E+02  0.28690085462E+02  0.16058206081E+03  0.12000000000E+03 0.  0.
         25    1    1    2    0    0 -0.99151670872E+02 -0.27063322302E+02  0.13236228872E+03  0.20611465917E+03  0.12000000000E+03 0.  0.
<mgrwt>
<rscale>  0 0.32943682E+03</rscale>
<asrwt>0</asrwt>
<pdfrwt beam="1">  1        1 0.15818796E-01 0.32943682E+03</pdfrwt>
<pdfrwt beam="2">  1       -1 0.40596084E-01 0.32943682E+03</pdfrwt>
<totfact> 0.20929136E+03</totfact>
</mgrwt>
</event>
<event>
 4    1  0.1733772E-004  0.3055276E+03  0.7818608E-02  0.1082510E+00
          1   -1    0    0  501    0  0.00000000000E+00  0.00000000000E+00  0.18017268500E+02  0.18017268500E+02  0.00000000000E+00 0. -1.
         -1   -1    0    0    0  501 -0.00000000000E+00 -0.00000000000E+00 -0.12952448537E+04  0.12952448537E+04  0.00000000000E+00 0. -1.
         25    1    1    2    0    0 -0.72756332213E+02 -0.32892240580E+02 -0.85615370215E+03  0.86820190340E+03  0.12000000000E+03 0.  0.
         25    1    1    2    0    0  0.72756332213E+02  0.32892240580E+02 -0.42107388304E+03  0.44506021878E+03  0.12000000000E+03 0.  0.
<mgrwt>
<rscale>  0 0.30552757E+03</rscale>
<asrwt>0</asrwt>
<pdfrwt beam="1">  1        1 0.27718864E-02 0.30552757E+03</pdfrwt>
<pdfrwt beam="2">  1       -1 0.19926851E+00 0.30552757E+03</pdfrwt>
<totfact> 0.64404776E+02</totfact>
</mgrwt>
</event>
<event>
 4    1  0.1733772E-004  0.3370214E+03  0.7818608E-02  0.1068072E+00
         -2   -1    0    0    0  501 -0.00000000000E+00  0.00000000000E+00  0.27751966963E+02  0.27751966963E+02  0.00000000000E+00 0.  1.
          2   -1    0    0  501    0  0.00000000000E+00 -0.00000000000E+00 -0.10232017448E+04  0.10232017448E+04  0.00000000000E+00 0.  1.
         25    1    1    2    0    0  0.71687516717E+02  0.84200772722E+02 -0.62880693768E+03  0.64963607894E+03  0.12000000000E+03 0.  0.
         25    1    1    2    0    0 -0.71687516717E+02 -0.84200772722E+02 -0.36664284016E+03  0.40131763283E+03  0.12000000000E+03 0.  0.
<mgrwt>
<rscale>  0 0.33702143E+03</rscale>
<asrwt>0</asrwt>
<pdfrwt beam="1">  1        2 0.15741563E+00 0.33702143E+03</pdfrwt>
<pdfrwt beam="2">  1       -2 0.42695341E-02 0.33702143E+03</pdfrwt>
<totfact> 0.63497105E+03</totfact>
</mgrwt>
</event>
<event>
 4    1  0.1733772E-004  0.2557422E+03  0.7818608E-02  0.1109729E+00
         -1   -1    0    0    0  501 -0.00000000000E+00  0.00000000000E+00  0.38564054632E+02  0.38564054632E+02  0.00000000000E+00 0. -1.
          1   -1    0    0  501    0  0.00000000000E+00 -0.00000000000E+00 -0.42399617952E+03  0.42399617952E+03  0.00000000000E+00 0. -1.
         25    1    1    2    0    0  0.76778265270E+01  0.42647288932E+01 -0.11442065673E+03  0.16603982540E+03  0.12000000000E+03 0.  0.
         25    1    1    2    0    0 -0.76778265270E+01 -0.42647288932E+01 -0.27101146817E+03  0.29652040876E+03  0.12000000000E+03 0.  0.
<mgrwt>
<rscale>  0 0.25574215E+03</rscale>
<asrwt>0</asrwt>
<pdfrwt beam="1">  1        1 0.65230179E-01 0.25574215E+03</pdfrwt>
<pdfrwt beam="2">  1       -1 0.59329317E-02 0.25574215E+03</pdfrwt>
<totfact> 0.75606948E+03</totfact>
</mgrwt>
</event>
<event>
 4    1  0.1733772E-004  0.3639846E+03  0.7818608E-02  0.1057017E+00
          2   -1    0    0  501    0  0.00000000000E+00  0.00000000000E+00  0.59469386356E+03  0.59469386356E+03  0.00000000000E+00 0. -1.
         -2   -1    0    0    0  501 -0.00000000000E+00 -0.00000000000E+00 -0.55694538782E+02  0.55694538782E+02  0.00000000000E+00 0. -1.
         25    1    1    2    0    0  0.31690411744E+02  0.24346430692E+02  0.35672737614E+02  0.13141375534E+03  0.12000000000E+03 0.  0.
         25    1    1    2    0    0 -0.31690411744E+02 -0.24346430692E+02  0.50332658716E+03  0.51897464700E+03  0.12000000000E+03 0.  0.
<mgrwt>
<rscale>  0 0.36398462E+03</rscale>
<asrwt>0</asrwt>
<pdfrwt beam="1">  1        2 0.91491360E-01 0.36398462E+03</pdfrwt>
<pdfrwt beam="2">  1       -2 0.85683910E-02 0.36398462E+03</pdfrwt>
<totfact> 0.43465851E+03</totfact>
</mgrwt>
</event>
<event>
 4    1  0.1733772E-004  0.3051348E+03  0.7818608E-02  0.1082702E+00
         -1   -1    0    0    0  501 -0.00000000000E+00  0.00000000000E+00  0.17831408732E+03  0.17831408732E+03  0.00000000000E+00 0.  1.
          1   -1    0    0  501    0  0.00000000000E+00 -0.00000000000E+00 -0.13053827277E+03  0.13053827277E+03  0.00000000000E+00 0.  1.
         25    1    1    2    0    0 -0.78773596435E+02  0.73264668678E+00 -0.28423432855E+02  0.14633423318E+03  0.12000000000E+03 0.  0.
         25    1    1    2    0    0  0.78773596435E+02 -0.73264668678E+00  0.76199247408E+02  0.16251812690E+03  0.12000000000E+03 0.  0.
<mgrwt>
<rscale>  0 0.30513481E+03</rscale>
<asrwt>0</asrwt>
<pdfrwt beam="1">  1        1 0.20082811E-01 0.30513481E+03</pdfrwt>
<pdfrwt beam="2">  1       -1 0.27432937E-01 0.30513481E+03</pdfrwt>
<totfact> 0.30209769E+03</totfact>
</mgrwt>
</event>
<event>
 4    1  0.1733772E-004  0.3194434E+03  0.7818608E-02  0.1075906E+00
         -3   -1    0    0    0  501 -0.00000000000E+00  0.00000000000E+00  0.52933337300E+02  0.52933337300E+02  0.00000000000E+00 0.  1.
          3   -1    0    0  501    0  0.00000000000E+00 -0.00000000000E+00 -0.48194616272E+03  0.48194616272E+03  0.00000000000E+00 0.  1.
         25    1    1    2    0    0 -0.67091525193E+02 -0.18253618147E+02 -0.34716110097E+03  0.37383859800E+03  0.12000000000E+03 0.  0.
         25    1    1    2    0    0  0.67091525193E+02  0.18253618147E+02 -0.81851724452E+02  0.16104090202E+03  0.12000000000E+03 0.  0.
<mgrwt>
<rscale>  0 0.31944338E+03</rscale>
<asrwt>0</asrwt>
<pdfrwt beam="1">  1        3 0.74145564E-01 0.31944338E+03</pdfrwt>
<pdfrwt beam="2">  1       -3 0.81435903E-02 0.31944338E+03</pdfrwt>
<totfact> 0.46904997E+02</totfact>
</mgrwt>
</event>
<event>
 4    1  0.1733772E-004  0.2986656E+03  0.7818608E-02  0.1085910E+00
          2   -1    0    0  501    0  0.00000000000E+00  0.00000000000E+00  0.94059929530E+03  0.94059929530E+03  0.00000000000E+00 0.  1.
         -2   -1    0    0    0  501 -0.00000000000E+00 -0.00000000000E+00 -0.23708588338E+02  0.23708588338E+02  0.00000000000E+00 0.  1.
         25    1    1    2    0    0 -0.53618302353E+02 -0.35628351273E+02  0.26056978817E+03  0.29400836088E+03  0.12000000000E+03 0.  0.
         25    1    1    2    0    0  0.53618302353E+02  0.35628351273E+02  0.65632091879E+03  0.67029952276E+03  0.12000000000E+03 0.  0.
<mgrwt>
<rscale>  0 0.29866558E+03</rscale>
<asrwt>0</asrwt>
<pdfrwt beam="1">  1        2 0.14470756E+00 0.29866558E+03</pdfrwt>
<pdfrwt beam="2">  1       -2 0.36474759E-02 0.29866558E+03</pdfrwt>
<totfact> 0.90415169E+03</totfact>
</mgrwt>
</event>
<event>
 4    1  0.1733772E-004  0.2660777E+03  0.7818608E-02  0.1103546E+00
         -2   -1    0    0    0  501 -0.00000000000E+00  0.00000000000E+00  0.12454123263E+03  0.12454123263E+03  0.00000000000E+00 0.  1.
          2   -1    0    0  501    0  0.00000000000E+00 -0.00000000000E+00 -0.14211627261E+03  0.14211627261E+03  0.00000000000E+00 0.  1.
         25    1    1    2    0    0  0.28803649030E+01 -0.53841886796E+02  0.11056903533E+02  0.13202083317E+03  0.12000000000E+03 0.  0.
         25    1    1    2    0    0 -0.28803649030E+01  0.53841886796E+02 -0.28631943507E+02  0.13463667206E+03  0.12000000000E+03 0.  0.
<mgrwt>
<rscale>  0 0.26607770E+03</rscale>
<asrwt>0</asrwt>
<pdfrwt beam="1">  1        2 0.21864042E-01 0.26607770E+03</pdfrwt>
<pdfrwt beam="2">  1       -2 0.19160190E-01 0.26607770E+03</pdfrwt>
<totfact> 0.56192867E+03</totfact>
</mgrwt>
</event>
<event>
 4    1  0.1733772E-004  0.2643069E+03  0.7818608E-02  0.1104583E+00
         -1   -1    0    0    0  501 -0.00000000000E+00  0.00000000000E+00  0.14144197239E+02  0.14144197239E+02  0.00000000000E+00 0. -1.
          1   -1    0    0  501    0  0.00000000000E+00 -0.00000000000E+00 -0.12347489064E+04  0.12347489064E+04  0.00000000000E+00 0. -1.
         25    1    1    2    0    0  0.30038062383E+02 -0.44832044711E+02 -0.55198253906E+03  0.56744772521E+03  0.12000000000E+03 0.  0.
         25    1    1    2    0    0 -0.30038062383E+02  0.44832044711E+02 -0.66862217007E+03  0.68144537839E+03  0.12000000000E+03 0.  0.
<mgrwt>
<rscale>  0 0.26430688E+03</rscale>
<asrwt>0</asrwt>
<pdfrwt beam="1">  1        1 0.18996140E+00 0.26430688E+03</pdfrwt>
<pdfrwt beam="2">  1       -1 0.21760300E-02 0.26430688E+03</pdfrwt>
<totfact> 0.65509911E+03</totfact>
</mgrwt>
</event>
<event>
 4    1  0.1733772E-004  0.2751070E+03  0.7818608E-02  0.1098392E+00
          1   -1    0    0  501    0  0.00000000000E+00  0.00000000000E+00  0.30079229464E+04  0.30079229464E+04  0.00000000000E+00 0. -1.
         -1   -1    0    0    0  501 -0.00000000000E+00 -0.00000000000E+00 -0.62903769083E+01  0.62903769083E+01  0.00000000000E+00 0. -1.
         25    1    1    2    0    0  0.61945818911E+02 -0.11295939300E+02  0.17591870712E+04  0.17643990576E+04  0.12000000000E+03 0.  0.
         25    1    1    2    0    0 -0.61945818911E+02  0.11295939300E+02  0.12424454983E+04  0.12498142658E+04  0.12000000000E+03 0.  0.
<mgrwt>
<rscale>  0 0.27510703E+03</rscale>
<asrwt>0</asrwt>
<pdfrwt beam="1">  1        1 0.46275623E+00 0.27510703E+03</pdfrwt>
<pdfrwt beam="2">  1       -1 0.96775270E-03 0.27510703E+03</pdfrwt>
<totfact> 0.14094558E+03</totfact>
</mgrwt>
</event>
<event>
 4    1  0.1733772E-004  0.3075742E+03  0.7818608E-02  0.1081514E+00
          1   -1    0    0  501    0  0.00000000000E+00  0.00000000000E+00  0.16195971968E+04  0.16195971968E+04  0.00000000000E+00 0. -1.
         -1   -1    0    0    0  501 -0.00000000000E+00 -0.00000000000E+00 -0.14602684504E+02  0.14602684504E+02  0.00000000000E+00 0. -1.
         25    1    1    2    0    0  0.44238287945E+02 -0.69757556852E+02  0.10642668488E+04  0.10741913556E+04  0.12000000000E+03 0.  0.
         25    1    1    2    0    0 -0.44238287945E+02  0.69757556852E+02  0.54072766345E+03  0.56000852572E+03  0.12000000000E+03 0.  0.
<mgrwt>
<rscale>  0 0.30757417E+03</rscale>
<asrwt>0</asrwt>
<pdfrwt beam="1">  1        1 0.24916866E+00 0.30757417E+03</pdfrwt>
<pdfrwt beam="2">  1       -1 0.22465681E-02 0.30757417E+03</pdfrwt>
<totfact> 0.34511393E+03</totfact>
</mgrwt>
</event>
<event>
 4    1  0.1733772E-004  0.2687486E+03  0.7818608E-02  0.1101998E+00
         -2   -1    0    0    0  501 -0.00000000000E+00  0.00000000000E+00  0.11292370645E+03  0.11292370645E+03  0.00000000000E+00 0.  1.
          2   -1    0    0  501    0  0.00000000000E+00 -0.00000000000E+00 -0.15989956815E+03  0.15989956815E+03  0.00000000000E+00 0.  1.
         25    1    1    2    0    0  0.54501675920E+02  0.25293513562E+02 -0.30392328081E+02  0.13760046552E+03  0.12000000000E+03 0.  0.
         25    1    1    2    0    0 -0.54501675920E+02 -0.25293513562E+02 -0.16583533627E+02  0.13522280907E+03  0.12000000000E+03 0.  0.
<mgrwt>
<rscale>  0 0.26874860E+03</rscale>
<asrwt>0</asrwt>
<pdfrwt beam="1">  1        2 0.24599934E-01 0.26874860E+03</pdfrwt>
<pdfrwt beam="2">  1       -2 0.17372878E-01 0.26874860E+03</pdfrwt>
<totfact> 0.58082922E+03</totfact>
</mgrwt>
</event>
<event>
 4    1  0.1733772E-004  0.2459270E+03  0.7818608E-02  0.1115906E+00
         -2   -1    0    0    0  501 -0.00000000000E+00  0.00000000000E+00  0.62803280012E+02  0.62803280012E+02  0.00000000000E+00 0. -1.
          2   -1    0    0  501    0  0.00000000000E+00 -0.00000000000E+00 -0.24075220150E+03  0.24075220150E+03  0.00000000000E+00 0. -1.
         25    1    1    2    0    0  0.14425018767E+02  0.16465394120E+02 -0.10812997835E+03  0.16300700165E+03  0.12000000000E+03 0.  0.
         25    1    1    2    0    0 -0.14425018767E+02 -0.16465394120E+02 -0.69818943141E+02  0.14054847986E+03  0.12000000000E+03 0.  0.
<mgrwt>
<rscale>  0 0.24592705E+03</rscale>
<asrwt>0</asrwt>
<pdfrwt beam="1">  1        2 0.37038800E-01 0.24592705E+03</pdfrwt>
<pdfrwt beam="2">  1       -2 0.96620432E-02 0.24592705E+03</pdfrwt>
<totfact> 0.95945749E+03</totfact>
</mgrwt>
</event>
<event>
 4    1  0.1733772E-004  0.3774123E+03  0.7818608E-02  0.1051894E+00
         -2   -1    0    0    0  501 -0.00000000000E+00  0.00000000000E+00  0.18362628086E+02  0.18362628086E+02  0.00000000000E+00 0. -1.
          2   -1    0    0  501    0  0.00000000000E+00 -0.00000000000E+00 -0.19392657880E+04  0.19392657880E+04  0.00000000000E+00 0. -1.
         25    1    1    2    0    0 -0.12088408826E+03  0.61566383682E+02 -0.68565769047E+03  0.70917547257E+03  0.12000000000E+03 0.  0.
         25    1    1    2    0    0  0.12088408826E+03 -0.61566383682E+02 -0.12352454694E+04  0.12484529435E+04  0.12000000000E+03 0.  0.
<mgrwt>
<rscale>  0 0.37741233E+03</rscale>
<asrwt>0</asrwt>
<pdfrwt beam="1">  1        2 0.29834828E+00 0.37741233E+03</pdfrwt>
<pdfrwt beam="2">  1       -2 0.28250226E-02 0.37741233E+03</pdfrwt>
<totfact> 0.36962381E+03</totfact>
</mgrwt>
</event>
<event>
 4    1  0.1733772E-004  0.4039691E+03  0.7818608E-02  0.1042414E+00
          2   -1    0    0  501    0  0.00000000000E+00  0.00000000000E+00  0.16728656655E+02  0.16728656655E+02  0.00000000000E+00 0.  1.
         -2   -1    0    0    0  501 -0.00000000000E+00 -0.00000000000E+00 -0.24387947300E+04  0.24387947300E+04  0.00000000000E+00 0.  1.
         25    1    1    2    0    0  0.11859204287E+01 -0.57484272401E+02 -0.21347222360E+04  0.21388653237E+04  0.12000000000E+03 0.  0.
         25    1    1    2    0    0 -0.11859204287E+01  0.57484272401E+02 -0.28734383727E+03  0.31665806290E+03  0.12000000000E+03 0.  0.
<mgrwt>
<rscale>  0 0.40396911E+03</rscale>
<asrwt>0</asrwt>
<pdfrwt beam="1">  1        2 0.25736379E-02 0.40396911E+03</pdfrwt>
<pdfrwt beam="2">  1       -2 0.37519943E+00 0.40396911E+03</pdfrwt>
<totfact> 0.48999168E+01</totfact>
</mgrwt>
</event>
<event>
 4    1  0.1733772E-004  0.2820701E+03  0.7818608E-02  0.1094564E+00
         -4   -1    0    0    0  501 -0.00000000000E+00  0.00000000000E+00  0.32349065093E+02  0.32349065093E+02  0.00000000000E+00 0. -1.
          4   -1    0    0  501    0  0.00000000000E+00 -0.00000000000E+00 -0.61488286670E+03  0.61488286670E+03  0.00000000000E+00 0. -1.
         25    1    1    2    0    0  0.99124706421E+01 -0.42565492507E+02 -0.42857412055E+03  0.44719778066E+03  0.12000000000E+03 0.  0.
         25    1    1    2    0    0 -0.99124706421E+01  0.42565492507E+02 -0.15395968106E+03  0.20003415113E+03  0.12000000000E+03 0.  0.
<mgrwt>
<rscale>  0 0.28207010E+03</rscale>
<asrwt>0</asrwt>
<pdfrwt beam="1">  1        4 0.94597356E-01 0.28207010E+03</pdfrwt>
<pdfrwt beam="2">  1       -4 0.49767797E-02 0.28207010E+03</pdfrwt>
<totfact> 0.43908025E+02</totfact>
</mgrwt>
</event>
<event>
 4    1  0.1733772E-004  0.2687696E+03  0.7818608E-02  0.1101986E+00
         -1   -1    0    0    0  501 -0.00000000000E+00  0.00000000000E+00  0.11804140404E+03  0.11804140404E+03  0.00000000000E+00 0. -1.
          1   -1    0    0  501    0  0.00000000000E+00 -0.00000000000E+00 -0.15299105873E+03  0.15299105873E+03  0.00000000000E+00 0. -1.
         25    1    1    2    0    0 -0.29189960632E+02  0.45745448144E+02 -0.44431507087E+02  0.13899229709E+03  0.12000000000E+03 0.  0.
         25    1    1    2    0    0  0.29189960632E+02 -0.45745448144E+02  0.94818524036E+01  0.13204016568E+03  0.12000000000E+03 0.  0.
<mgrwt>
<rscale>  0 0.26876964E+03</rscale>
<asrwt>0</asrwt>
<pdfrwt beam="1">  1        1 0.23537086E-01 0.26876964E+03</pdfrwt>
<pdfrwt beam="2">  1       -1 0.18160216E-01 0.26876964E+03</pdfrwt>
<totfact> 0.48427953E+03</totfact>
</mgrwt>
</event>
<event>
 4    1  0.1733772E-004  0.2608267E+03  0.7818608E-02  0.1106648E+00
         -1   -1    0    0    0  501 -0.00000000000E+00  0.00000000000E+00  0.35331024067E+02  0.35331024067E+02  0.00000000000E+00 0.  1.
          1   -1    0    0  501    0  0.00000000000E+00 -0.00000000000E+00 -0.48137972423E+03  0.48137972423E+03  0.00000000000E+00 0.  1.
         25    1    1    2    0    0 -0.12847089836E+02 -0.47276558615E+02 -0.25156233361E+03  0.28299068608E+03  0.12000000000E+03 0.  0.
         25    1    1    2    0    0  0.12847089836E+02  0.47276558615E+02 -0.19448636655E+03  0.23372006222E+03  0.12000000000E+03 0.  0.
<mgrwt>
<rscale>  0 0.26082668E+03</rscale>
<asrwt>0</asrwt>
<pdfrwt beam="1">  1        1 0.74058414E-01 0.26082668E+03</pdfrwt>
<pdfrwt beam="2">  1       -1 0.54355425E-02 0.26082668E+03</pdfrwt>
<totfact> 0.73151950E+03</totfact>
</mgrwt>
</event>
<event>
 4    1  0.1733772E-004  0.3297805E+03  0.7818608E-02  0.1071234E+00
         -2   -1    0    0    0  501 -0.00000000000E+00  0.00000000000E+00  0.91745302317E+02  0.91745302317E+02  0.00000000000E+00 0.  1.
          2   -1    0    0  501    0  0.00000000000E+00 -0.00000000000E+00 -0.29635081080E+03  0.29635081080E+03  0.00000000000E+00 0.  1.
         25    1    1    2    0    0  0.76980037815E+02  0.82440947868E+02 -0.11188931869E+03  0.19910212391E+03  0.12000000000E+03 0.  0.
         25    1    1    2    0    0 -0.76980037815E+02 -0.82440947868E+02 -0.92716189787E+02  0.18899398921E+03  0.12000000000E+03 0.  0.
<mgrwt>
<rscale>  0 0.32978050E+03</rscale>
<asrwt>0</asrwt>
<pdfrwt beam="1">  1        2 0.45592432E-01 0.32978050E+03</pdfrwt>
<pdfrwt beam="2">  1       -2 0.14114662E-01 0.32978050E+03</pdfrwt>
<totfact> 0.42026001E+03</totfact>
</mgrwt>
</event>
<event>
 4    1  0.1733772E-004  0.2585310E+03  0.7818608E-02  0.1108029E+00
          2   -1    0    0  501    0  0.00000000000E+00  0.00000000000E+00  0.13207174685E+02  0.13207174685E+02  0.00000000000E+00 0. -1.
         -2   -1    0    0    0  501 -0.00000000000E+00 -0.00000000000E+00 -0.12651889850E+04  0.12651889850E+04  0.00000000000E+00 0. -1.
         25    1    1    2    0    0  0.33054343879E+02  0.16277304947E+02 -0.47341762328E+03  0.48977728238E+03  0.12000000000E+03 0.  0.
         25    1    1    2    0    0 -0.33054343879E+02 -0.16277304947E+02 -0.77856418702E+03  0.78861887729E+03  0.12000000000E+03 0.  0.
<mgrwt>
<rscale>  0 0.25853102E+03</rscale>
<asrwt>0</asrwt>
<pdfrwt beam="1">  1        2 0.20318728E-02 0.25853102E+03</pdfrwt>
<pdfrwt beam="2">  1       -2 0.19464448E+00 0.25853102E+03</pdfrwt>
<totfact> 0.83456425E+02</totfact>
</mgrwt>
</event>
<event>
 4    1  0.1733772E-004  0.3055682E+03  0.7818608E-02  0.1082490E+00
          2   -1    0    0  501    0  0.00000000000E+00  0.00000000000E+00  0.86232813183E+03  0.86232813183E+03  0.00000000000E+00 0. -1.
         -2   -1    0    0    0  501 -0.00000000000E+00 -0.00000000000E+00 -0.27069713299E+02  0.27069713299E+02  0.00000000000E+00 0. -1.
         25    1    1    2    0    0  0.37458994345E+02  0.76580266592E+02  0.53676145154E+03  0.55657934685E+03  0.12000000000E+03 0.  0.
         25    1    1    2    0    0 -0.37458994345E+02 -0.76580266592E+02  0.29849696699E+03  0.33281849827E+03  0.12000000000E+03 0.  0.
<mgrwt>
<rscale>  0 0.30556816E+03</rscale>
<asrwt>0</asrwt>
<pdfrwt beam="1">  1        2 0.13266585E+00 0.30556816E+03</pdfrwt>
<pdfrwt beam="2">  1       -2 0.41645719E-02 0.30556816E+03</pdfrwt>
<totfact> 0.83271619E+03</totfact>
</mgrwt>
</event>
<event>
 4    1  0.1733772E-004  0.2810167E+03  0.7818608E-02  0.1095135E+00
          2   -1    0    0  501    0  0.00000000000E+00  0.00000000000E+00  0.45888972864E+03  0.45888972864E+03  0.00000000000E+00 0. -1.
         -2   -1    0    0    0  501 -0.00000000000E+00 -0.00000000000E+00 -0.43022521980E+02  0.43022521980E+02  0.00000000000E+00 0. -1.
         25    1    1    2    0    0  0.57644683570E+02  0.15727662118E+02  0.28312485673E+03  0.31325700854E+03  0.12000000000E+03 0.  0.
         25    1    1    2    0    0 -0.57644683570E+02 -0.15727662118E+02  0.13274234992E+03  0.18865524208E+03  0.12000000000E+03 0.  0.
<mgrwt>
<rscale>  0 0.28101668E+03</rscale>
<asrwt>0</asrwt>
<pdfrwt beam="1">  1        2 0.70598416E-01 0.28101668E+03</pdfrwt>
<pdfrwt beam="2">  1       -2 0.66188499E-02 0.28101668E+03</pdfrwt>
<totfact> 0.86734703E+03</totfact>
</mgrwt>
</event>
<event>
 4    1  0.1733772E-004  0.2455938E+03  0.7818608E-02  0.1116121E+00
         -1   -1    0    0    0  501 -0.00000000000E+00  0.00000000000E+00  0.11786986658E+03  0.11786986658E+03  0.00000000000E+00 0. -1.
          1   -1    0    0  501    0  0.00000000000E+00 -0.00000000000E+00 -0.12792993638E+03  0.12792993638E+03  0.00000000000E+00 0. -1.
         25    1    1    2    0    0 -0.17881882707E+02 -0.14486715133E+02  0.72055143009E+01  0.12239912614E+03  0.12000000000E+03 0.  0.
         25    1    1    2    0    0  0.17881882707E+02  0.14486715133E+02 -0.17265584104E+02  0.12340067682E+03  0.12000000000E+03 0.  0.
<mgrwt>
<rscale>  0 0.24559385E+03</rscale>
<asrwt>0</asrwt>
<pdfrwt beam="1">  1        1 0.19681529E-01 0.24559385E+03</pdfrwt>
<pdfrwt beam="2">  1       -1 0.18133826E-01 0.24559385E+03</pdfrwt>
<totfact> 0.60844804E+03</totfact>
</mgrwt>
</event>
<event>
 4    1  0.1733772E-004  0.3062728E+03  0.7818608E-02  0.1082146E+00
         -2   -1    0    0    0  501 -0.00000000000E+00  0.00000000000E+00  0.42424972126E+02  0.42424972126E+02  0.00000000000E+00 0.  1.
          2   -1    0    0  501    0  0.00000000000E+00 -0.00000000000E+00 -0.55275819759E+03  0.55275819759E+03  0.00000000000E+00 0.  1.
         25    1    1    2    0    0  0.86152320650E+02 -0.34001672422E+02 -0.29740468872E+03  0.33380815591E+03  0.12000000000E+03 0.  0.
         25    1    1    2    0    0 -0.86152320650E+02  0.34001672422E+02 -0.21292853674E+03  0.26137501380E+03  0.12000000000E+03 0.  0.
<mgrwt>
<rscale>  0 0.30627276E+03</rscale>
<asrwt>0</asrwt>
<pdfrwt beam="1">  1        2 0.85039715E-01 0.30627276E+03</pdfrwt>
<pdfrwt beam="2">  1       -2 0.65269194E-02 0.30627276E+03</pdfrwt>
<totfact> 0.72104277E+03</totfact>
</mgrwt>
</event>
<event>
 4    1  0.1733772E-004  0.2525301E+03  0.7818608E-02  0.1111716E+00
         -2   -1    0    0    0  501 -0.00000000000E+00  0.00000000000E+00  0.60515384702E+01  0.60515384702E+01  0.00000000000E+00 0. -1.
          2   -1    0    0  501    0  0.00000000000E+00 -0.00000000000E+00 -0.26345131984E+04  0.26345131984E+04  0.00000000000E+00 0. -1.
         25    1    1    2    0    0  0.16930148815E+02 -0.49841779297E+01 -0.94730284055E+03  0.95503620020E+03  0.12000000000E+03 0.  0.
         25    1    1    2    0    0 -0.16930148815E+02  0.49841779297E+01 -0.16811588194E+04  0.16855285367E+04  0.12000000000E+03 0.  0.
<mgrwt>
<rscale>  0 0.25253006E+03</rscale>
<asrwt>0</asrwt>
<pdfrwt beam="1">  1        2 0.40530948E+00 0.25253006E+03</pdfrwt>
<pdfrwt beam="2">  1       -2 0.93100647E-03 0.25253006E+03</pdfrwt>
<totfact> 0.79930510E+03</totfact>
</mgrwt>
</event>
<event>
 4    1  0.1733772E-004  0.2938563E+03  0.7818608E-02  0.1088353E+00
         -1   -1    0    0    0  501 -0.00000000000E+00  0.00000000000E+00  0.15965601254E+03  0.15965601254E+03  0.00000000000E+00 0.  1.
          1   -1    0    0  501    0  0.00000000000E+00 -0.00000000000E+00 -0.13521497130E+03  0.13521497130E+03  0.00000000000E+00 0.  1.
         25    1    1    2    0    0  0.60259394481E+02 -0.59161205060E+02  0.19772485510E+02  0.14806145343E+03  0.12000000000E+03 0.  0.
         25    1    1    2    0    0 -0.60259394481E+02  0.59161205060E+02  0.46685557255E+01  0.14680953041E+03  0.12000000000E+03 0.  0.
<mgrwt>
<rscale>  0 0.29385631E+03</rscale>
<asrwt>0</asrwt>
<pdfrwt beam="1">  1        1 0.20802303E-01 0.29385631E+03</pdfrwt>
<pdfrwt beam="2">  1       -1 0.24562463E-01 0.29385631E+03</pdfrwt>
<totfact> 0.34707646E+03</totfact>
</mgrwt>
</event>
<event>
 4    1  0.1733772E-004  0.3012678E+03  0.7818608E-02  0.1084609E+00
         -2   -1    0    0    0  501 -0.00000000000E+00  0.00000000000E+00  0.15721102096E+02  0.15721102096E+02  0.00000000000E+00 0.  1.
          2   -1    0    0  501    0  0.00000000000E+00 -0.00000000000E+00 -0.14433197218E+04  0.14433197218E+04  0.00000000000E+00 0.  1.
         25    1    1    2    0    0  0.20439041153E+02  0.88072254440E+02 -0.66161603304E+03  0.67846168026E+03  0.12000000000E+03 0.  0.
         25    1    1    2    0    0 -0.20439041153E+02 -0.88072254440E+02 -0.76598258663E+03  0.78057914360E+03  0.12000000000E+03 0.  0.
<mgrwt>
<rscale>  0 0.30126783E+03</rscale>
<asrwt>0</asrwt>
<pdfrwt beam="1">  1        2 0.22204926E+00 0.30126783E+03</pdfrwt>
<pdfrwt beam="2">  1       -2 0.24186303E-02 0.30126783E+03</pdfrwt>
<totfact> 0.85601737E+03</totfact>
</mgrwt>
</event>
<event>
 4    1  0.1733772E-004  0.2796702E+03  0.7818608E-02  0.1095869E+00
         -2   -1    0    0    0  501 -0.00000000000E+00  0.00000000000E+00  0.85350183960E+02  0.85350183960E+02  0.00000000000E+00 0. -1.
          2   -1    0    0  501    0  0.00000000000E+00 -0.00000000000E+00 -0.22910153925E+03  0.22910153925E+03  0.00000000000E+00 0. -1.
         25    1    1    2    0    0  0.44759695006E+02  0.29182420067E+02 -0.17966870672E+02  0.13258149335E+03  0.12000000000E+03 0.  0.
         25    1    1    2    0    0 -0.44759695006E+02 -0.29182420067E+02 -0.12578448462E+03  0.18187022986E+03  0.12000000000E+03 0.  0.
<mgrwt>
<rscale>  0 0.27967022E+03</rscale>
<asrwt>0</asrwt>
<pdfrwt beam="1">  1        2 0.35246391E-01 0.27967022E+03</pdfrwt>
<pdfrwt beam="2">  1       -2 0.13130797E-01 0.27967022E+03</pdfrwt>
<totfact> 0.62213449E+03</totfact>
</mgrwt>
</event>
<event>
 4    1  0.1733772E-004  0.3990348E+03  0.7818608E-02  0.1044114E+00
         -1   -1    0    0    0  501 -0.00000000000E+00  0.00000000000E+00  0.27715916593E+02  0.27715916593E+02  0.00000000000E+00 0.  1.
          1   -1    0    0  501    0  0.00000000000E+00 -0.00000000000E+00 -0.14362573183E+04  0.14362573183E+04  0.00000000000E+00 0.  1.
         25    1    1    2    0    0  0.10367340986E+03 -0.11600900822E+03 -0.57713140053E+03  0.60966131530E+03  0.12000000000E+03 0.  0.
         25    1    1    2    0    0 -0.10367340986E+03  0.11600900822E+03 -0.83141000120E+03  0.85431191961E+03  0.12000000000E+03 0.  0.
<mgrwt>
<rscale>  0 0.39903478E+03</rscale>
<asrwt>0</asrwt>
<pdfrwt beam="1">  1        1 0.22096272E+00 0.39903478E+03</pdfrwt>
<pdfrwt beam="2">  1       -1 0.42639862E-02 0.39903478E+03</pdfrwt>
<totfact> 0.17593342E+03</totfact>
</mgrwt>
</event>
<event>
 4    1  0.1733772E-004  0.2873660E+03  0.7818608E-02  0.1091732E+00
         -2   -1    0    0    0  501 -0.00000000000E+00  0.00000000000E+00  0.47938945527E+02  0.47938945527E+02  0.00000000000E+00 0. -1.
          2   -1    0    0  501    0  0.00000000000E+00 -0.00000000000E+00 -0.43064774872E+03  0.43064774872E+03  0.00000000000E+00 0. -1.
         25    1    1    2    0    0  0.36410881839E+01 -0.57336604934E+02 -0.10098981459E+03  0.16703199227E+03  0.12000000000E+03 0.  0.
         25    1    1    2    0    0 -0.36410881839E+01  0.57336604934E+02 -0.28171898860E+03  0.31155470198E+03  0.12000000000E+03 0.  0.
<mgrwt>
<rscale>  0 0.28736596E+03</rscale>
<asrwt>0</asrwt>
<pdfrwt beam="1">  1        2 0.66253500E-01 0.28736596E+03</pdfrwt>
<pdfrwt beam="2">  1       -2 0.73752224E-02 0.28736596E+03</pdfrwt>
<totfact> 0.78715939E+03</totfact>
</mgrwt>
</event>
<event>
 4    1  0.1733772E-004  0.2563718E+03  0.7818608E-02  0.1109343E+00
         -1   -1    0    0    0  501 -0.00000000000E+00  0.00000000000E+00  0.11868461867E+03  0.11868461867E+03  0.00000000000E+00 0. -1.
          1   -1    0    0  501    0  0.00000000000E+00 -0.00000000000E+00 -0.13844780826E+03  0.13844780826E+03  0.00000000000E+00 0. -1.
         25    1    1    2    0    0  0.35764199984E+02  0.59153431789E+01 -0.36748305873E+02  0.13063118797E+03  0.12000000000E+03 0.  0.
         25    1    1    2    0    0 -0.35764199984E+02 -0.59153431789E+01  0.16985116283E+02  0.12650123897E+03  0.12000000000E+03 0.  0.
<mgrwt>
<rscale>  0 0.25637180E+03</rscale>
<asrwt>0</asrwt>
<pdfrwt beam="1">  1        1 0.21299663E-01 0.25637180E+03</pdfrwt>
<pdfrwt beam="2">  1       -1 0.18259172E-01 0.25637180E+03</pdfrwt>
<totfact> 0.54457863E+03</totfact>
</mgrwt>
</event>
<event>
 4    1  0.1733772E-004  0.2769816E+03  0.7818608E-02  0.1097349E+00
          2   -1    0    0  501    0  0.00000000000E+00  0.00000000000E+00  0.10262440869E+04  0.10262440869E+04  0.00000000000E+00 0.  1.
         -2   -1    0    0    0  501 -0.00000000000E+00 -0.00000000000E+00 -0.18689213610E+02  0.18689213610E+02  0.00000000000E+00 0.  1.
         25    1    1    2    0    0  0.14063494391E+00 -0.30097287526E+02  0.26897212390E+03  0.29606058490E+03  0.12000000000E+03 0.  0.
         25    1    1    2    0    0 -0.14063494391E+00  0.30097287526E+02  0.73858274943E+03  0.74887271566E+03  0.12000000000E+03 0.  0.
<mgrwt>
<rscale>  0 0.27698155E+03</rscale>
<asrwt>0</asrwt>
<pdfrwt beam="1">  1        2 0.15788366E+00 0.27698155E+03</pdfrwt>
<pdfrwt beam="2">  1       -2 0.28752644E-02 0.27698155E+03</pdfrwt>
<totfact> 0.11394609E+04</totfact>
</mgrwt>
</event>
<event>
 4    1  0.1733772E-004  0.2555170E+03  0.7818608E-02  0.1109867E+00
          2   -1    0    0  501    0  0.00000000000E+00  0.00000000000E+00  0.22154232686E+04  0.22154232686E+04  0.00000000000E+00 0. -1.
         -2   -1    0    0    0  501 -0.00000000000E+00 -0.00000000000E+00 -0.73675483293E+01  0.73675483293E+01  0.00000000000E+00 0. -1.
         25    1    1    2    0    0  0.22568747890E+02  0.26357479996E+02  0.13371552182E+04  0.13429773426E+04  0.12000000000E+03 0.  0.
         25    1    1    2    0    0 -0.22568747890E+02 -0.26357479996E+02  0.87090050204E+03  0.87981347432E+03  0.12000000000E+03 0.  0.
<mgrwt>
<rscale>  0 0.25551703E+03</rscale>
<asrwt>0</asrwt>
<pdfrwt beam="1">  1        2 0.34083382E+00 0.25551703E+03</pdfrwt>
<pdfrwt beam="2">  1       -2 0.11334707E-02 0.25551703E+03</pdfrwt>
<totfact> 0.10141055E+04</totfact>
</mgrwt>
</event>
<event>
 4    1  0.1733772E-004  0.6924581E+03  0.7818608E-02  0.9730217E-01
         -2   -1    0    0    0  501 -0.00000000000E+00  0.00000000000E+00  0.19662997000E+03  0.19662997000E+03  0.00000000000E+00 0. -1.
          2   -1    0    0  501    0  0.00000000000E+00 -0.00000000000E+00 -0.60964543164E+03  0.60964543164E+03  0.00000000000E+00 0. -1.
         25    1    1    2    0    0 -0.27104886285E+03 -0.17888361400E+03 -0.20974490684E+03  0.40479594780E+03  0.12000000000E+03 0.  0.
         25    1    1    2    0    0  0.27104886285E+03  0.17888361400E+03 -0.20327055481E+03  0.40147945385E+03  0.12000000000E+03 0.  0.
<mgrwt>
<rscale>  0 0.69245812E+03</rscale>
<asrwt>0</asrwt>
<pdfrwt beam="1">  1        2 0.93791604E-01 0.69245812E+03</pdfrwt>
<pdfrwt beam="2">  1       -2 0.30250765E-01 0.69245812E+03</pdfrwt>
<totfact> 0.49411141E+02</totfact>
</mgrwt>
</event>
<event>
 4    1  0.1733772E-004  0.6393073E+03  0.7818608E-02  0.9827053E-01
          1   -1    0    0  501    0  0.00000000000E+00  0.00000000000E+00  0.95461636524E+02  0.95461636524E+02  0.00000000000E+00 0.  1.
         -1   -1    0    0    0  501 -0.00000000000E+00 -0.00000000000E+00 -0.10703614641E+04  0.10703614641E+04  0.00000000000E+00 0.  1.
         25    1    1    2    0    0 -0.25532247167E+02 -0.24461621510E+03 -0.18620443956E+03  0.33100012333E+03  0.12000000000E+03 0.  0.
         25    1    1    2    0    0  0.25532247167E+02  0.24461621510E+03 -0.78869538801E+03  0.83482297729E+03  0.12000000000E+03 0.  0.
<mgrwt>
<rscale>  0 0.63930730E+03</rscale>
<asrwt>0</asrwt>
<pdfrwt beam="1">  1        1 0.14686405E-01 0.63930730E+03</pdfrwt>
<pdfrwt beam="2">  1       -1 0.16467100E+00 0.63930730E+03</pdfrwt>
<totfact> 0.10955975E+02</totfact>
</mgrwt>
</event>
<event>
 4    1  0.1733772E-004  0.5680211E+03  0.7818608E-02  0.9974067E-01
         -2   -1    0    0    0  501 -0.00000000000E+00  0.00000000000E+00  0.22281966861E+03  0.22281966861E+03  0.00000000000E+00 0. -1.
          2   -1    0    0  501    0  0.00000000000E+00 -0.00000000000E+00 -0.36200566010E+03  0.36200566010E+03  0.00000000000E+00 0. -1.
         25    1    1    2    0    0 -0.64858528716E+02  0.22762327105E+03  0.34608823077E+02  0.26761306565E+03  0.12000000000E+03 0.  0.
         25    1    1    2    0    0  0.64858528716E+02 -0.22762327105E+03 -0.17379481456E+03  0.31721226306E+03  0.12000000000E+03 0.  0.
<mgrwt>
<rscale>  0 0.56802106E+03</rscale>
<asrwt>0</asrwt>
<pdfrwt beam="1">  1        2 0.55693178E-01 0.56802106E+03</pdfrwt>
<pdfrwt beam="2">  1       -2 0.34279949E-01 0.56802106E+03</pdfrwt>
<totfact> 0.71316554E+02</totfact>
</mgrwt>
</event>
<event>
 4    1  0.1733772E-004  0.2665061E+03  0.7818608E-02  0.1103296E+00
         -2   -1    0    0    0  501 -0.00000000000E+00  0.00000000000E+00  0.15867605407E+03  0.15867605407E+03  0.00000000000E+00 0.  1.
          2   -1    0    0  501    0  0.00000000000E+00 -0.00000000000E+00 -0.11190331815E+03  0.11190331815E+03  0.00000000000E+00 0.  1.
         25    1    1    2    0    0 -0.20635841320E+02  0.51401574200E+02  0.40628782304E+02  0.13827023443E+03  0.12000000000E+03 0.  0.
         25    1    1    2    0    0  0.20635841320E+02 -0.51401574200E+02  0.61439536216E+01  0.13230913779E+03  0.12000000000E+03 0.  0.
<mgrwt>
<rscale>  0 0.26650611E+03</rscale>
<asrwt>0</asrwt>
<pdfrwt beam="1">  1        2 0.17215895E-01 0.26650611E+03</pdfrwt>
<pdfrwt beam="2">  1       -2 0.24411701E-01 0.26650611E+03</pdfrwt>
<totfact> 0.48659244E+03</totfact>
</mgrwt>
</event>
<event>
 4    1  0.1733772E-004  0.2768201E+03  0.7818608E-02  0.1097439E+00
          2   -1    0    0  501    0  0.00000000000E+00  0.00000000000E+00  0.11057147271E+04  0.11057147271E+04  0.00000000000E+00 0.  1.
         -2   -1    0    0    0  501 -0.00000000000E+00 -0.00000000000E+00 -0.17325752581E+02  0.17325752581E+02  0.00000000000E+00 0.  1.
         25    1    1    2    0    0 -0.39287303021E+02 -0.41373466934E+02  0.38696105273E+03  0.40913825570E+03  0.12000000000E+03 0.  0.
         25    1    1    2    0    0  0.39287303021E+02  0.41373466934E+02  0.70142792179E+03  0.71390222398E+03  0.12000000000E+03 0.  0.
<mgrwt>
<rscale>  0 0.27682008E+03</rscale>
<asrwt>0</asrwt>
<pdfrwt beam="1">  1        2 0.17010990E+00 0.27682008E+03</pdfrwt>
<pdfrwt beam="2">  1       -2 0.26655013E-02 0.27682008E+03</pdfrwt>
<totfact> 0.11434238E+04</totfact>
</mgrwt>
</event>
<event>
 4    1  0.1733772E-004  0.2710954E+03  0.7818608E-02  0.1100654E+00
          3   -1    0    0  501    0  0.00000000000E+00  0.00000000000E+00  0.19414767602E+02  0.19414767602E+02  0.00000000000E+00 0.  1.
         -3   -1    0    0    0  501 -0.00000000000E+00 -0.00000000000E+00 -0.94635036293E+03  0.94635036293E+03  0.00000000000E+00 0.  1.
         25    1    1    2    0    0  0.29284090713E+02  0.46775720703E+02 -0.57197052896E+03  0.58702283773E+03  0.12000000000E+03 0.  0.
         25    1    1    2    0    0 -0.29284090713E+02 -0.46775720703E+02 -0.35496506637E+03  0.37874229281E+03  0.12000000000E+03 0.  0.
<mgrwt>
<rscale>  0 0.27109535E+03</rscale>
<asrwt>0</asrwt>
<pdfrwt beam="1">  1        3 0.29868867E-02 0.27109535E+03</pdfrwt>
<pdfrwt beam="2">  1       -3 0.14559239E+00 0.27109535E+03</pdfrwt>
<totfact> 0.47881884E+02</totfact>
</mgrwt>
</event>
<event>
 4    1  0.1733772E-004  0.2751110E+03  0.7818608E-02  0.1098390E+00
         -2   -1    0    0    0  501 -0.00000000000E+00  0.00000000000E+00  0.98988054308E+03  0.98988054308E+03  0.00000000000E+00 0. -1.
          2   -1    0    0  501    0  0.00000000000E+00 -0.00000000000E+00 -0.19114945830E+02  0.19114945830E+02  0.00000000000E+00 0. -1.
         25    1    1    2    0    0  0.28679361139E+02  0.58727085412E+02  0.42737719410E+03  0.44868991782E+03  0.12000000000E+03 0.  0.
         25    1    1    2    0    0 -0.28679361139E+02 -0.58727085412E+02  0.54338840316E+03  0.56030557110E+03  0.12000000000E+03 0.  0.
<mgrwt>
<rscale>  0 0.27511098E+03</rscale>
<asrwt>0</asrwt>
<pdfrwt beam="1">  1        2 0.29407617E-02 0.27511098E+03</pdfrwt>
<pdfrwt beam="2">  1       -2 0.15228927E+00 0.27511098E+03</pdfrwt>
<totfact> 0.98181259E+02</totfact>
</mgrwt>
</event>
<event>
 4    1  0.1733772E-004  0.3381903E+03  0.7818608E-02  0.1067569E+00
         -4   -1    0    0    0  501 -0.00000000000E+00  0.00000000000E+00  0.16065635640E+03  0.16065635640E+03  0.00000000000E+00 0.  1.
          4   -1    0    0  501    0  0.00000000000E+00 -0.00000000000E+00 -0.17797722810E+03  0.17797722810E+03  0.00000000000E+00 0.  1.
         25    1    1    2    0    0  0.67084487038E+02 -0.36841249226E+02 -0.10007942777E+03  0.17399280993E+03  0.12000000000E+03 0.  0.
         25    1    1    2    0    0 -0.67084487038E+02  0.36841249226E+02  0.82758556073E+02  0.16464077456E+03  0.12000000000E+03 0.  0.
<mgrwt>
<rscale>  0 0.33819032E+03</rscale>
<asrwt>0</asrwt>
<pdfrwt beam="1">  1        4 0.27381112E-01 0.33819032E+03</pdfrwt>
<pdfrwt beam="2">  1       -4 0.24716363E-01 0.33819032E+03</pdfrwt>
<totfact> 0.37110025E+02</totfact>
</mgrwt>
</event>
<event>
 4    1  0.1733772E-004  0.3388401E+03  0.7818608E-02  0.1067291E+00
         -1   -1    0    0    0  501 -0.00000000000E+00  0.00000000000E+00  0.28463752371E+02  0.28463752371E+02  0.00000000000E+00 0.  1.
          1   -1    0    0  501    0  0.00000000000E+00 -0.00000000000E+00 -0.10084107546E+04  0.10084107546E+04  0.00000000000E+00 0.  1.
         25    1    1    2    0    0  0.28542749462E+02 -0.75659125880E+02 -0.75961000565E+03  0.77326990925E+03  0.12000000000E+03 0.  0.
         25    1    1    2    0    0 -0.28542749462E+02  0.75659125880E+02 -0.22033699658E+03  0.26360459772E+03  0.12000000000E+03 0.  0.
<mgrwt>
<rscale>  0 0.33884010E+03</rscale>
<asrwt>0</asrwt>
<pdfrwt beam="1">  1        1 0.15514011E+00 0.33884010E+03</pdfrwt>
<pdfrwt beam="2">  1       -1 0.43790389E-02 0.33884010E+03</pdfrwt>
<totfact> 0.33938966E+03</totfact>
</mgrwt>
</event>
<event>
 4    1  0.1733772E-004  0.4742314E+03  0.7818608E-02  0.1020733E+00
          1   -1    0    0  501    0  0.00000000000E+00  0.00000000000E+00  0.11624087911E+03  0.11624087911E+03  0.00000000000E+00 0. -1.
         -1   -1    0    0    0  501 -0.00000000000E+00 -0.00000000000E+00 -0.48368396434E+03  0.48368396434E+03  0.00000000000E+00 0. -1.
         25    1    1    2    0    0  0.13678384932E+03 -0.15203244495E+03 -0.18321006343E+03  0.29964914999E+03  0.12000000000E+03 0.  0.
         25    1    1    2    0    0 -0.13678384932E+03  0.15203244495E+03 -0.18423302181E+03  0.30027569345E+03  0.12000000000E+03 0.  0.
<mgrwt>
<rscale>  0 0.47423137E+03</rscale>
<asrwt>0</asrwt>
<pdfrwt beam="1">  1        1 0.17883212E-01 0.47423137E+03</pdfrwt>
<pdfrwt beam="2">  1       -1 0.74412919E-01 0.47423137E+03</pdfrwt>
<totfact> 0.55988076E+02</totfact>
</mgrwt>
</event>
<event>
 4    1  0.1733772E-004  0.4364175E+03  0.7818608E-02  0.1031852E+00
         -2   -1    0    0    0  501 -0.00000000000E+00  0.00000000000E+00  0.35034715190E+02  0.35034715190E+02  0.00000000000E+00 0.  1.
          2   -1    0    0  501    0  0.00000000000E+00 -0.00000000000E+00 -0.13590825045E+04  0.13590825045E+04  0.00000000000E+00 0.  1.
         25    1    1    2    0    0  0.68801198577E+02 -0.15539219369E+03 -0.87234269653E+03  0.89680662295E+03  0.12000000000E+03 0.  0.
         25    1    1    2    0    0 -0.68801198577E+02  0.15539219369E+03 -0.45170509278E+03  0.49731059674E+03  0.12000000000E+03 0.  0.
<mgrwt>
<rscale>  0 0.43641755E+03</rscale>
<asrwt>0</asrwt>
<pdfrwt beam="1">  1        2 0.20908960E+00 0.43641755E+03</pdfrwt>
<pdfrwt beam="2">  1       -2 0.53899567E-02 0.43641755E+03</pdfrwt>
<totfact> 0.28410139E+03</totfact>
</mgrwt>
</event>
<event>
 4    1  0.1733772E-004  0.2989190E+03  0.7818608E-02  0.1085782E+00
         -3   -1    0    0    0  501 -0.00000000000E+00  0.00000000000E+00  0.46922270550E+02  0.46922270550E+02  0.00000000000E+00 0. -1.
          3   -1    0    0  501    0  0.00000000000E+00 -0.00000000000E+00 -0.47606705507E+03  0.47606705507E+03  0.00000000000E+00 0. -1.
         25    1    1    2    0    0  0.35435792857E+02 -0.81638350427E+02 -0.20722583846E+03  0.25546636530E+03  0.12000000000E+03 0.  0.
         25    1    1    2    0    0 -0.35435792857E+02  0.81638350427E+02 -0.22191894606E+03  0.26752296031E+03  0.12000000000E+03 0.  0.
<mgrwt>
<rscale>  0 0.29891903E+03</rscale>
<asrwt>0</asrwt>
<pdfrwt beam="1">  1        3 0.73241083E-01 0.29891903E+03</pdfrwt>
<pdfrwt beam="2">  1       -3 0.72188111E-02 0.29891903E+03</pdfrwt>
<totfact> 0.58365991E+02</totfact>
</mgrwt>
</event>
<event>
 4    1  0.1733772E-004  0.2947211E+03  0.7818608E-02  0.1087910E+00
          2   -1    0    0  501    0  0.00000000000E+00  0.00000000000E+00  0.20793184867E+02  0.20793184867E+02  0.00000000000E+00 0.  1.
         -2   -1    0    0    0  501 -0.00000000000E+00 -0.00000000000E+00 -0.10443391063E+04  0.10443391063E+04  0.00000000000E+00 0.  1.
         25    1    1    2    0    0 -0.78311831699E+02  0.33683606781E+02 -0.53676153266E+03  0.55657907910E+03  0.12000000000E+03 0.  0.
         25    1    1    2    0    0  0.78311831699E+02 -0.33683606781E+02 -0.48678438878E+03  0.50855321207E+03  0.12000000000E+03 0.  0.
<mgrwt>
<rscale>  0 0.29472113E+03</rscale>
<asrwt>0</asrwt>
<pdfrwt beam="1">  1        2 0.31989517E-02 0.29472113E+03</pdfrwt>
<pdfrwt beam="2">  1       -2 0.16066755E+00 0.29472113E+03</pdfrwt>
<totfact> 0.76156798E+02</totfact>
</mgrwt>
</event>
<event>
 4    1  0.1733772E-004  0.3002027E+03  0.7818608E-02  0.1085139E+00
          1   -1    0    0  501    0  0.00000000000E+00  0.00000000000E+00  0.13181160077E+04  0.13181160077E+04  0.00000000000E+00 0.  1.
         -1   -1    0    0    0  501 -0.00000000000E+00 -0.00000000000E+00 -0.17092897103E+02  0.17092897103E+02  0.00000000000E+00 0.  1.
         25    1    1    2    0    0 -0.11644998139E+02 -0.86504267707E+02  0.75113429869E+03  0.76565091849E+03  0.12000000000E+03 0.  0.
         25    1    1    2    0    0  0.11644998139E+02  0.86504267707E+02  0.54988881189E+03  0.56955798629E+03  0.12000000000E+03 0.  0.
<mgrwt>
<rscale>  0 0.30020274E+03</rscale>
<asrwt>0</asrwt>
<pdfrwt beam="1">  1        1 0.20278700E+00 0.30020274E+03</pdfrwt>
<pdfrwt beam="2">  1       -1 0.26296775E-02 0.30020274E+03</pdfrwt>
<totfact> 0.43537232E+03</totfact>
</mgrwt>
</event>
<event>
 4    1  0.1733772E-004  0.2665805E+03  0.7818608E-02  0.1103253E+00
          2   -1    0    0  501    0  0.00000000000E+00  0.00000000000E+00  0.15534132013E+03  0.15534132013E+03  0.00000000000E+00 0.  1.
         -2   -1    0    0    0  501 -0.00000000000E+00 -0.00000000000E+00 -0.11436937101E+03  0.11436937101E+03  0.00000000000E+00 0.  1.
         25    1    1    2    0    0 -0.32400355947E+02 -0.13430356108E+02  0.67246975697E+02  0.14195884358E+03  0.12000000000E+03 0.  0.
         25    1    1    2    0    0  0.32400355947E+02  0.13430356108E+02 -0.26275026576E+02  0.12775184755E+03  0.12000000000E+03 0.  0.
<mgrwt>
<rscale>  0 0.26658049E+03</rscale>
<asrwt>0</asrwt>
<pdfrwt beam="1">  1        2 0.23898665E-01 0.26658049E+03</pdfrwt>
<pdfrwt beam="2">  1       -2 0.17595288E-01 0.26658049E+03</pdfrwt>
<totfact> 0.58709059E+03</totfact>
</mgrwt>
</event>
<event>
 4    1  0.1733772E-004  0.2592884E+03  0.7818608E-02  0.1107572E+00
          2   -1    0    0  501    0  0.00000000000E+00  0.00000000000E+00  0.14969693150E+03  0.14969693150E+03  0.00000000000E+00 0. -1.
         -2   -1    0    0    0  501 -0.00000000000E+00 -0.00000000000E+00 -0.11227762955E+03  0.11227762955E+03  0.00000000000E+00 0. -1.
         25    1    1    2    0    0  0.67957608316E+00 -0.45855767400E+02  0.36337560102E+02  0.13350517406E+03  0.12000000000E+03 0.  0.
         25    1    1    2    0    0 -0.67957608316E+00  0.45855767400E+02  0.10817418412E+01  0.12846938699E+03  0.12000000000E+03 0.  0.
<mgrwt>
<rscale>  0 0.25928838E+03</rscale>
<asrwt>0</asrwt>
<pdfrwt beam="1">  1        2 0.23030297E-01 0.25928838E+03</pdfrwt>
<pdfrwt beam="2">  1       -2 0.17273481E-01 0.25928838E+03</pdfrwt>
<totfact> 0.63061328E+03</totfact>
</mgrwt>
</event>
<event>
 4    1  0.1733772E-004  0.3136764E+03  0.7818608E-02  0.1078597E+00
         -2   -1    0    0    0  501 -0.00000000000E+00  0.00000000000E+00  0.53032276947E+03  0.53032276947E+03  0.00000000000E+00 0. -1.
          2   -1    0    0  501    0  0.00000000000E+00 -0.00000000000E+00 -0.46383477097E+02  0.46383477097E+02  0.00000000000E+00 0. -1.
         25    1    1    2    0    0 -0.52526635927E+02 -0.85385009475E+02  0.21956007116E+03  0.26954827429E+03  0.12000000000E+03 0.  0.
         25    1    1    2    0    0  0.52526635927E+02  0.85385009475E+02  0.26437922121E+03  0.30715797228E+03  0.12000000000E+03 0.  0.
<mgrwt>
<rscale>  0 0.31367636E+03</rscale>
<asrwt>0</asrwt>
<pdfrwt beam="1">  1        2 0.71359199E-02 0.31367636E+03</pdfrwt>
<pdfrwt beam="2">  1       -2 0.81588114E-01 0.31367636E+03</pdfrwt>
<totfact> 0.13475015E+03</totfact>
</mgrwt>
</event>
<event>
 4    1  0.1733772E-004  0.2843381E+03  0.7818608E-02  0.1093343E+00
          1   -1    0    0  501    0  0.00000000000E+00  0.00000000000E+00  0.47893942910E+02  0.47893942910E+02  0.00000000000E+00 0. -1.
         -1   -1    0    0    0  501 -0.00000000000E+00 -0.00000000000E+00 -0.42201670207E+03  0.42201670207E+03  0.00000000000E+00 0. -1.
         25    1    1    2    0    0 -0.49205062780E+01  0.60868601908E+02 -0.11163752444E+03  0.17490607463E+03  0.12000000000E+03 0.  0.
         25    1    1    2    0    0  0.49205062780E+01 -0.60868601908E+02 -0.26248523472E+03  0.29500457035E+03  0.12000000000E+03 0.  0.
<mgrwt>
<rscale>  0 0.28433814E+03</rscale>
<asrwt>0</asrwt>
<pdfrwt beam="1">  1        1 0.73682988E-02 0.28433814E+03</pdfrwt>
<pdfrwt beam="2">  1       -1 0.64925647E-01 0.28433814E+03</pdfrwt>
<totfact> 0.24209017E+03</totfact>
</mgrwt>
</event>
<event>
 4    1  0.1733772E-004  0.2472369E+03  0.7818608E-02  0.1115064E+00
          2   -1    0    0  501    0  0.00000000000E+00  0.00000000000E+00  0.66081649969E+03  0.66081649969E+03  0.00000000000E+00 0.  1.
         -2   -1    0    0    0  501 -0.00000000000E+00 -0.00000000000E+00 -0.23125208527E+02  0.23125208527E+02  0.00000000000E+00 0.  1.
         25    1    1    2    0    0  0.91937814330E+01  0.17644620759E+01  0.39678976732E+03  0.41464413464E+03  0.12000000000E+03 0.  0.
         25    1    1    2    0    0 -0.91937814330E+01 -0.17644620759E+01  0.24090152384E+03  0.26929757357E+03  0.12000000000E+03 0.  0.
<mgrwt>
<rscale>  0 0.24723689E+03</rscale>
<asrwt>0</asrwt>
<pdfrwt beam="1">  1        2 0.10166406E+00 0.24723689E+03</pdfrwt>
<pdfrwt beam="2">  1       -2 0.35577249E-02 0.24723689E+03</pdfrwt>
<totfact> 0.14596167E+04</totfact>
</mgrwt>
</event>
<event>
 4    1  0.1733772E-004  0.2644546E+03  0.7818608E-02  0.1104496E+00
          2   -1    0    0  501    0  0.00000000000E+00  0.00000000000E+00  0.60088302568E+03  0.60088302568E+03  0.00000000000E+00 0.  1.
         -2   -1    0    0    0  501 -0.00000000000E+00 -0.00000000000E+00 -0.29097271667E+02  0.29097271667E+02  0.00000000000E+00 0.  1.
         25    1    1    2    0    0 -0.10578212869E+02  0.45336985208E+02  0.21376664693E+03  0.24952659208E+03  0.12000000000E+03 0.  0.
         25    1    1    2    0    0  0.10578212869E+02 -0.45336985208E+02  0.35801910709E+03  0.38045370527E+03  0.12000000000E+03 0.  0.
<mgrwt>
<rscale>  0 0.26445458E+03</rscale>
<asrwt>0</asrwt>
<pdfrwt beam="1">  1        2 0.92443534E-01 0.26445458E+03</pdfrwt>
<pdfrwt beam="2">  1       -2 0.44765038E-02 0.26445458E+03</pdfrwt>
<totfact> 0.11591435E+04</totfact>
</mgrwt>
</event>
<event>
 4    1  0.1733772E-004  0.2537941E+03  0.7818608E-02  0.1110930E+00
         -1   -1    0    0    0  501 -0.00000000000E+00  0.00000000000E+00  0.23875983549E+04  0.23875983549E+04  0.00000000000E+00 0. -1.
          1   -1    0    0  501    0  0.00000000000E+00 -0.00000000000E+00 -0.67443762805E+01  0.67443762805E+01  0.00000000000E+00 0. -1.
         25    1    1    2    0    0 -0.24127016366E+02 -0.17255368638E+02  0.14610750894E+04  0.14662947444E+04  0.12000000000E+03 0.  0.
         25    1    1    2    0    0  0.24127016366E+02  0.17255368638E+02  0.91977888923E+03  0.92804798676E+03  0.12000000000E+03 0.  0.
<mgrwt>
<rscale>  0 0.25379410E+03</rscale>
<asrwt>0</asrwt>
<pdfrwt beam="1">  1        1 0.10375983E-02 0.25379410E+03</pdfrwt>
<pdfrwt beam="2">  1       -1 0.36732215E+00 0.25379410E+03</pdfrwt>
<totfact> 0.22201401E+02</totfact>
</mgrwt>
</event>
<event>
 4    1  0.1733772E-004  0.2856886E+03  0.7818608E-02  0.1092622E+00
          2   -1    0    0  501    0  0.00000000000E+00  0.00000000000E+00  0.99230849699E+03  0.99230849699E+03  0.00000000000E+00 0. -1.
         -2   -1    0    0    0  501 -0.00000000000E+00 -0.00000000000E+00 -0.20562648107E+02  0.20562648107E+02  0.00000000000E+00 0. -1.
         25    1    1    2    0    0 -0.39941879172E+02 -0.30357339576E+02  0.69524690495E+03  0.70730840559E+03  0.12000000000E+03 0.  0.
         25    1    1    2    0    0  0.39941879172E+02  0.30357339576E+02  0.27649894393E+03  0.30556273951E+03  0.12000000000E+03 0.  0.
<mgrwt>
<rscale>  0 0.28568857E+03</rscale>
<asrwt>0</asrwt>
<pdfrwt beam="1">  1        2 0.15266281E+00 0.28568857E+03</pdfrwt>
<pdfrwt beam="2">  1       -2 0.31634851E-02 0.28568857E+03</pdfrwt>
<totfact> 0.10375555E+04</totfact>
</mgrwt>
</event>
<event>
 4    1  0.1733772E-004  0.2429152E+03  0.7818608E-02  0.1117866E+00
          2   -1    0    0  501    0  0.00000000000E+00  0.00000000000E+00  0.26243767485E+04  0.26243767485E+04  0.00000000000E+00 0. -1.
         -2   -1    0    0    0  501 -0.00000000000E+00 -0.00000000000E+00 -0.56211238011E+01  0.56211238011E+01  0.00000000000E+00 0. -1.
         25    1    1    2    0    0  0.92182872500E+01  0.11558579431E+01  0.14858362314E+04  0.14907030621E+04  0.12000000000E+03 0.  0.
         25    1    1    2    0    0 -0.92182872500E+01 -0.11558579431E+01  0.11329193932E+04  0.11392948101E+04  0.12000000000E+03 0.  0.
<mgrwt>
<rscale>  0 0.24291518E+03</rscale>
<asrwt>0</asrwt>
<pdfrwt beam="1">  1        2 0.40374929E+00 0.24291518E+03</pdfrwt>
<pdfrwt beam="2">  1       -2 0.86479037E-03 0.24291518E+03</pdfrwt>
<totfact> 0.90089083E+03</totfact>
</mgrwt>
</event>
<event>
 4    1  0.1733772E-004  0.2713388E+03  0.7818608E-02  0.1100516E+00
         -2   -1    0    0    0  501 -0.00000000000E+00  0.00000000000E+00  0.14720148630E+02  0.14720148630E+02  0.00000000000E+00 0.  1.
          2   -1    0    0  501    0  0.00000000000E+00 -0.00000000000E+00 -0.12504075319E+04  0.12504075319E+04  0.00000000000E+00 0.  1.
         25    1    1    2    0    0  0.23263541780E+02 -0.25773795117E+02 -0.86459306970E+03  0.87357120893E+03  0.12000000000E+03 0.  0.
         25    1    1    2    0    0 -0.23263541780E+02  0.25773795117E+02 -0.37109431357E+03  0.39155647161E+03  0.12000000000E+03 0.  0.
<mgrwt>
<rscale>  0 0.27133879E+03</rscale>
<asrwt>0</asrwt>
<pdfrwt beam="1">  1        2 0.19237030E+00 0.27133879E+03</pdfrwt>
<pdfrwt beam="2">  1       -2 0.22646393E-02 0.27133879E+03</pdfrwt>
<totfact> 0.12018037E+04</totfact>
</mgrwt>
</event>
<event>
 4    1  0.1733772E-004  0.2658188E+03  0.7818608E-02  0.1103697E+00
         -2   -1    0    0    0  501 -0.00000000000E+00  0.00000000000E+00  0.73153449435E+01  0.73153449435E+01  0.00000000000E+00 0. -1.
          2   -1    0    0  501    0  0.00000000000E+00 -0.00000000000E+00 -0.24147749234E+04  0.24147749234E+04  0.00000000000E+00 0. -1.
         25    1    1    2    0    0 -0.28413647196E+02 -0.40909032833E+02 -0.94859471661E+03  0.95745121060E+03  0.12000000000E+03 0.  0.
         25    1    1    2    0    0  0.28413647196E+02  0.40909032833E+02 -0.14588648619E+04  0.14646390577E+04  0.12000000000E+03 0.  0.
<mgrwt>
<rscale>  0 0.26581882E+03</rscale>
<asrwt>0</asrwt>
<pdfrwt beam="1">  1        2 0.37150339E+00 0.26581882E+03</pdfrwt>
<pdfrwt beam="2">  1       -2 0.11254390E-02 0.26581882E+03</pdfrwt>
<totfact> 0.80124746E+03</totfact>
</mgrwt>
</event>
<event>
 4    1  0.1733772E-004  0.2500175E+03  0.7818608E-02  0.1113294E+00
          1   -1    0    0  501    0  0.00000000000E+00  0.00000000000E+00  0.19986938995E+03  0.19986938995E+03  0.00000000000E+00 0.  1.
         -1   -1    0    0    0  501 -0.00000000000E+00 -0.00000000000E+00 -0.78186984264E+02  0.78186984264E+02  0.00000000000E+00 0.  1.
         25    1    1    2    0    0 -0.24338748560E+02 -0.25116449205E+02  0.63058297885E+02  0.13999842726E+03  0.12000000000E+03 0.  0.
         25    1    1    2    0    0  0.24338748560E+02  0.25116449205E+02  0.58624107796E+02  0.13805794695E+03  0.12000000000E+03 0.  0.
<mgrwt>
<rscale>  0 0.25001748E+03</rscale>
<asrwt>0</asrwt>
<pdfrwt beam="1">  1        1 0.30749137E-01 0.25001748E+03</pdfrwt>
<pdfrwt beam="2">  1       -1 0.12028767E-01 0.25001748E+03</pdfrwt>
<totfact> 0.66107805E+03</totfact>
</mgrwt>
</event>
<event>
 4    1  0.1733772E-004  0.2665909E+03  0.7818608E-02  0.1103247E+00
         -2   -1    0    0    0  501 -0.00000000000E+00  0.00000000000E+00  0.29556388296E+02  0.29556388296E+02  0.00000000000E+00 0. -1.
          2   -1    0    0  501    0  0.00000000000E+00 -0.00000000000E+00 -0.60114487118E+03  0.60114487118E+03  0.00000000000E+00 0. -1.
         25    1    1    2    0    0 -0.24725291922E+02  0.37203952964E+01 -0.16190004568E+03  0.20306847661E+03  0.12000000000E+03 0.  0.
         25    1    1    2    0    0  0.24725291922E+02 -0.37203952964E+01 -0.40968843721E+03  0.42763278287E+03  0.12000000000E+03 0.  0.
<mgrwt>
<rscale>  0 0.26659086E+03</rscale>
<asrwt>0</asrwt>
<pdfrwt beam="1">  1        2 0.92483821E-01 0.26659086E+03</pdfrwt>
<pdfrwt beam="2">  1       -2 0.45471369E-02 0.26659086E+03</pdfrwt>
<totfact> 0.11318388E+04</totfact>
</mgrwt>
</event>
<event>
 4    1  0.1733772E-004  0.2819037E+03  0.7818608E-02  0.1094654E+00
         -2   -1    0    0    0  501 -0.00000000000E+00  0.00000000000E+00  0.77590622601E+01  0.77590622601E+01  0.00000000000E+00 0.  1.
          2   -1    0    0  501    0  0.00000000000E+00 -0.00000000000E+00 -0.25605450881E+04  0.25605450881E+04  0.00000000000E+00 0.  1.
         25    1    1    2    0    0  0.45651602368E+02 -0.58118077096E+02 -0.12547392049E+04  0.12626291031E+04  0.12000000000E+03 0.  0.
         25    1    1    2    0    0 -0.45651602368E+02  0.58118077096E+02 -0.12980468210E+04  0.13056750473E+04  0.12000000000E+03 0.  0.
<mgrwt>
<rscale>  0 0.28190373E+03</rscale>
<asrwt>0</asrwt>
<pdfrwt beam="1">  1        2 0.39393002E+00 0.28190373E+03</pdfrwt>
<pdfrwt beam="2">  1       -2 0.11937019E-02 0.28190373E+03</pdfrwt>
<totfact> 0.61185957E+03</totfact>
</mgrwt>
</event>
<event>
 4    1  0.1733772E-004  0.2943909E+03  0.7818608E-02  0.1088079E+00
         -2   -1    0    0    0  501 -0.00000000000E+00  0.00000000000E+00  0.80238190512E+01  0.80238190512E+01  0.00000000000E+00 0.  1.
          2   -1    0    0  501    0  0.00000000000E+00 -0.00000000000E+00 -0.27002725199E+04  0.27002725199E+04  0.00000000000E+00 0.  1.
         25    1    1    2    0    0  0.71668808999E+02  0.44865424356E+02 -0.14457076970E+04  0.14531414486E+04  0.12000000000E+03 0.  0.
         25    1    1    2    0    0 -0.71668808999E+02 -0.44865424356E+02 -0.12465410038E+04  0.12551548903E+04  0.12000000000E+03 0.  0.
<mgrwt>
<rscale>  0 0.29439088E+03</rscale>
<asrwt>0</asrwt>
<pdfrwt beam="1">  1        2 0.41542661E+00 0.29439088E+03</pdfrwt>
<pdfrwt beam="2">  1       -2 0.12344335E-02 0.29439088E+03</pdfrwt>
<totfact> 0.48657073E+03</totfact>
</mgrwt>
</event>
<event>
 4    1  0.1733772E-004  0.3127747E+03  0.7818608E-02  0.1079023E+00
          1   -1    0    0  501    0  0.00000000000E+00  0.00000000000E+00  0.27789807785E+03  0.27789807785E+03  0.00000000000E+00 0.  1.
         -1   -1    0    0    0  501 -0.00000000000E+00 -0.00000000000E+00 -0.88007081183E+02  0.88007081183E+02  0.00000000000E+00 0.  1.
         25    1    1    2    0    0 -0.73480257845E+02  0.46075927024E+02  0.15384298427E+03  0.21351815649E+03  0.12000000000E+03 0.  0.
         25    1    1    2    0    0  0.73480257845E+02 -0.46075927024E+02  0.36048012396E+02  0.15238700254E+03  0.12000000000E+03 0.  0.
<mgrwt>
<rscale>  0 0.31277467E+03</rscale>
<asrwt>0</asrwt>
<pdfrwt beam="1">  1        1 0.42753550E-01 0.31277467E+03</pdfrwt>
<pdfrwt beam="2">  1       -1 0.13539551E-01 0.31277467E+03</pdfrwt>
<totfact> 0.36524218E+03</totfact>
</mgrwt>
</event>
<event>
 4    1  0.1733772E-004  0.2974743E+03  0.7818608E-02  0.1086510E+00
         -2   -1    0    0    0  501 -0.00000000000E+00  0.00000000000E+00  0.30951526231E+03  0.30951526231E+03  0.00000000000E+00 0.  1.
          2   -1    0    0  501    0  0.00000000000E+00 -0.00000000000E+00 -0.71475419788E+02  0.71475419788E+02  0.00000000000E+00 0.  1.
         25    1    1    2    0    0  0.56140272834E+02 -0.66010865523E+02  0.10030302764E+03  0.17880117996E+03  0.12000000000E+03 0.  0.
         25    1    1    2    0    0 -0.56140272834E+02  0.66010865523E+02  0.13773681488E+03  0.20218950213E+03  0.12000000000E+03 0.  0.
<mgrwt>
<rscale>  0 0.29747426E+03</rscale>
<asrwt>0</asrwt>
<pdfrwt beam="1">  1        2 0.10996219E-01 0.29747426E+03</pdfrwt>
<pdfrwt beam="2">  1       -2 0.47617732E-01 0.29747426E+03</pdfrwt>
<totfact> 0.24102602E+03</totfact>
</mgrwt>
</event>
<event>
 4    1  0.1733772E-004  0.2869481E+03  0.7818608E-02  0.1091953E+00
         -2   -1    0    0    0  501 -0.00000000000E+00  0.00000000000E+00  0.11902848010E+02  0.11902848010E+02  0.00000000000E+00 0.  1.
          2   -1    0    0  501    0  0.00000000000E+00 -0.00000000000E+00 -0.17294013626E+04  0.17294013626E+04  0.00000000000E+00 0.  1.
         25    1    1    2    0    0 -0.17574354374E+02  0.59571683725E+02 -0.11514907343E+04  0.11593914587E+04  0.12000000000E+03 0.  0.
         25    1    1    2    0    0  0.17574354374E+02 -0.59571683725E+02 -0.56600778029E+03  0.58191275186E+03  0.12000000000E+03 0.  0.
<mgrwt>
<rscale>  0 0.28694809E+03</rscale>
<asrwt>0</asrwt>
<pdfrwt beam="1">  1        2 0.26606153E+00 0.28694809E+03</pdfrwt>
<pdfrwt beam="2">  1       -2 0.18312089E-02 0.28694809E+03</pdfrwt>
<totfact> 0.90815538E+03</totfact>
</mgrwt>
</event>
<event>
 4    1  0.1733772E-004  0.3585724E+03  0.7818608E-02  0.1059151E+00
         -2   -1    0    0    0  501 -0.00000000000E+00  0.00000000000E+00  0.62216803613E+02  0.62216803613E+02  0.00000000000E+00 0.  1.
          2   -1    0    0  501    0  0.00000000000E+00 -0.00000000000E+00 -0.51663750798E+03  0.51663750798E+03  0.00000000000E+00 0.  1.
         25    1    1    2    0    0  0.56277610521E+01 -0.12656917720E+03 -0.16080451545E+03  0.23729627157E+03  0.12000000000E+03 0.  0.
         25    1    1    2    0    0 -0.56277610521E+01  0.12656917720E+03 -0.29361618892E+03  0.34155804003E+03  0.12000000000E+03 0.  0.
<mgrwt>
<rscale>  0 0.35857236E+03</rscale>
<asrwt>0</asrwt>
<pdfrwt beam="1">  1        2 0.79482694E-01 0.35857236E+03</pdfrwt>
<pdfrwt beam="2">  1       -2 0.95718159E-02 0.35857236E+03</pdfrwt>
<totfact> 0.42868719E+03</totfact>
</mgrwt>
</event>
<event>
 4    1  0.1733772E-004  0.2807472E+03  0.7818608E-02  0.1095282E+00
         -2   -1    0    0    0  501 -0.00000000000E+00  0.00000000000E+00  0.81290648420E+02  0.81290648420E+02  0.00000000000E+00 0. -1.
          2   -1    0    0  501    0  0.00000000000E+00 -0.00000000000E+00 -0.24239867865E+03  0.24239867865E+03  0.00000000000E+00 0. -1.
         25    1    1    2    0    0 -0.22546868304E+02 -0.36971579292E+02 -0.14807325354E+03  0.19545062640E+03  0.12000000000E+03 0.  0.
         25    1    1    2    0    0  0.22546868304E+02  0.36971579292E+02 -0.13034776686E+02  0.12823870067E+03  0.12000000000E+03 0.  0.
<mgrwt>
<rscale>  0 0.28074719E+03</rscale>
<asrwt>0</asrwt>
<pdfrwt beam="1">  1        2 0.37292104E-01 0.28074719E+03</pdfrwt>
<pdfrwt beam="2">  1       -2 0.12506254E-01 0.28074719E+03</pdfrwt>
<totfact> 0.63355050E+03</totfact>
</mgrwt>
</event>
<event>
 4    1  0.1733772E-004  0.3531910E+03  0.7818608E-02  0.1061313E+00
         -1   -1    0    0    0  501 -0.00000000000E+00  0.00000000000E+00  0.21538689284E+02  0.21538689284E+02  0.00000000000E+00 0.  1.
          1   -1    0    0  501    0  0.00000000000E+00 -0.00000000000E+00 -0.14479051002E+04  0.14479051002E+04  0.00000000000E+00 0.  1.
         25    1    1    2    0    0 -0.10724075556E+03  0.14696773571E+02 -0.10094082118E+04  0.10222629372E+04  0.12000000000E+03 0.  0.
         25    1    1    2    0    0  0.10724075556E+03 -0.14696773571E+02 -0.41695819918E+03  0.44718085230E+03  0.12000000000E+03 0.  0.
<mgrwt>
<rscale>  0 0.35319104E+03</rscale>
<asrwt>0</asrwt>
<pdfrwt beam="1">  1        1 0.22275462E+00 0.35319104E+03</pdfrwt>
<pdfrwt beam="2">  1       -1 0.33136446E-02 0.35319104E+03</pdfrwt>
<totfact> 0.25238713E+03</totfact>
</mgrwt>
</event>
<event>
 4    1  0.1733772E-004  0.2846379E+03  0.7818608E-02  0.1093182E+00
         -2   -1    0    0    0  501 -0.00000000000E+00  0.00000000000E+00  0.12311711762E+03  0.12311711762E+03  0.00000000000E+00 0.  1.
          2   -1    0    0  501    0  0.00000000000E+00 -0.00000000000E+00 -0.16451553271E+03  0.16451553271E+03  0.00000000000E+00 0.  1.
         25    1    1    2    0    0  0.65505303099E+02 -0.11117136547E+02 -0.59047698796E+02  0.14933574988E+03  0.12000000000E+03 0.  0.
         25    1    1    2    0    0 -0.65505303099E+02  0.11117136547E+02  0.17649283708E+02  0.13829690045E+03  0.12000000000E+03 0.  0.
<mgrwt>
<rscale>  0 0.28463786E+03</rscale>
<asrwt>0</asrwt>
<pdfrwt beam="1">  1        2 0.25310082E-01 0.28463786E+03</pdfrwt>
<pdfrwt beam="2">  1       -2 0.18941095E-01 0.28463786E+03</pdfrwt>
<totfact> 0.48718863E+03</totfact>
</mgrwt>
</event>
<event>
 4    1  0.1733772E-004  0.2694946E+03  0.7818608E-02  0.1101569E+00
          2   -1    0    0  501    0  0.00000000000E+00  0.00000000000E+00  0.60642520428E+03  0.60642520428E+03  0.00000000000E+00 0. -1.
         -2   -1    0    0    0  501 -0.00000000000E+00 -0.00000000000E+00 -0.29940766716E+02  0.29940766716E+02  0.00000000000E+00 0. -1.
         25    1    1    2    0    0 -0.17574209116E+02 -0.26835047460E+02  0.41157205300E+03  0.42990758007E+03  0.12000000000E+03 0.  0.
         25    1    1    2    0    0  0.17574209116E+02  0.26835047460E+02  0.16491238457E+03  0.20645839092E+03  0.12000000000E+03 0.  0.
<mgrwt>
<rscale>  0 0.26949461E+03</rscale>
<asrwt>0</asrwt>
<pdfrwt beam="1">  1        2 0.93296176E-01 0.26949461E+03</pdfrwt>
<pdfrwt beam="2">  1       -2 0.46062723E-02 0.26949461E+03</pdfrwt>
<totfact> 0.10991818E+04</totfact>
</mgrwt>
</event>
<event>
 4    1  0.1733772E-004  0.3099805E+03  0.7818608E-02  0.1080355E+00
          2   -1    0    0  501    0  0.00000000000E+00  0.00000000000E+00  0.49367245557E+02  0.49367245557E+02  0.00000000000E+00 0. -1.
         -2   -1    0    0    0  501 -0.00000000000E+00 -0.00000000000E+00 -0.48659736497E+03  0.48659736497E+03  0.00000000000E+00 0. -1.
         25    1    1    2    0    0 -0.18245878453E+02 -0.39093539306E+02 -0.66296167457E+02  0.14372334089E+03  0.12000000000E+03 0.  0.
         25    1    1    2    0    0  0.18245878453E+02  0.39093539306E+02 -0.37093395196E+03  0.39224126964E+03  0.12000000000E+03 0.  0.
<mgrwt>
<rscale>  0 0.30998046E+03</rscale>
<asrwt>0</asrwt>
<pdfrwt beam="1">  1        2 0.75949611E-02 0.30998046E+03</pdfrwt>
<pdfrwt beam="2">  1       -2 0.74861130E-01 0.30998046E+03</pdfrwt>
<totfact> 0.15025626E+03</totfact>
</mgrwt>
</event>
<event>
 4    1  0.1733772E-004  0.2832696E+03  0.7818608E-02  0.1093916E+00
         -2   -1    0    0    0  501 -0.00000000000E+00  0.00000000000E+00  0.18011808255E+02  0.18011808255E+02  0.00000000000E+00 0.  1.
          2   -1    0    0  501    0  0.00000000000E+00 -0.00000000000E+00 -0.11137369210E+04  0.11137369210E+04  0.00000000000E+00 0.  1.
         25    1    1    2    0    0 -0.68345082349E+02 -0.87919353241E-01 -0.42219396205E+03  0.44420580771E+03  0.12000000000E+03 0.  0.
         25    1    1    2    0    0  0.68345082349E+02  0.87919353241E-01 -0.67353115071E+03  0.68754292156E+03  0.12000000000E+03 0.  0.
<mgrwt>
<rscale>  0 0.28326960E+03</rscale>
<asrwt>0</asrwt>
<pdfrwt beam="1">  1        2 0.17134412E+00 0.28326960E+03</pdfrwt>
<pdfrwt beam="2">  1       -2 0.27710479E-02 0.28326960E+03</pdfrwt>
<totfact> 0.10684499E+04</totfact>
</mgrwt>
</event>
<event>
 4    1  0.1733772E-004  0.2796855E+03  0.7818608E-02  0.1095861E+00
         -1   -1    0    0    0  501 -0.00000000000E+00  0.00000000000E+00  0.45986683365E+02  0.45986683365E+02  0.00000000000E+00 0. -1.
          1   -1    0    0  501    0  0.00000000000E+00 -0.00000000000E+00 -0.42525332111E+03  0.42525332111E+03  0.00000000000E+00 0. -1.
         25    1    1    2    0    0 -0.63800445579E+02 -0.32882471168E+02 -0.18616552402E+03  0.23282902761E+03  0.12000000000E+03 0.  0.
         25    1    1    2    0    0  0.63800445579E+02  0.32882471168E+02 -0.19310111373E+03  0.23841097686E+03  0.12000000000E+03 0.  0.
<mgrwt>
<rscale>  0 0.27968546E+03</rscale>
<asrwt>0</asrwt>
<pdfrwt beam="1">  1        1 0.65423587E-01 0.27968546E+03</pdfrwt>
<pdfrwt beam="2">  1       -1 0.70748745E-02 0.27968546E+03</pdfrwt>
<totfact> 0.57889516E+03</totfact>
</mgrwt>
</event>
<event>
 4    1  0.1733772E-004  0.2891424E+03  0.7818608E-02  0.1090798E+00
         -2   -1    0    0    0  501 -0.00000000000E+00  0.00000000000E+00  0.14663006206E+02  0.14663006206E+02  0.00000000000E+00 0. -1.
          2   -1    0    0  501    0  0.00000000000E+00 -0.00000000000E+00 -0.14254127838E+04  0.14254127838E+04  0.00000000000E+00 0. -1.
         25    1    1    2    0    0  0.41951893596E+02  0.39865707972E+02 -0.42577364669E+03  0.44613051259E+03  0.12000000000E+03 0.  0.
         25    1    1    2    0    0 -0.41951893596E+02 -0.39865707972E+02 -0.98497613091E+03  0.99394527743E+03  0.12000000000E+03 0.  0.
<mgrwt>
<rscale>  0 0.28914243E+03</rscale>
<asrwt>0</asrwt>
<pdfrwt beam="1">  1        2 0.21929442E+00 0.28914243E+03</pdfrwt>
<pdfrwt beam="2">  1       -2 0.22558456E-02 0.28914243E+03</pdfrwt>
<totfact> 0.96977772E+03</totfact>
</mgrwt>
</event>
<event>
 4    1  0.1733772E-004  0.2976833E+03  0.7818608E-02  0.1086404E+00
          2   -1    0    0  501    0  0.00000000000E+00  0.00000000000E+00  0.12658867007E+03  0.12658867007E+03  0.00000000000E+00 0. -1.
         -2   -1    0    0    0  501 -0.00000000000E+00 -0.00000000000E+00 -0.17500647775E+03  0.17500647775E+03  0.00000000000E+00 0. -1.
         25    1    1    2    0    0 -0.70125683308E+02  0.26710104389E+02 -0.70888169806E+02  0.15829142034E+03  0.12000000000E+03 0.  0.
         25    1    1    2    0    0  0.70125683308E+02 -0.26710104389E+02  0.22470362122E+02  0.14330372748E+03  0.12000000000E+03 0.  0.
<mgrwt>
<rscale>  0 0.29768330E+03</rscale>
<asrwt>0</asrwt>
<pdfrwt beam="1">  1        2 0.19475180E-01 0.29768330E+03</pdfrwt>
<pdfrwt beam="2">  1       -2 0.26924073E-01 0.29768330E+03</pdfrwt>
<totfact> 0.35581566E+03</totfact>
</mgrwt>
</event>
<event>
 4    1  0.1733772E-004  0.2542264E+03  0.7818608E-02  0.1110663E+00
          2   -1    0    0  501    0  0.00000000000E+00  0.00000000000E+00  0.15847443434E+04  0.15847443434E+04  0.00000000000E+00 0. -1.
         -2   -1    0    0    0  501 -0.00000000000E+00 -0.00000000000E+00 -0.10195815835E+02  0.10195815835E+02  0.00000000000E+00 0. -1.
         25    1    1    2    0    0 -0.12835503963E+02  0.38693344434E+02  0.84869132885E+03  0.85810191512E+03  0.12000000000E+03 0.  0.
         25    1    1    2    0    0  0.12835503963E+02 -0.38693344434E+02  0.72585719875E+03  0.73683824415E+03  0.12000000000E+03 0.  0.
<mgrwt>
<rscale>  0 0.25422637E+03</rscale>
<asrwt>0</asrwt>
<pdfrwt beam="1">  1        2 0.24380663E+00 0.25422637E+03</pdfrwt>
<pdfrwt beam="2">  1       -2 0.15685883E-02 0.25422637E+03</pdfrwt>
<totfact> 0.13551793E+04</totfact>
</mgrwt>
</event>
<event>
 4    1  0.1733772E-004  0.2592937E+03  0.7818608E-02  0.1107568E+00
         -2   -1    0    0    0  501 -0.00000000000E+00  0.00000000000E+00  0.11781445182E+03  0.11781445182E+03  0.00000000000E+00 0. -1.
          2   -1    0    0  501    0  0.00000000000E+00 -0.00000000000E+00 -0.14266756983E+03  0.14266756983E+03  0.00000000000E+00 0. -1.
         25    1    1    2    0    0 -0.27558195608E+02  0.36904786433E+02  0.45887210329E+01  0.12861754844E+03  0.12000000000E+03 0.  0.
         25    1    1    2    0    0  0.27558195608E+02 -0.36904786433E+02 -0.29441839041E+02  0.13186447320E+03  0.12000000000E+03 0.  0.
<mgrwt>
<rscale>  0 0.25929367E+03</rscale>
<asrwt>0</asrwt>
<pdfrwt beam="1">  1        2 0.21948857E-01 0.25929367E+03</pdfrwt>
<pdfrwt beam="2">  1       -2 0.18125300E-01 0.25929367E+03</pdfrwt>
<totfact> 0.61401470E+03</totfact>
</mgrwt>
</event>
<event>
 4    1  0.1733772E-004  0.4412818E+03  0.7818608E-02  0.1030354E+00
         -2   -1    0    0    0  501 -0.00000000000E+00  0.00000000000E+00  0.10430283867E+03  0.10430283867E+03  0.00000000000E+00 0. -1.
          2   -1    0    0  501    0  0.00000000000E+00 -0.00000000000E+00 -0.46674106109E+03  0.46674106109E+03  0.00000000000E+00 0. -1.
         25    1    1    2    0    0 -0.30835350303E+02  0.16969376409E+03 -0.94068184059E+02  0.23020776627E+03  0.12000000000E+03 0.  0.
         25    1    1    2    0    0  0.30835350303E+02 -0.16969376409E+03 -0.26837003836E+03  0.34083613349E+03  0.12000000000E+03 0.  0.
<mgrwt>
<rscale>  0 0.44128185E+03</rscale>
<asrwt>0</asrwt>
<pdfrwt beam="1">  1        2 0.71806317E-01 0.44128185E+03</pdfrwt>
<pdfrwt beam="2">  1       -2 0.16046591E-01 0.44128185E+03</pdfrwt>
<totfact> 0.20700297E+03</totfact>
</mgrwt>
</event>
<event>
 4    1  0.1733772E-004  0.3000188E+03  0.7818608E-02  0.1085231E+00
         -1   -1    0    0    0  501 -0.00000000000E+00  0.00000000000E+00  0.95064355052E+02  0.95064355052E+02  0.00000000000E+00 0. -1.
          1   -1    0    0  501    0  0.00000000000E+00 -0.00000000000E+00 -0.23671149682E+03  0.23671149682E+03  0.00000000000E+00 0. -1.
         25    1    1    2    0    0  0.36287700394E+02 -0.13884946875E+02 -0.16061721279E+03  0.20422408769E+03  0.12000000000E+03 0.  0.
         25    1    1    2    0    0 -0.36287700394E+02  0.13884946875E+02  0.18970071026E+02  0.12755176418E+03  0.12000000000E+03 0.  0.
<mgrwt>
<rscale>  0 0.30001884E+03</rscale>
<asrwt>0</asrwt>
<pdfrwt beam="1">  1        1 0.36417153E-01 0.30001884E+03</pdfrwt>
<pdfrwt beam="2">  1       -1 0.14625286E-01 0.30001884E+03</pdfrwt>
<totfact> 0.39522147E+03</totfact>
</mgrwt>
</event>
<event>
 4    1  0.1733772E-004  0.3264300E+03  0.7818608E-02  0.1072727E+00
          2   -1    0    0  501    0  0.00000000000E+00  0.00000000000E+00  0.14742131059E+04  0.14742131059E+04  0.00000000000E+00 0. -1.
         -2   -1    0    0    0  501 -0.00000000000E+00 -0.00000000000E+00 -0.18070072943E+02  0.18070072943E+02  0.00000000000E+00 0. -1.
         25    1    1    2    0    0 -0.16150857562E+02  0.10889886251E+03  0.77800921506E+03  0.79486989575E+03  0.12000000000E+03 0.  0.
         25    1    1    2    0    0  0.16150857562E+02 -0.10889886251E+03  0.67813381787E+03  0.69741328306E+03  0.12000000000E+03 0.  0.
<mgrwt>
<rscale>  0 0.32643001E+03</rscale>
<asrwt>0</asrwt>
<pdfrwt beam="1">  1        2 0.22680192E+00 0.32643001E+03</pdfrwt>
<pdfrwt beam="2">  1       -2 0.27800124E-02 0.32643001E+03</pdfrwt>
<totfact> 0.67027250E+03</totfact>
</mgrwt>
</event>
<event>
 4    1  0.1733772E-004  0.4777406E+03  0.7818608E-02  0.1019758E+00
         -1   -1    0    0    0  501 -0.00000000000E+00  0.00000000000E+00  0.86942144077E+02  0.86942144077E+02  0.00000000000E+00 0.  1.
          1   -1    0    0  501    0  0.00000000000E+00 -0.00000000000E+00 -0.65628719973E+03  0.65628719973E+03  0.00000000000E+00 0.  1.
         25    1    1    2    0    0 -0.10319728266E+03  0.11127855662E+03 -0.50261970883E+03  0.53857141403E+03  0.12000000000E+03 0.  0.
         25    1    1    2    0    0  0.10319728266E+03 -0.11127855662E+03 -0.66725346828E+02  0.20465792978E+03  0.12000000000E+03 0.  0.
<mgrwt>
<rscale>  0 0.47774058E+03</rscale>
<asrwt>0</asrwt>
<pdfrwt beam="1">  1        1 0.10096726E+00 0.47774058E+03</pdfrwt>
<pdfrwt beam="2">  1       -1 0.13375714E-01 0.47774058E+03</pdfrwt>
<totfact> 0.11954626E+03</totfact>
</mgrwt>
</event>
<event>
 4    1  0.1733772E-004  0.3989395E+03  0.7818608E-02  0.1044147E+00
         -2   -1    0    0    0  501 -0.00000000000E+00  0.00000000000E+00  0.23010626856E+02  0.23010626856E+02  0.00000000000E+00 0.  1.
          2   -1    0    0  501    0  0.00000000000E+00 -0.00000000000E+00 -0.17291223455E+04  0.17291223455E+04  0.00000000000E+00 0.  1.
         25    1    1    2    0    0  0.47835038910E+02  0.79235813648E+02 -0.14226883007E+04  0.14307370499E+04  0.12000000000E+03 0.  0.
         25    1    1    2    0    0 -0.47835038910E+02 -0.79235813648E+02 -0.28342341799E+03  0.32139592246E+03  0.12000000000E+03 0.  0.
<mgrwt>
<rscale>  0 0.39893954E+03</rscale>
<asrwt>0</asrwt>
<pdfrwt beam="1">  1        2 0.26601880E+00 0.39893954E+03</pdfrwt>
<pdfrwt beam="2">  1       -2 0.35400967E-02 0.39893954E+03</pdfrwt>
<totfact> 0.34023616E+03</totfact>
</mgrwt>
</event>
<event>
 4    1  0.1733772E-004  0.2620088E+03  0.7818608E-02  0.1105942E+00
         -1   -1    0    0    0  501 -0.00000000000E+00  0.00000000000E+00  0.18635622135E+03  0.18635622135E+03  0.00000000000E+00 0. -1.
          1   -1    0    0  501    0  0.00000000000E+00 -0.00000000000E+00 -0.92093264104E+02  0.92093264104E+02  0.00000000000E+00 0. -1.
         25    1    1    2    0    0  0.26199008231E+01 -0.43090833709E+02  0.15276151987E+02  0.12844082159E+03  0.12000000000E+03 0.  0.
         25    1    1    2    0    0 -0.26199008231E+01  0.43090833709E+02  0.78986805255E+02  0.15000866386E+03  0.12000000000E+03 0.  0.
<mgrwt>
<rscale>  0 0.26200880E+03</rscale>
<asrwt>0</asrwt>
<pdfrwt beam="1">  1        1 0.14168195E-01 0.26200880E+03</pdfrwt>
<pdfrwt beam="2">  1       -1 0.28670188E-01 0.26200880E+03</pdfrwt>
<totfact> 0.44012191E+03</totfact>
</mgrwt>
</event>
<event>
 4    1  0.1733772E-004  0.4446252E+03  0.7818608E-02  0.1029337E+00
          2   -1    0    0  501    0  0.00000000000E+00  0.00000000000E+00  0.60960753968E+03  0.60960753968E+03  0.00000000000E+00 0. -1.
         -2   -1    0    0    0  501 -0.00000000000E+00 -0.00000000000E+00 -0.81073282436E+02  0.81073282436E+02  0.00000000000E+00 0. -1.
         25    1    1    2    0    0 -0.12633975967E+03 -0.69711367617E+02  0.44938573788E+03  0.48699994975E+03  0.12000000000E+03 0.  0.
         25    1    1    2    0    0  0.12633975967E+03  0.69711367617E+02  0.79148519367E+02  0.20368087236E+03  0.12000000000E+03 0.  0.
<mgrwt>
<rscale>  0 0.44462516E+03</rscale>
<asrwt>0</asrwt>
<pdfrwt beam="1">  1        2 0.93785772E-01 0.44462516E+03</pdfrwt>
<pdfrwt beam="2">  1       -2 0.12472813E-01 0.44462516E+03</pdfrwt>
<totfact> 0.23114923E+03</totfact>
</mgrwt>
</event>
<event>
 4    1  0.1733772E-004  0.2764727E+03  0.7818608E-02  0.1097631E+00
          2   -1    0    0  501    0  0.00000000000E+00  0.00000000000E+00  0.16479782491E+03  0.16479782491E+03  0.00000000000E+00 0.  1.
         -2   -1    0    0    0  501 -0.00000000000E+00 -0.00000000000E+00 -0.11595597405E+03  0.11595597405E+03  0.00000000000E+00 0.  1.
         25    1    1    2    0    0  0.33370741620E+02 -0.42714229348E+02 -0.18316145920E+02  0.13294206628E+03  0.12000000000E+03 0.  0.
         25    1    1    2    0    0 -0.33370741620E+02  0.42714229348E+02  0.67157996787E+02  0.14781173268E+03  0.12000000000E+03 0.  0.
<mgrwt>
<rscale>  0 0.27647273E+03</rscale>
<asrwt>0</asrwt>
<pdfrwt beam="1">  1        2 0.25353512E-01 0.27647273E+03</pdfrwt>
<pdfrwt beam="2">  1       -2 0.17839381E-01 0.27647273E+03</pdfrwt>
<totfact> 0.53764072E+03</totfact>
</mgrwt>
</event>
<event>
 4    1  0.1733772E-004  0.2518031E+03  0.7818608E-02  0.1112171E+00
         -1   -1    0    0    0  501 -0.00000000000E+00  0.00000000000E+00  0.10293438404E+03  0.10293438404E+03  0.00000000000E+00 0.  1.
          1   -1    0    0  501    0  0.00000000000E+00 -0.00000000000E+00 -0.15399328584E+03  0.15399328584E+03  0.00000000000E+00 0.  1.
         25    1    1    2    0    0 -0.30186148496E+01 -0.35318198997E+02 -0.11291369328E+02  0.12563431950E+03  0.12000000000E+03 0.  0.
         25    1    1    2    0    0  0.30186148496E+01  0.35318198997E+02 -0.39767532468E+02  0.13129335038E+03  0.12000000000E+03 0.  0.
<mgrwt>
<rscale>  0 0.25180313E+03</rscale>
<asrwt>0</asrwt>
<pdfrwt beam="1">  1        1 0.23691275E-01 0.25180313E+03</pdfrwt>
<pdfrwt beam="2">  1       -1 0.15836059E-01 0.25180313E+03</pdfrwt>
<totfact> 0.59654125E+03</totfact>
</mgrwt>
</event>
<event>
 4    1  0.1733772E-004  0.2804171E+03  0.7818608E-02  0.1095461E+00
         -2   -1    0    0    0  501 -0.00000000000E+00  0.00000000000E+00  0.16670854654E+02  0.16670854654E+02  0.00000000000E+00 0. -1.
          2   -1    0    0  501    0  0.00000000000E+00 -0.00000000000E+00 -0.11792099707E+04  0.11792099707E+04  0.00000000000E+00 0. -1.
         25    1    1    2    0    0 -0.24001100337E+02  0.63407474820E+02 -0.47155300323E+03  0.49128280607E+03  0.12000000000E+03 0.  0.
         25    1    1    2    0    0  0.24001100337E+02 -0.63407474820E+02 -0.69098611282E+03  0.70459801929E+03  0.12000000000E+03 0.  0.
<mgrwt>
<rscale>  0 0.28041710E+03</rscale>
<asrwt>0</asrwt>
<pdfrwt beam="1">  1        2 0.18141696E+00 0.28041710E+03</pdfrwt>
<pdfrwt beam="2">  1       -2 0.25647462E-02 0.28041710E+03</pdfrwt>
<totfact> 0.10980241E+04</totfact>
</mgrwt>
</event>
<event>
 4    1  0.1733772E-004  0.3140596E+03  0.7818608E-02  0.1078416E+00
         -4   -1    0    0    0  501 -0.00000000000E+00  0.00000000000E+00  0.48014867428E+03  0.48014867428E+03  0.00000000000E+00 0.  1.
          4   -1    0    0  501    0  0.00000000000E+00 -0.00000000000E+00 -0.51355662672E+02  0.51355662672E+02  0.00000000000E+00 0.  1.
         25    1    1    2    0    0  0.96856489887E+02 -0.29121177792E+02  0.20526230853E+03  0.25838312238E+03  0.12000000000E+03 0.  0.
         25    1    1    2    0    0 -0.96856489887E+02  0.29121177792E+02  0.22353070307E+03  0.27312121457E+03  0.12000000000E+03 0.  0.
<mgrwt>
<rscale>  0 0.31405957E+03</rscale>
<asrwt>0</asrwt>
<pdfrwt beam="1">  1        4 0.79008715E-02 0.31405957E+03</pdfrwt>
<pdfrwt beam="2">  1       -4 0.73869024E-01 0.31405957E+03</pdfrwt>
<totfact> 0.36319019E+02</totfact>
</mgrwt>
</event>
<event>
 4    1  0.1733772E-004  0.3336275E+03  0.7818608E-02  0.1069543E+00
          1   -1    0    0  501    0  0.00000000000E+00  0.00000000000E+00  0.18427592922E+02  0.18427592922E+02  0.00000000000E+00 0.  1.
         -1   -1    0    0    0  501 -0.00000000000E+00 -0.00000000000E+00 -0.15100632288E+04  0.15100632288E+04  0.00000000000E+00 0.  1.
         25    1    1    2    0    0  0.64878394573E+02  0.85832879525E+02 -0.54874493256E+03  0.57192437463E+03  0.12000000000E+03 0.  0.
         25    1    1    2    0    0 -0.64878394573E+02 -0.85832879525E+02 -0.94289070330E+03  0.95656644707E+03  0.12000000000E+03 0.  0.
<mgrwt>
<rscale>  0 0.33362752E+03</rscale>
<asrwt>0</asrwt>
<pdfrwt beam="1">  1        1 0.28350140E-02 0.33362752E+03</pdfrwt>
<pdfrwt beam="2">  1       -1 0.23231744E+00 0.33362752E+03</pdfrwt>
<totfact> 0.37881829E+02</totfact>
</mgrwt>
</event>
<event>
 4    1  0.1733772E-004  0.2783799E+03  0.7818608E-02  0.1096577E+00
          2   -1    0    0  501    0  0.00000000000E+00  0.00000000000E+00  0.25720823788E+04  0.25720823788E+04  0.00000000000E+00 0.  1.
         -2   -1    0    0    0  501 -0.00000000000E+00 -0.00000000000E+00 -0.75323555918E+01  0.75323555918E+01  0.00000000000E+00 0.  1.
         25    1    1    2    0    0 -0.23265096038E+02 -0.57170695300E+02  0.15984369175E+04  0.16041229168E+04  0.12000000000E+03 0.  0.
         25    1    1    2    0    0  0.23265096038E+02  0.57170695300E+02  0.96611310569E+03  0.97549181753E+03  0.12000000000E+03 0.  0.
<mgrwt>
<rscale>  0 0.27837988E+03</rscale>
<asrwt>0</asrwt>
<pdfrwt beam="1">  1        2 0.39570428E+00 0.27837988E+03</pdfrwt>
<pdfrwt beam="2">  1       -2 0.11588260E-02 0.27837988E+03</pdfrwt>
<totfact> 0.62962864E+03</totfact>
</mgrwt>
</event>
<event>
 4    1  0.1733772E-004  0.2850430E+03  0.7818608E-02  0.1092966E+00
         -4   -1    0    0    0  501 -0.00000000000E+00  0.00000000000E+00  0.65433576575E+03  0.65433576575E+03  0.00000000000E+00 0. -1.
          4   -1    0    0  501    0  0.00000000000E+00 -0.00000000000E+00 -0.31042754291E+02  0.31042754291E+02  0.00000000000E+00 0. -1.
         25    1    1    2    0    0 -0.76577749090E+02  0.39817780145E+01  0.32532840256E+03  0.35513177234E+03  0.12000000000E+03 0.  0.
         25    1    1    2    0    0  0.76577749090E+02 -0.39817780145E+01  0.29796460890E+03  0.33024674770E+03  0.12000000000E+03 0.  0.
<mgrwt>
<rscale>  0 0.28504305E+03</rscale>
<asrwt>0</asrwt>
<pdfrwt beam="1">  1        4 0.47758088E-02 0.28504305E+03</pdfrwt>
<pdfrwt beam="2">  1       -4 0.10066703E+00 0.28504305E+03</pdfrwt>
<totfact> 0.40663032E+02</totfact>
</mgrwt>
</event>
<event>
 4    1  0.1733772E-004  0.3020046E+03  0.7818608E-02  0.1084243E+00
         -1   -1    0    0    0  501 -0.00000000000E+00  0.00000000000E+00  0.78467810016E+02  0.78467810016E+02  0.00000000000E+00 0. -1.
          1   -1    0    0  501    0  0.00000000000E+00 -0.00000000000E+00 -0.29058667301E+03  0.29058667301E+03  0.00000000000E+00 0. -1.
         25    1    1    2    0    0 -0.68492049751E+02 -0.53753185228E+02 -0.71042030627E+02  0.16440053503E+03  0.12000000000E+03 0.  0.
         25    1    1    2    0    0  0.68492049751E+02  0.53753185228E+02 -0.14107683237E+03  0.20465394800E+03  0.12000000000E+03 0.  0.
<mgrwt>
<rscale>  0 0.30200463E+03</rscale>
<asrwt>0</asrwt>
<pdfrwt beam="1">  1        1 0.44705642E-01 0.30200463E+03</pdfrwt>
<pdfrwt beam="2">  1       -1 0.12071971E-01 0.30200463E+03</pdfrwt>
<totfact> 0.41322545E+03</totfact>
</mgrwt>
</event>
<event>
 4    1  0.1733772E-004  0.4201184E+03  0.7818608E-02  0.1037028E+00
         -1   -1    0    0    0  501 -0.00000000000E+00  0.00000000000E+00  0.21609438344E+03  0.21609438344E+03  0.00000000000E+00 0. -1.
          1   -1    0    0  501    0  0.00000000000E+00 -0.00000000000E+00 -0.20419258353E+03  0.20419258353E+03  0.00000000000E+00 0. -1.
         25    1    1    2    0    0  0.13177218349E+03 -0.10344630239E+03 -0.34806390729E+02  0.20898930751E+03  0.12000000000E+03 0.  0.
         25    1    1    2    0    0 -0.13177218349E+03  0.10344630239E+03  0.46708190642E+02  0.21129765946E+03  0.12000000000E+03 0.  0.
<mgrwt>
<rscale>  0 0.42011841E+03</rscale>
<asrwt>0</asrwt>
<pdfrwt beam="1">  1        1 0.31414244E-01 0.42011841E+03</pdfrwt>
<pdfrwt beam="2">  1       -1 0.33245290E-01 0.42011841E+03</pdfrwt>
<totfact> 0.12281209E+03</totfact>
</mgrwt>
</event>
<event>
 4    1  0.1733772E-004  0.2644724E+03  0.7818608E-02  0.1104486E+00
          1   -1    0    0  501    0  0.00000000000E+00  0.00000000000E+00  0.12907936712E+03  0.12907936712E+03  0.00000000000E+00 0.  1.
         -1   -1    0    0    0  501 -0.00000000000E+00 -0.00000000000E+00 -0.13547021245E+03  0.13547021245E+03  0.00000000000E+00 0.  1.
         25    1    1    2    0    0 -0.72531362053E+01  0.27351652898E+02 -0.51018252489E+02  0.13343006778E+03  0.12000000000E+03 0.  0.
         25    1    1    2    0    0  0.72531362053E+01 -0.27351652898E+02  0.44627407158E+02  0.13111951178E+03  0.12000000000E+03 0.  0.
<mgrwt>
<rscale>  0 0.26447238E+03</rscale>
<asrwt>0</asrwt>
<pdfrwt beam="1">  1        1 0.19858364E-01 0.26447238E+03</pdfrwt>
<pdfrwt beam="2">  1       -1 0.20841571E-01 0.26447238E+03</pdfrwt>
<totfact> 0.48145049E+03</totfact>
</mgrwt>
</event>
<event>
 4    1  0.1733772E-004  0.2715749E+03  0.7818608E-02  0.1100382E+00
         -1   -1    0    0    0  501 -0.00000000000E+00  0.00000000000E+00  0.58152178275E+01  0.58152178275E+01  0.00000000000E+00 0. -1.
          1   -1    0    0  501    0  0.00000000000E+00 -0.00000000000E+00 -0.31706870104E+04  0.31706870104E+04  0.00000000000E+00 0. -1.
         25    1    1    2    0    0 -0.10718557425E+02  0.46003072798E+02 -0.10852183691E+04  0.10928540976E+04  0.12000000000E+03 0.  0.
         25    1    1    2    0    0  0.10718557425E+02 -0.46003072798E+02 -0.20796534236E+04  0.20836481306E+04  0.12000000000E+03 0.  0.
<mgrwt>
<rscale>  0 0.27157493E+03</rscale>
<asrwt>0</asrwt>
<pdfrwt beam="1">  1        1 0.48779870E+00 0.27157493E+03</pdfrwt>
<pdfrwt beam="2">  1       -1 0.89464761E-03 0.27157493E+03</pdfrwt>
<totfact> 0.12112971E+03</totfact>
</mgrwt>
</event>
<event>
 4    1  0.1733772E-004  0.2840763E+03  0.7818608E-02  0.1093483E+00
         -3   -1    0    0    0  501 -0.00000000000E+00  0.00000000000E+00  0.43210170439E+03  0.43210170439E+03  0.00000000000E+00 0. -1.
          3   -1    0    0  501    0  0.00000000000E+00 -0.00000000000E+00 -0.46690016076E+02  0.46690016076E+02  0.00000000000E+00 0. -1.
         25    1    1    2    0    0  0.12536688790E+02 -0.74933048371E+02  0.18993371826E+03  0.23716438948E+03  0.12000000000E+03 0.  0.
         25    1    1    2    0    0 -0.12536688790E+02  0.74933048371E+02  0.19547797005E+03  0.24162733099E+03  0.12000000000E+03 0.  0.
<mgrwt>
<rscale>  0 0.28407630E+03</rscale>
<asrwt>0</asrwt>
<pdfrwt beam="1">  1        3 0.71830797E-02 0.28407630E+03</pdfrwt>
<pdfrwt beam="2">  1       -3 0.66477182E-01 0.28407630E+03</pdfrwt>
<totfact> 0.71983674E+02</totfact>
</mgrwt>
</event>
<event>
 4    1  0.1733772E-004  0.3076743E+03  0.7818608E-02  0.1081466E+00
         -2   -1    0    0    0  501 -0.00000000000E+00  0.00000000000E+00  0.14827614484E+02  0.14827614484E+02  0.00000000000E+00 0.  1.
          2   -1    0    0  501    0  0.00000000000E+00 -0.00000000000E+00 -0.15960674057E+04  0.15960674057E+04  0.00000000000E+00 0.  1.
         25    1    1    2    0    0 -0.17639096461E+02 -0.94449842040E+02 -0.76010785023E+03  0.77549716593E+03  0.12000000000E+03 0.  0.
         25    1    1    2    0    0  0.17639096461E+02  0.94449842040E+02 -0.82113194100E+03  0.83539785427E+03  0.12000000000E+03 0.  0.
<mgrwt>
<rscale>  0 0.30767432E+03</rscale>
<asrwt>0</asrwt>
<pdfrwt beam="1">  1        2 0.24554884E+00 0.30767432E+03</pdfrwt>
<pdfrwt beam="2">  1       -2 0.22811714E-02 0.30767432E+03</pdfrwt>
<totfact> 0.77321406E+03</totfact>
</mgrwt>
</event>
<event>
 4    1  0.1733772E-004  0.3652841E+03  0.7818608E-02  0.1056511E+00
          1   -1    0    0  501    0  0.00000000000E+00  0.00000000000E+00  0.67514778715E+02  0.67514778715E+02  0.00000000000E+00 0.  1.
         -1   -1    0    0    0  501 -0.00000000000E+00 -0.00000000000E+00 -0.49408619894E+03  0.49408619894E+03  0.00000000000E+00 0.  1.
         25    1    1    2    0    0 -0.70324109345E+02  0.59773133177E+02 -0.56197560246E+02  0.16148211536E+03  0.12000000000E+03 0.  0.
         25    1    1    2    0    0  0.70324109345E+02 -0.59773133177E+02 -0.37037385998E+03  0.40011886229E+03  0.12000000000E+03 0.  0.
<mgrwt>
<rscale>  0 0.36528411E+03</rscale>
<asrwt>0</asrwt>
<pdfrwt beam="1">  1        1 0.10386889E-01 0.36528411E+03</pdfrwt>
<pdfrwt beam="2">  1       -1 0.76013264E-01 0.36528411E+03</pdfrwt>
<totfact> 0.11089305E+03</totfact>
</mgrwt>
</event>
<event>
 4    1  0.1733772E-004  0.3117319E+03  0.7818608E-02  0.1079519E+00
         -2   -1    0    0    0  501 -0.00000000000E+00  0.00000000000E+00  0.11458731350E+04  0.11458731350E+04  0.00000000000E+00 0. -1.
          2   -1    0    0  501    0  0.00000000000E+00 -0.00000000000E+00 -0.21201471117E+02  0.21201471117E+02  0.00000000000E+00 0. -1.
         25    1    1    2    0    0 -0.86853528311E+02 -0.48427108531E+02  0.57109670303E+03  0.59197986827E+03  0.12000000000E+03 0.  0.
         25    1    1    2    0    0  0.86853528311E+02  0.48427108531E+02  0.55357496085E+03  0.57509473785E+03  0.12000000000E+03 0.  0.
<mgrwt>
<rscale>  0 0.31173191E+03</rscale>
<asrwt>0</asrwt>
<pdfrwt beam="1">  1        2 0.32617657E-02 0.31173191E+03</pdfrwt>
<pdfrwt beam="2">  1       -2 0.17628813E+00 0.31173191E+03</pdfrwt>
<totfact> 0.57758632E+02</totfact>
</mgrwt>
</event>
<event>
 4    1  0.1733772E-004  0.2873934E+03  0.7818608E-02  0.1091718E+00
          2   -1    0    0  501    0  0.00000000000E+00  0.00000000000E+00  0.39408898453E+03  0.39408898453E+03  0.00000000000E+00 0. -1.
         -2   -1    0    0    0  501 -0.00000000000E+00 -0.00000000000E+00 -0.52396127409E+02  0.52396127409E+02  0.00000000000E+00 0. -1.
         25    1    1    2    0    0  0.65840445713E+02 -0.26373894341E+02  0.22506995611E+03  0.26473955454E+03  0.12000000000E+03 0.  0.
         25    1    1    2    0    0 -0.65840445713E+02  0.26373894341E+02  0.11662290102E+03  0.18174555740E+03  0.12000000000E+03 0.  0.
<mgrwt>
<rscale>  0 0.28739337E+03</rscale>
<asrwt>0</asrwt>
<pdfrwt beam="1">  1        2 0.60629073E-01 0.28739337E+03</pdfrwt>
<pdfrwt beam="2">  1       -2 0.80609429E-02 0.28739337E+03</pdfrwt>
<totfact> 0.75490771E+03</totfact>
</mgrwt>
</event>
<event>
 4    1  0.1733772E-004  0.2453586E+03  0.7818608E-02  0.1116274E+00
          2   -1    0    0  501    0  0.00000000000E+00  0.00000000000E+00  0.38184726575E+03  0.38184726575E+03  0.00000000000E+00 0. -1.
         -2   -1    0    0    0  501 -0.00000000000E+00 -0.00000000000E+00 -0.39414202521E+02  0.39414202521E+02  0.00000000000E+00 0. -1.
         25    1    1    2    0    0 -0.24689454664E+02 -0.53651875928E+01  0.16530596617E+03  0.20582618118E+03  0.12000000000E+03 0.  0.
         25    1    1    2    0    0  0.24689454664E+02  0.53651875928E+01  0.17712709706E+03  0.21543528709E+03  0.12000000000E+03 0.  0.
<mgrwt>
<rscale>  0 0.24535856E+03</rscale>
<asrwt>0</asrwt>
<pdfrwt beam="1">  1        2 0.58745731E-01 0.24535856E+03</pdfrwt>
<pdfrwt beam="2">  1       -2 0.60637237E-02 0.24535856E+03</pdfrwt>
<totfact> 0.12057913E+04</totfact>
</mgrwt>
</event>
<event>
 4    1  0.1733772E-004  0.3345723E+03  0.7818608E-02  0.1069132E+00
         -1   -1    0    0    0  501 -0.00000000000E+00  0.00000000000E+00  0.10647290948E+03  0.10647290948E+03  0.00000000000E+00 0.  1.
          1   -1    0    0  501    0  0.00000000000E+00 -0.00000000000E+00 -0.26283353193E+03  0.26283353193E+03  0.00000000000E+00 0.  1.
         25    1    1    2    0    0 -0.35737239132E+02 -0.17369877002E+02 -0.19912652437E+03  0.23586062748E+03  0.12000000000E+03 0.  0.
         25    1    1    2    0    0  0.35737239132E+02  0.17369877002E+02  0.42765901917E+02  0.13344581393E+03  0.12000000000E+03 0.  0.
<mgrwt>
<rscale>  0 0.33457227E+03</rscale>
<asrwt>0</asrwt>
<pdfrwt beam="1">  1        1 0.40435928E-01 0.33457227E+03</pdfrwt>
<pdfrwt beam="2">  1       -1 0.16380448E-01 0.33457227E+03</pdfrwt>
<totfact> 0.28969501E+03</totfact>
</mgrwt>
</event>
<event>
 4    1  0.1733772E-004  0.2575019E+03  0.7818608E-02  0.1108653E+00
          2   -1    0    0  501    0  0.00000000000E+00  0.00000000000E+00  0.28102802420E+03  0.28102802420E+03  0.00000000000E+00 0.  1.
         -2   -1    0    0    0  501 -0.00000000000E+00 -0.00000000000E+00 -0.58986325257E+02  0.58986325257E+02  0.00000000000E+00 0.  1.
         25    1    1    2    0    0  0.12664569554E+01 -0.23406198827E+02  0.57753866330E+02  0.13522190330E+03  0.12000000000E+03 0.  0.
         25    1    1    2    0    0 -0.12664569554E+01  0.23406198827E+02  0.16428783261E+03  0.20479244615E+03  0.12000000000E+03 0.  0.
<mgrwt>
<rscale>  0 0.25750193E+03</rscale>
<asrwt>0</asrwt>
<pdfrwt beam="1">  1        2 0.43235080E-01 0.25750193E+03</pdfrwt>
<pdfrwt beam="2">  1       -2 0.90748194E-02 0.25750193E+03</pdfrwt>
<totfact> 0.89867820E+03</totfact>
</mgrwt>
</event>
<event>
 4    1  0.1733772E-004  0.2795768E+03  0.7818608E-02  0.1095920E+00
         -2   -1    0    0    0  501 -0.00000000000E+00  0.00000000000E+00  0.87487711449E+02  0.87487711449E+02  0.00000000000E+00 0.  1.
          2   -1    0    0  501    0  0.00000000000E+00 -0.00000000000E+00 -0.22335468796E+03  0.22335468796E+03  0.00000000000E+00 0.  1.
         25    1    1    2    0    0  0.42195430283E+02 -0.57916125133E+02 -0.70670177322E+02  0.15661738681E+03  0.12000000000E+03 0.  0.
         25    1    1    2    0    0 -0.42195430283E+02  0.57916125133E+02 -0.65196799187E+02  0.15422501260E+03  0.12000000000E+03 0.  0.
<mgrwt>
<rscale>  0 0.27957676E+03</rscale>
<asrwt>0</asrwt>
<pdfrwt beam="1">  1        2 0.34362260E-01 0.27957676E+03</pdfrwt>
<pdfrwt beam="2">  1       -2 0.13459648E-01 0.27957676E+03</pdfrwt>
<totfact> 0.61423758E+03</totfact>
</mgrwt>
</event>
<event>
 4    1  0.1733772E-004  0.3810942E+03  0.7818608E-02  0.1050530E+00
         -2   -1    0    0    0  501 -0.00000000000E+00  0.00000000000E+00  0.13857237520E+03  0.13857237520E+03  0.00000000000E+00 0. -1.
          2   -1    0    0  501    0  0.00000000000E+00 -0.00000000000E+00 -0.26201618637E+03  0.26201618637E+03  0.00000000000E+00 0. -1.
         25    1    1    2    0    0  0.13564122452E+03  0.85833726171E+01 -0.12333770013E+03  0.21928156409E+03  0.12000000000E+03 0.  0.
         25    1    1    2    0    0 -0.13564122452E+03 -0.85833726171E+01 -0.10611104397E+00  0.18130699748E+03  0.12000000000E+03 0.  0.
<mgrwt>
<rscale>  0 0.38109424E+03</rscale>
<asrwt>0</asrwt>
<pdfrwt beam="1">  1        2 0.40310183E-01 0.38109424E+03</pdfrwt>
<pdfrwt beam="2">  1       -2 0.21318827E-01 0.38109424E+03</pdfrwt>
<totfact> 0.23980320E+03</totfact>
</mgrwt>
</event>
<event>
 4    1  0.1733772E-004  0.2468866E+03  0.7818608E-02  0.1115288E+00
         -2   -1    0    0    0  501 -0.00000000000E+00  0.00000000000E+00  0.11313122551E+02  0.11313122551E+02  0.00000000000E+00 0. -1.
          2   -1    0    0  501    0  0.00000000000E+00 -0.00000000000E+00 -0.13469528703E+04  0.13469528703E+04  0.00000000000E+00 0. -1.
         25    1    1    2    0    0 -0.18424006673E+02 -0.22084063954E+02 -0.68614351109E+03  0.69715139512E+03  0.12000000000E+03 0.  0.
         25    1    1    2    0    0  0.18424006673E+02  0.22084063954E+02 -0.64949623668E+03  0.66111459775E+03  0.12000000000E+03 0.  0.
<mgrwt>
<rscale>  0 0.24688656E+03</rscale>
<asrwt>0</asrwt>
<pdfrwt beam="1">  1        2 0.20722354E+00 0.24688656E+03</pdfrwt>
<pdfrwt beam="2">  1       -2 0.17404802E-02 0.24688656E+03</pdfrwt>
<totfact> 0.15600485E+04</totfact>
</mgrwt>
</event>
<event>
 4    1  0.1733772E-004  0.3474788E+03  0.7818608E-02  0.1063655E+00
          2   -1    0    0  501    0  0.00000000000E+00  0.00000000000E+00  0.21802374787E+03  0.21802374787E+03  0.00000000000E+00 0.  1.
         -2   -1    0    0    0  501 -0.00000000000E+00 -0.00000000000E+00 -0.13844998751E+03  0.13844998751E+03  0.00000000000E+00 0.  1.
         25    1    1    2    0    0  0.20198708538E+02  0.10852511762E+03  0.10133745378E+03  0.19197647908E+03  0.12000000000E+03 0.  0.
         25    1    1    2    0    0 -0.20198708538E+02 -0.10852511762E+03 -0.21763693425E+02  0.16449725630E+03  0.12000000000E+03 0.  0.
<mgrwt>
<rscale>  0 0.34747883E+03</rscale>
<asrwt>0</asrwt>
<pdfrwt beam="1">  1        2 0.33542115E-01 0.34747883E+03</pdfrwt>
<pdfrwt beam="2">  1       -2 0.21299998E-01 0.34747883E+03</pdfrwt>
<totfact> 0.29317853E+03</totfact>
</mgrwt>
</event>
<event>
 4    1  0.1733772E-004  0.4824553E+03  0.7818608E-02  0.1018463E+00
          2   -1    0    0  501    0  0.00000000000E+00  0.00000000000E+00  0.29243759486E+03  0.29243759486E+03  0.00000000000E+00 0. -1.
         -2   -1    0    0    0  501 -0.00000000000E+00 -0.00000000000E+00 -0.19898525963E+03  0.19898525963E+03  0.00000000000E+00 0. -1.
         25    1    1    2    0    0 -0.17847523768E+02  0.19688678730E+03  0.11661514216E+03  0.25900199324E+03  0.12000000000E+03 0.  0.
         25    1    1    2    0    0  0.17847523768E+02 -0.19688678730E+03 -0.23162806940E+02  0.23242086125E+03  0.12000000000E+03 0.  0.
<mgrwt>
<rscale>  0 0.48245527E+03</rscale>
<asrwt>0</asrwt>
<pdfrwt beam="1">  1        2 0.44990399E-01 0.48245527E+03</pdfrwt>
<pdfrwt beam="2">  1       -2 0.30613117E-01 0.48245527E+03</pdfrwt>
<totfact> 0.11149577E+03</totfact>
</mgrwt>
</event>
<event>
 4    1  0.1733772E-004  0.2886052E+03  0.7818608E-02  0.1091080E+00
          4   -1    0    0  501    0  0.00000000000E+00  0.00000000000E+00  0.28018063658E+03  0.28018063658E+03  0.00000000000E+00 0. -1.
         -4   -1    0    0    0  501 -0.00000000000E+00 -0.00000000000E+00 -0.74320758472E+02  0.74320758472E+02  0.00000000000E+00 0. -1.
         25    1    1    2    0    0  0.33459796660E+02  0.32074823685E+02  0.22618750856E+02  0.13061378257E+03  0.12000000000E+03 0.  0.
         25    1    1    2    0    0 -0.33459796660E+02 -0.32074823685E+02  0.18324112725E+03  0.22388761248E+03  0.12000000000E+03 0.  0.
<mgrwt>
<rscale>  0 0.28860518E+03</rscale>
<asrwt>0</asrwt>
<pdfrwt beam="1">  1        4 0.43104713E-01 0.28860518E+03</pdfrwt>
<pdfrwt beam="2">  1       -4 0.11433963E-01 0.28860518E+03</pdfrwt>
<totfact> 0.59676550E+02</totfact>
</mgrwt>
</event>
<event>
 4    1  0.1733772E-004  0.2736897E+03  0.7818608E-02  0.1099186E+00
          4   -1    0    0  501    0  0.00000000000E+00  0.00000000000E+00  0.38270437004E+03  0.38270437004E+03  0.00000000000E+00 0.  1.
         -4   -1    0    0    0  501 -0.00000000000E+00 -0.00000000000E+00 -0.48932073362E+02  0.48932073362E+02  0.00000000000E+00 0.  1.
         25    1    1    2    0    0 -0.19172730507E+02 -0.56416238469E+02  0.21082286459E+03  0.24979324609E+03  0.12000000000E+03 0.  0.
         25    1    1    2    0    0  0.19172730507E+02  0.56416238469E+02  0.12294943209E+03  0.18184319731E+03  0.12000000000E+03 0.  0.
<mgrwt>
<rscale>  0 0.27368974E+03</rscale>
<asrwt>0</asrwt>
<pdfrwt beam="1">  1        4 0.58877593E-01 0.27368974E+03</pdfrwt>
<pdfrwt beam="2">  1       -4 0.75280115E-02 0.27368974E+03</pdfrwt>
<totfact> 0.63176272E+02</totfact>
</mgrwt>
</event>
<event>
 4    1  0.1733772E-004  0.2633597E+03  0.7818608E-02  0.1105141E+00
         -2   -1    0    0    0  501 -0.00000000000E+00  0.00000000000E+00  0.10699948489E+02  0.10699948489E+02  0.00000000000E+00 0. -1.
          2   -1    0    0  501    0  0.00000000000E+00 -0.00000000000E+00 -0.16205290925E+04  0.16205290925E+04  0.00000000000E+00 0. -1.
         25    1    1    2    0    0  0.36159676305E+02 -0.25183707975E+02 -0.60925757768E+03  0.62252432667E+03  0.12000000000E+03 0.  0.
         25    1    1    2    0    0 -0.36159676305E+02  0.25183707975E+02 -0.10005715664E+04  0.10087047144E+04  0.12000000000E+03 0.  0.
<mgrwt>
<rscale>  0 0.26335966E+03</rscale>
<asrwt>0</asrwt>
<pdfrwt beam="1">  1        2 0.24931213E+00 0.26335966E+03</pdfrwt>
<pdfrwt beam="2">  1       -2 0.16461462E-02 0.26335966E+03</pdfrwt>
<totfact> 0.12100544E+04</totfact>
</mgrwt>
</event>
<event>
 4    1  0.1733772E-004  0.3126819E+03  0.7818608E-02  0.1079067E+00
         -1   -1    0    0    0  501 -0.00000000000E+00  0.00000000000E+00  0.88641205066E+02  0.88641205066E+02  0.00000000000E+00 0.  1.
          1   -1    0    0  501    0  0.00000000000E+00 -0.00000000000E+00 -0.27574647583E+03  0.27574647583E+03  0.00000000000E+00 0.  1.
         25    1    1    2    0    0 -0.39501685758E+02 -0.81139138599E+02 -0.42774974565E+02  0.15612059902E+03  0.12000000000E+03 0.  0.
         25    1    1    2    0    0  0.39501685758E+02  0.81139138599E+02 -0.14433029620E+03  0.20826708187E+03  0.12000000000E+03 0.  0.
<mgrwt>
<rscale>  0 0.31268195E+03</rscale>
<asrwt>0</asrwt>
<pdfrwt beam="1">  1        1 0.42422534E-01 0.31268195E+03</pdfrwt>
<pdfrwt beam="2">  1       -1 0.13637109E-01 0.31268195E+03</pdfrwt>
<totfact> 0.36467260E+03</totfact>
</mgrwt>
</event>
<event>
 4    1  0.1733772E-004  0.3864074E+03  0.7818608E-02  0.1048591E+00
         -1   -1    0    0    0  501 -0.00000000000E+00  0.00000000000E+00  0.37945554395E+02  0.37945554395E+02  0.00000000000E+00 0.  1.
          1   -1    0    0  501    0  0.00000000000E+00 -0.00000000000E+00 -0.98371663205E+03  0.98371663205E+03  0.00000000000E+00 0.  1.
         25    1    1    2    0    0 -0.52034958718E+02 -0.10904230094E+03 -0.71419785184E+03  0.73421824542E+03  0.12000000000E+03 0.  0.
         25    1    1    2    0    0  0.52034958718E+02  0.10904230094E+03 -0.23157322581E+03  0.28744394103E+03  0.12000000000E+03 0.  0.
<mgrwt>
<rscale>  0 0.38640742E+03</rscale>
<asrwt>0</asrwt>
<pdfrwt beam="1">  1        1 0.15134101E+00 0.38640742E+03</pdfrwt>
<pdfrwt beam="2">  1       -1 0.58377781E-02 0.38640742E+03</pdfrwt>
<totfact> 0.22955948E+03</totfact>
</mgrwt>
</event>
<event>
 4    1  0.1733772E-004  0.2928743E+03  0.7818608E-02  0.1088858E+00
         -1   -1    0    0    0  501 -0.00000000000E+00  0.00000000000E+00  0.21214729475E+02  0.21214729475E+02  0.00000000000E+00 0. -1.
          1   -1    0    0  501    0  0.00000000000E+00 -0.00000000000E+00 -0.10107994732E+04  0.10107994732E+04  0.00000000000E+00 0. -1.
         25    1    1    2    0    0 -0.34933273689E+02  0.67113540765E+02 -0.62278127724E+03  0.63873396673E+03  0.12000000000E+03 0.  0.
         25    1    1    2    0    0  0.34933273689E+02 -0.67113540765E+02 -0.36680346647E+03  0.39328023594E+03  0.12000000000E+03 0.  0.
<mgrwt>
<rscale>  0 0.29287429E+03</rscale>
<asrwt>0</asrwt>
<pdfrwt beam="1">  1        1 0.15550757E+00 0.29287429E+03</pdfrwt>
<pdfrwt beam="2">  1       -1 0.32638055E-02 0.29287429E+03</pdfrwt>
<totfact> 0.52300532E+03</totfact>
</mgrwt>
</event>
<event>
 4    1  0.1733772E-004  0.3035261E+03  0.7818608E-02  0.1083491E+00
          2   -1    0    0  501    0  0.00000000000E+00  0.00000000000E+00  0.85562358491E+02  0.85562358491E+02  0.00000000000E+00 0.  1.
         -2   -1    0    0    0  501 -0.00000000000E+00 -0.00000000000E+00 -0.26918408739E+03  0.26918408739E+03  0.00000000000E+00 0.  1.
         25    1    1    2    0    0  0.81145479836E+02 -0.40083039318E+02 -0.67273036997E+02  0.16467209978E+03  0.12000000000E+03 0.  0.
         25    1    1    2    0    0 -0.81145479836E+02  0.40083039318E+02 -0.11634869190E+03  0.19007434610E+03  0.12000000000E+03 0.  0.
<mgrwt>
<rscale>  0 0.30352611E+03</rscale>
<asrwt>0</asrwt>
<pdfrwt beam="1">  1        2 0.13163440E-01 0.30352611E+03</pdfrwt>
<pdfrwt beam="2">  1       -2 0.41412935E-01 0.30352611E+03</pdfrwt>
<totfact> 0.25428536E+03</totfact>
</mgrwt>
</event>
<event>
 4    1  0.1733772E-004  0.3089596E+03  0.7818608E-02  0.1080846E+00
         -2   -1    0    0    0  501 -0.00000000000E+00  0.00000000000E+00  0.22907871203E+03  0.22907871203E+03  0.00000000000E+00 0.  1.
          2   -1    0    0  501    0  0.00000000000E+00 -0.00000000000E+00 -0.10417383607E+03  0.10417383607E+03  0.00000000000E+00 0.  1.
         25    1    1    2    0    0  0.37201958144E+02  0.54119454498E+02  0.13986689648E+03  0.19564163610E+03  0.12000000000E+03 0.  0.
         25    1    1    2    0    0 -0.37201958144E+02 -0.54119454498E+02 -0.14962020520E+02  0.13761091201E+03  0.12000000000E+03 0.  0.
<mgrwt>
<rscale>  0 0.30895960E+03</rscale>
<asrwt>0</asrwt>
<pdfrwt beam="1">  1        2 0.16026744E-01 0.30895960E+03</pdfrwt>
<pdfrwt beam="2">  1       -2 0.35242879E-01 0.30895960E+03</pdfrwt>
<totfact> 0.27319400E+03</totfact>
</mgrwt>
</event>
<event>
 4    1  0.1733772E-004  0.3323877E+03  0.7818608E-02  0.1070085E+00
         -2   -1    0    0    0  501 -0.00000000000E+00  0.00000000000E+00  0.93506255076E+01  0.93506255076E+01  0.00000000000E+00 0.  1.
          2   -1    0    0  501    0  0.00000000000E+00 -0.00000000000E+00 -0.29538553270E+04  0.29538553270E+04  0.00000000000E+00 0.  1.
         25    1    1    2    0    0 -0.45478907002E+00  0.11462557295E+03 -0.15525687809E+04  0.15614125170E+04  0.12000000000E+03 0.  0.
         25    1    1    2    0    0  0.45478907002E+00 -0.11462557295E+03 -0.13919359206E+04  0.14017934355E+04  0.12000000000E+03 0.  0.
<mgrwt>
<rscale>  0 0.33238770E+03</rscale>
<asrwt>0</asrwt>
<pdfrwt beam="1">  1        2 0.45443912E+00 0.33238770E+03</pdfrwt>
<pdfrwt beam="2">  1       -2 0.14385583E-02 0.33238770E+03</pdfrwt>
<totfact> 0.27674465E+03</totfact>
</mgrwt>
</event>
<event>
 4    1  0.1733772E-004  0.2604821E+03  0.7818608E-02  0.1106854E+00
         -2   -1    0    0    0  501 -0.00000000000E+00  0.00000000000E+00  0.62270363806E+02  0.62270363806E+02  0.00000000000E+00 0. -1.
          2   -1    0    0  501    0  0.00000000000E+00 -0.00000000000E+00 -0.27240454094E+03  0.27240454094E+03  0.00000000000E+00 0. -1.
         25    1    1    2    0    0  0.23869382537E+02 -0.17851417957E+02 -0.52494044116E+02  0.13432812518E+03  0.12000000000E+03 0.  0.
         25    1    1    2    0    0 -0.23869382537E+02  0.17851417957E+02 -0.15764013301E+03  0.20034677957E+03  0.12000000000E+03 0.  0.
<mgrwt>
<rscale>  0 0.26048209E+03</rscale>
<asrwt>0</asrwt>
<pdfrwt beam="1">  1        2 0.41908390E-01 0.26048209E+03</pdfrwt>
<pdfrwt beam="2">  1       -2 0.95800561E-02 0.26048209E+03</pdfrwt>
<totfact> 0.85351685E+03</totfact>
</mgrwt>
</event>
<event>
 4    1  0.1733772E-004  0.3616882E+03  0.7818608E-02  0.1057917E+00
          2   -1    0    0  501    0  0.00000000000E+00  0.00000000000E+00  0.85498431601E+03  0.85498431601E+03  0.00000000000E+00 0. -1.
         -2   -1    0    0    0  501 -0.00000000000E+00 -0.00000000000E+00 -0.38251684198E+02  0.38251684198E+02  0.00000000000E+00 0. -1.
         25    1    1    2    0    0 -0.87338466776E+02 -0.93187643415E+02  0.51860826340E+03  0.54741800804E+03  0.12000000000E+03 0.  0.
         25    1    1    2    0    0  0.87338466776E+02  0.93187643415E+02  0.29812436842E+03  0.34581799217E+03  0.12000000000E+03 0.  0.
<mgrwt>
<rscale>  0 0.36168821E+03</rscale>
<asrwt>0</asrwt>
<pdfrwt beam="1">  1        2 0.13153603E+00 0.36168821E+03</pdfrwt>
<pdfrwt beam="2">  1       -2 0.58848751E-02 0.36168821E+03</pdfrwt>
<totfact> 0.49837898E+03</totfact>
</mgrwt>
</event>
<event>
 4    1  0.1733772E-004  0.2836807E+03  0.7818608E-02  0.1093695E+00
          1   -1    0    0  501    0  0.00000000000E+00  0.00000000000E+00  0.41537388514E+02  0.41537388514E+02  0.00000000000E+00 0.  1.
         -1   -1    0    0    0  501 -0.00000000000E+00 -0.00000000000E+00 -0.48435135268E+03  0.48435135268E+03  0.00000000000E+00 0.  1.
         25    1    1    2    0    0 -0.73880623162E+02  0.10648629154E+02 -0.19893457435E+03  0.24402193478E+03  0.12000000000E+03 0.  0.
         25    1    1    2    0    0  0.73880623162E+02 -0.10648629154E+02 -0.24387938982E+03  0.28186680642E+03  0.12000000000E+03 0.  0.
<mgrwt>
<rscale>  0 0.28368074E+03</rscale>
<asrwt>0</asrwt>
<pdfrwt beam="1">  1        1 0.63903678E-02 0.28368074E+03</pdfrwt>
<pdfrwt beam="2">  1       -1 0.74515589E-01 0.28368074E+03</pdfrwt>
<totfact> 0.22346427E+03</totfact>
</mgrwt>
</event>
<event>
 4    1  0.1733772E-004  0.2757036E+03  0.7818608E-02  0.1098059E+00
         -1   -1    0    0    0  501 -0.00000000000E+00  0.00000000000E+00  0.80545887880E+01  0.80545887880E+01  0.00000000000E+00 0. -1.
          1   -1    0    0  501    0  0.00000000000E+00 -0.00000000000E+00 -0.23592907880E+04  0.23592907880E+04  0.00000000000E+00 0. -1.
         25    1    1    2    0    0 -0.45027333249E+02  0.30880829148E+02 -0.15214370196E+04  0.15271383994E+04  0.12000000000E+03 0.  0.
         25    1    1    2    0    0  0.45027333249E+02 -0.30880829148E+02 -0.82979917969E+03  0.84020697745E+03  0.12000000000E+03 0.  0.
<mgrwt>
<rscale>  0 0.27570359E+03</rscale>
<asrwt>0</asrwt>
<pdfrwt beam="1">  1        1 0.36296828E+00 0.27570359E+03</pdfrwt>
<pdfrwt beam="2">  1       -1 0.12391659E-02 0.27570359E+03</pdfrwt>
<totfact> 0.27081076E+03</totfact>
</mgrwt>
</event>
<event>
 4    1  0.1733772E-004  0.3196705E+03  0.7818608E-02  0.1075801E+00
         -2   -1    0    0    0  501 -0.00000000000E+00  0.00000000000E+00  0.20242197627E+02  0.20242197627E+02  0.00000000000E+00 0.  1.
          2   -1    0    0  501    0  0.00000000000E+00 -0.00000000000E+00 -0.12620813807E+04  0.12620813807E+04  0.00000000000E+00 0.  1.
         25    1    1    2    0    0 -0.41451384094E+02 -0.84106256663E+02 -0.42624424273E+03  0.45263255971E+03  0.12000000000E+03 0.  0.
         25    1    1    2    0    0  0.41451384094E+02  0.84106256663E+02 -0.81559494032E+03  0.82969101859E+03  0.12000000000E+03 0.  0.
<mgrwt>
<rscale>  0 0.31967046E+03</rscale>
<asrwt>0</asrwt>
<pdfrwt beam="1">  1        2 0.19416642E+00 0.31967046E+03</pdfrwt>
<pdfrwt beam="2">  1       -2 0.31141835E-02 0.31967046E+03</pdfrwt>
<totfact> 0.74002692E+03</totfact>
</mgrwt>
</event>
<event>
 4    1  0.1733772E-004  0.2902330E+03  0.7818608E-02  0.1090228E+00
          1   -1    0    0  501    0  0.00000000000E+00  0.00000000000E+00  0.30407557982E+04  0.30407557982E+04  0.00000000000E+00 0. -1.
         -1   -1    0    0    0  501 -0.00000000000E+00 -0.00000000000E+00 -0.69255136871E+01  0.69255136871E+01  0.00000000000E+00 0. -1.
         25    1    1    2    0    0 -0.68498208638E+02  0.35608833854E+02  0.17945026646E+04  0.18001666053E+04  0.12000000000E+03 0.  0.
         25    1    1    2    0    0  0.68498208638E+02 -0.35608833854E+02  0.12393276199E+04  0.12475147066E+04  0.12000000000E+03 0.  0.
<mgrwt>
<rscale>  0 0.29023298E+03</rscale>
<asrwt>0</asrwt>
<pdfrwt beam="1">  1        1 0.46780752E+00 0.29023298E+03</pdfrwt>
<pdfrwt beam="2">  1       -1 0.10654661E-02 0.29023298E+03</pdfrwt>
<totfact> 0.11606698E+03</totfact>
</mgrwt>
</event>
<event>
 4    1  0.1733772E-004  0.3592050E+03  0.7818608E-02  0.1058899E+00
          2   -1    0    0  501    0  0.00000000000E+00  0.00000000000E+00  0.76078170060E+03  0.76078170060E+03  0.00000000000E+00 0.  1.
         -2   -1    0    0    0  501 -0.00000000000E+00 -0.00000000000E+00 -0.42399883221E+02  0.42399883221E+02  0.00000000000E+00 0.  1.
         25    1    1    2    0    0  0.30157211616E+02 -0.44243223459E+02  0.63295353566E+03  0.64644961021E+03  0.12000000000E+03 0.  0.
         25    1    1    2    0    0 -0.30157211616E+02  0.44243223459E+02  0.85428281718E+02  0.15673197361E+03  0.12000000000E+03 0.  0.
<mgrwt>
<rscale>  0 0.35920498E+03</rscale>
<asrwt>0</asrwt>
<pdfrwt beam="1">  1        2 0.11704333E+00 0.35920498E+03</pdfrwt>
<pdfrwt beam="2">  1       -2 0.65230595E-02 0.35920498E+03</pdfrwt>
<totfact> 0.49407023E+03</totfact>
</mgrwt>
</event>
<event>
 4    1  0.1733772E-004  0.3951764E+03  0.7818608E-02  0.1045463E+00
         -2   -1    0    0    0  501 -0.00000000000E+00  0.00000000000E+00  0.33635984898E+02  0.33635984898E+02  0.00000000000E+00 0. -1.
          2   -1    0    0  501    0  0.00000000000E+00 -0.00000000000E+00 -0.11606942546E+04  0.11606942546E+04  0.00000000000E+00 0. -1.
         25    1    1    2    0    0 -0.10972563627E+03 -0.52897701360E+02 -0.26429051282E+03  0.31478144359E+03  0.12000000000E+03 0.  0.
         25    1    1    2    0    0  0.10972563627E+03  0.52897701360E+02 -0.86276775687E+03  0.87954879590E+03  0.12000000000E+03 0.  0.
<mgrwt>
<rscale>  0 0.39517639E+03</rscale>
<asrwt>0</asrwt>
<pdfrwt beam="1">  1        2 0.17856834E+00 0.39517639E+03</pdfrwt>
<pdfrwt beam="2">  1       -2 0.51747670E-02 0.39517639E+03</pdfrwt>
<totfact> 0.39249056E+03</totfact>
</mgrwt>
</event>
<event>
 4    1  0.1733772E-004  0.3740433E+03  0.7818608E-02  0.1053158E+00
         -2   -1    0    0    0  501 -0.00000000000E+00  0.00000000000E+00  0.45902423765E+02  0.45902423765E+02  0.00000000000E+00 0. -1.
          2   -1    0    0  501    0  0.00000000000E+00 -0.00000000000E+00 -0.76198789206E+03  0.76198789206E+03  0.00000000000E+00 0. -1.
         25    1    1    2    0    0 -0.49909785110E+02  0.13404463145E+03 -0.38151912610E+03  0.42475380334E+03  0.12000000000E+03 0.  0.
         25    1    1    2    0    0  0.49909785110E+02 -0.13404463145E+03 -0.33456634220E+03  0.38313651249E+03  0.12000000000E+03 0.  0.
<mgrwt>
<rscale>  0 0.37404327E+03</rscale>
<asrwt>0</asrwt>
<pdfrwt beam="1">  1        2 0.11722891E+00 0.37404327E+03</pdfrwt>
<pdfrwt beam="2">  1       -2 0.70619114E-02 0.37404327E+03</pdfrwt>
<totfact> 0.43600197E+03</totfact>
</mgrwt>
</event>
<event>
 4    1  0.1733772E-004  0.3259776E+03  0.7818608E-02  0.1072931E+00
          3   -1    0    0  501    0  0.00000000000E+00  0.00000000000E+00  0.92697504508E+03  0.92697504508E+03  0.00000000000E+00 0.  1.
         -3   -1    0    0    0  501 -0.00000000000E+00 -0.00000000000E+00 -0.28658105906E+02  0.28658105906E+02  0.00000000000E+00 0.  1.
         25    1    1    2    0    0  0.16452571187E+02  0.47744532785E+02  0.73662073031E+03  0.74803765135E+03  0.12000000000E+03 0.  0.
         25    1    1    2    0    0 -0.16452571187E+02 -0.47744532785E+02  0.16169620886E+03  0.20759549964E+03  0.12000000000E+03 0.  0.
<mgrwt>
<rscale>  0 0.32597760E+03</rscale>
<asrwt>0</asrwt>
<pdfrwt beam="1">  1        3 0.14261152E+00 0.32597760E+03</pdfrwt>
<pdfrwt beam="2">  1       -3 0.44089401E-02 0.32597760E+03</pdfrwt>
<totfact> 0.27816438E+02</totfact>
</mgrwt>
</event>
<event>
 4    1  0.1733772E-004  0.2684035E+03  0.7818608E-02  0.1102197E+00
          1   -1    0    0  501    0  0.00000000000E+00  0.00000000000E+00  0.15086403340E+04  0.15086403340E+04  0.00000000000E+00 0. -1.
         -1   -1    0    0    0  501 -0.00000000000E+00 -0.00000000000E+00 -0.11937970633E+02  0.11937970633E+02  0.00000000000E+00 0. -1.
         25    1    1    2    0    0  0.16180537801E+02 -0.40612969983E+02  0.98185938737E+03  0.99013083969E+03  0.12000000000E+03 0.  0.
         25    1    1    2    0    0 -0.16180537801E+02  0.40612969983E+02  0.51484297603E+03  0.53044746498E+03  0.12000000000E+03 0.  0.
<mgrwt>
<rscale>  0 0.26840346E+03</rscale>
<asrwt>0</asrwt>
<pdfrwt beam="1">  1        1 0.23209836E+00 0.26840346E+03</pdfrwt>
<pdfrwt beam="2">  1       -1 0.18366121E-02 0.26840346E+03</pdfrwt>
<totfact> 0.54840402E+03</totfact>
</mgrwt>
</event>
<event>
 4    1  0.1733772E-004  0.3261841E+03  0.7818608E-02  0.1072838E+00
          2   -1    0    0  501    0  0.00000000000E+00  0.00000000000E+00  0.12786867441E+04  0.12786867441E+04  0.00000000000E+00 0. -1.
         -2   -1    0    0    0  501 -0.00000000000E+00 -0.00000000000E+00 -0.20801828572E+02  0.20801828572E+02  0.00000000000E+00 0. -1.
         25    1    1    2    0    0 -0.28620640983E+02  0.76755360167E+02  0.92408805481E+03  0.93544067660E+03  0.12000000000E+03 0.  0.
         25    1    1    2    0    0  0.28620640983E+02 -0.76755360167E+02  0.33379686069E+03  0.36404789604E+03  0.12000000000E+03 0.  0.
<mgrwt>
<rscale>  0 0.32618413E+03</rscale>
<asrwt>0</asrwt>
<pdfrwt beam="1">  1        2 0.19672098E+00 0.32618413E+03</pdfrwt>
<pdfrwt beam="2">  1       -2 0.32002823E-02 0.32618413E+03</pdfrwt>
<totfact> 0.69552086E+03</totfact>
</mgrwt>
</event>
<event>
 4    1  0.1733772E-004  0.2684852E+03  0.7818608E-02  0.1102150E+00
          1   -1    0    0  501    0  0.00000000000E+00  0.00000000000E+00  0.87421918907E+03  0.87421918907E+03  0.00000000000E+00 0.  1.
         -1   -1    0    0    0  501 -0.00000000000E+00 -0.00000000000E+00 -0.20613916748E+02  0.20613916748E+02  0.00000000000E+00 0.  1.
         25    1    1    2    0    0  0.17739337274E+02  0.27793013310E+02  0.59457494876E+03  0.60745905654E+03  0.12000000000E+03 0.  0.
         25    1    1    2    0    0 -0.17739337274E+02 -0.27793013310E+02  0.25903032357E+03  0.28737404929E+03  0.12000000000E+03 0.  0.
<mgrwt>
<rscale>  0 0.26848524E+03</rscale>
<asrwt>0</asrwt>
<pdfrwt beam="1">  1        1 0.13449523E+00 0.26848524E+03</pdfrwt>
<pdfrwt beam="2">  1       -1 0.31713725E-02 0.26848524E+03</pdfrwt>
<totfact> 0.69399942E+03</totfact>
</mgrwt>
</event>
<event>
 4    1  0.1733772E-004  0.4622586E+03  0.7818608E-02  0.1024128E+00
          2   -1    0    0  501    0  0.00000000000E+00  0.00000000000E+00  0.25541668854E+04  0.25541668854E+04  0.00000000000E+00 0.  1.
         -2   -1    0    0    0  501 -0.00000000000E+00 -0.00000000000E+00 -0.20915134889E+02  0.20915134889E+02  0.00000000000E+00 0.  1.
         25    1    1    2    0    0  0.11679567723E+03 -0.24477539929E+02  0.38970592954E+03  0.42486596910E+03  0.12000000000E+03 0.  0.
         25    1    1    2    0    0 -0.11679567723E+03  0.24477539929E+02  0.21435458210E+04  0.21502160512E+04  0.12000000000E+03 0.  0.
<mgrwt>
<rscale>  0 0.46225856E+03</rscale>
<asrwt>0</asrwt>
<pdfrwt beam="1">  1        2 0.39294851E+00 0.46225856E+03</pdfrwt>
<pdfrwt beam="2">  1       -2 0.32177151E-02 0.46225856E+03</pdfrwt>
<totfact> 0.13994955E+03</totfact>
</mgrwt>
</event>
<event>
 4    1  0.1733772E-004  0.4065043E+03  0.7818608E-02  0.1041550E+00
          2   -1    0    0  501    0  0.00000000000E+00  0.00000000000E+00  0.52002367162E+03  0.52002367162E+03  0.00000000000E+00 0.  1.
         -2   -1    0    0    0  501 -0.00000000000E+00 -0.00000000000E+00 -0.79441447858E+02  0.79441447858E+02  0.00000000000E+00 0.  1.
         25    1    1    2    0    0  0.38584534315E+00 -0.14273557298E+03  0.10105276164E+03  0.21209727322E+03  0.12000000000E+03 0.  0.
         25    1    1    2    0    0 -0.38584534315E+00  0.14273557298E+03  0.33952946212E+03  0.38736784626E+03  0.12000000000E+03 0.  0.
<mgrwt>
<rscale>  0 0.40650428E+03</rscale>
<asrwt>0</asrwt>
<pdfrwt beam="1">  1        2 0.80003640E-01 0.40650428E+03</pdfrwt>
<pdfrwt beam="2">  1       -2 0.12221762E-01 0.40650428E+03</pdfrwt>
<totfact> 0.28738888E+03</totfact>
</mgrwt>
</event>
<event>
 4    1  0.1733772E-004  0.2746076E+03  0.7818608E-02  0.1098671E+00
          4   -1    0    0  501    0  0.00000000000E+00  0.00000000000E+00  0.31610697656E+02  0.31610697656E+02  0.00000000000E+00 0.  1.
         -4   -1    0    0    0  501 -0.00000000000E+00 -0.00000000000E+00 -0.59639078210E+03  0.59639078210E+03  0.00000000000E+00 0.  1.
         25    1    1    2    0    0  0.34654671213E+02  0.56761367892E+02 -0.29481734195E+03  0.32517697372E+03  0.12000000000E+03 0.  0.
         25    1    1    2    0    0 -0.34654671213E+02 -0.56761367892E+02 -0.26996274249E+03  0.30282450603E+03  0.12000000000E+03 0.  0.
<mgrwt>
<rscale>  0 0.27460757E+03</rscale>
<asrwt>0</asrwt>
<pdfrwt beam="1">  1        4 0.48631840E-02 0.27460757E+03</pdfrwt>
<pdfrwt beam="2">  1       -4 0.91752433E-01 0.27460757E+03</pdfrwt>
<totfact> 0.48736050E+02</totfact>
</mgrwt>
</event>
<event>
 4    1  0.1733772E-004  0.2546076E+03  0.7818608E-02  0.1110427E+00
          2   -1    0    0  501    0  0.00000000000E+00  0.00000000000E+00  0.86736170179E+03  0.86736170179E+03  0.00000000000E+00 0.  1.
         -2   -1    0    0    0  501 -0.00000000000E+00 -0.00000000000E+00 -0.18684537183E+02  0.18684537183E+02  0.00000000000E+00 0.  1.
         25    1    1    2    0    0 -0.67466296006E+00  0.39436477050E+02  0.47942466630E+03  0.49578594328E+03  0.12000000000E+03 0.  0.
         25    1    1    2    0    0  0.67466296006E+00 -0.39436477050E+02  0.36925249830E+03  0.39026029569E+03  0.12000000000E+03 0.  0.
<mgrwt>
<rscale>  0 0.25460756E+03</rscale>
<asrwt>0</asrwt>
<pdfrwt beam="1">  1        2 0.13344023E+00 0.25460756E+03</pdfrwt>
<pdfrwt beam="2">  1       -2 0.28745449E-02 0.25460756E+03</pdfrwt>
<totfact> 0.14307398E+04</totfact>
</mgrwt>
</event>
<event>
 4    1  0.1733772E-004  0.2480357E+03  0.7818608E-02  0.1114553E+00
          1   -1    0    0  501    0  0.00000000000E+00  0.00000000000E+00  0.23879669454E+03  0.23879669454E+03  0.00000000000E+00 0. -1.
         -1   -1    0    0    0  501 -0.00000000000E+00 -0.00000000000E+00 -0.64408040596E+02  0.64408040596E+02  0.00000000000E+00 0. -1.
         25    1    1    2    0    0  0.23294294019E+02 -0.42935487501E+01  0.11222771831E+03  0.16600035979E+03  0.12000000000E+03 0.  0.
         25    1    1    2    0    0 -0.23294294019E+02  0.42935487501E+01  0.62160935642E+02  0.13720437535E+03  0.12000000000E+03 0.  0.
<mgrwt>
<rscale>  0 0.24803570E+03</rscale>
<asrwt>0</asrwt>
<pdfrwt beam="1">  1        1 0.36737953E-01 0.24803570E+03</pdfrwt>
<pdfrwt beam="2">  1       -1 0.99089294E-02 0.24803570E+03</pdfrwt>
<totfact> 0.71390644E+03</totfact>
</mgrwt>
</event>
<event>
 4    1  0.1733772E-004  0.2702060E+03  0.7818608E-02  0.1101162E+00
         -1   -1    0    0    0  501 -0.00000000000E+00  0.00000000000E+00  0.55883554024E+02  0.55883554024E+02  0.00000000000E+00 0.  1.
          1   -1    0    0  501    0  0.00000000000E+00 -0.00000000000E+00 -0.32662235874E+03  0.32662235874E+03  0.00000000000E+00 0.  1.
         25    1    1    2    0    0  0.53194054731E+02  0.21666364814E+02 -0.10205656736E+03  0.16767403425E+03  0.12000000000E+03 0.  0.
         25    1    1    2    0    0 -0.53194054731E+02 -0.21666364814E+02 -0.16868223736E+03  0.21483187851E+03  0.12000000000E+03 0.  0.
<mgrwt>
<rscale>  0 0.27020598E+03</rscale>
<asrwt>0</asrwt>
<pdfrwt beam="1">  1        1 0.50249594E-01 0.27020598E+03</pdfrwt>
<pdfrwt beam="2">  1       -1 0.85974697E-02 0.27020598E+03</pdfrwt>
<totfact> 0.60133665E+03</totfact>
</mgrwt>
</event>
<event>
 4    1  0.1733772E-004  0.3003167E+03  0.7818608E-02  0.1085082E+00
         -2   -1    0    0    0  501 -0.00000000000E+00  0.00000000000E+00  0.62973356516E+01  0.62973356516E+01  0.00000000000E+00 0.  1.
          2   -1    0    0  501    0  0.00000000000E+00 -0.00000000000E+00 -0.35804872784E+04  0.35804872784E+04  0.00000000000E+00 0.  1.
         25    1    1    2    0    0  0.17417293474E+02  0.83755280805E+02 -0.21310177679E+04  0.21361074496E+04  0.12000000000E+03 0.  0.
         25    1    1    2    0    0 -0.17417293474E+02 -0.83755280805E+02 -0.14431721748E+04  0.14506771644E+04  0.12000000000E+03 0.  0.
<mgrwt>
<rscale>  0 0.30031670E+03</rscale>
<asrwt>0</asrwt>
<pdfrwt beam="1">  1        2 0.55084396E+00 0.30031670E+03</pdfrwt>
<pdfrwt beam="2">  1       -2 0.96882129E-03 0.30031670E+03</pdfrwt>
<totfact> 0.19921400E+03</totfact>
</mgrwt>
</event>
<event>
 4    1  0.1733772E-004  0.2688160E+03  0.7818608E-02  0.1101959E+00
          3   -1    0    0  501    0  0.00000000000E+00  0.00000000000E+00  0.20058835814E+02  0.20058835814E+02  0.00000000000E+00 0.  1.
         -3   -1    0    0    0  501 -0.00000000000E+00 -0.00000000000E+00 -0.90062635538E+03  0.90062635538E+03  0.00000000000E+00 0.  1.
         25    1    1    2    0    0 -0.28615556191E+01  0.16078328370E+01 -0.23322940450E+03  0.26231036722E+03  0.12000000000E+03 0.  0.
         25    1    1    2    0    0  0.28615556191E+01 -0.16078328370E+01 -0.64733811506E+03  0.65837482397E+03  0.12000000000E+03 0.  0.
<mgrwt>
<rscale>  0 0.26881604E+03</rscale>
<asrwt>0</asrwt>
<pdfrwt beam="1">  1        3 0.30859754E-02 0.26881604E+03</pdfrwt>
<pdfrwt beam="2">  1       -3 0.13855787E+00 0.26881604E+03</pdfrwt>
<totfact> 0.51450225E+02</totfact>
</mgrwt>
</event>
<event>
 4    1  0.1733772E-004  0.3288999E+03  0.7818608E-02  0.1071625E+00
          2   -1    0    0  501    0  0.00000000000E+00  0.00000000000E+00  0.53985152373E+03  0.53985152373E+03  0.00000000000E+00 0.  1.
         -2   -1    0    0    0  501 -0.00000000000E+00 -0.00000000000E+00 -0.50094846279E+02  0.50094846279E+02  0.00000000000E+00 0.  1.
         25    1    1    2    0    0 -0.55279538429E+02  0.89265855906E+02  0.17269330002E+03  0.23504722136E+03  0.12000000000E+03 0.  0.
         25    1    1    2    0    0  0.55279538429E+02 -0.89265855906E+02  0.31706337744E+03  0.35489914865E+03  0.12000000000E+03 0.  0.
<mgrwt>
<rscale>  0 0.32889986E+03</rscale>
<asrwt>0</asrwt>
<pdfrwt beam="1">  1        2 0.83054077E-01 0.32889986E+03</pdfrwt>
<pdfrwt beam="2">  1       -2 0.77068998E-02 0.32889986E+03</pdfrwt>
<totfact> 0.57312203E+03</totfact>
</mgrwt>
</event>
<event>
 4    1  0.1733772E-004  0.3306586E+03  0.7818608E-02  0.1070846E+00
          2   -1    0    0  501    0  0.00000000000E+00  0.00000000000E+00  0.15935715632E+02  0.15935715632E+02  0.00000000000E+00 0.  1.
         -2   -1    0    0    0  501 -0.00000000000E+00 -0.00000000000E+00 -0.17152526508E+04  0.17152526508E+04  0.00000000000E+00 0.  1.
         25    1    1    2    0    0  0.28527673518E+02  0.10247605715E+02 -0.27577298157E+03  0.30227401301E+03  0.12000000000E+03 0.  0.
         25    1    1    2    0    0 -0.28527673518E+02 -0.10247605715E+02 -0.14235439536E+04  0.14289143535E+04  0.12000000000E+03 0.  0.
<mgrwt>
<rscale>  0 0.33065861E+03</rscale>
<asrwt>0</asrwt>
<pdfrwt beam="1">  1        2 0.24516474E-02 0.33065861E+03</pdfrwt>
<pdfrwt beam="2">  1       -2 0.26388515E+00 0.33065861E+03</pdfrwt>
<totfact> 0.24542275E+02</totfact>
</mgrwt>
</event>
<event>
 4    1  0.1733772E-004  0.2908045E+03  0.7818608E-02  0.1089930E+00
         -2   -1    0    0    0  501 -0.00000000000E+00  0.00000000000E+00  0.88305236050E+02  0.88305236050E+02  0.00000000000E+00 0.  1.
          2   -1    0    0  501    0  0.00000000000E+00 -0.00000000000E+00 -0.23941744619E+03  0.23941744619E+03  0.00000000000E+00 0.  1.
         25    1    1    2    0    0  0.74597015886E+02 -0.23555970249E+02 -0.47445135620E+02  0.15089943475E+03  0.12000000000E+03 0.  0.
         25    1    1    2    0    0 -0.74597015886E+02  0.23555970249E+02 -0.10366707452E+03  0.17682324749E+03  0.12000000000E+03 0.  0.
<mgrwt>
<rscale>  0 0.29080450E+03</rscale>
<asrwt>0</asrwt>
<pdfrwt beam="1">  1        2 0.36833454E-01 0.29080450E+03</pdfrwt>
<pdfrwt beam="2">  1       -2 0.13585421E-01 0.29080450E+03</pdfrwt>
<totfact> 0.56172500E+03</totfact>
</mgrwt>
</event>
<event>
 4    1  0.1733772E-004  0.2415163E+03  0.7818608E-02  0.1118787E+00
         -2   -1    0    0    0  501 -0.00000000000E+00  0.00000000000E+00  0.17611171166E+02  0.17611171166E+02  0.00000000000E+00 0.  1.
          2   -1    0    0  501    0  0.00000000000E+00 -0.00000000000E+00 -0.82802704377E+03  0.82802704377E+03  0.00000000000E+00 0.  1.
         25    1    1    2    0    0 -0.13134185250E+02 -0.86543647492E+00 -0.39454731112E+03  0.41260251637E+03  0.12000000000E+03 0.  0.
         25    1    1    2    0    0  0.13134185250E+02  0.86543647492E+00 -0.41586856148E+03  0.43303569856E+03  0.12000000000E+03 0.  0.
<mgrwt>
<rscale>  0 0.24151626E+03</rscale>
<asrwt>0</asrwt>
<pdfrwt beam="1">  1        2 0.12738878E+00 0.24151626E+03</pdfrwt>
<pdfrwt beam="2">  1       -2 0.27094110E-02 0.24151626E+03</pdfrwt>
<totfact> 0.16550372E+04</totfact>
</mgrwt>
</event>
<event>
 4    1  0.1733772E-004  0.3069907E+03  0.7818608E-02  0.1081797E+00
          2   -1    0    0  501    0  0.00000000000E+00  0.00000000000E+00  0.85328159069E+03  0.85328159069E+03  0.00000000000E+00 0. -1.
         -2   -1    0    0    0  501 -0.00000000000E+00 -0.00000000000E+00 -0.27612005684E+02  0.27612005684E+02  0.00000000000E+00 0. -1.
         25    1    1    2    0    0 -0.29204632203E+01  0.57360319804E+02  0.63253182461E+03  0.64637082587E+03  0.12000000000E+03 0.  0.
         25    1    1    2    0    0  0.29204632203E+01 -0.57360319804E+02  0.19313776039E+03  0.23452277050E+03  0.12000000000E+03 0.  0.
<mgrwt>
<rscale>  0 0.30699066E+03</rscale>
<asrwt>0</asrwt>
<pdfrwt beam="1">  1        2 0.13127407E+00 0.30699066E+03</pdfrwt>
<pdfrwt beam="2">  1       -2 0.42480015E-02 0.30699066E+03</pdfrwt>
<totfact> 0.81950758E+03</totfact>
</mgrwt>
</event>
<event>
 4    1  0.1733772E-004  0.3008799E+03  0.7818608E-02  0.1084802E+00
          3   -1    0    0  501    0  0.00000000000E+00  0.00000000000E+00  0.29173283759E+03  0.29173283759E+03  0.00000000000E+00 0.  1.
         -3   -1    0    0    0  501 -0.00000000000E+00 -0.00000000000E+00 -0.77578456275E+02  0.77578456275E+02  0.00000000000E+00 0.  1.
         25    1    1    2    0    0  0.54514221844E+02 -0.40290598235E+02  0.18110144371E+03  0.22758045963E+03  0.12000000000E+03 0.  0.
         25    1    1    2    0    0 -0.54514221844E+02  0.40290598235E+02  0.33052937601E+02  0.14173083424E+03  0.12000000000E+03 0.  0.
<mgrwt>
<rscale>  0 0.30087993E+03</rscale>
<asrwt>0</asrwt>
<pdfrwt beam="1">  1        3 0.44881974E-01 0.30087993E+03</pdfrwt>
<pdfrwt beam="2">  1       -3 0.11935147E-01 0.30087993E+03</pdfrwt>
<totfact> 0.69668441E+02</totfact>
</mgrwt>
</event>
<event>
 4    1  0.1733772E-004  0.3558299E+03  0.7818608E-02  0.1060247E+00
          4   -1    0    0  501    0  0.00000000000E+00  0.00000000000E+00  0.27972008577E+03  0.27972008577E+03  0.00000000000E+00 0. -1.
         -4   -1    0    0    0  501 -0.00000000000E+00 -0.00000000000E+00 -0.11316214853E+03  0.11316214853E+03  0.00000000000E+00 0. -1.
         25    1    1    2    0    0 -0.55731517340E+02 -0.84419341157E+02  0.17579617617E+03  0.23566273091E+03  0.12000000000E+03 0.  0.
         25    1    1    2    0    0  0.55731517340E+02  0.84419341157E+02 -0.92382389272E+01  0.15721950339E+03  0.12000000000E+03 0.  0.
<mgrwt>
<rscale>  0 0.35582988E+03</rscale>
<asrwt>0</asrwt>
<pdfrwt beam="1">  1        4 0.43033859E-01 0.35582988E+03</pdfrwt>
<pdfrwt beam="2">  1       -4 0.17409561E-01 0.35582988E+03</pdfrwt>
<totfact> 0.29319036E+02</totfact>
</mgrwt>
</event>
<event>
 4    1  0.1733772E-004  0.2491555E+03  0.7818608E-02  0.1113840E+00
          1   -1    0    0  501    0  0.00000000000E+00  0.00000000000E+00  0.19699745673E+03  0.19699745673E+03  0.00000000000E+00 0.  1.
         -1   -1    0    0    0  501 -0.00000000000E+00 -0.00000000000E+00 -0.78780808410E+02  0.78780808410E+02  0.00000000000E+00 0.  1.
         25    1    1    2    0    0 -0.24116589399E+02 -0.82220181018E+01  0.35101948391E+02  0.12759842572E+03  0.12000000000E+03 0.  0.
         25    1    1    2    0    0  0.24116589399E+02  0.82220181018E+01  0.83114699933E+02  0.14817983942E+03  0.12000000000E+03 0.  0.
<mgrwt>
<rscale>  0 0.24915552E+03</rscale>
<asrwt>0</asrwt>
<pdfrwt beam="1">  1        1 0.30307301E-01 0.24915552E+03</pdfrwt>
<pdfrwt beam="2">  1       -1 0.12120124E-01 0.24915552E+03</pdfrwt>
<totfact> 0.66523658E+03</totfact>
</mgrwt>
</event>
<event>
 4    1  0.1733772E-004  0.2560771E+03  0.7818608E-02  0.1109523E+00
          4   -1    0    0  501    0  0.00000000000E+00  0.00000000000E+00  0.17126155589E+03  0.17126155589E+03  0.00000000000E+00 0.  1.
         -4   -1    0    0    0  501 -0.00000000000E+00 -0.00000000000E+00 -0.95724147315E+02  0.95724147315E+02  0.00000000000E+00 0.  1.
         25    1    1    2    0    0  0.44644158593E+02 -0.27087669150E+00  0.36901317494E+02  0.13324744464E+03  0.12000000000E+03 0.  0.
         25    1    1    2    0    0 -0.44644158593E+02  0.27087669150E+00  0.38636091084E+02  0.13373825857E+03  0.12000000000E+03 0.  0.
<mgrwt>
<rscale>  0 0.25607707E+03</rscale>
<asrwt>0</asrwt>
<pdfrwt beam="1">  1        4 0.26347932E-01 0.25607707E+03</pdfrwt>
<pdfrwt beam="2">  1       -4 0.14726792E-01 0.25607707E+03</pdfrwt>
<totfact> 0.98201668E+02</totfact>
</mgrwt>
</event>
<event>
 4    1  0.1733772E-004  0.3658519E+03  0.7818608E-02  0.1056290E+00
         -2   -1    0    0    0  501 -0.00000000000E+00  0.00000000000E+00  0.31343906284E+02  0.31343906284E+02  0.00000000000E+00 0.  1.
          2   -1    0    0  501    0  0.00000000000E+00 -0.00000000000E+00 -0.10675731008E+04  0.10675731008E+04  0.00000000000E+00 0.  1.
         25    1    1    2    0    0 -0.50731543074E+02  0.12709703616E+03 -0.57305601782E+03  0.60126578618E+03  0.12000000000E+03 0.  0.
         25    1    1    2    0    0  0.50731543074E+02 -0.12709703616E+03 -0.46317317669E+03  0.49765122090E+03  0.12000000000E+03 0.  0.
<mgrwt>
<rscale>  0 0.36585194E+03</rscale>
<asrwt>0</asrwt>
<pdfrwt beam="1">  1        2 0.16424199E+00 0.36585194E+03</pdfrwt>
<pdfrwt beam="2">  1       -2 0.48221401E-02 0.36585194E+03</pdfrwt>
<totfact> 0.49634957E+03</totfact>
</mgrwt>
</event>
<event>
 4    1  0.1733772E-004  0.3255585E+03  0.7818608E-02  0.1073119E+00
         -2   -1    0    0    0  501 -0.00000000000E+00  0.00000000000E+00  0.12100778235E+03  0.12100778235E+03  0.00000000000E+00 0.  1.
          2   -1    0    0  501    0  0.00000000000E+00 -0.00000000000E+00 -0.21897006769E+03  0.21897006769E+03  0.00000000000E+00 0.  1.
         25    1    1    2    0    0 -0.19988306531E+02 -0.10814747901E+03 -0.47630539848E+02  0.16959975808E+03  0.12000000000E+03 0.  0.
         25    1    1    2    0    0  0.19988306531E+02  0.10814747901E+03 -0.50331745490E+02  0.17037809196E+03  0.12000000000E+03 0.  0.
<mgrwt>
<rscale>  0 0.32555849E+03</rscale>
<asrwt>0</asrwt>
<pdfrwt beam="1">  1        2 0.33687702E-01 0.32555849E+03</pdfrwt>
<pdfrwt beam="2">  1       -2 0.18616582E-01 0.32555849E+03</pdfrwt>
<totfact> 0.36720993E+03</totfact>
</mgrwt>
</event>
<event>
 4    1  0.1733772E-004  0.2548851E+03  0.7818608E-02  0.1110256E+00
         -3   -1    0    0    0  501 -0.00000000000E+00  0.00000000000E+00  0.13320394967E+03  0.13320394967E+03  0.00000000000E+00 0. -1.
          3   -1    0    0  501    0  0.00000000000E+00 -0.00000000000E+00 -0.12193032661E+03  0.12193032661E+03  0.00000000000E+00 0. -1.
         25    1    1    2    0    0 -0.67410223040E+00  0.32960625896E+02  0.33136272079E+02  0.12878225732E+03  0.12000000000E+03 0.  0.
         25    1    1    2    0    0  0.67410223040E+00 -0.32960625896E+02 -0.21862649021E+02  0.12635201896E+03  0.12000000000E+03 0.  0.
<mgrwt>
<rscale>  0 0.25488508E+03</rscale>
<asrwt>0</asrwt>
<pdfrwt beam="1">  1        3 0.18758512E-01 0.25488508E+03</pdfrwt>
<pdfrwt beam="2">  1       -3 0.20492915E-01 0.25488508E+03</pdfrwt>
<totfact> 0.13627628E+03</totfact>
</mgrwt>
</event>
<event>
 4    1  0.1733772E-004  0.2535399E+03  0.7818608E-02  0.1111088E+00
          4   -1    0    0  501    0  0.00000000000E+00  0.00000000000E+00  0.41926208438E+02  0.41926208438E+02  0.00000000000E+00 0. -1.
         -4   -1    0    0    0  501 -0.00000000000E+00 -0.00000000000E+00 -0.38330721029E+03  0.38330721029E+03  0.00000000000E+00 0. -1.
         25    1    1    2    0    0  0.19648053079E+02  0.24992110242E+02 -0.12760392066E+03  0.17802643661E+03  0.12000000000E+03 0.  0.
         25    1    1    2    0    0 -0.19648053079E+02 -0.24992110242E+02 -0.21377708119E+03  0.24720698212E+03  0.12000000000E+03 0.  0.
<mgrwt>
<rscale>  0 0.25353988E+03</rscale>
<asrwt>0</asrwt>
<pdfrwt beam="1">  1        4 0.64501861E-02 0.25353988E+03</pdfrwt>
<pdfrwt beam="2">  1       -4 0.58970338E-01 0.25353988E+03</pdfrwt>
<totfact> 0.80440364E+02</totfact>
</mgrwt>
</event>
<event>
 4    1  0.1733772E-004  0.3338652E+03  0.7818608E-02  0.1069439E+00
          1   -1    0    0  501    0  0.00000000000E+00  0.00000000000E+00  0.25979207390E+04  0.25979207390E+04  0.00000000000E+00 0. -1.
         -1   -1    0    0    0  501 -0.00000000000E+00 -0.00000000000E+00 -0.10726459335E+02  0.10726459335E+02  0.00000000000E+00 0. -1.
         25    1    1    2    0    0 -0.38540846463E+01 -0.50552000763E+02  0.21092031069E+04  0.21132222090E+04  0.12000000000E+03 0.  0.
         25    1    1    2    0    0  0.38540846463E+01  0.50552000763E+02  0.47799117284E+03  0.49542498934E+03  0.12000000000E+03 0.  0.
<mgrwt>
<rscale>  0 0.33386519E+03</rscale>
<asrwt>0</asrwt>
<pdfrwt beam="1">  1        1 0.39967961E+00 0.33386519E+03</pdfrwt>
<pdfrwt beam="2">  1       -1 0.16502266E-02 0.33386519E+03</pdfrwt>
<totfact> 0.12314168E+03</totfact>
</mgrwt>
</event>
<event>
 4    1  0.1733772E-004  0.2790987E+03  0.7818608E-02  0.1096182E+00
          3   -1    0    0  501    0  0.00000000000E+00  0.00000000000E+00  0.35095611815E+02  0.35095611815E+02  0.00000000000E+00 0. -1.
         -3   -1    0    0    0  501 -0.00000000000E+00 -0.00000000000E+00 -0.55488479535E+03  0.55488479535E+03  0.00000000000E+00 0. -1.
         25    1    1    2    0    0  0.30020909240E+02  0.18450339076E+02 -0.39075625416E+03  0.41028297572E+03  0.12000000000E+03 0.  0.
         25    1    1    2    0    0 -0.30020909240E+02 -0.18450339076E+02 -0.12903292938E+03  0.17969743144E+03  0.12000000000E+03 0.  0.
<mgrwt>
<rscale>  0 0.27909870E+03</rscale>
<asrwt>0</asrwt>
<pdfrwt beam="1">  1        3 0.53993251E-02 0.27909870E+03</pdfrwt>
<pdfrwt beam="2">  1       -3 0.85366888E-01 0.27909870E+03</pdfrwt>
<totfact> 0.66253144E+02</totfact>
</mgrwt>
</event>
<event>
 4    1  0.1733772E-004  0.2998351E+03  0.7818608E-02  0.1085323E+00
         -2   -1    0    0    0  501 -0.00000000000E+00  0.00000000000E+00  0.13252772460E+02  0.13252772460E+02  0.00000000000E+00 0. -1.
          2   -1    0    0  501    0  0.00000000000E+00 -0.00000000000E+00 -0.16958925588E+04  0.16958925588E+04  0.00000000000E+00 0. -1.
         25    1    1    2    0    0  0.16677157466E+02  0.22878101812E+02 -0.35516413097E+03  0.37595624087E+03  0.12000000000E+03 0.  0.
         25    1    1    2    0    0 -0.16677157466E+02 -0.22878101812E+02 -0.13274756553E+04  0.13331890904E+04  0.12000000000E+03 0.  0.
<mgrwt>
<rscale>  0 0.29983514E+03</rscale>
<asrwt>0</asrwt>
<pdfrwt beam="1">  1        2 0.26090642E+00 0.29983514E+03</pdfrwt>
<pdfrwt beam="2">  1       -2 0.20388891E-02 0.29983514E+03</pdfrwt>
<totfact> 0.80786303E+03</totfact>
</mgrwt>
</event>
<event>
 4    1  0.1733772E-004  0.2729028E+03  0.7818608E-02  0.1099630E+00
          1   -1    0    0  501    0  0.00000000000E+00  0.00000000000E+00  0.23112450257E+03  0.23112450257E+03  0.00000000000E+00 0. -1.
         -1   -1    0    0    0  501 -0.00000000000E+00 -0.00000000000E+00 -0.80558249383E+02  0.80558249383E+02  0.00000000000E+00 0. -1.
         25    1    1    2    0    0 -0.51596817654E+02 -0.39432426831E+02  0.73734983258E+02  0.15509350610E+03  0.12000000000E+03 0.  0.
         25    1    1    2    0    0  0.51596817654E+02  0.39432426831E+02  0.76831269924E+02  0.15658924585E+03  0.12000000000E+03 0.  0.
<mgrwt>
<rscale>  0 0.27290281E+03</rscale>
<asrwt>0</asrwt>
<pdfrwt beam="1">  1        1 0.35557615E-01 0.27290281E+03</pdfrwt>
<pdfrwt beam="2">  1       -1 0.12393577E-01 0.27290281E+03</pdfrwt>
<totfact> 0.52731168E+03</totfact>
</mgrwt>
</event>
<event>
 4    1  0.1733772E-004  0.2447865E+03  0.7818608E-02  0.1116645E+00
         -2   -1    0    0    0  501 -0.00000000000E+00  0.00000000000E+00  0.38636297607E+02  0.38636297607E+02  0.00000000000E+00 0. -1.
          2   -1    0    0  501    0  0.00000000000E+00 -0.00000000000E+00 -0.38772114489E+03  0.38772114489E+03  0.00000000000E+00 0. -1.
         25    1    1    2    0    0 -0.21328155034E+02 -0.17211036532E+01 -0.19380096931E+03  0.22894686741E+03  0.12000000000E+03 0.  0.
         25    1    1    2    0    0  0.21328155034E+02  0.17211036532E+01 -0.15528387798E+03  0.19741057509E+03  0.12000000000E+03 0.  0.
<mgrwt>
<rscale>  0 0.24478652E+03</rscale>
<asrwt>0</asrwt>
<pdfrwt beam="1">  1        2 0.59649409E-01 0.24478652E+03</pdfrwt>
<pdfrwt beam="2">  1       -2 0.59440456E-02 0.24478652E+03</pdfrwt>
<totfact> 0.12226806E+04</totfact>
</mgrwt>
</event>
<event>
 4    1  0.1733772E-004  0.3498746E+03  0.7818608E-02  0.1062667E+00
         -1   -1    0    0    0  501 -0.00000000000E+00  0.00000000000E+00  0.56753769846E+02  0.56753769846E+02  0.00000000000E+00 0.  1.
          1   -1    0    0  501    0  0.00000000000E+00 -0.00000000000E+00 -0.53922511585E+03  0.53922511585E+03  0.00000000000E+00 0.  1.
         25    1    1    2    0    0 -0.97665476716E+02  0.73651564678E+02 -0.30121785595E+03  0.34654768080E+03  0.12000000000E+03 0.  0.
         25    1    1    2    0    0  0.97665476716E+02 -0.73651564678E+02 -0.18125349006E+03  0.24943120490E+03  0.12000000000E+03 0.  0.
<mgrwt>
<rscale>  0 0.34987460E+03</rscale>
<asrwt>0</asrwt>
<pdfrwt beam="1">  1        1 0.82957710E-01 0.34987460E+03</pdfrwt>
<pdfrwt beam="2">  1       -1 0.87313492E-02 0.34987460E+03</pdfrwt>
<totfact> 0.30763473E+03</totfact>
</mgrwt>
</event>
<event>
 4    1  0.1733772E-004  0.2416858E+03  0.7818608E-02  0.1118675E+00
         -2   -1    0    0    0  501 -0.00000000000E+00  0.00000000000E+00  0.72289719475E+01  0.72289719475E+01  0.00000000000E+00 0.  1.
          2   -1    0    0  501    0  0.00000000000E+00 -0.00000000000E+00 -0.20200661602E+04  0.20200661602E+04  0.00000000000E+00 0.  1.
         25    1    1    2    0    0 -0.52642112873E+01  0.52451627555E+01 -0.11083881988E+04  0.11148899600E+04  0.12000000000E+03 0.  0.
         25    1    1    2    0    0  0.52642112873E+01 -0.52451627555E+01 -0.90444898941E+03  0.91240517211E+03  0.12000000000E+03 0.  0.
<mgrwt>
<rscale>  0 0.24168576E+03</rscale>
<asrwt>0</asrwt>
<pdfrwt beam="1">  1        2 0.31077963E+00 0.24168576E+03</pdfrwt>
<pdfrwt beam="2">  1       -2 0.11121487E-02 0.24168576E+03</pdfrwt>
<totfact> 0.13202922E+04</totfact>
</mgrwt>
</event>
<event>
 4    1  0.1733772E-004  0.2659735E+03  0.7818608E-02  0.1103606E+00
         -2   -1    0    0    0  501 -0.00000000000E+00  0.00000000000E+00  0.11171739230E+02  0.11171739230E+02  0.00000000000E+00 0.  1.
          2   -1    0    0  501    0  0.00000000000E+00 -0.00000000000E+00 -0.15830547860E+04  0.15830547860E+04  0.00000000000E+00 0.  1.
         25    1    1    2    0    0 -0.26474766140E+02 -0.44028828676E+01 -0.48236351638E+03  0.49778997635E+03  0.12000000000E+03 0.  0.
         25    1    1    2    0    0  0.26474766140E+02  0.44028828676E+01 -0.10895195304E+04  0.10964365489E+04  0.12000000000E+03 0.  0.
<mgrwt>
<rscale>  0 0.26597350E+03</rscale>
<asrwt>0</asrwt>
<pdfrwt beam="1">  1        2 0.24354717E+00 0.26597350E+03</pdfrwt>
<pdfrwt beam="2">  1       -2 0.17187271E-02 0.26597350E+03</pdfrwt>
<totfact> 0.11892893E+04</totfact>
</mgrwt>
</event>
<event>
 4    1  0.1733772E-004  0.2474390E+03  0.7818608E-02  0.1114934E+00
          2   -1    0    0  501    0  0.00000000000E+00  0.00000000000E+00  0.43115437033E+02  0.43115437033E+02  0.00000000000E+00 0. -1.
         -2   -1    0    0    0  501 -0.00000000000E+00 -0.00000000000E+00 -0.35501234116E+03  0.35501234116E+03  0.00000000000E+00 0. -1.
         25    1    1    2    0    0  0.38479399662E+01  0.28527292057E+02 -0.14174738814E+03  0.18793864712E+03  0.12000000000E+03 0.  0.
         25    1    1    2    0    0 -0.38479399662E+01 -0.28527292057E+02 -0.17014951599E+03  0.21018913108E+03  0.12000000000E+03 0.  0.
<mgrwt>
<rscale>  0 0.24743898E+03</rscale>
<asrwt>0</asrwt>
<pdfrwt beam="1">  1        2 0.66331441E-02 0.24743898E+03</pdfrwt>
<pdfrwt beam="2">  1       -2 0.54617284E-01 0.24743898E+03</pdfrwt>
<totfact> 0.34469592E+03</totfact>
</mgrwt>
</event>
<event>
 4    1  0.1733772E-004  0.2757120E+03  0.7818608E-02  0.1098054E+00
          2   -1    0    0  501    0  0.00000000000E+00  0.00000000000E+00  0.16190594717E+04  0.16190594717E+04  0.00000000000E+00 0.  1.
         -2   -1    0    0    0  501 -0.00000000000E+00 -0.00000000000E+00 -0.11737851313E+02  0.11737851313E+02  0.00000000000E+00 0.  1.
         25    1    1    2    0    0 -0.11008732235E+02  0.30620301305E+02  0.45146671106E+03  0.46827447745E+03  0.12000000000E+03 0.  0.
         25    1    1    2    0    0  0.11008732235E+02 -0.30620301305E+02  0.11558549093E+04  0.11625228456E+04  0.12000000000E+03 0.  0.
<mgrwt>
<rscale>  0 0.27571202E+03</rscale>
<asrwt>0</asrwt>
<pdfrwt beam="1">  1        2 0.24908589E+00 0.27571202E+03</pdfrwt>
<pdfrwt beam="2">  1       -2 0.18058246E-02 0.27571202E+03</pdfrwt>
<totfact> 0.10593728E+04</totfact>
</mgrwt>
</event>
<event>
 4    1  0.1733772E-004  0.3841891E+03  0.7818608E-02  0.1049396E+00
         -1   -1    0    0    0  501 -0.00000000000E+00  0.00000000000E+00  0.33409161384E+02  0.33409161384E+02  0.00000000000E+00 0. -1.
          1   -1    0    0  501    0  0.00000000000E+00 -0.00000000000E+00 -0.11044969879E+04  0.11044969879E+04  0.00000000000E+00 0. -1.
         25    1    1    2    0    0  0.12663085358E+03 -0.21310669683E+02 -0.30591448377E+03  0.35280758084E+03  0.12000000000E+03 0.  0.
         25    1    1    2    0    0 -0.12663085358E+03  0.21310669683E+02 -0.76517334279E+03  0.78509856848E+03  0.12000000000E+03 0.  0.
<mgrwt>
<rscale>  0 0.38418911E+03</rscale>
<asrwt>0</asrwt>
<pdfrwt beam="1">  1        1 0.16992259E+00 0.38418911E+03</pdfrwt>
<pdfrwt beam="2">  1       -1 0.51398718E-02 0.38418911E+03</pdfrwt>
<totfact> 0.22636802E+03</totfact>
</mgrwt>
</event>
<event>
 4    1  0.1733772E-004  0.4527320E+03  0.7818608E-02  0.1026910E+00
          2   -1    0    0  501    0  0.00000000000E+00  0.00000000000E+00  0.20482696846E+04  0.20482696846E+04  0.00000000000E+00 0. -1.
         -2   -1    0    0    0  501 -0.00000000000E+00 -0.00000000000E+00 -0.25017004288E+02  0.25017004288E+02  0.00000000000E+00 0. -1.
         25    1    1    2    0    0 -0.30759464357E+01  0.17437544426E+03  0.13787102407E+04  0.13948685188E+04  0.12000000000E+03 0.  0.
         25    1    1    2    0    0  0.30759464357E+01 -0.17437544426E+03  0.64454243961E+03  0.67841817006E+03  0.12000000000E+03 0.  0.
<mgrwt>
<rscale>  0 0.45273202E+03</rscale>
<asrwt>0</asrwt>
<pdfrwt beam="1">  1        2 0.31511828E+00 0.45273202E+03</pdfrwt>
<pdfrwt beam="2">  1       -2 0.38487715E-02 0.45273202E+03</pdfrwt>
<totfact> 0.20190250E+03</totfact>
</mgrwt>
</event>
<event>
 4    1  0.1733772E-004  0.2564213E+03  0.7818608E-02  0.1109313E+00
         -2   -1    0    0    0  501 -0.00000000000E+00  0.00000000000E+00  0.67969816748E+01  0.67969816748E+01  0.00000000000E+00 0. -1.
          2   -1    0    0  501    0  0.00000000000E+00 -0.00000000000E+00 -0.24184212854E+04  0.24184212854E+04  0.00000000000E+00 0. -1.
         25    1    1    2    0    0 -0.31330232499E+02  0.24624900986E+02 -0.10051797345E+04  0.10131013117E+04  0.12000000000E+03 0.  0.
         25    1    1    2    0    0  0.31330232499E+02 -0.24624900986E+02 -0.14064445692E+04  0.14121169553E+04  0.12000000000E+03 0.  0.
<mgrwt>
<rscale>  0 0.25642126E+03</rscale>
<asrwt>0</asrwt>
<pdfrwt beam="1">  1        2 0.37206481E+00 0.25642126E+03</pdfrwt>
<pdfrwt beam="2">  1       -2 0.10456895E-02 0.25642126E+03</pdfrwt>
<totfact> 0.88740340E+03</totfact>
</mgrwt>
</event>
<event>
 4    1  0.1733772E-004  0.2825077E+03  0.7818608E-02  0.1094327E+00
         -2   -1    0    0    0  501 -0.00000000000E+00  0.00000000000E+00  0.16404537951E+02  0.16404537951E+02  0.00000000000E+00 0.  1.
          2   -1    0    0  501    0  0.00000000000E+00 -0.00000000000E+00 -0.12162886205E+04  0.12162886205E+04  0.00000000000E+00 0.  1.
         25    1    1    2    0    0  0.41592122706E+02  0.15305574645E+02 -0.86132687721E+03  0.87077445684E+03  0.12000000000E+03 0.  0.
         25    1    1    2    0    0 -0.41592122706E+02 -0.15305574645E+02 -0.33855720534E+03  0.36191870161E+03  0.12000000000E+03 0.  0.
<mgrwt>
<rscale>  0 0.28250772E+03</rscale>
<asrwt>0</asrwt>
<pdfrwt beam="1">  1        2 0.18712137E+00 0.28250772E+03</pdfrwt>
<pdfrwt beam="2">  1       -2 0.25237745E-02 0.28250772E+03</pdfrwt>
<totfact> 0.10713941E+04</totfact>
</mgrwt>
</event>
<event>
 4    1  0.1733772E-004  0.2722378E+03  0.7818608E-02  0.1100006E+00
          2   -1    0    0  501    0  0.00000000000E+00  0.00000000000E+00  0.81966042631E+03  0.81966042631E+03  0.00000000000E+00 0.  1.
         -2   -1    0    0    0  501 -0.00000000000E+00 -0.00000000000E+00 -0.22604920575E+02  0.22604920575E+02  0.00000000000E+00 0.  1.
         25    1    1    2    0    0 -0.52171551941E+02 -0.28355833482E+02  0.32259039992E+03  0.34927137049E+03  0.12000000000E+03 0.  0.
         25    1    1    2    0    0  0.52171551941E+02  0.28355833482E+02  0.47446510581E+03  0.49299397639E+03  0.12000000000E+03 0.  0.
<mgrwt>
<rscale>  0 0.27223783E+03</rscale>
<asrwt>0</asrwt>
<pdfrwt beam="1">  1        2 0.12610158E+00 0.27223783E+03</pdfrwt>
<pdfrwt beam="2">  1       -2 0.34776807E-02 0.27223783E+03</pdfrwt>
<totfact> 0.11623855E+04</totfact>
</mgrwt>
</event>
<event>
 4    1  0.1733772E-004  0.2486791E+03  0.7818608E-02  0.1114142E+00
          2   -1    0    0  501    0  0.00000000000E+00  0.00000000000E+00  0.36968227282E+03  0.36968227282E+03  0.00000000000E+00 0. -1.
         -2   -1    0    0    0  501 -0.00000000000E+00 -0.00000000000E+00 -0.41820569739E+02  0.41820569739E+02  0.00000000000E+00 0. -1.
         25    1    1    2    0    0 -0.25853728602E+02  0.12554720973E+01  0.13123817227E+03  0.17970378224E+03  0.12000000000E+03 0.  0.
         25    1    1    2    0    0  0.25853728602E+02 -0.12554720973E+01  0.19662353081E+03  0.23179906031E+03  0.12000000000E+03 0.  0.
<mgrwt>
<rscale>  0 0.24867910E+03</rscale>
<asrwt>0</asrwt>
<pdfrwt beam="1">  1        2 0.56874194E-01 0.24867910E+03</pdfrwt>
<pdfrwt beam="2">  1       -2 0.64339341E-02 0.24867910E+03</pdfrwt>
<totfact> 0.11408363E+04</totfact>
</mgrwt>
</event>
<event>
 4    1  0.1733772E-004  0.4237255E+03  0.7818608E-02  0.1035861E+00
         -1   -1    0    0    0  501 -0.00000000000E+00  0.00000000000E+00  0.47863153643E+02  0.47863153643E+02  0.00000000000E+00 0.  1.
          1   -1    0    0  501    0  0.00000000000E+00 -0.00000000000E+00 -0.93779483025E+03  0.93779483025E+03  0.00000000000E+00 0.  1.
         25    1    1    2    0    0 -0.42454514443E+02 -0.53140193770E+02 -0.81903523130E+03  0.83056906763E+03  0.12000000000E+03 0.  0.
         25    1    1    2    0    0  0.42454514443E+02  0.53140193770E+02 -0.70896445304E+02  0.15508891626E+03  0.12000000000E+03 0.  0.
<mgrwt>
<rscale>  0 0.42372547E+03</rscale>
<asrwt>0</asrwt>
<pdfrwt beam="1">  1        1 0.14427611E+00 0.42372547E+03</pdfrwt>
<pdfrwt beam="2">  1       -1 0.73635630E-02 0.42372547E+03</pdfrwt>
<totfact> 0.17454707E+03</totfact>
</mgrwt>
</event>
<event>
 4    1  0.1733772E-004  0.4607723E+03  0.7818608E-02  0.1024557E+00
         -2   -1    0    0    0  501 -0.00000000000E+00  0.00000000000E+00  0.13195197437E+03  0.13195197437E+03  0.00000000000E+00 0. -1.
          2   -1    0    0  501    0  0.00000000000E+00 -0.00000000000E+00 -0.40225065227E+03  0.40225065227E+03  0.00000000000E+00 0. -1.
         25    1    1    2    0    0  0.32491626406E+02  0.12813918262E+03  0.33666165805E+02  0.18168314900E+03  0.12000000000E+03 0.  0.
         25    1    1    2    0    0 -0.32491626406E+02 -0.12813918262E+03 -0.30396484371E+03  0.35251947765E+03  0.12000000000E+03 0.  0.
<mgrwt>
<rscale>  0 0.46077226E+03</rscale>
<asrwt>0</asrwt>
<pdfrwt beam="1">  1        2 0.61884715E-01 0.46077226E+03</pdfrwt>
<pdfrwt beam="2">  1       -2 0.20300304E-01 0.46077226E+03</pdfrwt>
<totfact> 0.16357981E+03</totfact>
</mgrwt>
</event>
<event>
 4    1  0.1733772E-004  0.2524164E+03  0.7818608E-02  0.1111787E+00
          2   -1    0    0  501    0  0.00000000000E+00  0.00000000000E+00  0.22774358624E+03  0.22774358624E+03  0.00000000000E+00 0.  1.
         -2   -1    0    0    0  501 -0.00000000000E+00 -0.00000000000E+00 -0.69940554451E+02  0.69940554451E+02  0.00000000000E+00 0.  1.
         25    1    1    2    0    0  0.99206791546E+01  0.37349926585E+02  0.71916910041E+02  0.14513951509E+03  0.12000000000E+03 0.  0.
         25    1    1    2    0    0 -0.99206791546E+01 -0.37349926585E+02  0.85886121747E+02  0.15254462560E+03  0.12000000000E+03 0.  0.
<mgrwt>
<rscale>  0 0.25241642E+03</rscale>
<asrwt>0</asrwt>
<pdfrwt beam="1">  1        2 0.35037474E-01 0.25241642E+03</pdfrwt>
<pdfrwt beam="2">  1       -2 0.10760085E-01 0.25241642E+03</pdfrwt>
<totfact> 0.85971248E+03</totfact>
</mgrwt>
</event>
<event>
 4    1  0.1733772E-004  0.3031879E+03  0.7818608E-02  0.1083658E+00
          1   -1    0    0  501    0  0.00000000000E+00  0.00000000000E+00  0.11640368035E+03  0.11640368035E+03  0.00000000000E+00 0.  1.
         -1   -1    0    0    0  501 -0.00000000000E+00 -0.00000000000E+00 -0.19742261145E+03  0.19742261145E+03  0.00000000000E+00 0.  1.
         25    1    1    2    0    0  0.39296393157E+02 -0.83860419116E+02 -0.38454313216E+02  0.15638257772E+03  0.12000000000E+03 0.  0.
         25    1    1    2    0    0 -0.39296393157E+02  0.83860419116E+02 -0.42564617878E+02  0.15744371408E+03  0.12000000000E+03 0.  0.
<mgrwt>
<rscale>  0 0.30318785E+03</rscale>
<asrwt>0</asrwt>
<pdfrwt beam="1">  1        1 0.17908259E-01 0.30318785E+03</pdfrwt>
<pdfrwt beam="2">  1       -1 0.30372709E-01 0.30318785E+03</pdfrwt>
<totfact> 0.29484792E+03</totfact>
</mgrwt>
</event>
<event>
 4    1  0.1733772E-004  0.2554610E+03  0.7818608E-02  0.1109901E+00
          2   -1    0    0  501    0  0.00000000000E+00  0.00000000000E+00  0.33839953964E+04  0.33839953964E+04  0.00000000000E+00 0.  1.
         -2   -1    0    0    0  501 -0.00000000000E+00 -0.00000000000E+00 -0.48212489447E+01  0.48212489447E+01  0.00000000000E+00 0.  1.
         25    1    1    2    0    0  0.91858959714E+01 -0.15109460748E+00  0.11220036289E+04  0.11284398729E+04  0.12000000000E+03 0.  0.
         25    1    1    2    0    0 -0.91858959714E+01  0.15109460748E+00  0.22571705186E+04  0.22603767725E+04  0.12000000000E+03 0.  0.
<mgrwt>
<rscale>  0 0.25546103E+03</rscale>
<asrwt>0</asrwt>
<pdfrwt beam="1">  1        2 0.52061278E+00 0.25546103E+03</pdfrwt>
<pdfrwt beam="2">  1       -2 0.74173331E-03 0.25546103E+03</pdfrwt>
<totfact> 0.39784882E+03</totfact>
</mgrwt>
</event>
<event>
 4    1  0.1733772E-004  0.5022073E+03  0.7818608E-02  0.1013204E+00
          2   -1    0    0  501    0  0.00000000000E+00  0.00000000000E+00  0.62715683856E+02  0.62715683856E+02  0.00000000000E+00 0.  1.
         -2   -1    0    0    0  501 -0.00000000000E+00 -0.00000000000E+00 -0.10053791365E+04  0.10053791365E+04  0.00000000000E+00 0.  1.
         25    1    1    2    0    0  0.21754161248E+03 -0.13955224478E+02 -0.54294962476E+03  0.59725488401E+03  0.12000000000E+03 0.  0.
         25    1    1    2    0    0 -0.21754161248E+03  0.13955224478E+02 -0.39971382788E+03  0.47083993634E+03  0.12000000000E+03 0.  0.
<mgrwt>
<rscale>  0 0.50220729E+03</rscale>
<asrwt>0</asrwt>
<pdfrwt beam="1">  1        2 0.96485674E-02 0.50220729E+03</pdfrwt>
<pdfrwt beam="2">  1       -2 0.15467370E+00 0.50220729E+03</pdfrwt>
<totfact> 0.19562732E+02</totfact>
</mgrwt>
</event>
<event>
 4    1  0.1733772E-004  0.4607997E+03  0.7818608E-02  0.1024550E+00
          2   -1    0    0  501    0  0.00000000000E+00  0.00000000000E+00  0.28484652864E+04  0.28484652864E+04  0.00000000000E+00 0. -1.
         -2   -1    0    0    0  501 -0.00000000000E+00 -0.00000000000E+00 -0.18636035401E+02  0.18636035401E+02  0.00000000000E+00 0. -1.
         25    1    1    2    0    0  0.11990521957E+03  0.49118134424E+02  0.23355673104E+04  0.23422349400E+04  0.12000000000E+03 0.  0.
         25    1    1    2    0    0 -0.11990521957E+03 -0.49118134424E+02  0.49426194063E+03  0.52486638182E+03  0.12000000000E+03 0.  0.
<mgrwt>
<rscale>  0 0.46079974E+03</rscale>
<asrwt>0</asrwt>
<pdfrwt beam="1">  1        2 0.43822508E+00 0.46079974E+03</pdfrwt>
<pdfrwt beam="2">  1       -2 0.28670846E-02 0.46079974E+03</pdfrwt>
<totfact> 0.11295091E+03</totfact>
</mgrwt>
</event>
<event>
 4    1  0.1733772E-004  0.2561764E+03  0.7818608E-02  0.1109463E+00
          2   -1    0    0  501    0  0.00000000000E+00  0.00000000000E+00  0.20994839863E+03  0.20994839863E+03  0.00000000000E+00 0. -1.
         -2   -1    0    0    0  501 -0.00000000000E+00 -0.00000000000E+00 -0.78145833067E+02  0.78145833067E+02  0.00000000000E+00 0. -1.
         25    1    1    2    0    0  0.28378551448E+02 -0.28766057665E+02  0.44159544943E+02  0.13410031195E+03  0.12000000000E+03 0.  0.
         25    1    1    2    0    0 -0.28378551448E+02  0.28766057665E+02  0.87643020622E+02  0.15399391975E+03  0.12000000000E+03 0.  0.
<mgrwt>
<rscale>  0 0.25617644E+03</rscale>
<asrwt>0</asrwt>
<pdfrwt beam="1">  1        2 0.32299753E-01 0.25617644E+03</pdfrwt>
<pdfrwt beam="2">  1       -2 0.12022436E-01 0.25617644E+03</pdfrwt>
<totfact> 0.78653428E+03</totfact>
</mgrwt>
</event>
<event>
 4    1  0.1733772E-004  0.5125279E+03  0.7818608E-02  0.1010560E+00
          1   -1    0    0  501    0  0.00000000000E+00  0.00000000000E+00  0.92296466826E+03  0.92296466826E+03  0.00000000000E+00 0.  1.
         -1   -1    0    0    0  501 -0.00000000000E+00 -0.00000000000E+00 -0.71152461567E+02  0.71152461567E+02  0.00000000000E+00 0.  1.
         25    1    1    2    0    0  0.12710609142E+03  0.62082448315E+02  0.82963353767E+02  0.20320705434E+03  0.12000000000E+03 0.  0.
         25    1    1    2    0    0 -0.12710609142E+03 -0.62082448315E+02  0.76884885293E+03  0.79091007549E+03  0.12000000000E+03 0.  0.
<mgrwt>
<rscale>  0 0.51252788E+03</rscale>
<asrwt>0</asrwt>
<pdfrwt beam="1">  1        1 0.14199456E+00 0.51252788E+03</pdfrwt>
<pdfrwt beam="2">  1       -1 0.10946533E-01 0.51252788E+03</pdfrwt>
<totfact> 0.96432160E+02</totfact>
</mgrwt>
</event>
<event>
 4    1  0.1733772E-004  0.3091532E+03  0.7818608E-02  0.1080752E+00
          2   -1    0    0  501    0  0.00000000000E+00  0.00000000000E+00  0.18467623933E+03  0.18467623933E+03  0.00000000000E+00 0. -1.
         -2   -1    0    0    0  501 -0.00000000000E+00 -0.00000000000E+00 -0.12938274847E+03  0.12938274847E+03  0.00000000000E+00 0. -1.
         25    1    1    2    0    0  0.11620213295E+02 -0.80277342472E+02 -0.27195467422E+02  0.14737392754E+03  0.12000000000E+03 0.  0.
         25    1    1    2    0    0 -0.11620213295E+02  0.80277342472E+02  0.82488958282E+02  0.16668506025E+03  0.12000000000E+03 0.  0.
<mgrwt>
<rscale>  0 0.30915316E+03</rscale>
<asrwt>0</asrwt>
<pdfrwt beam="1">  1        2 0.28411729E-01 0.30915316E+03</pdfrwt>
<pdfrwt beam="2">  1       -2 0.19905038E-01 0.30915316E+03</pdfrwt>
<totfact> 0.39453760E+03</totfact>
</mgrwt>
</event>
<event>
 4    1  0.1733772E-004  0.2644786E+03  0.7818608E-02  0.1104482E+00
         -2   -1    0    0    0  501 -0.00000000000E+00  0.00000000000E+00  0.10723851018E+02  0.10723851018E+02  0.00000000000E+00 0. -1.
          2   -1    0    0  501    0  0.00000000000E+00 -0.00000000000E+00 -0.16306863659E+04  0.16306863659E+04  0.00000000000E+00 0. -1.
         25    1    1    2    0    0 -0.24125339542E+02  0.18050225113E+02 -0.52025056338E+03  0.53476021853E+03  0.12000000000E+03 0.  0.
         25    1    1    2    0    0  0.24125339542E+02 -0.18050225113E+02 -0.10997119515E+04  0.11066499984E+04  0.12000000000E+03 0.  0.
<mgrwt>
<rscale>  0 0.26447864E+03</rscale>
<asrwt>0</asrwt>
<pdfrwt beam="1">  1        2 0.25087493E+00 0.26447864E+03</pdfrwt>
<pdfrwt beam="2">  1       -2 0.16498226E-02 0.26447864E+03</pdfrwt>
<totfact> 0.11914146E+04</totfact>
</mgrwt>
</event>
<event>
 4    1  0.1733772E-004  0.2704905E+03  0.7818608E-02  0.1100999E+00
          2   -1    0    0  501    0  0.00000000000E+00  0.00000000000E+00  0.15532020471E+04  0.15532020471E+04  0.00000000000E+00 0. -1.
         -2   -1    0    0    0  501 -0.00000000000E+00 -0.00000000000E+00 -0.11776492900E+02  0.11776492900E+02  0.00000000000E+00 0. -1.
         25    1    1    2    0    0  0.22337666249E+02 -0.74095918972E+01  0.43647115950E+03  0.45327800129E+03  0.12000000000E+03 0.  0.
         25    1    1    2    0    0 -0.22337666249E+02  0.74095918972E+01  0.11049543947E+04  0.11117005387E+04  0.12000000000E+03 0.  0.
<mgrwt>
<rscale>  0 0.27049046E+03</rscale>
<asrwt>0</asrwt>
<pdfrwt beam="1">  1        2 0.23895400E+00 0.27049046E+03</pdfrwt>
<pdfrwt beam="2">  1       -2 0.18117694E-02 0.27049046E+03</pdfrwt>
<totfact> 0.11421574E+04</totfact>
</mgrwt>
</event>
<event>
 4    1  0.1733772E-004  0.4328772E+03  0.7818608E-02  0.1032955E+00
         -2   -1    0    0    0  501 -0.00000000000E+00  0.00000000000E+00  0.67575426920E+02  0.67575426920E+02  0.00000000000E+00 0. -1.
          2   -1    0    0  501    0  0.00000000000E+00 -0.00000000000E+00 -0.69323525425E+03  0.69323525425E+03  0.00000000000E+00 0. -1.
         25    1    1    2    0    0 -0.71316061232E+02 -0.16440423853E+03 -0.34480285542E+03  0.40669859029E+03  0.12000000000E+03 0.  0.
         25    1    1    2    0    0  0.71316061232E+02  0.16440423853E+03 -0.28085697191E+03  0.35411209088E+03  0.12000000000E+03 0.  0.
<mgrwt>
<rscale>  0 0.43287720E+03</rscale>
<asrwt>0</asrwt>
<pdfrwt beam="1">  1        2 0.10665158E+00 0.43287720E+03</pdfrwt>
<pdfrwt beam="2">  1       -2 0.10396219E-01 0.43287720E+03</pdfrwt>
<totfact> 0.26602364E+03</totfact>
</mgrwt>
</event>
<event>
 4    1  0.1733772E-004  0.2572700E+03  0.7818608E-02  0.1108795E+00
         -2   -1    0    0    0  501 -0.00000000000E+00  0.00000000000E+00  0.96949720808E+02  0.96949720808E+02  0.00000000000E+00 0.  1.
          2   -1    0    0  501    0  0.00000000000E+00 -0.00000000000E+00 -0.17067573215E+03  0.17067573215E+03  0.00000000000E+00 0.  1.
         25    1    1    2    0    0 -0.28555932915E+02  0.24954434577E+02 -0.64557914728E+02  0.14144217710E+03  0.12000000000E+03 0.  0.
         25    1    1    2    0    0  0.28555932915E+02 -0.24954434577E+02 -0.91680966140E+01  0.12618327585E+03  0.12000000000E+03 0.  0.
<mgrwt>
<rscale>  0 0.25727001E+03</rscale>
<asrwt>0</asrwt>
<pdfrwt beam="1">  1        2 0.26257804E-01 0.25727001E+03</pdfrwt>
<pdfrwt beam="2">  1       -2 0.14915342E-01 0.25727001E+03</pdfrwt>
<totfact> 0.69494201E+03</totfact>
</mgrwt>
</event>
<event>
 4    1  0.1733772E-004  0.2743645E+03  0.7818608E-02  0.1098807E+00
          3   -1    0    0  501    0  0.00000000000E+00  0.00000000000E+00  0.47847567234E+03  0.47847567234E+03  0.00000000000E+00 0.  1.
         -3   -1    0    0    0  501 -0.00000000000E+00 -0.00000000000E+00 -0.39331091198E+02  0.39331091198E+02  0.00000000000E+00 0.  1.
         25    1    1    2    0    0 -0.40252639721E+02 -0.37123307329E+02  0.29070492205E+03  0.31922995889E+03  0.12000000000E+03 0.  0.
         25    1    1    2    0    0  0.40252639721E+02  0.37123307329E+02  0.14843965909E+03  0.19857680465E+03  0.12000000000E+03 0.  0.
<mgrwt>
<rscale>  0 0.27436450E+03</rscale>
<asrwt>0</asrwt>
<pdfrwt beam="1">  1        3 0.73611638E-01 0.27436450E+03</pdfrwt>
<pdfrwt beam="2">  1       -3 0.60509375E-02 0.27436450E+03</pdfrwt>
<totfact> 0.76272188E+02</totfact>
</mgrwt>
</event>
<event>
 4    1  0.1733772E-004  0.2802258E+03  0.7818608E-02  0.1095566E+00
          2   -1    0    0  501    0  0.00000000000E+00  0.00000000000E+00  0.40657251273E+03  0.40657251273E+03  0.00000000000E+00 0. -1.
         -2   -1    0    0    0  501 -0.00000000000E+00 -0.00000000000E+00 -0.48285651469E+02  0.48285651469E+02  0.00000000000E+00 0. -1.
         25    1    1    2    0    0  0.25966773575E+02  0.52438631206E+02  0.11013354071E+03  0.17307073745E+03  0.12000000000E+03 0.  0.
         25    1    1    2    0    0 -0.25966773575E+02 -0.52438631206E+02  0.24815332055E+03  0.28178742675E+03  0.12000000000E+03 0.  0.
<mgrwt>
<rscale>  0 0.28022576E+03</rscale>
<asrwt>0</asrwt>
<pdfrwt beam="1">  1        2 0.62549615E-01 0.28022576E+03</pdfrwt>
<pdfrwt beam="2">  1       -2 0.74285620E-02 0.28022576E+03</pdfrwt>
<totfact> 0.82818519E+03</totfact>
</mgrwt>
</event>
<event>
 4    1  0.1733772E-004  0.3336719E+03  0.7818608E-02  0.1069524E+00
          2   -1    0    0  501    0  0.00000000000E+00  0.00000000000E+00  0.99090844122E+03  0.99090844122E+03  0.00000000000E+00 0.  1.
         -2   -1    0    0    0  501 -0.00000000000E+00 -0.00000000000E+00 -0.28089620254E+02  0.28089620254E+02  0.00000000000E+00 0.  1.
         25    1    1    2    0    0 -0.56986015344E+02 -0.97067894541E+02  0.39696172088E+03  0.42970709785E+03  0.12000000000E+03 0.  0.
         25    1    1    2    0    0  0.56986015344E+02  0.97067894541E+02  0.56585710008E+03  0.58929096362E+03  0.12000000000E+03 0.  0.
<mgrwt>
<rscale>  0 0.33367195E+03</rscale>
<asrwt>0</asrwt>
<pdfrwt beam="1">  1        2 0.15244743E+00 0.33367195E+03</pdfrwt>
<pdfrwt beam="2">  1       -2 0.43214808E-02 0.33367195E+03</pdfrwt>
<totfact> 0.65252218E+03</totfact>
</mgrwt>
</event>
<event>
 4    1  0.1733772E-004  0.3582874E+03  0.7818608E-02  0.1059264E+00
          1   -1    0    0  501    0  0.00000000000E+00  0.00000000000E+00  0.11321215951E+04  0.11321215951E+04  0.00000000000E+00 0. -1.
         -1   -1    0    0    0  501 -0.00000000000E+00 -0.00000000000E+00 -0.28347186256E+02  0.28347186256E+02  0.00000000000E+00 0. -1.
         25    1    1    2    0    0 -0.12390751549E+03 -0.46844068677E+02  0.51288225416E+03  0.54313501618E+03  0.12000000000E+03 0.  0.
         25    1    1    2    0    0  0.12390751549E+03  0.46844068677E+02  0.59089215470E+03  0.61733376519E+03  0.12000000000E+03 0.  0.
<mgrwt>
<rscale>  0 0.35828738E+03</rscale>
<asrwt>0</asrwt>
<pdfrwt beam="1">  1        1 0.17417252E+00 0.35828738E+03</pdfrwt>
<pdfrwt beam="2">  1       -1 0.43611064E-02 0.35828738E+03</pdfrwt>
<totfact> 0.27700635E+03</totfact>
</mgrwt>
</event>
<event>
 4    1  0.1733772E-004  0.2696157E+03  0.7818608E-02  0.1101500E+00
         -1   -1    0    0    0  501 -0.00000000000E+00  0.00000000000E+00  0.16650070204E+03  0.16650070204E+03  0.00000000000E+00 0.  1.
          1   -1    0    0  501    0  0.00000000000E+00 -0.00000000000E+00 -0.10914760754E+03  0.10914760754E+03  0.00000000000E+00 0.  1.
         25    1    1    2    0    0 -0.28578380865E+02 -0.31008906010E+02 -0.16986855765E+02  0.12832314434E+03  0.12000000000E+03 0.  0.
         25    1    1    2    0    0  0.28578380865E+02  0.31008906010E+02  0.74339950265E+02  0.14732516523E+03  0.12000000000E+03 0.  0.
<mgrwt>
<rscale>  0 0.26961568E+03</rscale>
<asrwt>0</asrwt>
<pdfrwt beam="1">  1        1 0.16791940E-01 0.26961568E+03</pdfrwt>
<pdfrwt beam="2">  1       -1 0.25615493E-01 0.26961568E+03</pdfrwt>
<totfact> 0.42609966E+03</totfact>
</mgrwt>
</event>
<event>
 4    1  0.1733772E-004  0.2669103E+03  0.7818608E-02  0.1103061E+00
         -1   -1    0    0    0  501 -0.00000000000E+00  0.00000000000E+00  0.15072487248E+02  0.15072487248E+02  0.00000000000E+00 0.  1.
          1   -1    0    0  501    0  0.00000000000E+00 -0.00000000000E+00 -0.11816419656E+04  0.11816419656E+04  0.00000000000E+00 0.  1.
         25    1    1    2    0    0  0.18147231159E+02 -0.54749354872E+02 -0.54232197138E+03  0.55842630176E+03  0.12000000000E+03 0.  0.
         25    1    1    2    0    0 -0.18147231159E+02  0.54749354872E+02 -0.62424750698E+03  0.63828815110E+03  0.12000000000E+03 0.  0.
<mgrwt>
<rscale>  0 0.26691035E+03</rscale>
<asrwt>0</asrwt>
<pdfrwt beam="1">  1        1 0.18179112E+00 0.26691035E+03</pdfrwt>
<pdfrwt beam="2">  1       -1 0.23188436E-02 0.26691035E+03</pdfrwt>
<totfact> 0.65012446E+03</totfact>
</mgrwt>
</event>
<event>
 4    1  0.1733772E-004  0.2745220E+03  0.7818608E-02  0.1098719E+00
          1   -1    0    0  501    0  0.00000000000E+00  0.00000000000E+00  0.13488558066E+03  0.13488558066E+03  0.00000000000E+00 0.  1.
         -1   -1    0    0    0  501 -0.00000000000E+00 -0.00000000000E+00 -0.13967826785E+03  0.13967826785E+03  0.00000000000E+00 0.  1.
         25    1    1    2    0    0  0.27513126501E+02  0.57669630530E+02  0.16522824251E+02  0.13695167811E+03  0.12000000000E+03 0.  0.
         25    1    1    2    0    0 -0.27513126501E+02 -0.57669630530E+02 -0.21315511448E+02  0.13761217041E+03  0.12000000000E+03 0.  0.
<mgrwt>
<rscale>  0 0.27452202E+03</rscale>
<asrwt>0</asrwt>
<pdfrwt beam="1">  1        1 0.20751628E-01 0.27452202E+03</pdfrwt>
<pdfrwt beam="2">  1       -1 0.21488964E-01 0.27452202E+03</pdfrwt>
<totfact> 0.43328846E+03</totfact>
</mgrwt>
</event>
<event>
 4    1  0.1733772E-004  0.2742092E+03  0.7818608E-02  0.1098894E+00
         -2   -1    0    0    0  501 -0.00000000000E+00  0.00000000000E+00  0.10869366481E+02  0.10869366481E+02  0.00000000000E+00 0.  1.
          2   -1    0    0  501    0  0.00000000000E+00 -0.00000000000E+00 -0.17294167536E+04  0.17294167536E+04  0.00000000000E+00 0.  1.
         25    1    1    2    0    0 -0.56522688117E+02 -0.19604869659E+02 -0.10408452732E+04  0.10494465436E+04  0.12000000000E+03 0.  0.
         25    1    1    2    0    0  0.56522688117E+02  0.19604869659E+02 -0.67770211391E+03  0.69083957644E+03  0.12000000000E+03 0.  0.
<mgrwt>
<rscale>  0 0.27420915E+03</rscale>
<asrwt>0</asrwt>
<pdfrwt beam="1">  1        2 0.26606392E+00 0.27420915E+03</pdfrwt>
<pdfrwt beam="2">  1       -2 0.16722115E-02 0.27420915E+03</pdfrwt>
<totfact> 0.10369861E+04</totfact>
</mgrwt>
</event>
<event>
 4    1  0.1733772E-004  0.2471860E+03  0.7818608E-02  0.1115096E+00
         -1   -1    0    0    0  501 -0.00000000000E+00  0.00000000000E+00  0.89439484896E+03  0.89439484896E+03  0.00000000000E+00 0. -1.
          1   -1    0    0  501    0  0.00000000000E+00 -0.00000000000E+00 -0.17078839387E+02  0.17078839387E+02  0.00000000000E+00 0. -1.
         25    1    1    2    0    0 -0.22806834339E+02  0.75802810870E+01  0.50227112824E+03  0.51696605170E+03  0.12000000000E+03 0.  0.
         25    1    1    2    0    0  0.22806834339E+02 -0.75802810870E+01  0.37504488133E+03  0.39450763664E+03  0.12000000000E+03 0.  0.
<mgrwt>
<rscale>  0 0.24718597E+03</rscale>
<asrwt>0</asrwt>
<pdfrwt beam="1">  1        1 0.26275145E-02 0.24718597E+03</pdfrwt>
<pdfrwt beam="2">  1       -1 0.13759917E+00 0.24718597E+03</pdfrwt>
<totfact> 0.19336861E+03</totfact>
</mgrwt>
</event>
<event>
 4    1  0.1733772E-004  0.2804666E+03  0.7818608E-02  0.1095434E+00
         -3   -1    0    0    0  501 -0.00000000000E+00  0.00000000000E+00  0.53506138155E+03  0.53506138155E+03  0.00000000000E+00 0.  1.
          3   -1    0    0  501    0  0.00000000000E+00 -0.00000000000E+00 -0.36753496374E+02  0.36753496374E+02  0.00000000000E+00 0.  1.
         25    1    1    2    0    0 -0.43718760855E+02 -0.51856241613E+02  0.30172873140E+03  0.33172372118E+03  0.12000000000E+03 0.  0.
         25    1    1    2    0    0  0.43718760855E+02  0.51856241613E+02  0.19657915378E+03  0.24009115674E+03  0.12000000000E+03 0.  0.
<mgrwt>
<rscale>  0 0.28046659E+03</rscale>
<asrwt>0</asrwt>
<pdfrwt beam="1">  1        3 0.56543844E-02 0.28046659E+03</pdfrwt>
<pdfrwt beam="2">  1       -3 0.82317130E-01 0.28046659E+03</pdfrwt>
<totfact> 0.66713584E+02</totfact>
</mgrwt>
</event>
<event>
 4    1  0.1733772E-004  0.2765120E+03  0.7818608E-02  0.1097609E+00
         -2   -1    0    0    0  501 -0.00000000000E+00  0.00000000000E+00  0.12609303211E+02  0.12609303211E+02  0.00000000000E+00 0.  1.
          2   -1    0    0  501    0  0.00000000000E+00 -0.00000000000E+00 -0.15159218099E+04  0.15159218099E+04  0.00000000000E+00 0.  1.
         25    1    1    2    0    0  0.23032050085E+02 -0.48892127170E+02 -0.98578116843E+03  0.99452774093E+03  0.12000000000E+03 0.  0.
         25    1    1    2    0    0 -0.23032050085E+02  0.48892127170E+02 -0.51753133827E+03  0.53400337220E+03  0.12000000000E+03 0.  0.
<mgrwt>
<rscale>  0 0.27651197E+03</rscale>
<asrwt>0</asrwt>
<pdfrwt beam="1">  1        2 0.23321879E+00 0.27651197E+03</pdfrwt>
<pdfrwt beam="2">  1       -2 0.19398924E-02 0.27651197E+03</pdfrwt>
<totfact> 0.10819535E+04</totfact>
</mgrwt>
</event>
<event>
 4    1  0.1733772E-004  0.3819079E+03  0.7818608E-02  0.1050231E+00
          2   -1    0    0  501    0  0.00000000000E+00  0.00000000000E+00  0.10646882448E+03  0.10646882448E+03  0.00000000000E+00 0.  1.
         -2   -1    0    0    0  501 -0.00000000000E+00 -0.00000000000E+00 -0.34247973365E+03  0.34247973365E+03  0.00000000000E+00 0.  1.
         25    1    1    2    0    0  0.11169455288E+03 -0.83741805503E+01 -0.23268922824E+03  0.28476319457E+03  0.12000000000E+03 0.  0.
         25    1    1    2    0    0 -0.11169455288E+03  0.83741805503E+01 -0.33216809233E+01  0.16418536356E+03  0.12000000000E+03 0.  0.
<mgrwt>
<rscale>  0 0.38190792E+03</rscale>
<asrwt>0</asrwt>
<pdfrwt beam="1">  1        2 0.16379820E-01 0.38190792E+03</pdfrwt>
<pdfrwt beam="2">  1       -2 0.52689189E-01 0.38190792E+03</pdfrwt>
<totfact> 0.12205322E+03</totfact>
</mgrwt>
</event>
<event>
 4    1  0.1733772E-004  0.3101448E+03  0.7818608E-02  0.1080276E+00
         -3   -1    0    0    0  501 -0.00000000000E+00  0.00000000000E+00  0.12351228757E+03  0.12351228757E+03  0.00000000000E+00 0. -1.
          3   -1    0    0  501    0  0.00000000000E+00 -0.00000000000E+00 -0.19469680101E+03  0.19469680101E+03  0.00000000000E+00 0. -1.
         25    1    1    2    0    0 -0.39761591278E+01 -0.51321009212E+02  0.50235663921E+02  0.13990453087E+03  0.12000000000E+03 0.  0.
         25    1    1    2    0    0  0.39761591278E+01  0.51321009212E+02 -0.12142017736E+03  0.17830455771E+03  0.12000000000E+03 0.  0.
<mgrwt>
<rscale>  0 0.31014479E+03</rscale>
<asrwt>0</asrwt>
<pdfrwt beam="1">  1        3 0.29953354E-01 0.31014479E+03</pdfrwt>
<pdfrwt beam="2">  1       -3 0.19001890E-01 0.31014479E+03</pdfrwt>
<totfact> 0.68003555E+02</totfact>
</mgrwt>
</event>
<event>
 4    1  0.1733772E-004  0.3451463E+03  0.7818608E-02  0.1064625E+00
          2   -1    0    0  501    0  0.00000000000E+00  0.00000000000E+00  0.17036402413E+04  0.17036402413E+04  0.00000000000E+00 0.  1.
         -2   -1    0    0    0  501 -0.00000000000E+00 -0.00000000000E+00 -0.17481093947E+02  0.17481093947E+02  0.00000000000E+00 0.  1.
         25    1    1    2    0    0  0.97586543176E+02 -0.76220418086E+02  0.87791817647E+03  0.89469157262E+03  0.12000000000E+03 0.  0.
         25    1    1    2    0    0 -0.97586543176E+02  0.76220418086E+02  0.80824097093E+03  0.82642976267E+03  0.12000000000E+03 0.  0.
<mgrwt>
<rscale>  0 0.34514632E+03</rscale>
<asrwt>0</asrwt>
<pdfrwt beam="1">  1        2 0.26209837E+00 0.34514632E+03</pdfrwt>
<pdfrwt beam="2">  1       -2 0.26894004E-02 0.34514632E+03</pdfrwt>
<totfact> 0.53092817E+03</totfact>
</mgrwt>
</event>
<event>
 4    1  0.1733772E-004  0.2696030E+03  0.7818608E-02  0.1101507E+00
         -2   -1    0    0    0  501 -0.00000000000E+00  0.00000000000E+00  0.63033382436E+01  0.63033382436E+01  0.00000000000E+00 0. -1.
          2   -1    0    0  501    0  0.00000000000E+00 -0.00000000000E+00 -0.28828276783E+04  0.28828276783E+04  0.00000000000E+00 0. -1.
         25    1    1    2    0    0 -0.59756193536E+02  0.60115507548E+01 -0.13008196895E+04  0.13077227557E+04  0.12000000000E+03 0.  0.
         25    1    1    2    0    0  0.59756193536E+02 -0.60115507548E+01 -0.15757046506E+04  0.15814082608E+04  0.12000000000E+03 0.  0.
<mgrwt>
<rscale>  0 0.26960295E+03</rscale>
<asrwt>0</asrwt>
<pdfrwt beam="1">  1        2 0.44351307E+00 0.26960295E+03</pdfrwt>
<pdfrwt beam="2">  1       -2 0.96974189E-03 0.26960295E+03</pdfrwt>
<totfact> 0.54433176E+03</totfact>
</mgrwt>
</event>
<event>
 4    1  0.1733772E-004  0.2949829E+03  0.7818608E-02  0.1087776E+00
         -2   -1    0    0    0  501 -0.00000000000E+00  0.00000000000E+00  0.19362504196E+02  0.19362504196E+02  0.00000000000E+00 0. -1.
          2   -1    0    0  501    0  0.00000000000E+00 -0.00000000000E+00 -0.11234976331E+04  0.11234976331E+04  0.00000000000E+00 0. -1.
         25    1    1    2    0    0 -0.25284081663E+02 -0.79671250489E+02 -0.47785274507E+03  0.49972996599E+03  0.12000000000E+03 0.  0.
         25    1    1    2    0    0  0.25284081663E+02  0.79671250489E+02 -0.62628238385E+03  0.64313017132E+03  0.12000000000E+03 0.  0.
<mgrwt>
<rscale>  0 0.29498290E+03</rscale>
<asrwt>0</asrwt>
<pdfrwt beam="1">  1        2 0.17284575E+00 0.29498290E+03</pdfrwt>
<pdfrwt beam="2">  1       -2 0.29788475E-02 0.29498290E+03</pdfrwt>
<totfact> 0.94786112E+03</totfact>
</mgrwt>
</event>
<event>
 4    1  0.1733772E-004  0.2698598E+03  0.7818608E-02  0.1101360E+00
         -2   -1    0    0    0  501 -0.00000000000E+00  0.00000000000E+00  0.20317025230E+02  0.20317025230E+02  0.00000000000E+00 0. -1.
          2   -1    0    0  501    0  0.00000000000E+00 -0.00000000000E+00 -0.89609966727E+03  0.89609966727E+03  0.00000000000E+00 0. -1.
         25    1    1    2    0    0 -0.58841642007E+02 -0.11702582970E+02 -0.38905759938E+03  0.41153991898E+03  0.12000000000E+03 0.  0.
         25    1    1    2    0    0  0.58841642007E+02  0.11702582970E+02 -0.48672504266E+03  0.50487677351E+03  0.12000000000E+03 0.  0.
<mgrwt>
<rscale>  0 0.26985981E+03</rscale>
<asrwt>0</asrwt>
<pdfrwt beam="1">  1        2 0.13786150E+00 0.26985981E+03</pdfrwt>
<pdfrwt beam="2">  1       -2 0.31256958E-02 0.26985981E+03</pdfrwt>
<totfact> 0.12125240E+04</totfact>
</mgrwt>
</event>
<event>
 4    1  0.1733772E-004  0.3335552E+03  0.7818608E-02  0.1069575E+00
          1   -1    0    0  501    0  0.00000000000E+00  0.00000000000E+00  0.36413355921E+03  0.36413355921E+03  0.00000000000E+00 0.  1.
         -1   -1    0    0    0  501 -0.00000000000E+00 -0.00000000000E+00 -0.76386173641E+02  0.76386173641E+02  0.00000000000E+00 0.  1.
         25    1    1    2    0    0 -0.64398073762E+02 -0.85351526803E+01  0.27051313412E+03  0.30298071963E+03  0.12000000000E+03 0.  0.
         25    1    1    2    0    0  0.64398073762E+02  0.85351526803E+01  0.17234251452E+02  0.13753901322E+03  0.12000000000E+03 0.  0.
<mgrwt>
<rscale>  0 0.33355521E+03</rscale>
<asrwt>0</asrwt>
<pdfrwt beam="1">  1        1 0.56020546E-01 0.33355521E+03</pdfrwt>
<pdfrwt beam="2">  1       -1 0.11751719E-01 0.33355521E+03</pdfrwt>
<totfact> 0.32439528E+03</totfact>
</mgrwt>
</event>
<event>
 4    1  0.1733772E-004  0.4045128E+03  0.7818608E-02  0.1042228E+00
         -2   -1    0    0    0  501 -0.00000000000E+00  0.00000000000E+00  0.19318072444E+03  0.19318072444E+03  0.00000000000E+00 0.  1.
          2   -1    0    0  501    0  0.00000000000E+00 -0.00000000000E+00 -0.21175840517E+03  0.21175840517E+03  0.00000000000E+00 0.  1.
         25    1    1    2    0    0 -0.10453436100E+03 -0.84370614005E+02 -0.10137389160E+03  0.20669421626E+03  0.12000000000E+03 0.  0.
         25    1    1    2    0    0  0.10453436100E+03  0.84370614005E+02  0.82796210866E+02  0.19824491335E+03  0.12000000000E+03 0.  0.
<mgrwt>
<rscale>  0 0.40451275E+03</rscale>
<asrwt>0</asrwt>
<pdfrwt beam="1">  1        2 0.32578216E-01 0.40451275E+03</pdfrwt>
<pdfrwt beam="2">  1       -2 0.29720111E-01 0.40451275E+03</pdfrwt>
<totfact> 0.16769691E+03</totfact>
</mgrwt>
</event>
<event>
 4    1  0.1733772E-004  0.2658824E+03  0.7818608E-02  0.1103660E+00
         -2   -1    0    0    0  501 -0.00000000000E+00  0.00000000000E+00  0.97335907209E+01  0.97335907209E+01  0.00000000000E+00 0. -1.
          2   -1    0    0  501    0  0.00000000000E+00 -0.00000000000E+00 -0.18157078014E+04  0.18157078014E+04  0.00000000000E+00 0. -1.
         25    1    1    2    0    0  0.51217349508E+02  0.19978309580E+02 -0.10117601227E+04  0.10203337178E+04  0.12000000000E+03 0.  0.
         25    1    1    2    0    0 -0.51217349508E+02 -0.19978309580E+02 -0.79421408796E+03  0.80510767432E+03  0.12000000000E+03 0.  0.
<mgrwt>
<rscale>  0 0.26588235E+03</rscale>
<asrwt>0</asrwt>
<pdfrwt beam="1">  1        2 0.27933952E+00 0.26588235E+03</pdfrwt>
<pdfrwt beam="2">  1       -2 0.14974763E-02 0.26588235E+03</pdfrwt>
<totfact> 0.10974780E+04</totfact>
</mgrwt>
</event>
<event>
 4    1  0.1733772E-004  0.2918569E+03  0.7818608E-02  0.1089384E+00
         -2   -1    0    0    0  501 -0.00000000000E+00  0.00000000000E+00  0.34069156127E+02  0.34069156127E+02  0.00000000000E+00 0.  1.
          2   -1    0    0  501    0  0.00000000000E+00 -0.00000000000E+00 -0.62505526627E+03  0.62505526627E+03  0.00000000000E+00 0.  1.
         25    1    1    2    0    0  0.44657053592E+02 -0.25131212181E+02 -0.44305507296E+03  0.46186970883E+03  0.12000000000E+03 0.  0.
         25    1    1    2    0    0 -0.44657053592E+02  0.25131212181E+02 -0.14793103718E+03  0.19725471356E+03  0.12000000000E+03 0.  0.
<mgrwt>
<rscale>  0 0.29185685E+03</rscale>
<asrwt>0</asrwt>
<pdfrwt beam="1">  1        2 0.96162343E-01 0.29185685E+03</pdfrwt>
<pdfrwt beam="2">  1       -2 0.52414089E-02 0.29185685E+03</pdfrwt>
<totfact> 0.87435913E+03</totfact>
</mgrwt>
</event>
<event>
 4    1  0.1733772E-004  0.2933857E+03  0.7818608E-02  0.1088595E+00
          1   -1    0    0  501    0  0.00000000000E+00  0.00000000000E+00  0.97083754446E+02  0.97083754446E+02  0.00000000000E+00 0.  1.
         -1   -1    0    0    0  501 -0.00000000000E+00 -0.00000000000E+00 -0.22165189058E+03  0.22165189058E+03  0.00000000000E+00 0.  1.
         25    1    1    2    0    0 -0.79056523826E+01  0.41102144884E+02  0.17305083852E+02  0.12826282229E+03  0.12000000000E+03 0.  0.
         25    1    1    2    0    0  0.79056523826E+01 -0.41102144884E+02 -0.14187321999E+03  0.19047282274E+03  0.12000000000E+03 0.  0.
<mgrwt>
<rscale>  0 0.29338574E+03</rscale>
<asrwt>0</asrwt>
<pdfrwt beam="1">  1        1 0.14935962E-01 0.29338574E+03</pdfrwt>
<pdfrwt beam="2">  1       -1 0.34100290E-01 0.29338574E+03</pdfrwt>
<totfact> 0.30612070E+03</totfact>
</mgrwt>
</event>
<event>
 4    1  0.1733772E-004  0.2489239E+03  0.7818608E-02  0.1113987E+00
          1   -1    0    0  501    0  0.00000000000E+00  0.00000000000E+00  0.56817810508E+02  0.56817810508E+02  0.00000000000E+00 0.  1.
         -1   -1    0    0    0  501 -0.00000000000E+00 -0.00000000000E+00 -0.27263955156E+03  0.27263955156E+03  0.00000000000E+00 0.  1.
         25    1    1    2    0    0  0.24138905508E+02  0.17549135797E+02 -0.12663413347E+03  0.17699396228E+03  0.12000000000E+03 0.  0.
         25    1    1    2    0    0 -0.24138905508E+02 -0.17549135797E+02 -0.89187607585E+02  0.15246339978E+03  0.12000000000E+03 0.  0.
<mgrwt>
<rscale>  0 0.24892394E+03</rscale>
<asrwt>0</asrwt>
<pdfrwt beam="1">  1        1 0.87412016E-02 0.24892394E+03</pdfrwt>
<pdfrwt beam="2">  1       -1 0.41944547E-01 0.24892394E+03</pdfrwt>
<totfact> 0.43239029E+03</totfact>
</mgrwt>
</event>
<event>
 4    1  0.1733772E-004  0.4216882E+03  0.7818608E-02  0.1036518E+00
          1   -1    0    0  501    0  0.00000000000E+00  0.00000000000E+00  0.22164417223E+04  0.22164417223E+04  0.00000000000E+00 0.  1.
         -1   -1    0    0    0  501 -0.00000000000E+00 -0.00000000000E+00 -0.20057030506E+02  0.20057030506E+02  0.00000000000E+00 0.  1.
         25    1    1    2    0    0  0.15357454579E+03 -0.69255895297E+02  0.88121296101E+03  0.90516175505E+03  0.12000000000E+03 0.  0.
         25    1    1    2    0    0 -0.15357454579E+03  0.69255895297E+02  0.13151717308E+04  0.13313369978E+04  0.12000000000E+03 0.  0.
<mgrwt>
<rscale>  0 0.42168822E+03</rscale>
<asrwt>0</asrwt>
<pdfrwt beam="1">  1        1 0.34099084E+00 0.42168822E+03</pdfrwt>
<pdfrwt beam="2">  1       -1 0.30856988E-02 0.42168822E+03</pdfrwt>
<totfact> 0.86937155E+02</totfact>
</mgrwt>
</event>
<event>
 4    1  0.1733772E-004  0.3295719E+03  0.7818608E-02  0.1071326E+00
          2   -1    0    0  501    0  0.00000000000E+00  0.00000000000E+00  0.14122100718E+04  0.14122100718E+04  0.00000000000E+00 0.  1.
         -2   -1    0    0    0  501 -0.00000000000E+00 -0.00000000000E+00 -0.19228302122E+02  0.19228302122E+02  0.00000000000E+00 0.  1.
         25    1    1    2    0    0  0.63543751644E+02 -0.92827577327E+02  0.73984469450E+03  0.75790826587E+03  0.12000000000E+03 0.  0.
         25    1    1    2    0    0 -0.63543751644E+02  0.92827577327E+02  0.65313707513E+03  0.67353010801E+03  0.12000000000E+03 0.  0.
<mgrwt>
<rscale>  0 0.32957186E+03</rscale>
<asrwt>0</asrwt>
<pdfrwt beam="1">  1        2 0.21726301E+00 0.32957186E+03</pdfrwt>
<pdfrwt beam="2">  1       -2 0.29582014E-02 0.32957186E+03</pdfrwt>
<totfact> 0.66021636E+03</totfact>
</mgrwt>
</event>
<event>
 4    1  0.1733772E-004  0.3064397E+03  0.7818608E-02  0.1082065E+00
          3   -1    0    0  501    0  0.00000000000E+00  0.00000000000E+00  0.84658925171E+02  0.84658925171E+02  0.00000000000E+00 0.  1.
         -3   -1    0    0    0  501 -0.00000000000E+00 -0.00000000000E+00 -0.27730471892E+03  0.27730471892E+03  0.00000000000E+00 0.  1.
         25    1    1    2    0    0  0.40800171050E+02 -0.65226412255E+02 -0.16269256809E+03  0.21630536407E+03  0.12000000000E+03 0.  0.
         25    1    1    2    0    0 -0.40800171050E+02  0.65226412255E+02 -0.29953225667E+02  0.14565828003E+03  0.12000000000E+03 0.  0.
<mgrwt>
<rscale>  0 0.30643968E+03</rscale>
<asrwt>0</asrwt>
<pdfrwt beam="1">  1        3 0.13024449E-01 0.30643968E+03</pdfrwt>
<pdfrwt beam="2">  1       -3 0.42662266E-01 0.30643968E+03</pdfrwt>
<totfact> 0.66462897E+02</totfact>
</mgrwt>
</event>
<event>
 4    1  0.1733772E-004  0.5235499E+03  0.7818608E-02  0.1007808E+00
         -1   -1    0    0    0  501 -0.00000000000E+00  0.00000000000E+00  0.41414709511E+03  0.41414709511E+03  0.00000000000E+00 0. -1.
          1   -1    0    0  501    0  0.00000000000E+00 -0.00000000000E+00 -0.16546323725E+03  0.16546323725E+03  0.00000000000E+00 0. -1.
         25    1    1    2    0    0 -0.20801321560E+03 -0.21111081128E+02  0.11382341247E+02  0.24133945658E+03  0.12000000000E+03 0.  0.
         25    1    1    2    0    0  0.20801321560E+03  0.21111081128E+02  0.23730151662E+03  0.33827087578E+03  0.12000000000E+03 0.  0.
<mgrwt>
<rscale>  0 0.52354988E+03</rscale>
<asrwt>0</asrwt>
<pdfrwt beam="1">  1        1 0.25455883E-01 0.52354988E+03</pdfrwt>
<pdfrwt beam="2">  1       -1 0.63714937E-01 0.52354988E+03</pdfrwt>
<totfact> 0.48217008E+02</totfact>
</mgrwt>
</event>
<event>
 4    1  0.1733772E-004  0.6080949E+03  0.7818608E-02  0.9888753E-01
         -1   -1    0    0    0  501 -0.00000000000E+00  0.00000000000E+00  0.75422731155E+02  0.75422731155E+02  0.00000000000E+00 0.  1.
          1   -1    0    0  501    0  0.00000000000E+00 -0.00000000000E+00 -0.12256893640E+04  0.12256893640E+04  0.00000000000E+00 0.  1.
         25    1    1    2    0    0  0.20857491374E+03 -0.13122789357E+03 -0.29353849974E+03  0.40160814923E+03  0.12000000000E+03 0.  0.
         25    1    1    2    0    0 -0.20857491374E+03  0.13122789357E+03 -0.85672813315E+03  0.89950394597E+03  0.12000000000E+03 0.  0.
<mgrwt>
<rscale>  0 0.60809486E+03</rscale>
<asrwt>0</asrwt>
<pdfrwt beam="1">  1        1 0.18856760E+00 0.60809486E+03</pdfrwt>
<pdfrwt beam="2">  1       -1 0.11603497E-01 0.60809486E+03</pdfrwt>
<totfact> 0.51943091E+02</totfact>
</mgrwt>
</event>
<event>
 4    1  0.1733772E-004  0.2761442E+03  0.7818608E-02  0.1097814E+00
         -1   -1    0    0    0  501 -0.00000000000E+00  0.00000000000E+00  0.15676867984E+04  0.15676867984E+04  0.00000000000E+00 0.  1.
          1   -1    0    0  501    0  0.00000000000E+00 -0.00000000000E+00 -0.12160527865E+02  0.12160527865E+02  0.00000000000E+00 0.  1.
         25    1    1    2    0    0 -0.51732442353E+02  0.22965573902E+02  0.55914269807E+03  0.57466879155E+03  0.12000000000E+03 0.  0.
         25    1    1    2    0    0  0.51732442353E+02 -0.22965573902E+02  0.99638357250E+03  0.10051785347E+04  0.12000000000E+03 0.  0.
<mgrwt>
<rscale>  0 0.27614416E+03</rscale>
<asrwt>0</asrwt>
<pdfrwt beam="1">  1        1 0.18708517E-02 0.27614416E+03</pdfrwt>
<pdfrwt beam="2">  1       -1 0.24118242E+00 0.27614416E+03</pdfrwt>
<totfact> 0.59991989E+02</totfact>
</mgrwt>
</event>
<event>
 4    1  0.1733772E-004  0.2782042E+03  0.7818608E-02  0.1096674E+00
         -2   -1    0    0    0  501 -0.00000000000E+00  0.00000000000E+00  0.80805782525E+02  0.80805782525E+02  0.00000000000E+00 0. -1.
          2   -1    0    0  501    0  0.00000000000E+00 -0.00000000000E+00 -0.23945555553E+03  0.23945555553E+03  0.00000000000E+00 0. -1.
         25    1    1    2    0    0 -0.33185272754E+01 -0.69070908548E+02 -0.94227606960E+02  0.16751311872E+03  0.12000000000E+03 0.  0.
         25    1    1    2    0    0  0.33185272754E+01  0.69070908548E+02 -0.64422166043E+02  0.15274821933E+03  0.12000000000E+03 0.  0.
<mgrwt>
<rscale>  0 0.27820420E+03</rscale>
<asrwt>0</asrwt>
<pdfrwt beam="1">  1        2 0.36839316E-01 0.27820420E+03</pdfrwt>
<pdfrwt beam="2">  1       -2 0.12431659E-01 0.27820420E+03</pdfrwt>
<totfact> 0.64803183E+03</totfact>
</mgrwt>
</event>
<event>
 4    1  0.1733772E-004  0.2754653E+03  0.7818608E-02  0.1098192E+00
          1   -1    0    0  501    0  0.00000000000E+00  0.00000000000E+00  0.90167605921E+03  0.90167605921E+03  0.00000000000E+00 0.  1.
         -1   -1    0    0    0  501 -0.00000000000E+00 -0.00000000000E+00 -0.21038911425E+02  0.21038911425E+02  0.00000000000E+00 0.  1.
         25    1    1    2    0    0 -0.59483457811E+02 -0.64531328376E+01  0.54573220926E+03  0.56196402812E+03  0.12000000000E+03 0.  0.
         25    1    1    2    0    0  0.59483457811E+02  0.64531328376E+01  0.33490493852E+03  0.36075094251E+03  0.12000000000E+03 0.  0.
<mgrwt>
<rscale>  0 0.27546530E+03</rscale>
<asrwt>0</asrwt>
<pdfrwt beam="1">  1        1 0.13871936E+00 0.27546530E+03</pdfrwt>
<pdfrwt beam="2">  1       -1 0.32367563E-02 0.27546530E+03</pdfrwt>
<totfact> 0.64095126E+03</totfact>
</mgrwt>
</event>
<event>
 4    1  0.1733772E-004  0.3058114E+03  0.7818608E-02  0.1082371E+00
          2   -1    0    0  501    0  0.00000000000E+00  0.00000000000E+00  0.24870961628E+02  0.24870961628E+02  0.00000000000E+00 0.  1.
         -2   -1    0    0    0  501 -0.00000000000E+00 -0.00000000000E+00 -0.94005854511E+03  0.94005854511E+03  0.00000000000E+00 0.  1.
         25    1    1    2    0    0 -0.30941092700E+02  0.47717247456E+02 -0.21841654282E+03  0.25561704384E+03  0.12000000000E+03 0.  0.
         25    1    1    2    0    0  0.30941092700E+02 -0.47717247456E+02 -0.69677104065E+03  0.70931246289E+03  0.12000000000E+03 0.  0.
<mgrwt>
<rscale>  0 0.30581145E+03</rscale>
<asrwt>0</asrwt>
<pdfrwt beam="1">  1        2 0.38263025E-02 0.30581145E+03</pdfrwt>
<pdfrwt beam="2">  1       -2 0.14462436E+00 0.30581145E+03</pdfrwt>
<totfact> 0.78638823E+02</totfact>
</mgrwt>
</event>
<event>
 4    1  0.1733772E-004  0.2507959E+03  0.7818608E-02  0.1112803E+00
         -2   -1    0    0    0  501 -0.00000000000E+00  0.00000000000E+00  0.43927346731E+03  0.43927346731E+03  0.00000000000E+00 0.  1.
          2   -1    0    0  501    0  0.00000000000E+00 -0.00000000000E+00 -0.35796950280E+02  0.35796950280E+02  0.00000000000E+00 0.  1.
         25    1    1    2    0    0 -0.81898768384E+01  0.16048671933E+02  0.26164022478E+03  0.28840984931E+03  0.12000000000E+03 0.  0.
         25    1    1    2    0    0  0.81898768384E+01 -0.16048671933E+02  0.14183629225E+03  0.18666056829E+03  0.12000000000E+03 0.  0.
<mgrwt>
<rscale>  0 0.25079594E+03</rscale>
<asrwt>0</asrwt>
<pdfrwt beam="1">  1        2 0.55072234E-02 0.25079594E+03</pdfrwt>
<pdfrwt beam="2">  1       -2 0.67580530E-01 0.25079594E+03</pdfrwt>
<totfact> 0.28240439E+03</totfact>
</mgrwt>
</event>
<event>
 4    1  0.1733772E-004  0.3186753E+03  0.7818608E-02  0.1076261E+00
          2   -1    0    0  501    0  0.00000000000E+00  0.00000000000E+00  0.74199904208E+02  0.74199904208E+02  0.00000000000E+00 0. -1.
         -2   -1    0    0    0  501 -0.00000000000E+00 -0.00000000000E+00 -0.34216335414E+03  0.34216335414E+03  0.00000000000E+00 0. -1.
         25    1    1    2    0    0  0.33474896312E+02  0.28013484901E+02 -0.94607354849E+01  0.12804229588E+03  0.12000000000E+03 0.  0.
         25    1    1    2    0    0 -0.33474896312E+02 -0.28013484901E+02 -0.25850271445E+03  0.28832096247E+03  0.12000000000E+03 0.  0.
<mgrwt>
<rscale>  0 0.31867531E+03</rscale>
<asrwt>0</asrwt>
<pdfrwt beam="1">  1        2 0.11415370E-01 0.31867531E+03</pdfrwt>
<pdfrwt beam="2">  1       -2 0.52640517E-01 0.31867531E+03</pdfrwt>
<totfact> 0.18861820E+03</totfact>
</mgrwt>
</event>
<event>
 4    1  0.1733772E-004  0.2530211E+03  0.7818608E-02  0.1111410E+00
          1   -1    0    0  501    0  0.00000000000E+00  0.00000000000E+00  0.22602405708E+04  0.22602405708E+04  0.00000000000E+00 0.  1.
         -1   -1    0    0    0  501 -0.00000000000E+00 -0.00000000000E+00 -0.70810705997E+01  0.70810705997E+01  0.00000000000E+00 0.  1.
         25    1    1    2    0    0  0.33929888197E+02  0.21290161649E+02  0.11323507876E+04  0.11393958111E+04  0.12000000000E+03 0.  0.
         25    1    1    2    0    0 -0.33929888197E+02 -0.21290161649E+02  0.11208087127E+04  0.11279258303E+04  0.12000000000E+03 0.  0.
<mgrwt>
<rscale>  0 0.25302113E+03</rscale>
<asrwt>0</asrwt>
<pdfrwt beam="1">  1        1 0.34772874E+00 0.25302113E+03</pdfrwt>
<pdfrwt beam="2">  1       -1 0.10893973E-02 0.25302113E+03</pdfrwt>
<totfact> 0.37931352E+03</totfact>
</mgrwt>
</event>
<event>
 4    1  0.1733772E-004  0.4348011E+03  0.7818608E-02  0.1032354E+00
         -2   -1    0    0    0  501 -0.00000000000E+00  0.00000000000E+00  0.73037241340E+02  0.73037241340E+02  0.00000000000E+00 0.  1.
          2   -1    0    0  501    0  0.00000000000E+00 -0.00000000000E+00 -0.64710807107E+03  0.64710807107E+03  0.00000000000E+00 0.  1.
         25    1    1    2    0    0  0.16647811426E+02 -0.15893059337E+02  0.10784839070E+02  0.12266234840E+03  0.12000000000E+03 0.  0.
         25    1    1    2    0    0 -0.16647811426E+02  0.15893059337E+02 -0.58485566880E+03  0.59748296401E+03  0.12000000000E+03 0.  0.
<mgrwt>
<rscale>  0 0.43480105E+03</rscale>
<asrwt>0</asrwt>
<pdfrwt beam="1">  1        2 0.99555087E-01 0.43480105E+03</pdfrwt>
<pdfrwt beam="2">  1       -2 0.11236499E-01 0.43480105E+03</pdfrwt>
<totfact> 0.25513506E+03</totfact>
</mgrwt>
</event>
<event>
 4    1  0.1733772E-004  0.2900651E+03  0.7818608E-02  0.1090315E+00
         -2   -1    0    0    0  501 -0.00000000000E+00  0.00000000000E+00  0.11084225477E+02  0.11084225477E+02  0.00000000000E+00 0. -1.
          2   -1    0    0  501    0  0.00000000000E+00 -0.00000000000E+00 -0.18976911923E+04  0.18976911923E+04  0.00000000000E+00 0. -1.
         25    1    1    2    0    0  0.59015811366E+02 -0.56123256842E+02 -0.93459552632E+03  0.94578088571E+03  0.12000000000E+03 0.  0.
         25    1    1    2    0    0 -0.59015811366E+02  0.56123256842E+02 -0.95201144046E+03  0.96299453203E+03  0.12000000000E+03 0.  0.
<mgrwt>
<rscale>  0 0.29006508E+03</rscale>
<asrwt>0</asrwt>
<pdfrwt beam="1">  1        2 0.29195237E+00 0.29006508E+03</pdfrwt>
<pdfrwt beam="2">  1       -2 0.17052661E-02 0.29006508E+03</pdfrwt>
<totfact> 0.82251615E+03</totfact>
</mgrwt>
</event>
<event>
 4    1  0.1733772E-004  0.3229863E+03  0.7818608E-02  0.1074283E+00
         -1   -1    0    0    0  501 -0.00000000000E+00  0.00000000000E+00  0.81347053013E+01  0.81347053013E+01  0.00000000000E+00 0. -1.
          1   -1    0    0  501    0  0.00000000000E+00 -0.00000000000E+00 -0.32060206161E+04  0.32060206161E+04  0.00000000000E+00 0. -1.
         25    1    1    2    0    0  0.78635830813E+02 -0.49905631294E+02 -0.10533513551E+04  0.10642477358E+04  0.12000000000E+03 0.  0.
         25    1    1    2    0    0 -0.78635830813E+02  0.49905631294E+02 -0.21445345558E+04  0.21499075857E+04  0.12000000000E+03 0.  0.
<mgrwt>
<rscale>  0 0.32298627E+03</rscale>
<asrwt>0</asrwt>
<pdfrwt beam="1">  1        1 0.49323434E+00 0.32298627E+03</pdfrwt>
<pdfrwt beam="2">  1       -1 0.12514921E-02 0.32298627E+03</pdfrwt>
<totfact> 0.69699450E+02</totfact>
</mgrwt>
</event>
<event>
 4    1  0.1733772E-004  0.3047077E+03  0.7818608E-02  0.1082911E+00
          1   -1    0    0  501    0  0.00000000000E+00  0.00000000000E+00  0.71534584468E+03  0.71534584468E+03  0.00000000000E+00 0.  1.
         -1   -1    0    0    0  501 -0.00000000000E+00 -0.00000000000E+00 -0.32448212819E+02  0.32448212819E+02  0.00000000000E+00 0.  1.
         25    1    1    2    0    0 -0.17270018674E+02 -0.38266239839E+02  0.54749592457E+03  0.56206258200E+03  0.12000000000E+03 0.  0.
         25    1    1    2    0    0  0.17270018674E+02  0.38266239839E+02  0.13540170729E+03  0.18573147551E+03  0.12000000000E+03 0.  0.
<mgrwt>
<rscale>  0 0.30470769E+03</rscale>
<asrwt>0</asrwt>
<pdfrwt beam="1">  1        1 0.11005320E+00 0.30470769E+03</pdfrwt>
<pdfrwt beam="2">  1       -1 0.49920333E-02 0.30470769E+03</pdfrwt>
<totfact> 0.48193774E+03</totfact>
</mgrwt>
</event>
<event>
 4    1  0.1733772E-004  0.2645565E+03  0.7818608E-02  0.1104436E+00
         -1   -1    0    0    0  501 -0.00000000000E+00  0.00000000000E+00  0.29836627072E+02  0.29836627072E+02  0.00000000000E+00 0. -1.
          1   -1    0    0  501    0  0.00000000000E+00 -0.00000000000E+00 -0.58644484812E+03  0.58644484812E+03  0.00000000000E+00 0. -1.
         25    1    1    2    0    0 -0.11246194001E+02  0.28640090935E+02 -0.17026994053E+03  0.21056729170E+03  0.12000000000E+03 0.  0.
         25    1    1    2    0    0  0.11246194001E+02 -0.28640090935E+02 -0.38633828053E+03  0.40571418349E+03  0.12000000000E+03 0.  0.
<mgrwt>
<rscale>  0 0.26455651E+03</rscale>
<asrwt>0</asrwt>
<pdfrwt beam="1">  1        1 0.90222284E-01 0.26455651E+03</pdfrwt>
<pdfrwt beam="2">  1       -1 0.45902504E-02 0.26455651E+03</pdfrwt>
<totfact> 0.72266641E+03</totfact>
</mgrwt>
</event>
<event>
 4    1  0.1733772E-004  0.4311799E+03  0.7818608E-02  0.1033488E+00
          2   -1    0    0  501    0  0.00000000000E+00  0.00000000000E+00  0.28139548376E+03  0.28139548376E+03  0.00000000000E+00 0. -1.
         -2   -1    0    0    0  501 -0.00000000000E+00 -0.00000000000E+00 -0.16517332371E+03  0.16517332371E+03  0.00000000000E+00 0. -1.
         25    1    1    2    0    0 -0.15470749418E+03 -0.28530210132E+02  0.14678603732E+03  0.24636258319E+03  0.12000000000E+03 0.  0.
         25    1    1    2    0    0  0.15470749418E+03  0.28530210132E+02 -0.30563877272E+02  0.20020622428E+03  0.12000000000E+03 0.  0.
<mgrwt>
<rscale>  0 0.43117990E+03</rscale>
<asrwt>0</asrwt>
<pdfrwt beam="1">  1        2 0.43291613E-01 0.43117990E+03</pdfrwt>
<pdfrwt beam="2">  1       -2 0.25411281E-01 0.43117990E+03</pdfrwt>
<totfact> 0.16301367E+03</totfact>
</mgrwt>
</event>
<event>
 4    1  0.1733772E-004  0.2899718E+03  0.7818608E-02  0.1090364E+00
          1   -1    0    0  501    0  0.00000000000E+00  0.00000000000E+00  0.77443227777E+03  0.77443227777E+03  0.00000000000E+00 0. -1.
         -1   -1    0    0    0  501 -0.00000000000E+00 -0.00000000000E+00 -0.27143636713E+02  0.27143636713E+02  0.00000000000E+00 0. -1.
         25    1    1    2    0    0 -0.51881666554E+01 -0.37041293978E+02  0.17388612440E+03  0.21455852067E+03  0.12000000000E+03 0.  0.
         25    1    1    2    0    0  0.51881666554E+01  0.37041293978E+02  0.57340251665E+03  0.58701739381E+03  0.12000000000E+03 0.  0.
<mgrwt>
<rscale>  0 0.28997178E+03</rscale>
<asrwt>0</asrwt>
<pdfrwt beam="1">  1        1 0.11914341E+00 0.28997178E+03</pdfrwt>
<pdfrwt beam="2">  1       -1 0.41759447E-02 0.28997178E+03</pdfrwt>
<totfact> 0.55843756E+03</totfact>
</mgrwt>
</event>
<event>
 4    1  0.1733772E-004  0.4560030E+03  0.7818608E-02  0.1025947E+00
          2   -1    0    0  501    0  0.00000000000E+00  0.00000000000E+00  0.12620699460E+04  0.12620699460E+04  0.00000000000E+00 0. -1.
         -2   -1    0    0    0  501 -0.00000000000E+00 -0.00000000000E+00 -0.41190021363E+02  0.41190021363E+02  0.00000000000E+00 0. -1.
         25    1    1    2    0    0 -0.55867705362E+02  0.59469801636E+02  0.11130498679E+04  0.11224695391E+04  0.12000000000E+03 0.  0.
         25    1    1    2    0    0  0.55867705362E+02 -0.59469801636E+02  0.10783005673E+03  0.18079042824E+03  0.12000000000E+03 0.  0.
<mgrwt>
<rscale>  0 0.45600302E+03</rscale>
<asrwt>0</asrwt>
<pdfrwt beam="1">  1        2 0.19416458E+00 0.45600302E+03</pdfrwt>
<pdfrwt beam="2">  1       -2 0.63369273E-02 0.45600302E+03</pdfrwt>
<totfact> 0.25057640E+03</totfact>
</mgrwt>
</event>
<event>
 4    1  0.1733772E-004  0.2557916E+03  0.7818608E-02  0.1109698E+00
          1   -1    0    0  501    0  0.00000000000E+00  0.00000000000E+00  0.14805701297E+04  0.14805701297E+04  0.00000000000E+00 0.  1.
         -1   -1    0    0    0  501 -0.00000000000E+00 -0.00000000000E+00 -0.11047998301E+02  0.11047998301E+02  0.00000000000E+00 0.  1.
         25    1    1    2    0    0 -0.34248185978E+02 -0.11474160141E+02  0.58577623903E+03  0.59903121521E+03  0.12000000000E+03 0.  0.
         25    1    1    2    0    0  0.34248185978E+02  0.11474160141E+02  0.88374589241E+03  0.89258691283E+03  0.12000000000E+03 0.  0.
<mgrwt>
<rscale>  0 0.25579160E+03</rscale>
<asrwt>0</asrwt>
<pdfrwt beam="1">  1        1 0.22777986E+00 0.25579160E+03</pdfrwt>
<pdfrwt beam="2">  1       -1 0.16996932E-02 0.25579160E+03</pdfrwt>
<totfact> 0.64040920E+03</totfact>
</mgrwt>
</event>
<event>
 4    1  0.1733772E-004  0.3020520E+03  0.7818608E-02  0.1084219E+00
         -1   -1    0    0    0  501 -0.00000000000E+00  0.00000000000E+00  0.38433829824E+02  0.38433829824E+02  0.00000000000E+00 0.  1.
          1   -1    0    0  501    0  0.00000000000E+00 -0.00000000000E+00 -0.59345758097E+03  0.59345758097E+03  0.00000000000E+00 0.  1.
         25    1    1    2    0    0 -0.40113665699E+02  0.64699529359E+02 -0.17055968524E+03  0.22200392228E+03  0.12000000000E+03 0.  0.
         25    1    1    2    0    0  0.40113665699E+02 -0.64699529359E+02 -0.38446406590E+03  0.40988748852E+03  0.12000000000E+03 0.  0.
<mgrwt>
<rscale>  0 0.30205197E+03</rscale>
<asrwt>0</asrwt>
<pdfrwt beam="1">  1        1 0.91301164E-01 0.30205197E+03</pdfrwt>
<pdfrwt beam="2">  1       -1 0.59128971E-02 0.30205197E+03</pdfrwt>
<totfact> 0.48774937E+03</totfact>
</mgrwt>
</event>
<event>
 4    1  0.1733772E-004  0.3143907E+03  0.7818608E-02  0.1078260E+00
          3   -1    0    0  501    0  0.00000000000E+00  0.00000000000E+00  0.40063184008E+02  0.40063184008E+02  0.00000000000E+00 0. -1.
         -3   -1    0    0    0  501 -0.00000000000E+00 -0.00000000000E+00 -0.61678530659E+03  0.61678530659E+03  0.00000000000E+00 0. -1.
         25    1    1    2    0    0  0.10926610326E+02  0.89907024745E+02 -0.38427944640E+03  0.41264192327E+03  0.12000000000E+03 0.  0.
         25    1    1    2    0    0 -0.10926610326E+02 -0.89907024745E+02 -0.19244267618E+03  0.24420656733E+03  0.12000000000E+03 0.  0.
<mgrwt>
<rscale>  0 0.31439073E+03</rscale>
<asrwt>0</asrwt>
<pdfrwt beam="1">  1        3 0.61635665E-02 0.31439073E+03</pdfrwt>
<pdfrwt beam="2">  1       -3 0.94890051E-01 0.31439073E+03</pdfrwt>
<totfact> 0.42640469E+02</totfact>
</mgrwt>
</event>
<event>
 4    1  0.1733772E-004  0.3218129E+03  0.7818608E-02  0.1074818E+00
         -2   -1    0    0    0  501 -0.00000000000E+00  0.00000000000E+00  0.70874216382E+02  0.70874216382E+02  0.00000000000E+00 0.  1.
          2   -1    0    0  501    0  0.00000000000E+00 -0.00000000000E+00 -0.36530751918E+03  0.36530751918E+03  0.00000000000E+00 0.  1.
         25    1    1    2    0    0 -0.46294722157E+01  0.10346621922E+03 -0.10974819982E+03  0.19279874973E+03  0.12000000000E+03 0.  0.
         25    1    1    2    0    0  0.46294722157E+01 -0.10346621922E+03 -0.18468510297E+03  0.24338298583E+03  0.12000000000E+03 0.  0.
<mgrwt>
<rscale>  0 0.32181289E+03</rscale>
<asrwt>0</asrwt>
<pdfrwt beam="1">  1        2 0.56201156E-01 0.32181289E+03</pdfrwt>
<pdfrwt beam="2">  1       -2 0.10903726E-01 0.32181289E+03</pdfrwt>
<totfact> 0.50953769E+03</totfact>
</mgrwt>
</event>
<event>
 4    1  0.1733772E-004  0.2480552E+03  0.7818608E-02  0.1114540E+00
         -1   -1    0    0    0  501 -0.00000000000E+00  0.00000000000E+00  0.16909302867E+04  0.16909302867E+04  0.00000000000E+00 0.  1.
          1   -1    0    0  501    0  0.00000000000E+00 -0.00000000000E+00 -0.90972705306E+01  0.90972705306E+01  0.00000000000E+00 0.  1.
         25    1    1    2    0    0 -0.22573162009E+02 -0.93332931618E+01  0.97559844173E+03  0.98325427917E+03  0.12000000000E+03 0.  0.
         25    1    1    2    0    0  0.22573162009E+02  0.93332931618E+01  0.70623457440E+03  0.71677327802E+03  0.12000000000E+03 0.  0.
<mgrwt>
<rscale>  0 0.24805524E+03</rscale>
<asrwt>0</asrwt>
<pdfrwt beam="1">  1        1 0.13995814E-02 0.24805524E+03</pdfrwt>
<pdfrwt beam="2">  1       -1 0.26014287E+00 0.24805524E+03</pdfrwt>
<totfact> 0.68746041E+02</totfact>
</mgrwt>
</event>
<event>
 4    1  0.1733772E-004  0.3003154E+03  0.7818608E-02  0.1085083E+00
          1   -1    0    0  501    0  0.00000000000E+00  0.00000000000E+00  0.45726089920E+03  0.45726089920E+03  0.00000000000E+00 0.  1.
         -1   -1    0    0    0  501 -0.00000000000E+00 -0.00000000000E+00 -0.49309572885E+02  0.49309572885E+02  0.00000000000E+00 0.  1.
         25    1    1    2    0    0  0.41812994208E+02  0.53942588645E+02  0.30361384497E+03  0.33352585538E+03  0.12000000000E+03 0.  0.
         25    1    1    2    0    0 -0.41812994208E+02 -0.53942588645E+02  0.10433748135E+03  0.17304461670E+03  0.12000000000E+03 0.  0.
<mgrwt>
<rscale>  0 0.30031543E+03</rscale>
<asrwt>0</asrwt>
<pdfrwt beam="1">  1        1 0.70347828E-01 0.30031543E+03</pdfrwt>
<pdfrwt beam="2">  1       -1 0.75860884E-02 0.30031543E+03</pdfrwt>
<totfact> 0.47446856E+03</totfact>
</mgrwt>
</event>
<event>
 4    1  0.1733772E-004  0.3296635E+03  0.7818608E-02  0.1071286E+00
          2   -1    0    0  501    0  0.00000000000E+00  0.00000000000E+00  0.72967359280E+03  0.72967359280E+03  0.00000000000E+00 0. -1.
         -2   -1    0    0    0  501 -0.00000000000E+00 -0.00000000000E+00 -0.37235155637E+02  0.37235155637E+02  0.00000000000E+00 0. -1.
         25    1    1    2    0    0 -0.10085839004E+03 -0.48583693452E+02  0.31042688791E+03  0.35113764088E+03  0.12000000000E+03 0.  0.
         25    1    1    2    0    0  0.10085839004E+03  0.48583693452E+02  0.38201154925E+03  0.41577110755E+03  0.12000000000E+03 0.  0.
<mgrwt>
<rscale>  0 0.32966352E+03</rscale>
<asrwt>0</asrwt>
<pdfrwt beam="1">  1        2 0.11225747E+00 0.32966352E+03</pdfrwt>
<pdfrwt beam="2">  1       -2 0.57284860E-02 0.32966352E+03</pdfrwt>
<totfact> 0.63522099E+03</totfact>
</mgrwt>
</event>
<event>
 4    1  0.1733772E-004  0.2717598E+03  0.7818608E-02  0.1100277E+00
         -2   -1    0    0    0  501 -0.00000000000E+00  0.00000000000E+00  0.58177939037E+01  0.58177939037E+01  0.00000000000E+00 0. -1.
          2   -1    0    0  501    0  0.00000000000E+00 -0.00000000000E+00 -0.31735997627E+04  0.31735997627E+04  0.00000000000E+00 0. -1.
         25    1    1    2    0    0 -0.36513405699E+02 -0.21752593149E+02 -0.21396964850E+04  0.21434802196E+04  0.12000000000E+03 0.  0.
         25    1    1    2    0    0  0.36513405699E+02  0.21752593149E+02 -0.10280854838E+04  0.10359373369E+04  0.12000000000E+03 0.  0.
<mgrwt>
<rscale>  0 0.27175982E+03</rscale>
<asrwt>0</asrwt>
<pdfrwt beam="1">  1        2 0.48824545E+00 0.27175982E+03</pdfrwt>
<pdfrwt beam="2">  1       -2 0.89504643E-03 0.27175982E+03</pdfrwt>
<totfact> 0.41017053E+03</totfact>
</mgrwt>
</event>
<event>
 4    1  0.1733772E-004  0.2560196E+03  0.7818608E-02  0.1109559E+00
          1   -1    0    0  501    0  0.00000000000E+00  0.00000000000E+00  0.20127498850E+03  0.20127498850E+03  0.00000000000E+00 0.  1.
         -1   -1    0    0    0  501 -0.00000000000E+00 -0.00000000000E+00 -0.81413515763E+02  0.81413515763E+02  0.00000000000E+00 0.  1.
         25    1    1    2    0    0  0.27940420018E+02  0.29393985523E+02  0.80345328654E+02  0.15000015097E+03  0.12000000000E+03 0.  0.
         25    1    1    2    0    0 -0.27940420018E+02 -0.29393985523E+02  0.39516144085E+02  0.13268835329E+03  0.12000000000E+03 0.  0.
<mgrwt>
<rscale>  0 0.25601957E+03</rscale>
<asrwt>0</asrwt>
<pdfrwt beam="1">  1        1 0.30965383E-01 0.25601957E+03</pdfrwt>
<pdfrwt beam="2">  1       -1 0.12525156E-01 0.25601957E+03</pdfrwt>
<totfact> 0.61573950E+03</totfact>
</mgrwt>
</event>
<event>
 4    1  0.1733772E-004  0.4827110E+03  0.7818608E-02  0.1018393E+00
          1   -1    0    0  501    0  0.00000000000E+00  0.00000000000E+00  0.19062471037E+03  0.19062471037E+03  0.00000000000E+00 0.  1.
         -1   -1    0    0    0  501 -0.00000000000E+00 -0.00000000000E+00 -0.30558724100E+03  0.30558724100E+03  0.00000000000E+00 0.  1.
         25    1    1    2    0    0 -0.42848981916E+02 -0.74169971973E+02 -0.25391551481E+03  0.29361592030E+03  0.12000000000E+03 0.  0.
         25    1    1    2    0    0  0.42848981916E+02  0.74169971973E+02  0.13895298418E+03  0.20259603107E+03  0.12000000000E+03 0.  0.
<mgrwt>
<rscale>  0 0.48271101E+03</rscale>
<asrwt>0</asrwt>
<pdfrwt beam="1">  1        1 0.29326879E-01 0.48271101E+03</pdfrwt>
<pdfrwt beam="2">  1       -1 0.47013421E-01 0.48271101E+03</pdfrwt>
<totfact> 0.71950200E+02</totfact>
</mgrwt>
</event>
<event>
 4    1  0.1733772E-004  0.2772079E+03  0.7818608E-02  0.1097224E+00
          1   -1    0    0  501    0  0.00000000000E+00  0.00000000000E+00  0.23060371732E+04  0.23060371732E+04  0.00000000000E+00 0.  1.
         -1   -1    0    0    0  501 -0.00000000000E+00 -0.00000000000E+00 -0.83307661069E+01  0.83307661069E+01  0.00000000000E+00 0.  1.
         25    1    1    2    0    0 -0.69880145086E+01  0.28329685808E+02  0.16742111962E+04  0.16787598199E+04  0.12000000000E+03 0.  0.
         25    1    1    2    0    0  0.69880145086E+01 -0.28329685808E+02  0.62349521095E+03  0.63560811946E+03  0.12000000000E+03 0.  0.
<mgrwt>
<rscale>  0 0.27720791E+03</rscale>
<asrwt>0</asrwt>
<pdfrwt beam="1">  1        1 0.35477444E+00 0.27720791E+03</pdfrwt>
<pdfrwt beam="2">  1       -1 0.12816582E-02 0.27720791E+03</pdfrwt>
<totfact> 0.27951122E+03</totfact>
</mgrwt>
</event>
<event>
 4    1  0.1733772E-004  0.2560981E+03  0.7818608E-02  0.1109511E+00
          2   -1    0    0  501    0  0.00000000000E+00  0.00000000000E+00  0.10656512619E+04  0.10656512619E+04  0.00000000000E+00 0.  1.
         -2   -1    0    0    0  501 -0.00000000000E+00 -0.00000000000E+00 -0.15386416513E+02  0.15386416513E+02  0.00000000000E+00 0.  1.
         25    1    1    2    0    0 -0.42948384345E+02  0.69321218165E+01  0.56816702928E+03  0.58232842210E+03  0.12000000000E+03 0.  0.
         25    1    1    2    0    0  0.42948384345E+02 -0.69321218165E+01  0.48209781607E+03  0.49870925627E+03  0.12000000000E+03 0.  0.
<mgrwt>
<rscale>  0 0.25609806E+03</rscale>
<asrwt>0</asrwt>
<pdfrwt beam="1">  1        2 0.16394629E+00 0.25609806E+03</pdfrwt>
<pdfrwt beam="2">  1       -2 0.23671418E-02 0.25609806E+03</pdfrwt>
<totfact> 0.14354362E+04</totfact>
</mgrwt>
</event>
<event>
 4    1  0.1733772E-004  0.3241666E+03  0.7818608E-02  0.1073748E+00
          1   -1    0    0  501    0  0.00000000000E+00  0.00000000000E+00  0.28183074707E+04  0.28183074707E+04  0.00000000000E+00 0. -1.
         -1   -1    0    0    0  501 -0.00000000000E+00 -0.00000000000E+00 -0.93215498986E+01  0.93215498986E+01  0.00000000000E+00 0. -1.
         25    1    1    2    0    0  0.60674719638E+02  0.69126360312E+02  0.89504176817E+03  0.90772222737E+03  0.12000000000E+03 0.  0.
         25    1    1    2    0    0 -0.60674719638E+02 -0.69126360312E+02  0.19139441527E+04  0.19199067933E+04  0.12000000000E+03 0.  0.
<mgrwt>
<rscale>  0 0.32416659E+03</rscale>
<asrwt>0</asrwt>
<pdfrwt beam="1">  1        1 0.43358508E+00 0.32416659E+03</pdfrwt>
<pdfrwt beam="2">  1       -1 0.14340869E-02 0.32416659E+03</pdfrwt>
<totfact> 0.10716040E+03</totfact>
</mgrwt>
</event>
<event>
 4    1  0.1733772E-004  0.3179780E+03  0.7818608E-02  0.1076584E+00
          2   -1    0    0  501    0  0.00000000000E+00  0.00000000000E+00  0.13581305942E+04  0.13581305942E+04  0.00000000000E+00 0. -1.
         -2   -1    0    0    0  501 -0.00000000000E+00 -0.00000000000E+00 -0.18611976902E+02  0.18611976902E+02  0.00000000000E+00 0. -1.
         25    1    1    2    0    0 -0.78352430903E+02  0.68791982270E+02  0.65910530967E+03  0.67800534621E+03  0.12000000000E+03 0.  0.
         25    1    1    2    0    0  0.78352430903E+02 -0.68791982270E+02  0.68041330760E+03  0.69873722487E+03  0.12000000000E+03 0.  0.
<mgrwt>
<rscale>  0 0.31797796E+03</rscale>
<asrwt>0</asrwt>
<pdfrwt beam="1">  1        2 0.20894309E+00 0.31797796E+03</pdfrwt>
<pdfrwt beam="2">  1       -2 0.28633821E-02 0.31797796E+03</pdfrwt>
<totfact> 0.74180188E+03</totfact>
</mgrwt>
</event>
<event>
 4    1  0.1733772E-004  0.3908618E+03  0.7818608E-02  0.1046991E+00
          2   -1    0    0  501    0  0.00000000000E+00  0.00000000000E+00  0.26132624786E+04  0.26132624786E+04  0.00000000000E+00 0.  1.
         -2   -1    0    0    0  501 -0.00000000000E+00 -0.00000000000E+00 -0.14615155747E+02  0.14615155747E+02  0.00000000000E+00 0.  1.
         25    1    1    2    0    0  0.85230487366E+02 -0.11247935777E+02  0.21603902578E+04  0.21654276294E+04  0.12000000000E+03 0.  0.
         25    1    1    2    0    0 -0.85230487366E+02  0.11247935777E+02  0.43825706504E+03  0.46245000497E+03  0.12000000000E+03 0.  0.
<mgrwt>
<rscale>  0 0.39086181E+03</rscale>
<asrwt>0</asrwt>
<pdfrwt beam="1">  1        2 0.40204001E+00 0.39086181E+03</pdfrwt>
<pdfrwt beam="2">  1       -2 0.22484876E-02 0.39086181E+03</pdfrwt>
<totfact> 0.22344480E+03</totfact>
</mgrwt>
</event>
<event>
 4    1  0.1733772E-004  0.4109064E+03  0.7818608E-02  0.1040067E+00
          1   -1    0    0  501    0  0.00000000000E+00  0.00000000000E+00  0.73650625321E+03  0.73650625321E+03  0.00000000000E+00 0. -1.
         -1   -1    0    0    0  501 -0.00000000000E+00 -0.00000000000E+00 -0.57312502351E+02  0.57312502351E+02  0.00000000000E+00 0. -1.
         25    1    1    2    0    0 -0.32650092966E+02 -0.99622893307E+02  0.59014715818E+03  0.61128096466E+03  0.12000000000E+03 0.  0.
         25    1    1    2    0    0  0.32650092966E+02  0.99622893307E+02  0.89046592681E+02  0.18253779091E+03  0.12000000000E+03 0.  0.
<mgrwt>
<rscale>  0 0.41090640E+03</rscale>
<asrwt>0</asrwt>
<pdfrwt beam="1">  1        1 0.11330865E+00 0.41090640E+03</pdfrwt>
<pdfrwt beam="2">  1       -1 0.88173086E-02 0.41090640E+03</pdfrwt>
<totfact> 0.19422242E+03</totfact>
</mgrwt>
</event>
<event>
 4    1  0.1733772E-004  0.2714233E+03  0.7818608E-02  0.1100468E+00
         -2   -1    0    0    0  501 -0.00000000000E+00  0.00000000000E+00  0.44955182018E+02  0.44955182018E+02  0.00000000000E+00 0.  1.
          2   -1    0    0  501    0  0.00000000000E+00 -0.00000000000E+00 -0.40968923625E+03  0.40968923625E+03  0.00000000000E+00 0.  1.
         25    1    1    2    0    0 -0.44965960411E+02  0.27406001435E+02 -0.12327288426E+03  0.17991450888E+03  0.12000000000E+03 0.  0.
         25    1    1    2    0    0  0.44965960411E+02 -0.27406001435E+02 -0.24146116997E+03  0.27472990939E+03  0.12000000000E+03 0.  0.
<mgrwt>
<rscale>  0 0.27142332E+03</rscale>
<asrwt>0</asrwt>
<pdfrwt beam="1">  1        2 0.63029114E-01 0.27142332E+03</pdfrwt>
<pdfrwt beam="2">  1       -2 0.69161817E-02 0.27142332E+03</pdfrwt>
<totfact> 0.91648085E+03</totfact>
</mgrwt>
</event>
<event>
 4    1  0.1733772E-004  0.6145626E+03  0.7818608E-02  0.9875646E-01
         -3   -1    0    0    0  501 -0.00000000000E+00  0.00000000000E+00  0.50855640978E+03  0.50855640978E+03  0.00000000000E+00 0. -1.
          3   -1    0    0  501    0  0.00000000000E+00 -0.00000000000E+00 -0.18566630844E+03  0.18566630844E+03  0.00000000000E+00 0. -1.
         25    1    1    2    0    0  0.25577220899E+03  0.11909272820E+03  0.13831427566E+03  0.33635299858E+03  0.12000000000E+03 0.  0.
         25    1    1    2    0    0 -0.25577220899E+03 -0.11909272820E+03  0.18457582568E+03  0.35786971963E+03  0.12000000000E+03 0.  0.
<mgrwt>
<rscale>  0 0.61456258E+03</rscale>
<asrwt>0</asrwt>
<pdfrwt beam="1">  1        3 0.28564048E-01 0.61456258E+03</pdfrwt>
<pdfrwt beam="2">  1       -3 0.78239447E-01 0.61456258E+03</pdfrwt>
<totfact> 0.47797693E+01</totfact>
</mgrwt>
</event>
<event>
 4    1  0.1733772E-004  0.2803270E+03  0.7818608E-02  0.1095510E+00
          2   -1    0    0  501    0  0.00000000000E+00  0.00000000000E+00  0.99197187538E+02  0.99197187538E+02  0.00000000000E+00 0. -1.
         -2   -1    0    0    0  501 -0.00000000000E+00 -0.00000000000E+00 -0.19804799789E+03  0.19804799789E+03  0.00000000000E+00 0. -1.
         25    1    1    2    0    0 -0.64572474426E+02 -0.59414678789E+01 -0.83635493785E+02  0.15999937911E+03  0.12000000000E+03 0.  0.
         25    1    1    2    0    0  0.64572474426E+02  0.59414678789E+01 -0.15215316565E+02  0.13724580632E+03  0.12000000000E+03 0.  0.
<mgrwt>
<rscale>  0 0.28032698E+03</rscale>
<asrwt>0</asrwt>
<pdfrwt beam="1">  1        2 0.15261106E-01 0.28032698E+03</pdfrwt>
<pdfrwt beam="2">  1       -2 0.30468923E-01 0.28032698E+03</pdfrwt>
<totfact> 0.37775489E+03</totfact>
</mgrwt>
</event>
<event>
 4    1  0.1733772E-004  0.3075714E+03  0.7818608E-02  0.1081516E+00
          1   -1    0    0  501    0  0.00000000000E+00  0.00000000000E+00  0.67545726379E+03  0.67545726379E+03  0.00000000000E+00 0.  1.
         -1   -1    0    0    0  501 -0.00000000000E+00 -0.00000000000E+00 -0.35013387039E+02  0.35013387039E+02  0.00000000000E+00 0.  1.
         25    1    1    2    0    0 -0.12682614751E+02 -0.24631293120E+02  0.10747564082E+03  0.16345813741E+03  0.12000000000E+03 0.  0.
         25    1    1    2    0    0  0.12682614751E+02  0.24631293120E+02  0.53296823594E+03  0.54701251342E+03  0.12000000000E+03 0.  0.
<mgrwt>
<rscale>  0 0.30757143E+03</rscale>
<asrwt>0</asrwt>
<pdfrwt beam="1">  1        1 0.10391649E+00 0.30757143E+03</pdfrwt>
<pdfrwt beam="2">  1       -1 0.53866754E-02 0.30757143E+03</pdfrwt>
<totfact> 0.46749769E+03</totfact>
</mgrwt>
</event>
<event>
 4    1  0.1733772E-004  0.3252174E+03  0.7818608E-02  0.1073273E+00
          1   -1    0    0  501    0  0.00000000000E+00  0.00000000000E+00  0.46297730474E+03  0.46297730474E+03  0.00000000000E+00 0. -1.
         -1   -1    0    0    0  501 -0.00000000000E+00 -0.00000000000E+00 -0.57112058129E+02  0.57112058129E+02  0.00000000000E+00 0. -1.
         25    1    1    2    0    0 -0.10239531952E+03  0.20305479794E+02  0.25703382994E+03  0.30226396362E+03  0.12000000000E+03 0.  0.
         25    1    1    2    0    0  0.10239531952E+03 -0.20305479794E+02  0.14883141667E+03  0.21782539925E+03  0.12000000000E+03 0.  0.
<mgrwt>
<rscale>  0 0.32521738E+03</rscale>
<asrwt>0</asrwt>
<pdfrwt beam="1">  1        1 0.71227275E-01 0.32521738E+03</pdfrwt>
<pdfrwt beam="2">  1       -1 0.87864708E-02 0.32521738E+03</pdfrwt>
<totfact> 0.37322626E+03</totfact>
</mgrwt>
</event>
<event>
 4    1  0.1733772E-004  0.2590677E+03  0.7818608E-02  0.1107705E+00
          2   -1    0    0  501    0  0.00000000000E+00  0.00000000000E+00  0.25007913004E+03  0.25007913004E+03  0.00000000000E+00 0. -1.
         -2   -1    0    0    0  501 -0.00000000000E+00 -0.00000000000E+00 -0.67094855020E+02  0.67094855020E+02  0.00000000000E+00 0. -1.
         25    1    1    2    0    0 -0.15959202511E+02  0.30465813631E+02  0.13383488682E+03  0.18301540611E+03  0.12000000000E+03 0.  0.
         25    1    1    2    0    0  0.15959202511E+02 -0.30465813631E+02  0.49149388204E+02  0.13415857895E+03  0.12000000000E+03 0.  0.
<mgrwt>
<rscale>  0 0.25906774E+03</rscale>
<asrwt>0</asrwt>
<pdfrwt beam="1">  1        2 0.38473712E-01 0.25906774E+03</pdfrwt>
<pdfrwt beam="2">  1       -2 0.10322286E-01 0.25906774E+03</pdfrwt>
<totfact> 0.83111738E+03</totfact>
</mgrwt>
</event>
<event>
 4    1  0.1733772E-004  0.2807820E+03  0.7818608E-02  0.1095263E+00
         -3   -1    0    0    0  501 -0.00000000000E+00  0.00000000000E+00  0.47221475865E+03  0.47221475865E+03  0.00000000000E+00 0. -1.
          3   -1    0    0  501    0  0.00000000000E+00 -0.00000000000E+00 -0.41738696598E+02  0.41738696598E+02  0.00000000000E+00 0. -1.
         25    1    1    2    0    0 -0.70967527281E+02  0.14105392523E+02  0.19946263285E+03  0.24376360255E+03  0.12000000000E+03 0.  0.
         25    1    1    2    0    0  0.70967527281E+02 -0.14105392523E+02  0.23101342920E+03  0.27018985269E+03  0.12000000000E+03 0.  0.
<mgrwt>
<rscale>  0 0.28078197E+03</rscale>
<asrwt>0</asrwt>
<pdfrwt beam="1">  1        3 0.64213383E-02 0.28078197E+03</pdfrwt>
<pdfrwt beam="2">  1       -3 0.72648421E-01 0.28078197E+03</pdfrwt>
<totfact> 0.71364665E+02</totfact>
</mgrwt>
</event>
<event>
 4    1  0.1733772E-004  0.2577688E+03  0.7818608E-02  0.1108491E+00
          3   -1    0    0  501    0  0.00000000000E+00  0.00000000000E+00  0.18352662816E+03  0.18352662816E+03  0.00000000000E+00 0. -1.
         -3   -1    0    0    0  501 -0.00000000000E+00 -0.00000000000E+00 -0.90511047514E+02  0.90511047514E+02  0.00000000000E+00 0. -1.
         25    1    1    2    0    0  0.18046356809E+02  0.32092886068E+02  0.77603891906E+02  0.14757367099E+03  0.12000000000E+03 0.  0.
         25    1    1    2    0    0 -0.18046356809E+02 -0.32092886068E+02  0.15411688736E+02  0.12646400468E+03  0.12000000000E+03 0.  0.
<mgrwt>
<rscale>  0 0.25776879E+03</rscale>
<asrwt>0</asrwt>
<pdfrwt beam="1">  1        3 0.28234866E-01 0.25776879E+03</pdfrwt>
<pdfrwt beam="2">  1       -3 0.13924777E-01 0.25776879E+03</pdfrwt>
<totfact> 0.12803374E+03</totfact>
</mgrwt>
</event>
<event>
 4    1  0.1733772E-004  0.2455941E+03  0.7818608E-02  0.1116121E+00
         -1   -1    0    0    0  501 -0.00000000000E+00  0.00000000000E+00  0.79100270380E+03  0.79100270380E+03  0.00000000000E+00 0.  1.
          1   -1    0    0  501    0  0.00000000000E+00 -0.00000000000E+00 -0.19063291953E+02  0.19063291953E+02  0.00000000000E+00 0.  1.
         25    1    1    2    0    0  0.17406523135E+02 -0.14260917423E+02  0.42932252710E+03  0.44634537422E+03  0.12000000000E+03 0.  0.
         25    1    1    2    0    0 -0.17406523135E+02  0.14260917423E+02  0.34261688475E+03  0.36372062153E+03  0.12000000000E+03 0.  0.
<mgrwt>
<rscale>  0 0.24559410E+03</rscale>
<asrwt>0</asrwt>
<pdfrwt beam="1">  1        1 0.29328148E-02 0.24559410E+03</pdfrwt>
<pdfrwt beam="2">  1       -1 0.12169270E+00 0.24559410E+03</pdfrwt>
<totfact> 0.22392321E+03</totfact>
</mgrwt>
</event>
<event>
 4    1  0.1733772E-004  0.2756541E+03  0.7818608E-02  0.1098087E+00
         -3   -1    0    0    0  501 -0.00000000000E+00  0.00000000000E+00  0.13777338972E+03  0.13777338972E+03  0.00000000000E+00 0.  1.
          3   -1    0    0  501    0  0.00000000000E+00 -0.00000000000E+00 -0.13788068155E+03  0.13788068155E+03  0.00000000000E+00 0.  1.
         25    1    1    2    0    0  0.14766685604E+02  0.66160840494E+02  0.93481521105E+00  0.13782665090E+03  0.12000000000E+03 0.  0.
         25    1    1    2    0    0 -0.14766685604E+02 -0.66160840494E+02 -0.10421070362E+01  0.13782742037E+03  0.12000000000E+03 0.  0.
<mgrwt>
<rscale>  0 0.27565405E+03</rscale>
<asrwt>0</asrwt>
<pdfrwt beam="1">  1        3 0.21212412E-01 0.27565405E+03</pdfrwt>
<pdfrwt beam="2">  1       -3 0.21195906E-01 0.27565405E+03</pdfrwt>
<totfact> 0.10402786E+03</totfact>
</mgrwt>
</event>
<event>
 4    1  0.1733772E-004  0.2822839E+03  0.7818608E-02  0.1094448E+00
          2   -1    0    0  501    0  0.00000000000E+00  0.00000000000E+00  0.42700703398E+03  0.42700703398E+03  0.00000000000E+00 0.  1.
         -2   -1    0    0    0  501 -0.00000000000E+00 -0.00000000000E+00 -0.46652735295E+02  0.46652735295E+02  0.00000000000E+00 0.  1.
         25    1    1    2    0    0 -0.25405197034E+02 -0.69799380878E+02  0.19339100061E+03  0.23941064455E+03  0.12000000000E+03 0.  0.
         25    1    1    2    0    0  0.25405197034E+02  0.69799380878E+02  0.18696329808E+03  0.23424912473E+03  0.12000000000E+03 0.  0.
<mgrwt>
<rscale>  0 0.28228387E+03</rscale>
<asrwt>0</asrwt>
<pdfrwt beam="1">  1        2 0.65693387E-01 0.28228387E+03</pdfrwt>
<pdfrwt beam="2">  1       -2 0.71773442E-02 0.28228387E+03</pdfrwt>
<totfact> 0.82831281E+03</totfact>
</mgrwt>
</event>
<event>
 4    1  0.1733772E-004  0.3378850E+03  0.7818608E-02  0.1067700E+00
          2   -1    0    0  501    0  0.00000000000E+00  0.00000000000E+00  0.55890019830E+03  0.55890019830E+03  0.00000000000E+00 0.  1.
         -2   -1    0    0    0  501 -0.00000000000E+00 -0.00000000000E+00 -0.51067367123E+02  0.51067367123E+02  0.00000000000E+00 0.  1.
         25    1    1    2    0    0 -0.51935027658E+02 -0.10179332918E+03  0.31330983407E+03  0.35443219534E+03  0.12000000000E+03 0.  0.
         25    1    1    2    0    0  0.51935027658E+02  0.10179332918E+03  0.19452299711E+03  0.25553537009E+03  0.12000000000E+03 0.  0.
<mgrwt>
<rscale>  0 0.33788496E+03</rscale>
<asrwt>0</asrwt>
<pdfrwt beam="1">  1        2 0.85984642E-01 0.33788496E+03</pdfrwt>
<pdfrwt beam="2">  1       -2 0.78565184E-02 0.33788496E+03</pdfrwt>
<totfact> 0.53477757E+03</totfact>
</mgrwt>
</event>
<event>
 4    1  0.1733772E-004  0.2591811E+03  0.7818608E-02  0.1107636E+00
          2   -1    0    0  501    0  0.00000000000E+00  0.00000000000E+00  0.31468404805E+03  0.31468404805E+03  0.00000000000E+00 0. -1.
         -2   -1    0    0    0  501 -0.00000000000E+00 -0.00000000000E+00 -0.53366915132E+02  0.53366915132E+02  0.00000000000E+00 0. -1.
         25    1    1    2    0    0 -0.42000489408E+02 -0.47193764425E+01  0.95660575958E+02  0.15917681809E+03  0.12000000000E+03 0.  0.
         25    1    1    2    0    0  0.42000489408E+02  0.47193764425E+01  0.16565655696E+03  0.20887414510E+03  0.12000000000E+03 0.  0.
<mgrwt>
<rscale>  0 0.25918115E+03</rscale>
<asrwt>0</asrwt>
<pdfrwt beam="1">  1        2 0.48412929E-01 0.25918115E+03</pdfrwt>
<pdfrwt beam="2">  1       -2 0.82102948E-02 0.25918115E+03</pdfrwt>
<totfact> 0.93153265E+03</totfact>
</mgrwt>
</event>
<event>
 4    1  0.1733772E-004  0.2567781E+03  0.7818608E-02  0.1109095E+00
         -1   -1    0    0    0  501 -0.00000000000E+00  0.00000000000E+00  0.59020813524E+02  0.59020813524E+02  0.00000000000E+00 0. -1.
          1   -1    0    0  501    0  0.00000000000E+00 -0.00000000000E+00 -0.27928704308E+03  0.27928704308E+03  0.00000000000E+00 0. -1.
         25    1    1    2    0    0  0.28681593570E+02 -0.31810216807E+02 -0.13093246244E+03  0.18269601371E+03  0.12000000000E+03 0.  0.
         25    1    1    2    0    0 -0.28681593570E+02  0.31810216807E+02 -0.89333767111E+02  0.15561184290E+03  0.12000000000E+03 0.  0.
<mgrwt>
<rscale>  0 0.25677810E+03</rscale>
<asrwt>0</asrwt>
<pdfrwt beam="1">  1        1 0.42967237E-01 0.25677810E+03</pdfrwt>
<pdfrwt beam="2">  1       -1 0.90801251E-02 0.25677810E+03</pdfrwt>
<totfact> 0.67204458E+03</totfact>
</mgrwt>
</event>
<event>
 4    1  0.1733772E-004  0.2597171E+03  0.7818608E-02  0.1107313E+00
         -1   -1    0    0    0  501 -0.00000000000E+00  0.00000000000E+00  0.13446392946E+02  0.13446392946E+02  0.00000000000E+00 0. -1.
          1   -1    0    0  501    0  0.00000000000E+00 -0.00000000000E+00 -0.12541088899E+04  0.12541088899E+04  0.00000000000E+00 0. -1.
         25    1    1    2    0    0  0.31051651620E+02 -0.24635662801E+02 -0.76610456168E+03  0.77645818972E+03  0.12000000000E+03 0.  0.
         25    1    1    2    0    0 -0.31051651620E+02  0.24635662801E+02 -0.47455793531E+03  0.49109709317E+03  0.12000000000E+03 0.  0.
<mgrwt>
<rscale>  0 0.25971708E+03</rscale>
<asrwt>0</asrwt>
<pdfrwt beam="1">  1        1 0.19293985E+00 0.25971708E+03</pdfrwt>
<pdfrwt beam="2">  1       -1 0.20686756E-02 0.25971708E+03</pdfrwt>
<totfact> 0.68378280E+03</totfact>
</mgrwt>
</event>
<event>
 4    1  0.1733772E-004  0.4341338E+03  0.7818608E-02  0.1032562E+00
          2   -1    0    0  501    0  0.00000000000E+00  0.00000000000E+00  0.11033417037E+04  0.11033417037E+04  0.00000000000E+00 0.  1.
         -2   -1    0    0    0  501 -0.00000000000E+00 -0.00000000000E+00 -0.42704852203E+02  0.42704852203E+02  0.00000000000E+00 0.  1.
         25    1    1    2    0    0  0.79971681208E+02 -0.11962143337E+03  0.81965915214E+03  0.84080073906E+03  0.12000000000E+03 0.  0.
         25    1    1    2    0    0 -0.79971681208E+02  0.11962143337E+03  0.24097769939E+03  0.30524581687E+03  0.12000000000E+03 0.  0.
<mgrwt>
<rscale>  0 0.43413382E+03</rscale>
<asrwt>0</asrwt>
<pdfrwt beam="1">  1        2 0.16974486E+00 0.43413382E+03</pdfrwt>
<pdfrwt beam="2">  1       -2 0.65699781E-02 0.43413382E+03</pdfrwt>
<totfact> 0.29319882E+03</totfact>
</mgrwt>
</event>
<event>
 4    1  0.1733772E-004  0.2831454E+03  0.7818608E-02  0.1093983E+00
         -2   -1    0    0    0  501 -0.00000000000E+00  0.00000000000E+00  0.29261273936E+02  0.29261273936E+02  0.00000000000E+00 0.  1.
          2   -1    0    0  501    0  0.00000000000E+00 -0.00000000000E+00 -0.68496116020E+03  0.68496116020E+03  0.00000000000E+00 0.  1.
         25    1    1    2    0    0  0.31362405959E+02 -0.41560237265E+02 -0.46443543691E+03  0.48250505581E+03  0.12000000000E+03 0.  0.
         25    1    1    2    0    0 -0.31362405959E+02  0.41560237265E+02 -0.19126444935E+03  0.23171737832E+03  0.12000000000E+03 0.  0.
<mgrwt>
<rscale>  0 0.28314545E+03</rscale>
<asrwt>0</asrwt>
<pdfrwt beam="1">  1        2 0.10537864E+00 0.28314545E+03</pdfrwt>
<pdfrwt beam="2">  1       -2 0.45017345E-02 0.28314545E+03</pdfrwt>
<totfact> 0.98696116E+03</totfact>
</mgrwt>
</event>
<event>
 4    1  0.1733772E-004  0.2658785E+03  0.7818608E-02  0.1103662E+00
          1   -1    0    0  501    0  0.00000000000E+00  0.00000000000E+00  0.10793260812E+04  0.10793260812E+04  0.00000000000E+00 0.  1.
         -1   -1    0    0    0  501 -0.00000000000E+00 -0.00000000000E+00 -0.16373963223E+02  0.16373963223E+02  0.00000000000E+00 0.  1.
         25    1    1    2    0    0  0.23845167495E+02 -0.43562571952E+02  0.41443838796E+03  0.43431033502E+03  0.12000000000E+03 0.  0.
         25    1    1    2    0    0 -0.23845167495E+02  0.43562571952E+02  0.64851373001E+03  0.66138970940E+03  0.12000000000E+03 0.  0.
<mgrwt>
<rscale>  0 0.26587851E+03</rscale>
<asrwt>0</asrwt>
<pdfrwt beam="1">  1        1 0.16605011E+00 0.26587851E+03</pdfrwt>
<pdfrwt beam="2">  1       -1 0.25190721E-02 0.26587851E+03</pdfrwt>
<totfact> 0.68104411E+03</totfact>
</mgrwt>
</event>
<event>
 4    1  0.1733772E-004  0.2723977E+03  0.7818608E-02  0.1099915E+00
          1   -1    0    0  501    0  0.00000000000E+00  0.00000000000E+00  0.52855176978E+03  0.52855176978E+03  0.00000000000E+00 0.  1.
         -1   -1    0    0    0  501 -0.00000000000E+00 -0.00000000000E+00 -0.35096149374E+02  0.35096149374E+02  0.00000000000E+00 0.  1.
         25    1    1    2    0    0  0.42562794092E+02  0.46592751352E+02  0.27352035040E+03  0.30527996659E+03  0.12000000000E+03 0.  0.
         25    1    1    2    0    0 -0.42562794092E+02 -0.46592751352E+02  0.21993527001E+03  0.25836795257E+03  0.12000000000E+03 0.  0.
<mgrwt>
<rscale>  0 0.27239774E+03</rscale>
<asrwt>0</asrwt>
<pdfrwt beam="1">  1        1 0.81315651E-01 0.27239774E+03</pdfrwt>
<pdfrwt beam="2">  1       -1 0.53994080E-02 0.27239774E+03</pdfrwt>
<totfact> 0.65343142E+03</totfact>
</mgrwt>
</event>
<event>
 4    1  0.1733772E-004  0.3465637E+03  0.7818608E-02  0.1064034E+00
          1   -1    0    0  501    0  0.00000000000E+00  0.00000000000E+00  0.29375856078E+04  0.29375856078E+04  0.00000000000E+00 0.  1.
         -1   -1    0    0    0  501 -0.00000000000E+00 -0.00000000000E+00 -0.10221522980E+02  0.10221522980E+02  0.00000000000E+00 0.  1.
         25    1    1    2    0    0 -0.43345676140E+02  0.11547611070E+03  0.12908194499E+04  0.13022397751E+04  0.12000000000E+03 0.  0.
         25    1    1    2    0    0  0.43345676140E+02 -0.11547611070E+03  0.16365446349E+04  0.16455673556E+04  0.12000000000E+03 0.  0.
<mgrwt>
<rscale>  0 0.34656370E+03</rscale>
<asrwt>0</asrwt>
<pdfrwt beam="1">  1        1 0.45193558E+00 0.34656370E+03</pdfrwt>
<pdfrwt beam="2">  1       -1 0.15725443E-02 0.34656370E+03</pdfrwt>
<totfact> 0.77190935E+02</totfact>
</mgrwt>
</event>
<event>
 4    1  0.1733772E-004  0.2823246E+03  0.7818608E-02  0.1094426E+00
         -4   -1    0    0    0  501 -0.00000000000E+00  0.00000000000E+00  0.56751003050E+03  0.56751003050E+03  0.00000000000E+00 0.  1.
          4   -1    0    0  501    0  0.00000000000E+00 -0.00000000000E+00 -0.35112682124E+02  0.35112682124E+02  0.00000000000E+00 0.  1.
         25    1    1    2    0    0  0.33484208360E+02  0.36072154909E+02  0.14727014842E+03  0.19624191496E+03  0.12000000000E+03 0.  0.
         25    1    1    2    0    0 -0.33484208360E+02 -0.36072154909E+02  0.38512719995E+03  0.40638079767E+03  0.12000000000E+03 0.  0.
<mgrwt>
<rscale>  0 0.28232463E+03</rscale>
<asrwt>0</asrwt>
<pdfrwt beam="1">  1        4 0.54019515E-02 0.28232463E+03</pdfrwt>
<pdfrwt beam="2">  1       -4 0.87309229E-01 0.28232463E+03</pdfrwt>
<totfact> 0.46190231E+02</totfact>
</mgrwt>
</event>
<event>
 4    1  0.1733772E-004  0.2691260E+03  0.7818608E-02  0.1101781E+00
          2   -1    0    0  501    0  0.00000000000E+00  0.00000000000E+00  0.70910680263E+03  0.70910680263E+03  0.00000000000E+00 0.  1.
         -2   -1    0    0    0  501 -0.00000000000E+00 -0.00000000000E+00 -0.25535215387E+02  0.25535215387E+02  0.00000000000E+00 0.  1.
         25    1    1    2    0    0  0.18404341149E+02 -0.56712388067E+02  0.30811144054E+03  0.33598761067E+03  0.12000000000E+03 0.  0.
         25    1    1    2    0    0 -0.18404341149E+02  0.56712388067E+02  0.37546014671E+03  0.39865440735E+03  0.12000000000E+03 0.  0.
<mgrwt>
<rscale>  0 0.26912596E+03</rscale>
<asrwt>0</asrwt>
<pdfrwt beam="1">  1        2 0.10909334E+00 0.26912596E+03</pdfrwt>
<pdfrwt beam="2">  1       -2 0.39284952E-02 0.26912596E+03</pdfrwt>
<totfact> 0.11599887E+04</totfact>
</mgrwt>
</event>
