<event>
 5    1  0.1132878E+001  0.2751541E+03  0.7818608E-02  0.1098365E+00
         -2   -1    0    0    0  501 -0.00000000000E+00  0.00000000000E+00  0.11526538866E+02  0.11526538866E+02  0.00000000000E+00 0. -1.
          2   -1    0    0  501    0  0.00000000000E+00 -0.00000000000E+00 -0.16420758492E+04  0.16420758492E+04  0.00000000000E+00 0. -1.
         35    2    1    2    0    0  0.00000000000E+00  0.00000000000E+00 -0.16305493103E+04  0.16536023880E+04  0.27515414659E+03 0.  0.
         25    1    3    3    0    0  0.36076311940E+02 -0.15914196621E+02 -0.11429394472E+04  0.11498979702E+04  0.12000000000E+03 0.  0.
         25    1    3    3    0    0 -0.36076311940E+02  0.15914196621E+02 -0.48760986312E+03  0.50370441784E+03  0.12000000000E+03 0.  0.
<mgrwt>
<rscale>  0 0.27515415E+03</rscale>
<asrwt>0</asrwt>
<pdfrwt beam="1">  1        2 0.25262704E+00 0.27515415E+03</pdfrwt>
<pdfrwt beam="2">  1       -2 0.17733138E-02 0.27515415E+03</pdfrwt>
<totfact> 0.10578949E+04</totfact>
</mgrwt>
</event>
<event>
 5    1  0.1132878E+001  0.2751082E+03  0.7818608E-02  0.1098391E+00
          2   -1    0    0  501    0  0.00000000000E+00  0.00000000000E+00  0.34698762643E+02  0.34698762643E+02  0.00000000000E+00 0.  1.
         -2   -1    0    0    0  501 -0.00000000000E+00 -0.00000000000E+00 -0.54529696671E+03  0.54529696671E+03  0.00000000000E+00 0.  1.
         35    2    1    2    0    0  0.00000000000E+00  0.00000000000E+00 -0.51059820407E+03  0.57999572935E+03  0.27510819703E+03 0.  0.
         25    1    3    3    0    0  0.28829414166E+02  0.58973661250E+02 -0.22459518197E+03  0.26296772351E+03  0.12000000000E+03 0.  0.
         25    1    3    3    0    0 -0.28829414166E+02 -0.58973661250E+02 -0.28600302210E+03  0.31702800585E+03  0.12000000000E+03 0.  0.
<mgrwt>
<rscale>  0 0.27510820E+03</rscale>
<asrwt>0</asrwt>
<pdfrwt beam="1">  1        2 0.53382709E-02 0.27510820E+03</pdfrwt>
<pdfrwt beam="2">  1       -2 0.83891845E-01 0.27510820E+03</pdfrwt>
<totfact> 0.18436041E+03</totfact>
</mgrwt>
</event>
<event>
 5    1  0.1132878E+001  0.2800895E+03  0.7818608E-02  0.1095640E+00
         -1   -1    0    0    0  501 -0.00000000000E+00  0.00000000000E+00  0.12236910891E+02  0.12236910891E+02  0.00000000000E+00 0.  1.
          1   -1    0    0  501    0  0.00000000000E+00 -0.00000000000E+00 -0.16027358136E+04  0.16027358136E+04  0.00000000000E+00 0.  1.
         35    2    1    2    0    0  0.00000000000E+00  0.00000000000E+00 -0.15904989027E+04  0.16149727245E+04  0.28008952378E+03 0.  0.
         25    1    3    3    0    0 -0.11192522468E+02  0.20048358625E+02 -0.40057570523E+03  0.41879363040E+03  0.12000000000E+03 0.  0.
         25    1    3    3    0    0  0.11192522468E+02 -0.20048358625E+02 -0.11899231974E+04  0.11961790941E+04  0.12000000000E+03 0.  0.
<mgrwt>
<rscale>  0 0.28008952E+03</rscale>
<asrwt>0</asrwt>
<pdfrwt beam="1">  1        1 0.24657471E+00 0.28008952E+03</pdfrwt>
<pdfrwt beam="2">  1       -1 0.18826019E-02 0.28008952E+03</pdfrwt>
<totfact> 0.45869083E+03</totfact>
</mgrwt>
</event>
<event>
 5    1  0.1132878E+001  0.2747128E+03  0.7818608E-02  0.1098612E+00
          2   -1    0    0  501    0  0.00000000000E+00  0.00000000000E+00  0.50697336801E+03  0.50697336801E+03  0.00000000000E+00 0. -1.
         -2   -1    0    0    0  501 -0.00000000000E+00 -0.00000000000E+00 -0.37214530492E+02  0.37214530492E+02  0.00000000000E+00 0. -1.
         35    2    1    2    0    0  0.00000000000E+00  0.00000000000E+00  0.46975883752E+03  0.54418789850E+03  0.27471276536E+03 0.  0.
         25    1    3    3    0    0  0.45286498865E+02  0.21445521276E+02  0.14726929418E+03  0.19646633903E+03  0.12000000000E+03 0.  0.
         25    1    3    3    0    0 -0.45286498865E+02 -0.21445521276E+02  0.32248954334E+03  0.34772155947E+03  0.12000000000E+03 0.  0.
<mgrwt>
<rscale>  0 0.27471277E+03</rscale>
<asrwt>0</asrwt>
<pdfrwt beam="1">  1        2 0.77995898E-01 0.27471277E+03</pdfrwt>
<pdfrwt beam="2">  1       -2 0.57253127E-02 0.27471277E+03</pdfrwt>
<totfact> 0.96931721E+03</totfact>
</mgrwt>
</event>
<event>
 5    1  0.1132878E+001  0.2748352E+03  0.7818608E-02  0.1098544E+00
          2   -1    0    0  501    0  0.00000000000E+00  0.00000000000E+00  0.47342376873E+03  0.47342376873E+03  0.00000000000E+00 0. -1.
         -2   -1    0    0    0  501 -0.00000000000E+00 -0.00000000000E+00 -0.39887290492E+02  0.39887290492E+02  0.00000000000E+00 0. -1.
         35    2    1    2    0    0  0.00000000000E+00  0.00000000000E+00  0.43353647823E+03  0.51331105922E+03  0.27483516070E+03 0.  0.
         25    1    3    3    0    0  0.73809487991E+01 -0.51279729292E+02  0.13753917296E+03  0.18973959297E+03  0.12000000000E+03 0.  0.
         25    1    3    3    0    0 -0.73809487991E+01  0.51279729292E+02  0.29599730528E+03  0.32357146625E+03  0.12000000000E+03 0.  0.
<mgrwt>
<rscale>  0 0.27483516E+03</rscale>
<asrwt>0</asrwt>
<pdfrwt beam="1">  1        2 0.72834422E-01 0.27483516E+03</pdfrwt>
<pdfrwt beam="2">  1       -2 0.61365066E-02 0.27483516E+03</pdfrwt>
<totfact> 0.94069991E+03</totfact>
</mgrwt>
</event>
<event>
 5    1  0.1132878E+001  0.2750924E+03  0.7818608E-02  0.1098400E+00
          2   -1    0    0  501    0  0.00000000000E+00  0.00000000000E+00  0.14042259857E+04  0.14042259857E+04  0.00000000000E+00 0.  1.
         -2   -1    0    0    0  501 -0.00000000000E+00 -0.00000000000E+00 -0.13472874052E+02  0.13472874052E+02  0.00000000000E+00 0.  1.
         35    2    1    2    0    0  0.00000000000E+00  0.00000000000E+00  0.13907531117E+04  0.14176988598E+04  0.27509241972E+03 0.  0.
         25    1    3    3    0    0  0.39959777460E+02 -0.38774654801E+02  0.88948793008E+03  0.89927139142E+03  0.12000000000E+03 0.  0.
         25    1    3    3    0    0 -0.39959777460E+02  0.38774654801E+02  0.50126518161E+03  0.51842746837E+03  0.12000000000E+03 0.  0.
<mgrwt>
<rscale>  0 0.27509242E+03</rscale>
<asrwt>0</asrwt>
<pdfrwt beam="1">  1        2 0.21603465E+00 0.27509242E+03</pdfrwt>
<pdfrwt beam="2">  1       -2 0.20727510E-02 0.27509242E+03</pdfrwt>
<totfact> 0.11270669E+04</totfact>
</mgrwt>
</event>
<event>
 5    1  0.1132878E+001  0.2770739E+03  0.7818608E-02  0.1097298E+00
          2   -1    0    0  501    0  0.00000000000E+00  0.00000000000E+00  0.66617441014E+03  0.66617441014E+03  0.00000000000E+00 0. -1.
         -2   -1    0    0    0  501 -0.00000000000E+00 -0.00000000000E+00 -0.28810003208E+02  0.28810003208E+02  0.00000000000E+00 0. -1.
         35    2    1    2    0    0  0.00000000000E+00  0.00000000000E+00  0.63736440693E+03  0.69498441335E+03  0.27707390273E+03 0.  0.
         25    1    3    3    0    0 -0.15704936240E+02 -0.67107101930E+02  0.33503022727E+03  0.36248484290E+03  0.12000000000E+03 0.  0.
         25    1    3    3    0    0  0.15704936240E+02  0.67107101930E+02  0.30233417966E+03  0.33249957044E+03  0.12000000000E+03 0.  0.
<mgrwt>
<rscale>  0 0.27707390E+03</rscale>
<asrwt>0</asrwt>
<pdfrwt beam="1">  1        2 0.10248836E+00 0.27707390E+03</pdfrwt>
<pdfrwt beam="2">  1       -2 0.44323087E-02 0.27707390E+03</pdfrwt>
<totfact> 0.10439649E+04</totfact>
</mgrwt>
</event>
<event>
 5    1  0.1132878E+001  0.2773599E+03  0.7818608E-02  0.1097140E+00
         -2   -1    0    0    0  501 -0.00000000000E+00  0.00000000000E+00  0.17802055826E+02  0.17802055826E+02  0.00000000000E+00 0.  1.
          2   -1    0    0  501    0  0.00000000000E+00 -0.00000000000E+00 -0.10803319424E+04  0.10803319424E+04  0.00000000000E+00 0.  1.
         35    2    1    2    0    0  0.00000000000E+00  0.00000000000E+00 -0.10625298865E+04  0.10981339982E+04  0.27735990733E+03 0.  0.
         25    1    3    3    0    0 -0.40838980408E+01 -0.20746460510E+01 -0.25664253277E+03  0.28334849921E+03  0.12000000000E+03 0.  0.
         25    1    3    3    0    0  0.40838980408E+01  0.20746460510E+01 -0.80588735376E+03  0.81478549897E+03  0.12000000000E+03 0.  0.
<mgrwt>
<rscale>  0 0.27735991E+03</rscale>
<asrwt>0</asrwt>
<pdfrwt beam="1">  1        2 0.16620496E+00 0.27735991E+03</pdfrwt>
<pdfrwt beam="2">  1       -2 0.27387770E-02 0.27735991E+03</pdfrwt>
<totfact> 0.11368746E+04</totfact>
</mgrwt>
</event>
<event>
 5    1  0.1132878E+001  0.2685606E+03  0.7818608E-02  0.1102106E+00
          2   -1    0    0  501    0  0.00000000000E+00  0.00000000000E+00  0.34160579714E+03  0.34160579714E+03  0.00000000000E+00 0. -1.
         -2   -1    0    0    0  501 -0.00000000000E+00 -0.00000000000E+00 -0.52783625841E+02  0.52783625841E+02  0.00000000000E+00 0. -1.
         35    2    1    2    0    0  0.00000000000E+00  0.00000000000E+00  0.28882217129E+03  0.39438942298E+03  0.26856055243E+03 0.  0.
         25    1    3    3    0    0 -0.58928036709E+02 -0.17560363535E+01  0.16272922776E+03  0.21060958844E+03  0.12000000000E+03 0.  0.
         25    1    3    3    0    0  0.58928036709E+02  0.17560363535E+01  0.12609294353E+03  0.18377983454E+03  0.12000000000E+03 0.  0.
<mgrwt>
<rscale>  0 0.26856055E+03</rscale>
<asrwt>0</asrwt>
<pdfrwt beam="1">  1        2 0.52554737E-01 0.26856055E+03</pdfrwt>
<pdfrwt beam="2">  1       -2 0.81205580E-02 0.26856055E+03</pdfrwt>
<totfact> 0.86886739E+03</totfact>
</mgrwt>
</event>
<event>
 5    1  0.1132878E+001  0.2675343E+03  0.7818608E-02  0.1102699E+00
         -1   -1    0    0    0  501 -0.00000000000E+00  0.00000000000E+00  0.19215814777E+03  0.19215814777E+03  0.00000000000E+00 0. -1.
          1   -1    0    0  501    0  0.00000000000E+00 -0.00000000000E+00 -0.93119387926E+02  0.93119387926E+02  0.00000000000E+00 0. -1.
         35    2    1    2    0    0  0.00000000000E+00  0.00000000000E+00  0.99038759842E+02  0.28527753569E+03  0.26753429018E+03 0.  0.
         25    1    3    3    0    0 -0.19901430274E+02 -0.50990684303E+02  0.25734620803E+02  0.13438149992E+03  0.12000000000E+03 0.  0.
         25    1    3    3    0    0  0.19901430274E+02  0.50990684303E+02  0.73304139039E+02  0.15089603578E+03  0.12000000000E+03 0.  0.
<mgrwt>
<rscale>  0 0.26753429E+03</rscale>
<asrwt>0</asrwt>
<pdfrwt beam="1">  1        1 0.14326060E-01 0.26753429E+03</pdfrwt>
<pdfrwt beam="2">  1       -1 0.29562792E-01 0.26753429E+03</pdfrwt>
<totfact> 0.41208838E+03</totfact>
</mgrwt>
</event>
<event>
 5    1  0.1132878E+001  0.2747638E+03  0.7818608E-02  0.1098584E+00
          2   -1    0    0  501    0  0.00000000000E+00  0.00000000000E+00  0.42267442755E+03  0.42267442755E+03  0.00000000000E+00 0.  1.
         -2   -1    0    0    0  501 -0.00000000000E+00 -0.00000000000E+00 -0.44653257799E+02  0.44653257799E+02  0.00000000000E+00 0.  1.
         35    2    1    2    0    0  0.00000000000E+00  0.00000000000E+00  0.37802116975E+03  0.46732768535E+03  0.27476382716E+03 0.  0.
         25    1    3    3    0    0 -0.39117124229E+02  0.40052893053E+02  0.25125754668E+03  0.28401538411E+03  0.12000000000E+03 0.  0.
         25    1    3    3    0    0  0.39117124229E+02 -0.40052893053E+02  0.12676362307E+03  0.18331230123E+03  0.12000000000E+03 0.  0.
<mgrwt>
<rscale>  0 0.27476383E+03</rscale>
<asrwt>0</asrwt>
<pdfrwt beam="1">  1        2 0.65026833E-01 0.27476383E+03</pdfrwt>
<pdfrwt beam="2">  1       -2 0.68697322E-02 0.27476383E+03</pdfrwt>
<totfact> 0.89552124E+03</totfact>
</mgrwt>
</event>
<event>
 5    1  0.1132878E+001  0.2743552E+03  0.7818608E-02  0.1098813E+00
         -1   -1    0    0    0  501 -0.00000000000E+00  0.00000000000E+00  0.74832252895E+02  0.74832252895E+02  0.00000000000E+00 0.  1.
          1   -1    0    0  501    0  0.00000000000E+00 -0.00000000000E+00 -0.25146504367E+03  0.25146504367E+03  0.00000000000E+00 0.  1.
         35    2    1    2    0    0  0.00000000000E+00  0.00000000000E+00 -0.17663279078E+03  0.32629729657E+03  0.27435521313E+03 0.  0.
         25    1    3    3    0    0 -0.60711519311E+02  0.74386511590E+01 -0.57383135095E+02  0.14640371000E+03  0.12000000000E+03 0.  0.
         25    1    3    3    0    0  0.60711519311E+02 -0.74386511590E+01 -0.11924965568E+03  0.17989358657E+03  0.12000000000E+03 0.  0.
<mgrwt>
<rscale>  0 0.27435521E+03</rscale>
<asrwt>0</asrwt>
<pdfrwt beam="1">  1        1 0.38686930E-01 0.27435521E+03</pdfrwt>
<pdfrwt beam="2">  1       -1 0.11512654E-01 0.27435521E+03</pdfrwt>
<totfact> 0.53228763E+03</totfact>
</mgrwt>
</event>
<event>
 5    1  0.1132878E+001  0.2749293E+03  0.7818608E-02  0.1098491E+00
          1   -1    0    0  501    0  0.00000000000E+00  0.00000000000E+00  0.32463655525E+03  0.32463655525E+03  0.00000000000E+00 0. -1.
         -1   -1    0    0    0  501 -0.00000000000E+00 -0.00000000000E+00 -0.58208257444E+02  0.58208257444E+02  0.00000000000E+00 0. -1.
         35    2    1    2    0    0  0.00000000000E+00  0.00000000000E+00  0.26642829781E+03  0.38284481270E+03  0.27492928679E+03 0.  0.
         25    1    3    3    0    0  0.58103058351E+02  0.28132667652E+02  0.10795166028E+03  0.17384180549E+03  0.12000000000E+03 0.  0.
         25    1    3    3    0    0 -0.58103058351E+02 -0.28132667652E+02  0.15847663753E+03  0.20900300721E+03  0.12000000000E+03 0.  0.
<mgrwt>
<rscale>  0 0.27492929E+03</rscale>
<asrwt>0</asrwt>
<pdfrwt beam="1">  1        1 0.49944084E-01 0.27492929E+03</pdfrwt>
<pdfrwt beam="2">  1       -1 0.89551167E-02 0.27492929E+03</pdfrwt>
<totfact> 0.56957970E+03</totfact>
</mgrwt>
</event>
<event>
 5    1  0.1132878E+001  0.2750135E+03  0.7818608E-02  0.1098444E+00
          2   -1    0    0  501    0  0.00000000000E+00  0.00000000000E+00  0.26407016690E+04  0.26407016690E+04  0.00000000000E+00 0. -1.
         -2   -1    0    0    0  501 -0.00000000000E+00 -0.00000000000E+00 -0.71602572948E+01  0.71602572948E+01  0.00000000000E+00 0. -1.
         35    2    1    2    0    0  0.00000000000E+00  0.00000000000E+00  0.26335414117E+04  0.26478619263E+04  0.27501347886E+03 0.  0.
         25    1    3    3    0    0 -0.64077702063E+02 -0.11411347450E+02  0.14755420135E+04  0.14818435830E+04  0.12000000000E+03 0.  0.
         25    1    3    3    0    0  0.64077702063E+02  0.11411347450E+02  0.11579993982E+04  0.11660183433E+04  0.12000000000E+03 0.  0.
<mgrwt>
<rscale>  0 0.27501348E+03</rscale>
<asrwt>0</asrwt>
<pdfrwt beam="1">  1        2 0.40626102E+00 0.27501348E+03</pdfrwt>
<pdfrwt beam="2">  1       -2 0.11015802E-02 0.27501348E+03</pdfrwt>
<totfact> 0.62089816E+03</totfact>
</mgrwt>
</event>
<event>
 5    1  0.1132878E+001  0.2749860E+03  0.7818608E-02  0.1098459E+00
          2   -1    0    0  501    0  0.00000000000E+00  0.00000000000E+00  0.88523565395E+03  0.88523565395E+03  0.00000000000E+00 0. -1.
         -2   -1    0    0    0  501 -0.00000000000E+00 -0.00000000000E+00 -0.21355130461E+02  0.21355130461E+02  0.00000000000E+00 0. -1.
         35    2    1    2    0    0  0.00000000000E+00  0.00000000000E+00  0.86388052349E+03  0.90659078441E+03  0.27498598421E+03 0.  0.
         25    1    3    3    0    0  0.42439325021E+02 -0.28968378266E+02  0.28959905548E+03  0.31766000092E+03  0.12000000000E+03 0.  0.
         25    1    3    3    0    0 -0.42439325021E+02  0.28968378266E+02  0.57428146801E+03  0.58893078349E+03  0.12000000000E+03 0.  0.
<mgrwt>
<rscale>  0 0.27498598E+03</rscale>
<asrwt>0</asrwt>
<pdfrwt beam="1">  1        2 0.13619007E+00 0.27498598E+03</pdfrwt>
<pdfrwt beam="2">  1       -2 0.32854054E-02 0.27498598E+03</pdfrwt>
<totfact> 0.11448542E+04</totfact>
</mgrwt>
</event>
<event>
 5    1  0.1132878E+001  0.2795745E+03  0.7818608E-02  0.1095922E+00
         -1   -1    0    0    0  501 -0.00000000000E+00  0.00000000000E+00  0.74273035164E+02  0.74273035164E+02  0.00000000000E+00 0.  1.
          1   -1    0    0  501    0  0.00000000000E+00 -0.00000000000E+00 -0.26308968986E+03  0.26308968986E+03  0.00000000000E+00 0.  1.
         35    2    1    2    0    0  0.00000000000E+00  0.00000000000E+00 -0.18881665469E+03  0.33736272502E+03  0.27957446082E+03 0.  0.
         25    1    3    3    0    0  0.15922917433E+02 -0.67510092073E+02 -0.11630647122E+03  0.18093741205E+03  0.12000000000E+03 0.  0.
         25    1    3    3    0    0 -0.15922917433E+02  0.67510092073E+02 -0.72510183477E+02  0.15642531297E+03  0.12000000000E+03 0.  0.
<mgrwt>
<rscale>  0 0.27957446E+03</rscale>
<asrwt>0</asrwt>
<pdfrwt beam="1">  1        1 0.40475337E-01 0.27957446E+03</pdfrwt>
<pdfrwt beam="2">  1       -1 0.11426621E-01 0.27957446E+03</pdfrwt>
<totfact> 0.50915793E+03</totfact>
</mgrwt>
</event>
<event>
 5    1  0.1132878E+001  0.2769846E+03  0.7818608E-02  0.1097347E+00
          2   -1    0    0  501    0  0.00000000000E+00  0.00000000000E+00  0.36841781967E+03  0.36841781967E+03  0.00000000000E+00 0.  1.
         -2   -1    0    0    0  501 -0.00000000000E+00 -0.00000000000E+00 -0.52060776467E+02  0.52060776467E+02  0.00000000000E+00 0.  1.
         35    2    1    2    0    0  0.00000000000E+00  0.00000000000E+00  0.31635704320E+03  0.42047859614E+03  0.27698460431E+03 0.  0.
         25    1    3    3    0    0  0.45108859575E+01 -0.61350308205E+02  0.11027161074E+03  0.17419539760E+03  0.12000000000E+03 0.  0.
         25    1    3    3    0    0 -0.45108859575E+01  0.61350308205E+02  0.20608543246E+03  0.24628319854E+03  0.12000000000E+03 0.  0.
<mgrwt>
<rscale>  0 0.27698460E+03</rscale>
<asrwt>0</asrwt>
<pdfrwt beam="1">  1        2 0.56679663E-01 0.27698460E+03</pdfrwt>
<pdfrwt beam="2">  1       -2 0.80093505E-02 0.27698460E+03</pdfrwt>
<totfact> 0.81922155E+03</totfact>
</mgrwt>
</event>
<event>
 5    1  0.1132878E+001  0.2744595E+03  0.7818608E-02  0.1098754E+00
          4   -1    0    0  501    0  0.00000000000E+00  0.00000000000E+00  0.16530061209E+03  0.16530061209E+03  0.00000000000E+00 0.  1.
         -4   -1    0    0    0  501 -0.00000000000E+00 -0.00000000000E+00 -0.11392577766E+03  0.11392577766E+03  0.00000000000E+00 0.  1.
         35    2    1    2    0    0  0.00000000000E+00  0.00000000000E+00  0.51374834429E+02  0.27922638975E+03  0.27445947446E+03 0.  0.
         25    1    3    3    0    0 -0.22713236738E+02 -0.24167103166E+02 -0.33039160248E+02  0.12880809799E+03  0.12000000000E+03 0.  0.
         25    1    3    3    0    0  0.22713236738E+02  0.24167103166E+02  0.84413994677E+02  0.15041829176E+03  0.12000000000E+03 0.  0.
<mgrwt>
<rscale>  0 0.27445947E+03</rscale>
<asrwt>0</asrwt>
<pdfrwt beam="1">  1        4 0.25430863E-01 0.27445947E+03</pdfrwt>
<pdfrwt beam="2">  1       -4 0.17527043E-01 0.27445947E+03</pdfrwt>
<totfact> 0.77839947E+02</totfact>
</mgrwt>
</event>
<event>
 5    1  0.1132878E+001  0.2750679E+03  0.7818608E-02  0.1098414E+00
          1   -1    0    0  501    0  0.00000000000E+00  0.00000000000E+00  0.39314151253E+03  0.39314151253E+03  0.00000000000E+00 0. -1.
         -1   -1    0    0    0  501 -0.00000000000E+00 -0.00000000000E+00 -0.48113945514E+02  0.48113945514E+02  0.00000000000E+00 0. -1.
         35    2    1    2    0    0  0.00000000000E+00  0.00000000000E+00  0.34502756701E+03  0.44125545804E+03  0.27506791389E+03 0.  0.
         25    1    3    3    0    0  0.64772921538E+02 -0.16392982971E+02  0.18400662911E+03  0.22961424349E+03  0.12000000000E+03 0.  0.
         25    1    3    3    0    0 -0.64772921538E+02  0.16392982971E+02  0.16102093790E+03  0.21164121455E+03  0.12000000000E+03 0.  0.
<mgrwt>
<rscale>  0 0.27506791E+03</rscale>
<asrwt>0</asrwt>
<pdfrwt beam="1">  1        1 0.60483307E-01 0.27506791E+03</pdfrwt>
<pdfrwt beam="2">  1       -1 0.74021457E-02 0.27506791E+03</pdfrwt>
<totfact> 0.59756304E+03</totfact>
</mgrwt>
</event>
<event>
 5    1  0.1132878E+001  0.2751963E+03  0.7818608E-02  0.1098342E+00
         -2   -1    0    0    0  501 -0.00000000000E+00  0.00000000000E+00  0.39074578564E+02  0.39074578564E+02  0.00000000000E+00 0.  1.
          2   -1    0    0  501    0  0.00000000000E+00 -0.00000000000E+00 -0.48454139447E+03  0.48454139447E+03  0.00000000000E+00 0.  1.
         35    2    1    2    0    0  0.00000000000E+00  0.00000000000E+00 -0.44546681590E+03  0.52361597303E+03  0.27519629929E+03 0.  0.
         25    1    3    3    0    0 -0.53410794777E+02 -0.36479356271E+02 -0.25831920469E+03  0.29208263890E+03  0.12000000000E+03 0.  0.
         25    1    3    3    0    0  0.53410794777E+02  0.36479356271E+02 -0.18714761121E+03  0.23153333414E+03  0.12000000000E+03 0.  0.
<mgrwt>
<rscale>  0 0.27519630E+03</rscale>
<asrwt>0</asrwt>
<pdfrwt beam="1">  1        2 0.74544831E-01 0.27519630E+03</pdfrwt>
<pdfrwt beam="2">  1       -2 0.60114735E-02 0.27519630E+03</pdfrwt>
<totfact> 0.94623258E+03</totfact>
</mgrwt>
</event>
<event>
 5    1  0.1132878E+001  0.2743022E+03  0.7818608E-02  0.1098842E+00
         -1   -1    0    0    0  501 -0.00000000000E+00  0.00000000000E+00  0.12930780826E+03  0.12930780826E+03  0.00000000000E+00 0.  1.
          1   -1    0    0  501    0  0.00000000000E+00 -0.00000000000E+00 -0.14547015758E+03  0.14547015758E+03  0.00000000000E+00 0.  1.
         35    2    1    2    0    0  0.00000000000E+00  0.00000000000E+00 -0.16162349324E+02  0.27477796584E+03  0.27430222197E+03 0.  0.
         25    1    3    3    0    0 -0.23362499952E+01  0.52956474858E+02  0.31995474296E+02  0.13503168765E+03  0.12000000000E+03 0.  0.
         25    1    3    3    0    0  0.23362499952E+01 -0.52956474858E+02 -0.48157823620E+02  0.13974627819E+03  0.12000000000E+03 0.  0.
<mgrwt>
<rscale>  0 0.27430222E+03</rscale>
<asrwt>0</asrwt>
<pdfrwt beam="1">  1        1 0.22380024E-01 0.27430222E+03</pdfrwt>
<pdfrwt beam="2">  1       -1 0.19893509E-01 0.27430222E+03</pdfrwt>
<totfact> 0.44598170E+03</totfact>
</mgrwt>
</event>
<event>
 5    1  0.1132878E+001  0.2745115E+03  0.7818608E-02  0.1098725E+00
          1   -1    0    0  501    0  0.00000000000E+00  0.00000000000E+00  0.16225935053E+03  0.16225935053E+03  0.00000000000E+00 0.  1.
         -1   -1    0    0    0  501 -0.00000000000E+00 -0.00000000000E+00 -0.11610510091E+03  0.11610510091E+03  0.00000000000E+00 0.  1.
         35    2    1    2    0    0  0.00000000000E+00  0.00000000000E+00  0.46154249621E+02  0.27836445145E+03  0.27451148077E+03 0.  0.
         25    1    3    3    0    0 -0.13974173107E+02 -0.47270990448E+02 -0.22377407006E+02  0.13164563189E+03  0.12000000000E+03 0.  0.
         25    1    3    3    0    0  0.13974173107E+02  0.47270990448E+02  0.68531656627E+02  0.14671881956E+03  0.12000000000E+03 0.  0.
<mgrwt>
<rscale>  0 0.27451148E+03</rscale>
<asrwt>0</asrwt>
<pdfrwt beam="1">  1        1 0.24962977E-01 0.27451148E+03</pdfrwt>
<pdfrwt beam="2">  1       -1 0.17862323E-01 0.27451148E+03</pdfrwt>
<totfact> 0.46174368E+03</totfact>
</mgrwt>
</event>
<event>
 5    1  0.1132878E+001  0.2656577E+03  0.7818608E-02  0.1103791E+00
         -2   -1    0    0    0  501 -0.00000000000E+00  0.00000000000E+00  0.12389753792E+02  0.12389753792E+02  0.00000000000E+00 0.  1.
          2   -1    0    0  501    0  0.00000000000E+00 -0.00000000000E+00 -0.14240397403E+04  0.14240397403E+04  0.00000000000E+00 0.  1.
         35    2    1    2    0    0  0.00000000000E+00  0.00000000000E+00 -0.14116499865E+04  0.14364294941E+04  0.26565768781E+03 0.  0.
         25    1    3    3    0    0 -0.19982717620E+02  0.53086696840E+02 -0.67825668762E+03  0.69112201578E+03  0.12000000000E+03 0.  0.
         25    1    3    3    0    0  0.19982717620E+02 -0.53086696840E+02 -0.73339329885E+03  0.74530747829E+03  0.12000000000E+03 0.  0.
<mgrwt>
<rscale>  0 0.26565769E+03</rscale>
<asrwt>0</asrwt>
<pdfrwt beam="1">  1        2 0.21908299E+00 0.26565769E+03</pdfrwt>
<pdfrwt beam="2">  1       -2 0.19061163E-02 0.26565769E+03</pdfrwt>
<totfact> 0.12427172E+04</totfact>
</mgrwt>
</event>
<event>
 5    1  0.1132878E+001  0.2754312E+03  0.7818608E-02  0.1098211E+00
          1   -1    0    0  501    0  0.00000000000E+00  0.00000000000E+00  0.15343742702E+03  0.15343742702E+03  0.00000000000E+00 0.  1.
         -1   -1    0    0    0  501 -0.00000000000E+00 -0.00000000000E+00 -0.12360469834E+03  0.12360469834E+03  0.00000000000E+00 0.  1.
         35    2    1    2    0    0  0.00000000000E+00  0.00000000000E+00  0.29832728681E+02  0.27704212535E+03  0.27543120288E+03 0.  0.
         25    1    3    3    0    0 -0.25702825058E+02  0.38026313067E+02  0.64794202824E+02  0.14389205823E+03  0.12000000000E+03 0.  0.
         25    1    3    3    0    0  0.25702825058E+02 -0.38026313067E+02 -0.34961474143E+02  0.13315006713E+03  0.12000000000E+03 0.  0.
<mgrwt>
<rscale>  0 0.27543120E+03</rscale>
<asrwt>0</asrwt>
<pdfrwt beam="1">  1        1 0.23605758E-01 0.27543120E+03</pdfrwt>
<pdfrwt beam="2">  1       -1 0.19016107E-01 0.27543120E+03</pdfrwt>
<totfact> 0.44826544E+03</totfact>
</mgrwt>
</event>
<event>
 5    1  0.1132878E+001  0.2750720E+03  0.7818608E-02  0.1098411E+00
         -1   -1    0    0    0  501 -0.00000000000E+00  0.00000000000E+00  0.32022552942E+02  0.32022552942E+02  0.00000000000E+00 0. -1.
          1   -1    0    0  501    0  0.00000000000E+00 -0.00000000000E+00 -0.59071353024E+03  0.59071353024E+03  0.00000000000E+00 0. -1.
         35    2    1    2    0    0  0.00000000000E+00  0.00000000000E+00 -0.55869097730E+03  0.62273608319E+03  0.27507202908E+03 0.  0.
         25    1    3    3    0    0  0.54902526645E+02 -0.33806335956E+02 -0.23645070028E+03  0.27288475488E+03  0.12000000000E+03 0.  0.
         25    1    3    3    0    0 -0.54902526645E+02  0.33806335956E+02 -0.32224027702E+03  0.34985132830E+03  0.12000000000E+03 0.  0.
<mgrwt>
<rscale>  0 0.27507203E+03</rscale>
<asrwt>0</asrwt>
<pdfrwt beam="1">  1        1 0.90879012E-01 0.27507203E+03</pdfrwt>
<pdfrwt beam="2">  1       -1 0.49265462E-02 0.27507203E+03</pdfrwt>
<totfact> 0.64447394E+03</totfact>
</mgrwt>
</event>
<event>
 5    1  0.1132878E+001  0.2746198E+03  0.7818608E-02  0.1098664E+00
          1   -1    0    0  501    0  0.00000000000E+00  0.00000000000E+00  0.26916527909E+03  0.26916527909E+03  0.00000000000E+00 0.  1.
         -1   -1    0    0    0  501 -0.00000000000E+00 -0.00000000000E+00 -0.70046209073E+02  0.70046209073E+02  0.00000000000E+00 0.  1.
         35    2    1    2    0    0  0.00000000000E+00  0.00000000000E+00  0.19911907002E+03  0.33921148817E+03  0.27461979109E+03 0.  0.
         25    1    3    3    0    0 -0.60121011119E+01  0.44527515127E+02  0.38605467872E+02  0.13382536050E+03  0.12000000000E+03 0.  0.
         25    1    3    3    0    0  0.60121011119E+01 -0.44527515127E+02  0.16051360215E+03  0.20538612767E+03  0.12000000000E+03 0.  0.
<mgrwt>
<rscale>  0 0.27461979E+03</rscale>
<asrwt>0</asrwt>
<pdfrwt beam="1">  1        1 0.41410043E-01 0.27461979E+03</pdfrwt>
<pdfrwt beam="2">  1       -1 0.10776340E-01 0.27461979E+03</pdfrwt>
<totfact> 0.54166565E+03</totfact>
</mgrwt>
</event>
<event>
 5    1  0.1132878E+001  0.2747554E+03  0.7818608E-02  0.1098588E+00
          2   -1    0    0  501    0  0.00000000000E+00  0.00000000000E+00  0.80454565937E+03  0.80454565937E+03  0.00000000000E+00 0.  1.
         -2   -1    0    0    0  501 -0.00000000000E+00 -0.00000000000E+00 -0.23457505400E+02  0.23457505400E+02  0.00000000000E+00 0.  1.
         35    2    1    2    0    0  0.00000000000E+00  0.00000000000E+00  0.78108815397E+03  0.82800316477E+03  0.27475541232E+03 0.  0.
         25    1    3    3    0    0  0.35850656442E+02  0.44800306410E+02  0.28701045305E+03  0.31633421753E+03  0.12000000000E+03 0.  0.
         25    1    3    3    0    0 -0.35850656442E+02 -0.44800306410E+02  0.49407770092E+03  0.51166894724E+03  0.12000000000E+03 0.  0.
<mgrwt>
<rscale>  0 0.27475541E+03</rscale>
<asrwt>0</asrwt>
<pdfrwt beam="1">  1        2 0.12377623E+00 0.27475541E+03</pdfrwt>
<pdfrwt beam="2">  1       -2 0.36088476E-02 0.27475541E+03</pdfrwt>
<totfact> 0.11266074E+04</totfact>
</mgrwt>
</event>
<event>
 5    1  0.1132878E+001  0.2748361E+03  0.7818608E-02  0.1098543E+00
         -2   -1    0    0    0  501 -0.00000000000E+00  0.00000000000E+00  0.94711209093E+01  0.94711209093E+01  0.00000000000E+00 0. -1.
          2   -1    0    0  501    0  0.00000000000E+00 -0.00000000000E+00 -0.19938212225E+04  0.19938212225E+04  0.00000000000E+00 0. -1.
         35    2    1    2    0    0  0.00000000000E+00  0.00000000000E+00 -0.19843501016E+04  0.20032923434E+04  0.27483611022E+03 0.  0.
         25    1    3    3    0    0 -0.64723335685E+02 -0.17162109443E+02 -0.99019641015E+03  0.99968624021E+03  0.12000000000E+03 0.  0.
         25    1    3    3    0    0  0.64723335685E+02  0.17162109443E+02 -0.99415369146E+03  0.10036061032E+04  0.12000000000E+03 0.  0.
<mgrwt>
<rscale>  0 0.27483611E+03</rscale>
<asrwt>0</asrwt>
<pdfrwt beam="1">  1        2 0.30674175E+00 0.27483611E+03</pdfrwt>
<pdfrwt beam="2">  1       -2 0.14570954E-02 0.27483611E+03</pdfrwt>
<totfact> 0.92143674E+03</totfact>
</mgrwt>
</event>
<event>
 5    1  0.1132878E+001  0.2749799E+03  0.7818608E-02  0.1098463E+00
          1   -1    0    0  501    0  0.00000000000E+00  0.00000000000E+00  0.10854762599E+04  0.10854762599E+04  0.00000000000E+00 0.  1.
         -1   -1    0    0    0  501 -0.00000000000E+00 -0.00000000000E+00 -0.17414926459E+02  0.17414926459E+02  0.00000000000E+00 0.  1.
         35    2    1    2    0    0  0.00000000000E+00  0.00000000000E+00  0.10680613334E+04  0.11028911863E+04  0.27497992100E+03 0.  0.
         25    1    3    3    0    0 -0.31757056645E+02 -0.57822474581E+02  0.48465700230E+03  0.50363117367E+03  0.12000000000E+03 0.  0.
         25    1    3    3    0    0  0.31757056645E+02  0.57822474581E+02  0.58340433113E+03  0.59926001268E+03  0.12000000000E+03 0.  0.
<mgrwt>
<rscale>  0 0.27497992E+03</rscale>
<asrwt>0</asrwt>
<pdfrwt beam="1">  1        1 0.16699630E+00 0.27497992E+03</pdfrwt>
<pdfrwt beam="2">  1       -1 0.26792203E-02 0.27497992E+03</pdfrwt>
<totfact> 0.61613132E+03</totfact>
</mgrwt>
</event>
<event>
 5    1  0.1132878E+001  0.2751595E+03  0.7818608E-02  0.1098362E+00
         -4   -1    0    0    0  501 -0.00000000000E+00  0.00000000000E+00  0.12320008075E+04  0.12320008075E+04  0.00000000000E+00 0.  1.
          4   -1    0    0  501    0  0.00000000000E+00 -0.00000000000E+00 -0.15363782103E+02  0.15363782103E+02  0.00000000000E+00 0.  1.
         35    2    1    2    0    0  0.00000000000E+00  0.00000000000E+00  0.12166370254E+04  0.12473645896E+04  0.27515953160E+03 0.  0.
         25    1    3    3    0    0  0.11516495026E+02 -0.59852649683E+02  0.47904380153E+03  0.49759213531E+03  0.12000000000E+03 0.  0.
         25    1    3    3    0    0 -0.11516495026E+02  0.59852649683E+02  0.73759322389E+03  0.74977245432E+03  0.12000000000E+03 0.  0.
<mgrwt>
<rscale>  0 0.27515953E+03</rscale>
<asrwt>0</asrwt>
<pdfrwt beam="1">  1        4 0.23636598E-02 0.27515953E+03</pdfrwt>
<pdfrwt beam="2">  1       -4 0.18953851E+00 0.27515953E+03</pdfrwt>
<totfact> 0.24636762E+02</totfact>
</mgrwt>
</event>
<event>
 5    1  0.1132878E+001  0.2739753E+03  0.7818608E-02  0.1099026E+00
         -1   -1    0    0    0  501 -0.00000000000E+00  0.00000000000E+00  0.77676538197E+03  0.77676538197E+03  0.00000000000E+00 0. -1.
          1   -1    0    0  501    0  0.00000000000E+00 -0.00000000000E+00 -0.24158668383E+02  0.24158668383E+02  0.00000000000E+00 0. -1.
         35    2    1    2    0    0  0.00000000000E+00  0.00000000000E+00  0.75260671359E+03  0.80092405035E+03  0.27397530746E+03 0.  0.
         25    1    3    3    0    0  0.14444226386E+02 -0.22458152174E+02  0.55298105893E+03  0.56648129343E+03  0.12000000000E+03 0.  0.
         25    1    3    3    0    0 -0.14444226386E+02  0.22458152174E+02  0.19962565466E+03  0.23444275692E+03  0.12000000000E+03 0.  0.
<mgrwt>
<rscale>  0 0.27397531E+03</rscale>
<asrwt>0</asrwt>
<pdfrwt beam="1">  1        1 0.37167188E-02 0.27397531E+03</pdfrwt>
<pdfrwt beam="2">  1       -1 0.11950235E+00 0.27397531E+03</pdfrwt>
<totfact> 0.16825276E+03</totfact>
</mgrwt>
</event>
<event>
 5    1  0.1132878E+001  0.2752771E+03  0.7818608E-02  0.1098297E+00
          2   -1    0    0  501    0  0.00000000000E+00  0.00000000000E+00  0.21936107646E+04  0.21936107646E+04  0.00000000000E+00 0.  1.
         -2   -1    0    0    0  501 -0.00000000000E+00 -0.00000000000E+00 -0.86361591406E+01  0.86361591406E+01  0.00000000000E+00 0.  1.
         35    2    1    2    0    0  0.00000000000E+00  0.00000000000E+00  0.21849746054E+04  0.22022469237E+04  0.27527710879E+03 0.  0.
         25    1    3    3    0    0 -0.50786876767E+02 -0.35940621366E+02  0.13000799681E+04  0.13070879689E+04  0.12000000000E+03 0.  0.
         25    1    3    3    0    0  0.50786876767E+02  0.35940621366E+02  0.88489463735E+03  0.89515895479E+03  0.12000000000E+03 0.  0.
<mgrwt>
<rscale>  0 0.27527711E+03</rscale>
<asrwt>0</asrwt>
<pdfrwt beam="1">  1        2 0.33747813E+00 0.27527711E+03</pdfrwt>
<pdfrwt beam="2">  1       -2 0.13286416E-02 0.27527711E+03</pdfrwt>
<totfact> 0.82685653E+03</totfact>
</mgrwt>
</event>
<event>
 5    1  0.1132878E+001  0.2765521E+03  0.7818608E-02  0.1097587E+00
         -2   -1    0    0    0  501 -0.00000000000E+00  0.00000000000E+00  0.12814283579E+02  0.12814283579E+02  0.00000000000E+00 0. -1.
          2   -1    0    0  501    0  0.00000000000E+00 -0.00000000000E+00 -0.14921059382E+04  0.14921059382E+04  0.00000000000E+00 0. -1.
         35    2    1    2    0    0  0.00000000000E+00  0.00000000000E+00 -0.14792916547E+04  0.15049202218E+04  0.27655211894E+03 0.  0.
         25    1    3    3    0    0 -0.28194073674E+02  0.15813343792E+02 -0.40974535046E+03  0.42817779001E+03  0.12000000000E+03 0.  0.
         25    1    3    3    0    0  0.28194073674E+02 -0.15813343792E+02 -0.10695463042E+04  0.10767424318E+04  0.12000000000E+03 0.  0.
<mgrwt>
<rscale>  0 0.27655212E+03</rscale>
<asrwt>0</asrwt>
<pdfrwt beam="1">  1        2 0.22955468E+00 0.27655212E+03</pdfrwt>
<pdfrwt beam="2">  1       -2 0.19714289E-02 0.27655212E+03</pdfrwt>
<totfact> 0.10880666E+04</totfact>
</mgrwt>
</event>
<event>
 5    1  0.1132878E+001  0.2738428E+03  0.7818608E-02  0.1099100E+00
         -2   -1    0    0    0  501 -0.00000000000E+00  0.00000000000E+00  0.51102345817E+02  0.51102345817E+02  0.00000000000E+00 0. -1.
          2   -1    0    0  501    0  0.00000000000E+00 -0.00000000000E+00 -0.36686119763E+03  0.36686119763E+03  0.00000000000E+00 0. -1.
         35    2    1    2    0    0  0.00000000000E+00  0.00000000000E+00 -0.31575885181E+03  0.41796354344E+03  0.27384278547E+03 0.  0.
         25    1    3    3    0    0  0.54332255619E+02 -0.25815561661E+02 -0.19909012355E+03  0.24011521093E+03  0.12000000000E+03 0.  0.
         25    1    3    3    0    0 -0.54332255619E+02  0.25815561661E+02 -0.11666872826E+03  0.17784833252E+03  0.12000000000E+03 0.  0.
<mgrwt>
<rscale>  0 0.27384279E+03</rscale>
<asrwt>0</asrwt>
<pdfrwt beam="1">  1        2 0.56440181E-01 0.27384279E+03</pdfrwt>
<pdfrwt beam="2">  1       -2 0.78618998E-02 0.27384279E+03</pdfrwt>
<totfact> 0.84683950E+03</totfact>
</mgrwt>
</event>
<event>
 5    1  0.1132878E+001  0.2725503E+03  0.7818608E-02  0.1099829E+00
         -3   -1    0    0    0  501 -0.00000000000E+00  0.00000000000E+00  0.82590843734E+03  0.82590843734E+03  0.00000000000E+00 0. -1.
          3   -1    0    0  501    0  0.00000000000E+00 -0.00000000000E+00 -0.22485439979E+02  0.22485439979E+02  0.00000000000E+00 0. -1.
         35    2    1    2    0    0  0.00000000000E+00  0.00000000000E+00  0.80342299736E+03  0.84839387732E+03  0.27255028597E+03 0.  0.
         25    1    3    3    0    0  0.11075757471E+02  0.29610084986E+02  0.22641137661E+03  0.25818896373E+03  0.12000000000E+03 0.  0.
         25    1    3    3    0    0 -0.11075757471E+02 -0.29610084986E+02  0.57701162076E+03  0.59020491359E+03  0.12000000000E+03 0.  0.
<mgrwt>
<rscale>  0 0.27255029E+03</rscale>
<asrwt>0</asrwt>
<pdfrwt beam="1">  1        3 0.34592991E-02 0.27255029E+03</pdfrwt>
<pdfrwt beam="2">  1       -3 0.12706281E+00 0.27255029E+03</pdfrwt>
<totfact> 0.53247651E+02</totfact>
</mgrwt>
</event>
<event>
 5    1  0.1132878E+001  0.2761924E+03  0.7818608E-02  0.1097787E+00
          3   -1    0    0  501    0  0.00000000000E+00  0.00000000000E+00  0.82573927369E+03  0.82573927369E+03  0.00000000000E+00 0.  1.
         -3   -1    0    0    0  501 -0.00000000000E+00 -0.00000000000E+00 -0.23095138891E+02  0.23095138891E+02  0.00000000000E+00 0.  1.
         35    2    1    2    0    0  0.00000000000E+00  0.00000000000E+00  0.80264413480E+03  0.84883441258E+03  0.27619241998E+03 0.  0.
         25    1    3    3    0    0 -0.29871973638E+02 -0.35960323809E+02  0.24811397085E+03  0.27954610036E+03  0.12000000000E+03 0.  0.
         25    1    3    3    0    0  0.29871973638E+02  0.35960323809E+02  0.55453016395E+03  0.56928831222E+03  0.12000000000E+03 0.  0.
<mgrwt>
<rscale>  0 0.27619242E+03</rscale>
<asrwt>0</asrwt>
<pdfrwt beam="1">  1        3 0.12703679E+00 0.27619242E+03</pdfrwt>
<pdfrwt beam="2">  1       -3 0.35530989E-02 0.27619242E+03</pdfrwt>
<totfact> 0.51302329E+02</totfact>
</mgrwt>
</event>
<event>
 5    1  0.1132878E+001  0.2830421E+03  0.7818608E-02  0.1094039E+00
          2   -1    0    0  501    0  0.00000000000E+00  0.00000000000E+00  0.18528414595E+03  0.18528414595E+03  0.00000000000E+00 0. -1.
         -2   -1    0    0    0  501 -0.00000000000E+00 -0.00000000000E+00 -0.10809455532E+03  0.10809455532E+03  0.00000000000E+00 0. -1.
         35    2    1    2    0    0  0.00000000000E+00  0.00000000000E+00  0.77189590629E+02  0.29337870126E+03  0.28304209838E+03 0.  0.
         25    1    3    3    0    0 -0.19153725939E+02  0.71391780607E+02  0.51891197830E+02  0.15018770911E+03  0.12000000000E+03 0.  0.
         25    1    3    3    0    0  0.19153725939E+02 -0.71391780607E+02  0.25298392798E+02  0.14319099215E+03  0.12000000000E+03 0.  0.
<mgrwt>
<rscale>  0 0.28304210E+03</rscale>
<asrwt>0</asrwt>
<pdfrwt beam="1">  1        2 0.28505253E-01 0.28304210E+03</pdfrwt>
<pdfrwt beam="2">  1       -2 0.16629932E-01 0.28304210E+03</pdfrwt>
<totfact> 0.53156740E+03</totfact>
</mgrwt>
</event>
<event>
 5    1  0.1132878E+001  0.2751883E+03  0.7818608E-02  0.1098346E+00
         -1   -1    0    0    0  501 -0.00000000000E+00  0.00000000000E+00  0.13225019122E+03  0.13225019122E+03  0.00000000000E+00 0.  1.
          1   -1    0    0  501    0  0.00000000000E+00 -0.00000000000E+00 -0.14315407299E+03  0.14315407299E+03  0.00000000000E+00 0.  1.
         35    2    1    2    0    0  0.00000000000E+00  0.00000000000E+00 -0.10903881778E+02  0.27540426421E+03  0.27518832480E+03 0.  0.
         25    1    3    3    0    0 -0.13972699610E+02  0.46968261984E+02 -0.51649831435E+02  0.13953121176E+03  0.12000000000E+03 0.  0.
         25    1    3    3    0    0  0.13972699610E+02 -0.46968261984E+02  0.40745949657E+02  0.13587305245E+03  0.12000000000E+03 0.  0.
<mgrwt>
<rscale>  0 0.27518832E+03</rscale>
<asrwt>0</asrwt>
<pdfrwt beam="1">  1        1 0.22023704E-01 0.27518832E+03</pdfrwt>
<pdfrwt beam="2">  1       -1 0.20346183E-01 0.27518832E+03</pdfrwt>
<totfact> 0.43892749E+03</totfact>
</mgrwt>
</event>
<event>
 5    1  0.1132878E+001  0.2758448E+03  0.7818608E-02  0.1097980E+00
          2   -1    0    0  501    0  0.00000000000E+00  0.00000000000E+00  0.21996119269E+04  0.21996119269E+04  0.00000000000E+00 0. -1.
         -2   -1    0    0    0  501 -0.00000000000E+00 -0.00000000000E+00 -0.86481570386E+01  0.86481570386E+01  0.00000000000E+00 0. -1.
         35    2    1    2    0    0  0.00000000000E+00  0.00000000000E+00  0.21909637699E+04  0.22082600840E+04  0.27584480686E+03 0.  0.
         25    1    3    3    0    0  0.42489765462E+02 -0.14016282035E+02  0.68565687417E+03  0.69751500732E+03  0.12000000000E+03 0.  0.
         25    1    3    3    0    0 -0.42489765462E+02  0.14016282035E+02  0.15053068957E+04  0.15107450767E+04  0.12000000000E+03 0.  0.
<mgrwt>
<rscale>  0 0.27584481E+03</rscale>
<asrwt>0</asrwt>
<pdfrwt beam="1">  1        2 0.33840139E+00 0.27584481E+03</pdfrwt>
<pdfrwt beam="2">  1       -2 0.13304874E-02 0.27584481E+03</pdfrwt>
<totfact> 0.81914639E+03</totfact>
</mgrwt>
</event>
<event>
 5    1  0.1132878E+001  0.2748776E+03  0.7818608E-02  0.1098520E+00
         -1   -1    0    0    0  501 -0.00000000000E+00  0.00000000000E+00  0.15407671293E+03  0.15407671293E+03  0.00000000000E+00 0.  1.
          1   -1    0    0  501    0  0.00000000000E+00 -0.00000000000E+00 -0.12259755982E+03  0.12259755982E+03  0.00000000000E+00 0.  1.
         35    2    1    2    0    0  0.00000000000E+00  0.00000000000E+00  0.31479153110E+02  0.27667427275E+03  0.27487763845E+03 0.  0.
         25    1    3    3    0    0 -0.42126463486E+02 -0.43183498504E+02 -0.13605320172E+02  0.13499836372E+03  0.12000000000E+03 0.  0.
         25    1    3    3    0    0  0.42126463486E+02  0.43183498504E+02  0.45084473282E+02  0.14167590903E+03  0.12000000000E+03 0.  0.
<mgrwt>
<rscale>  0 0.27487764E+03</rscale>
<asrwt>0</asrwt>
<pdfrwt beam="1">  1        1 0.18861163E-01 0.27487764E+03</pdfrwt>
<pdfrwt beam="2">  1       -1 0.23704110E-01 0.27487764E+03</pdfrwt>
<totfact> 0.41704637E+03</totfact>
</mgrwt>
</event>
<event>
 5    1  0.1132878E+001  0.2755108E+03  0.7818608E-02  0.1098166E+00
         -2   -1    0    0    0  501 -0.00000000000E+00  0.00000000000E+00  0.27793367581E+02  0.27793367581E+02  0.00000000000E+00 0.  1.
          2   -1    0    0  501    0  0.00000000000E+00 -0.00000000000E+00 -0.68277257354E+03  0.68277257354E+03  0.00000000000E+00 0.  1.
         35    2    1    2    0    0  0.00000000000E+00  0.00000000000E+00 -0.65497920595E+03  0.71056594112E+03  0.27551079188E+03 0.  0.
         25    1    3    3    0    0 -0.46296458850E+02 -0.14689256940E+02 -0.20604197383E+03  0.24333604614E+03  0.12000000000E+03 0.  0.
         25    1    3    3    0    0  0.46296458850E+02  0.14689256940E+02 -0.44893723213E+03  0.46722989498E+03  0.12000000000E+03 0.  0.
<mgrwt>
<rscale>  0 0.27551079E+03</rscale>
<asrwt>0</asrwt>
<pdfrwt beam="1">  1        2 0.10504194E+00 0.27551079E+03</pdfrwt>
<pdfrwt beam="2">  1       -2 0.42759024E-02 0.27551079E+03</pdfrwt>
<totfact> 0.10698757E+04</totfact>
</mgrwt>
</event>
<event>
 5    1  0.1132878E+001  0.2673675E+03  0.7818608E-02  0.1102796E+00
         -2   -1    0    0    0  501 -0.00000000000E+00  0.00000000000E+00  0.56353967810E+01  0.56353967810E+01  0.00000000000E+00 0. -1.
          2   -1    0    0  501    0  0.00000000000E+00 -0.00000000000E+00 -0.31712676729E+04  0.31712676729E+04  0.00000000000E+00 0. -1.
         35    2    1    2    0    0  0.00000000000E+00  0.00000000000E+00 -0.31656322761E+04  0.31769030697E+04  0.26736754953E+03 0.  0.
         25    1    3    3    0    0  0.49485106357E+01  0.27204947264E+02 -0.96462934838E+03  0.97245790483E+03  0.12000000000E+03 0.  0.
         25    1    3    3    0    0 -0.49485106357E+01 -0.27204947264E+02 -0.22010029277E+04  0.22044451648E+04  0.12000000000E+03 0.  0.
<mgrwt>
<rscale>  0 0.26736755E+03</rscale>
<asrwt>0</asrwt>
<pdfrwt beam="1">  1        2 0.48788791E+00 0.26736755E+03</pdfrwt>
<pdfrwt beam="2">  1       -2 0.86698310E-03 0.26736755E+03</pdfrwt>
<totfact> 0.43114022E+03</totfact>
</mgrwt>
</event>
<event>
 5    1  0.1132878E+001  0.2745447E+03  0.7818608E-02  0.1098706E+00
         -1   -1    0    0    0  501 -0.00000000000E+00  0.00000000000E+00  0.12724192567E+03  0.12724192567E+03  0.00000000000E+00 0.  1.
          1   -1    0    0  501    0  0.00000000000E+00 -0.00000000000E+00 -0.14809346583E+03  0.14809346583E+03  0.00000000000E+00 0.  1.
         35    2    1    2    0    0  0.00000000000E+00  0.00000000000E+00 -0.20851540163E+02  0.27533539150E+03  0.27454469779E+03 0.  0.
         25    1    3    3    0    0 -0.71916020473E+01  0.65144277005E+02 -0.22634647273E+02  0.13859229136E+03  0.12000000000E+03 0.  0.
         25    1    3    3    0    0  0.71916020473E+01 -0.65144277005E+02  0.17831071097E+01  0.13674310015E+03  0.12000000000E+03 0.  0.
<mgrwt>
<rscale>  0 0.27454470E+03</rscale>
<asrwt>0</asrwt>
<pdfrwt beam="1">  1        1 0.22783610E-01 0.27454470E+03</pdfrwt>
<pdfrwt beam="2">  1       -1 0.19575681E-01 0.27454470E+03</pdfrwt>
<totfact> 0.44745982E+03</totfact>
</mgrwt>
</event>
<event>
 5    1  0.1132878E+001  0.2752910E+03  0.7818608E-02  0.1098289E+00
          1   -1    0    0  501    0  0.00000000000E+00  0.00000000000E+00  0.12017481616E+04  0.12017481616E+04  0.00000000000E+00 0. -1.
         -1   -1    0    0    0  501 -0.00000000000E+00 -0.00000000000E+00 -0.15765598023E+02  0.15765598023E+02  0.00000000000E+00 0. -1.
         35    2    1    2    0    0  0.00000000000E+00  0.00000000000E+00  0.11859825636E+04  0.12175137597E+04  0.27529096201E+03 0.  0.
         25    1    3    3    0    0  0.82981152901E+01  0.38612413602E+02  0.35129872597E+03  0.37332368271E+03  0.12000000000E+03 0.  0.
         25    1    3    3    0    0 -0.82981152901E+01 -0.38612413602E+02  0.83468383765E+03  0.84419007696E+03  0.12000000000E+03 0.  0.
<mgrwt>
<rscale>  0 0.27529096E+03</rscale>
<asrwt>0</asrwt>
<pdfrwt beam="1">  1        1 0.18488426E+00 0.27529096E+03</pdfrwt>
<pdfrwt beam="2">  1       -1 0.24254776E-02 0.27529096E+03</pdfrwt>
<totfact> 0.58951507E+03</totfact>
</mgrwt>
</event>
<event>
 5    1  0.1132878E+001  0.2717278E+03  0.7818608E-02  0.1100295E+00
         -1   -1    0    0    0  501 -0.00000000000E+00  0.00000000000E+00  0.23468335626E+02  0.23468335626E+02  0.00000000000E+00 0. -1.
          1   -1    0    0  501    0  0.00000000000E+00 -0.00000000000E+00 -0.78654885903E+03  0.78654885903E+03  0.00000000000E+00 0. -1.
         35    2    1    2    0    0  0.00000000000E+00  0.00000000000E+00 -0.76308052340E+03  0.81001719465E+03  0.27172775059E+03 0.  0.
         25    1    3    3    0    0  0.51008196393E+02 -0.27089413485E+02 -0.30136774118E+03  0.32948169577E+03  0.12000000000E+03 0.  0.
         25    1    3    3    0    0 -0.51008196393E+02  0.27089413485E+02 -0.46171278222E+03  0.48053549889E+03  0.12000000000E+03 0.  0.
<mgrwt>
<rscale>  0 0.27172775E+03</rscale>
<asrwt>0</asrwt>
<pdfrwt beam="1">  1        1 0.12100753E+00 0.27172775E+03</pdfrwt>
<pdfrwt beam="2">  1       -1 0.36105129E-02 0.27172775E+03</pdfrwt>
<totfact> 0.67603063E+03</totfact>
</mgrwt>
</event>
<event>
 5    1  0.1132878E+001  0.2749877E+03  0.7818608E-02  0.1098458E+00
         -1   -1    0    0    0  501 -0.00000000000E+00  0.00000000000E+00  0.12454508388E+02  0.12454508388E+02  0.00000000000E+00 0. -1.
          1   -1    0    0  501    0  0.00000000000E+00 -0.00000000000E+00 -0.15178892372E+04  0.15178892372E+04  0.00000000000E+00 0. -1.
         35    2    1    2    0    0  0.00000000000E+00  0.00000000000E+00 -0.15054347288E+04  0.15303437456E+04  0.27498773964E+03 0.  0.
         25    1    3    3    0    0 -0.29977470434E+02 -0.42343229782E+02 -0.98967490788E+03  0.99827251847E+03  0.12000000000E+03 0.  0.
         25    1    3    3    0    0  0.29977470434E+02  0.42343229782E+02 -0.51575982095E+03  0.53207122714E+03  0.12000000000E+03 0.  0.
<mgrwt>
<rscale>  0 0.27498774E+03</rscale>
<asrwt>0</asrwt>
<pdfrwt beam="1">  1        1 0.23352156E+00 0.27498774E+03</pdfrwt>
<pdfrwt beam="2">  1       -1 0.19160771E-02 0.27498774E+03</pdfrwt>
<totfact> 0.50841197E+03</totfact>
</mgrwt>
</event>
<event>
 5    1  0.1132878E+001  0.2752480E+03  0.7818608E-02  0.1098313E+00
          2   -1    0    0  501    0  0.00000000000E+00  0.00000000000E+00  0.23976312757E+04  0.23976312757E+04  0.00000000000E+00 0. -1.
         -2   -1    0    0    0  501 -0.00000000000E+00 -0.00000000000E+00 -0.78996149400E+01  0.78996149400E+01  0.00000000000E+00 0. -1.
         35    2    1    2    0    0  0.00000000000E+00  0.00000000000E+00  0.23897316608E+04  0.24055308907E+04  0.27524798889E+03 0.  0.
         25    1    3    3    0    0 -0.35984848724E+02 -0.12521713557E+02  0.16805700986E+04  0.16852796679E+04  0.12000000000E+03 0.  0.
         25    1    3    3    0    0  0.35984848724E+02  0.12521713557E+02  0.70916156217E+03  0.72025122278E+03  0.12000000000E+03 0.  0.
<mgrwt>
<rscale>  0 0.27524799E+03</rscale>
<asrwt>0</asrwt>
<pdfrwt beam="1">  1        2 0.36886577E+00 0.27524799E+03</pdfrwt>
<pdfrwt beam="2">  1       -2 0.12153273E-02 0.27524799E+03</pdfrwt>
<totfact> 0.73192206E+03</totfact>
</mgrwt>
</event>
<event>
 5    1  0.1132878E+001  0.2752071E+03  0.7818608E-02  0.1098336E+00
         -1   -1    0    0    0  501 -0.00000000000E+00  0.00000000000E+00  0.11408411140E+04  0.11408411140E+04  0.00000000000E+00 0.  1.
          1   -1    0    0  501    0  0.00000000000E+00 -0.00000000000E+00 -0.16597166832E+02  0.16597166832E+02  0.00000000000E+00 0.  1.
         35    2    1    2    0    0  0.00000000000E+00  0.00000000000E+00  0.11242439471E+04  0.11574382808E+04  0.27520705149E+03 0.  0.
         25    1    3    3    0    0  0.22419614432E+02 -0.15224248498E+02  0.30285452514E+03  0.32688725924E+03  0.12000000000E+03 0.  0.
         25    1    3    3    0    0 -0.22419614432E+02  0.15224248498E+02  0.82138942200E+03  0.83055102157E+03  0.12000000000E+03 0.  0.
<mgrwt>
<rscale>  0 0.27520705E+03</rscale>
<asrwt>0</asrwt>
<pdfrwt beam="1">  1        1 0.25534112E-02 0.27520705E+03</pdfrwt>
<pdfrwt beam="2">  1       -1 0.17551395E+00 0.27520705E+03</pdfrwt>
<totfact> 0.10523350E+03</totfact>
</mgrwt>
</event>
<event>
 5    1  0.1132878E+001  0.2750748E+03  0.7818608E-02  0.1098410E+00
         -2   -1    0    0    0  501 -0.00000000000E+00  0.00000000000E+00  0.49797876890E+02  0.49797876890E+02  0.00000000000E+00 0. -1.
          2   -1    0    0  501    0  0.00000000000E+00 -0.00000000000E+00 -0.37986627435E+03  0.37986627435E+03  0.00000000000E+00 0. -1.
         35    2    1    2    0    0  0.00000000000E+00  0.00000000000E+00 -0.33006839746E+03  0.42966415124E+03  0.27507478230E+03 0.  0.
         25    1    3    3    0    0 -0.41054611698E+01 -0.48850357893E+02 -0.23684026691E+03  0.26999356346E+03  0.12000000000E+03 0.  0.
         25    1    3    3    0    0  0.41054611698E+01  0.48850357893E+02 -0.93228130552E+02  0.15967058779E+03  0.12000000000E+03 0.  0.
<mgrwt>
<rscale>  0 0.27507478E+03</rscale>
<asrwt>0</asrwt>
<pdfrwt beam="1">  1        2 0.58440965E-01 0.27507478E+03</pdfrwt>
<pdfrwt beam="2">  1       -2 0.76612119E-02 0.27507478E+03</pdfrwt>
<totfact> 0.84920863E+03</totfact>
</mgrwt>
</event>
<event>
 5    1  0.1132878E+001  0.2744714E+03  0.7818608E-02  0.1098747E+00
          1   -1    0    0  501    0  0.00000000000E+00  0.00000000000E+00  0.67631681215E+01  0.67631681215E+01  0.00000000000E+00 0. -1.
         -1   -1    0    0    0  501 -0.00000000000E+00 -0.00000000000E+00 -0.27847358221E+04  0.27847358221E+04  0.00000000000E+00 0. -1.
         35    2    1    2    0    0  0.00000000000E+00  0.00000000000E+00 -0.27779726540E+04  0.27914989902E+04  0.27447139406E+03 0.  0.
         25    1    3    3    0    0 -0.26652596239E+02  0.59706123935E+02 -0.15170106718E+04  0.15231534921E+04  0.12000000000E+03 0.  0.
         25    1    3    3    0    0  0.26652596239E+02 -0.59706123935E+02 -0.12609619821E+04  0.12683454981E+04  0.12000000000E+03 0.  0.
<mgrwt>
<rscale>  0 0.27447139E+03</rscale>
<asrwt>0</asrwt>
<pdfrwt beam="1">  1        1 0.10404863E-02 0.27447139E+03</pdfrwt>
<pdfrwt beam="2">  1       -1 0.42842134E+00 0.27447139E+03</pdfrwt>
<totfact> 0.86471511E+01</totfact>
</mgrwt>
</event>
<event>
 5    1  0.1132878E+001  0.2737492E+03  0.7818608E-02  0.1099153E+00
         -2   -1    0    0    0  501 -0.00000000000E+00  0.00000000000E+00  0.51236258442E+03  0.51236258442E+03  0.00000000000E+00 0. -1.
          2   -1    0    0  501    0  0.00000000000E+00 -0.00000000000E+00 -0.36565232798E+02  0.36565232798E+02  0.00000000000E+00 0. -1.
         35    2    1    2    0    0  0.00000000000E+00  0.00000000000E+00  0.47579735162E+03  0.54892781722E+03  0.27374920768E+03 0.  0.
         25    1    3    3    0    0  0.58213453282E+01 -0.44356840048E+01  0.10669689148E+03  0.16074137614E+03  0.12000000000E+03 0.  0.
         25    1    3    3    0    0 -0.58213453282E+01  0.44356840048E+01  0.36910046015E+03  0.38818644108E+03  0.12000000000E+03 0.  0.
<mgrwt>
<rscale>  0 0.27374921E+03</rscale>
<asrwt>0</asrwt>
<pdfrwt beam="1">  1        2 0.56254208E-02 0.27374921E+03</pdfrwt>
<pdfrwt beam="2">  1       -2 0.78825008E-01 0.27374921E+03</pdfrwt>
<totfact> 0.19752416E+03</totfact>
</mgrwt>
</event>
<event>
 5    1  0.1132878E+001  0.2758163E+03  0.7818608E-02  0.1097996E+00
         -2   -1    0    0    0  501 -0.00000000000E+00  0.00000000000E+00  0.71683172212E+01  0.71683172212E+01  0.00000000000E+00 0. -1.
          2   -1    0    0  501    0  0.00000000000E+00 -0.00000000000E+00 -0.26531558499E+04  0.26531558499E+04  0.00000000000E+00 0. -1.
         35    2    1    2    0    0  0.00000000000E+00  0.00000000000E+00 -0.26459875327E+04  0.26603241671E+04  0.27581633577E+03 0.  0.
         25    1    3    3    0    0  0.40961472496E+01  0.59315788657E+02 -0.16404861814E+04  0.16459435144E+04  0.12000000000E+03 0.  0.
         25    1    3    3    0    0 -0.40961472496E+01 -0.59315788657E+02 -0.10055013512E+04  0.10143806527E+04  0.12000000000E+03 0.  0.
<mgrwt>
<rscale>  0 0.27581634E+03</rscale>
<asrwt>0</asrwt>
<pdfrwt beam="1">  1        2 0.40817777E+00 0.27581634E+03</pdfrwt>
<pdfrwt beam="2">  1       -2 0.11028182E-02 0.27581634E+03</pdfrwt>
<totfact> 0.61000598E+03</totfact>
</mgrwt>
</event>
<event>
 5    1  0.1132878E+001  0.2756773E+03  0.7818608E-02  0.1098074E+00
          2   -1    0    0  501    0  0.00000000000E+00  0.00000000000E+00  0.19341499616E+04  0.19341499616E+04  0.00000000000E+00 0. -1.
         -2   -1    0    0    0  501 -0.00000000000E+00 -0.00000000000E+00 -0.98231759384E+01  0.98231759384E+01  0.00000000000E+00 0. -1.
         35    2    1    2    0    0  0.00000000000E+00  0.00000000000E+00  0.19243267857E+04  0.19439731376E+04  0.27567731401E+03 0.  0.
         25    1    3    3    0    0 -0.34533650668E+02 -0.53082606515E+02  0.11333246906E+04  0.11414180612E+04  0.12000000000E+03 0.  0.
         25    1    3    3    0    0  0.34533650668E+02  0.53082606515E+02  0.79100209514E+03  0.80255507640E+03  0.12000000000E+03 0.  0.
<mgrwt>
<rscale>  0 0.27567731E+03</rscale>
<asrwt>0</asrwt>
<pdfrwt beam="1">  1        2 0.29756123E+00 0.27567731E+03</pdfrwt>
<pdfrwt beam="2">  1       -2 0.15112594E-02 0.27567731E+03</pdfrwt>
<totfact> 0.93898718E+03</totfact>
</mgrwt>
</event>
<event>
 5    1  0.1132878E+001  0.2761101E+03  0.7818608E-02  0.1097833E+00
          2   -1    0    0  501    0  0.00000000000E+00  0.00000000000E+00  0.34630063906E+04  0.34630063906E+04  0.00000000000E+00 0.  1.
         -2   -1    0    0    0  501 -0.00000000000E+00 -0.00000000000E+00 -0.55036575153E+01  0.55036575153E+01  0.00000000000E+00 0.  1.
         35    2    1    2    0    0  0.00000000000E+00  0.00000000000E+00  0.34575027331E+04  0.34685100481E+04  0.27611013127E+03 0.  0.
         25    1    3    3    0    0  0.34325554516E+02 -0.58212070439E+02  0.16080560488E+04  0.16139427328E+04  0.12000000000E+03 0.  0.
         25    1    3    3    0    0 -0.34325554516E+02  0.58212070439E+02  0.18494466843E+04  0.18545673153E+04  0.12000000000E+03 0.  0.
<mgrwt>
<rscale>  0 0.27611013E+03</rscale>
<asrwt>0</asrwt>
<pdfrwt beam="1">  1        2 0.53276847E+00 0.27611013E+03</pdfrwt>
<pdfrwt beam="2">  1       -2 0.84671931E-03 0.27611013E+03</pdfrwt>
<totfact> 0.29116998E+03</totfact>
</mgrwt>
</event>
<event>
 5    1  0.1132878E+001  0.2757838E+03  0.7818608E-02  0.1098014E+00
          1   -1    0    0  501    0  0.00000000000E+00  0.00000000000E+00  0.66263234896E+02  0.66263234896E+02  0.00000000000E+00 0.  1.
         -1   -1    0    0    0  501 -0.00000000000E+00 -0.00000000000E+00 -0.28694914327E+03  0.28694914327E+03  0.00000000000E+00 0.  1.
         35    2    1    2    0    0  0.00000000000E+00  0.00000000000E+00 -0.22068590837E+03  0.35321237816E+03  0.27578381739E+03 0.  0.
         25    1    3    3    0    0 -0.52084067643E+02  0.28280114896E+02 -0.67832904455E+02  0.15004605269E+03  0.12000000000E+03 0.  0.
         25    1    3    3    0    0  0.52084067643E+02 -0.28280114896E+02 -0.15285300392E+03  0.20316632548E+03  0.12000000000E+03 0.  0.
<mgrwt>
<rscale>  0 0.27578382E+03</rscale>
<asrwt>0</asrwt>
<pdfrwt beam="1">  1        1 0.10194344E-01 0.27578382E+03</pdfrwt>
<pdfrwt beam="2">  1       -1 0.44146022E-01 0.27578382E+03</pdfrwt>
<totfact> 0.32166985E+03</totfact>
</mgrwt>
</event>
<event>
 5    1  0.1132878E+001  0.2755305E+03  0.7818608E-02  0.1098155E+00
         -1   -1    0    0    0  501 -0.00000000000E+00  0.00000000000E+00  0.18482830053E+02  0.18482830053E+02  0.00000000000E+00 0.  1.
          1   -1    0    0  501    0  0.00000000000E+00 -0.00000000000E+00 -0.10268594489E+04  0.10268594489E+04  0.00000000000E+00 0.  1.
         35    2    1    2    0    0  0.00000000000E+00  0.00000000000E+00 -0.10083766189E+04  0.10453422790E+04  0.27553053321E+03 0.  0.
         25    1    3    3    0    0 -0.24124524402E+02  0.18928329354E+01 -0.74394797931E+03  0.75395236681E+03  0.12000000000E+03 0.  0.
         25    1    3    3    0    0  0.24124524402E+02 -0.18928329354E+01 -0.26442863956E+03  0.29138991217E+03  0.12000000000E+03 0.  0.
<mgrwt>
<rscale>  0 0.27553053E+03</rscale>
<asrwt>0</asrwt>
<pdfrwt beam="1">  1        1 0.15797843E+00 0.27553053E+03</pdfrwt>
<pdfrwt beam="2">  1       -1 0.28435114E-02 0.27553053E+03</pdfrwt>
<totfact> 0.62309140E+03</totfact>
</mgrwt>
</event>
<event>
 5    1  0.1132878E+001  0.2749057E+03  0.7818608E-02  0.1098504E+00
          2   -1    0    0  501    0  0.00000000000E+00  0.00000000000E+00  0.26391665561E+04  0.26391665561E+04  0.00000000000E+00 0. -1.
         -2   -1    0    0    0  501 -0.00000000000E+00 -0.00000000000E+00 -0.71588080816E+01  0.71588080816E+01  0.00000000000E+00 0. -1.
         35    2    1    2    0    0  0.00000000000E+00  0.00000000000E+00  0.26320077480E+04  0.26463253642E+04  0.27490570653E+03 0.  0.
         25    1    3    3    0    0 -0.73290661407E+01  0.51205197763E+02  0.90560272547E+03  0.91498195822E+03  0.12000000000E+03 0.  0.
         25    1    3    3    0    0  0.73290661407E+01 -0.51205197763E+02  0.17264050226E+04  0.17313434060E+04  0.12000000000E+03 0.  0.
<mgrwt>
<rscale>  0 0.27490571E+03</rscale>
<asrwt>0</asrwt>
<pdfrwt beam="1">  1        2 0.40602485E+00 0.27490571E+03</pdfrwt>
<pdfrwt beam="2">  1       -2 0.11013572E-02 0.27490571E+03</pdfrwt>
<totfact> 0.62231037E+03</totfact>
</mgrwt>
</event>
<event>
 5    1  0.1132878E+001  0.2755033E+03  0.7818608E-02  0.1098171E+00
         -2   -1    0    0    0  501 -0.00000000000E+00  0.00000000000E+00  0.43914272478E+02  0.43914272478E+02  0.00000000000E+00 0.  1.
          2   -1    0    0  501    0  0.00000000000E+00 -0.00000000000E+00 -0.43210356555E+03  0.43210356555E+03  0.00000000000E+00 0.  1.
         35    2    1    2    0    0  0.00000000000E+00  0.00000000000E+00 -0.38818929307E+03  0.47601783803E+03  0.27550327560E+03 0.  0.
         25    1    3    3    0    0 -0.16104209204E+01 -0.46090672240E+02 -0.10859727959E+03  0.16828640069E+03  0.12000000000E+03 0.  0.
         25    1    3    3    0    0  0.16104209204E+01  0.46090672240E+02 -0.27959201348E+03  0.30773143733E+03  0.12000000000E+03 0.  0.
<mgrwt>
<rscale>  0 0.27550328E+03</rscale>
<asrwt>0</asrwt>
<pdfrwt beam="1">  1        2 0.66477469E-01 0.27550328E+03</pdfrwt>
<pdfrwt beam="2">  1       -2 0.67560422E-02 0.27550328E+03</pdfrwt>
<totfact> 0.89709959E+03</totfact>
</mgrwt>
</event>
<event>
 5    1  0.1132878E+001  0.2735841E+03  0.7818608E-02  0.1099246E+00
          1   -1    0    0  501    0  0.00000000000E+00  0.00000000000E+00  0.12252079050E+04  0.12252079050E+04  0.00000000000E+00 0.  1.
         -1   -1    0    0    0  501 -0.00000000000E+00 -0.00000000000E+00 -0.15272565167E+02  0.15272565167E+02  0.00000000000E+00 0.  1.
         35    2    1    2    0    0  0.00000000000E+00  0.00000000000E+00  0.12099353398E+04  0.12404804701E+04  0.27358411921E+03 0.  0.
         25    1    3    3    0    0  0.37249435449E+02  0.45039340949E+02  0.74069091618E+03  0.75262148255E+03  0.12000000000E+03 0.  0.
         25    1    3    3    0    0 -0.37249435449E+02 -0.45039340949E+02  0.46924442363E+03  0.48785898760E+03  0.12000000000E+03 0.  0.
<mgrwt>
<rscale>  0 0.27358412E+03</rscale>
<asrwt>0</asrwt>
<pdfrwt beam="1">  1        1 0.18849345E+00 0.27358412E+03</pdfrwt>
<pdfrwt beam="2">  1       -1 0.23496264E-02 0.27358412E+03</pdfrwt>
<totfact> 0.59476371E+03</totfact>
</mgrwt>
</event>
<event>
 5    1  0.1132878E+001  0.2754092E+03  0.7818608E-02  0.1098223E+00
          2   -1    0    0  501    0  0.00000000000E+00  0.00000000000E+00  0.15323171435E+04  0.15323171435E+04  0.00000000000E+00 0. -1.
         -2   -1    0    0    0  501 -0.00000000000E+00 -0.00000000000E+00 -0.12375086925E+02  0.12375086925E+02  0.00000000000E+00 0. -1.
         35    2    1    2    0    0  0.00000000000E+00  0.00000000000E+00  0.15199420566E+04  0.15446922305E+04  0.27540920717E+03 0.  0.
         25    1    3    3    0    0  0.57218735427E+02 -0.35619879667E+02  0.73501486263E+03  0.74778981525E+03  0.12000000000E+03 0.  0.
         25    1    3    3    0    0 -0.57218735427E+02  0.35619879667E+02  0.78492719398E+03  0.79690241520E+03  0.12000000000E+03 0.  0.
<mgrwt>
<rscale>  0 0.27540921E+03</rscale>
<asrwt>0</asrwt>
<pdfrwt beam="1">  1        2 0.23574095E+00 0.27540921E+03</pdfrwt>
<pdfrwt beam="2">  1       -2 0.19038607E-02 0.27540921E+03</pdfrwt>
<totfact> 0.10899106E+04</totfact>
</mgrwt>
</event>
<event>
 5    1  0.1132878E+001  0.2749807E+03  0.7818608E-02  0.1098462E+00
          2   -1    0    0  501    0  0.00000000000E+00  0.00000000000E+00  0.18372195889E+04  0.18372195889E+04  0.00000000000E+00 0. -1.
         -2   -1    0    0    0  501 -0.00000000000E+00 -0.00000000000E+00 -0.10289242586E+02  0.10289242586E+02  0.00000000000E+00 0. -1.
         35    2    1    2    0    0  0.00000000000E+00  0.00000000000E+00  0.18269303463E+04  0.18475088315E+04  0.27498071230E+03 0.  0.
         25    1    3    3    0    0  0.37446745491E+01  0.47877881632E+01  0.46443515492E+03  0.47972592032E+03  0.12000000000E+03 0.  0.
         25    1    3    3    0    0 -0.37446745491E+01 -0.47877881632E+01  0.13624951914E+04  0.13677829111E+04  0.12000000000E+03 0.  0.
<mgrwt>
<rscale>  0 0.27498071E+03</rscale>
<asrwt>0</asrwt>
<pdfrwt beam="1">  1        2 0.28264891E+00 0.27498071E+03</pdfrwt>
<pdfrwt beam="2">  1       -2 0.15829619E-02 0.27498071E+03</pdfrwt>
<totfact> 0.98642289E+03</totfact>
</mgrwt>
</event>
<event>
 4    1  0.1132878E+001  0.2547412E+03  0.7818608E-02  0.1110345E+00
         -2   -1    0    0    0  501 -0.00000000000E+00  0.00000000000E+00  0.22181329731E+02  0.22181329731E+02  0.00000000000E+00 0. -1.
          2   -1    0    0  501    0  0.00000000000E+00 -0.00000000000E+00 -0.73139282642E+03  0.73139282642E+03  0.00000000000E+00 0. -1.
         25    1    1    2    0    0  0.98162959539E+00  0.29602057011E+02 -0.44559226487E+03  0.46241724870E+03  0.12000000000E+03 0.  0.
         25    1    1    2    0    0 -0.98162959539E+00 -0.29602057011E+02 -0.26361923181E+03  0.29115690745E+03  0.12000000000E+03 0.  0.
<mgrwt>
<rscale>  0 0.25474117E+03</rscale>
<asrwt>0</asrwt>
<pdfrwt beam="1">  1        2 0.11252200E+00 0.25474117E+03</pdfrwt>
<pdfrwt beam="2">  1       -2 0.34125114E-02 0.25474117E+03</pdfrwt>
<totfact> 0.13760208E+04</totfact>
</mgrwt>
</event>
<event>
 5    1  0.1132878E+001  0.2733192E+03  0.7818608E-02  0.1099395E+00
         -2   -1    0    0    0  501 -0.00000000000E+00  0.00000000000E+00  0.18915719516E+02  0.18915719516E+02  0.00000000000E+00 0.  1.
          2   -1    0    0  501    0  0.00000000000E+00 -0.00000000000E+00 -0.98731862965E+03  0.98731862965E+03  0.00000000000E+00 0.  1.
         35    2    1    2    0    0  0.00000000000E+00  0.00000000000E+00 -0.96840291013E+03  0.10062343492E+04  0.27331917073E+03 0.  0.
         25    1    3    3    0    0 -0.28376093203E+01  0.63042197436E+02 -0.42113301712E+03  0.44241992359E+03  0.12000000000E+03 0.  0.
         25    1    3    3    0    0  0.28376093203E+01 -0.63042197436E+02 -0.54726989302E+03  0.56381442558E+03  0.12000000000E+03 0.  0.
<mgrwt>
<rscale>  0 0.27331917E+03</rscale>
<asrwt>0</asrwt>
<pdfrwt beam="1">  1        2 0.15189517E+00 0.27331917E+03</pdfrwt>
<pdfrwt beam="2">  1       -2 0.29101108E-02 0.27331917E+03</pdfrwt>
<totfact> 0.11817156E+04</totfact>
</mgrwt>
</event>
<event>
 5    1  0.1132878E+001  0.2749018E+03  0.7818608E-02  0.1098506E+00
          2   -1    0    0  501    0  0.00000000000E+00  0.00000000000E+00  0.25059125136E+03  0.25059125136E+03  0.00000000000E+00 0. -1.
         -2   -1    0    0    0  501 -0.00000000000E+00 -0.00000000000E+00 -0.75392700779E+02  0.75392700779E+02  0.00000000000E+00 0. -1.
         35    2    1    2    0    0  0.00000000000E+00  0.00000000000E+00  0.17519855059E+03  0.32598395214E+03  0.27490180961E+03 0.  0.
         25    1    3    3    0    0  0.24078314385E+02  0.59038685173E+02  0.63083486572E+02  0.14981608007E+03  0.12000000000E+03 0.  0.
         25    1    3    3    0    0 -0.24078314385E+02 -0.59038685173E+02  0.11211506401E+03  0.17616787207E+03  0.12000000000E+03 0.  0.
<mgrwt>
<rscale>  0 0.27490181E+03</rscale>
<asrwt>0</asrwt>
<pdfrwt beam="1">  1        2 0.38552500E-01 0.27490181E+03</pdfrwt>
<pdfrwt beam="2">  1       -2 0.11598877E-01 0.27490181E+03</pdfrwt>
<totfact> 0.68972939E+03</totfact>
</mgrwt>
</event>
<event>
 5    1  0.1132878E+001  0.2758923E+03  0.7818608E-02  0.1097954E+00
          4   -1    0    0  501    0  0.00000000000E+00  0.00000000000E+00  0.10399987351E+03  0.10399987351E+03  0.00000000000E+00 0.  1.
         -4   -1    0    0    0  501 -0.00000000000E+00 -0.00000000000E+00 -0.18297270292E+03  0.18297270292E+03  0.00000000000E+00 0.  1.
         35    2    1    2    0    0  0.00000000000E+00  0.00000000000E+00 -0.78972829406E+02  0.28697257642E+03  0.27589228303E+03 0.  0.
         25    1    3    3    0    0  0.60138002787E+02  0.98042612190E+01 -0.79979354164E+01  0.13482088076E+03  0.12000000000E+03 0.  0.
         25    1    3    3    0    0 -0.60138002787E+02 -0.98042612190E+01 -0.70974893990E+02  0.15215169567E+03  0.12000000000E+03 0.  0.
<mgrwt>
<rscale>  0 0.27589228E+03</rscale>
<asrwt>0</asrwt>
<pdfrwt beam="1">  1        4 0.15999981E-01 0.27589228E+03</pdfrwt>
<pdfrwt beam="2">  1       -4 0.28149646E-01 0.27589228E+03</pdfrwt>
<totfact> 0.75707042E+02</totfact>
</mgrwt>
</event>
<event>
 5    1  0.1132878E+001  0.2745607E+03  0.7818608E-02  0.1098697E+00
         -2   -1    0    0    0  501 -0.00000000000E+00  0.00000000000E+00  0.93427096006E+01  0.93427096006E+01  0.00000000000E+00 0.  1.
          2   -1    0    0  501    0  0.00000000000E+00 -0.00000000000E+00 -0.20171764066E+04  0.20171764066E+04  0.00000000000E+00 0.  1.
         35    2    1    2    0    0  0.00000000000E+00  0.00000000000E+00 -0.20078336970E+04  0.20265191162E+04  0.27456069187E+03 0.  0.
         25    1    3    3    0    0  0.39227232365E+02 -0.53911399570E+02 -0.10099971452E+04  0.10192837917E+04  0.12000000000E+03 0.  0.
         25    1    3    3    0    0 -0.39227232365E+02  0.53911399570E+02 -0.99783655182E+03  0.10072353245E+04  0.12000000000E+03 0.  0.
<mgrwt>
<rscale>  0 0.27456069E+03</rscale>
<asrwt>0</asrwt>
<pdfrwt beam="1">  1        2 0.31033458E+00 0.27456069E+03</pdfrwt>
<pdfrwt beam="2">  1       -2 0.14373411E-02 0.27456069E+03</pdfrwt>
<totfact> 0.91377421E+03</totfact>
</mgrwt>
</event>
<event>
 5    1  0.1132878E+001  0.2757527E+03  0.7818608E-02  0.1098032E+00
          2   -1    0    0  501    0  0.00000000000E+00  0.00000000000E+00  0.26407386534E+04  0.26407386534E+04  0.00000000000E+00 0.  1.
         -2   -1    0    0    0  501 -0.00000000000E+00 -0.00000000000E+00 -0.71986993192E+01  0.71986993192E+01  0.00000000000E+00 0.  1.
         35    2    1    2    0    0  0.00000000000E+00  0.00000000000E+00  0.26335399541E+04  0.26479373527E+04  0.27575266850E+03 0.  0.
         25    1    3    3    0    0 -0.20949388495E+02  0.64514020167E+02  0.13454941686E+04  0.13525366884E+04  0.12000000000E+03 0.  0.
         25    1    3    3    0    0  0.20949388495E+02 -0.64514020167E+02  0.12880457854E+04  0.12954006643E+04  0.12000000000E+03 0.  0.
<mgrwt>
<rscale>  0 0.27575267E+03</rscale>
<asrwt>0</asrwt>
<pdfrwt beam="1">  1        2 0.40626671E+00 0.27575267E+03</pdfrwt>
<pdfrwt beam="2">  1       -2 0.11074943E-02 0.27575267E+03</pdfrwt>
<totfact> 0.61603407E+03</totfact>
</mgrwt>
</event>
<event>
 5    1  0.1132878E+001  0.2752303E+03  0.7818608E-02  0.1098323E+00
          2   -1    0    0  501    0  0.00000000000E+00  0.00000000000E+00  0.14852799115E+04  0.14852799115E+04  0.00000000000E+00 0.  1.
         -2   -1    0    0    0  501 -0.00000000000E+00 -0.00000000000E+00 -0.12750414228E+02  0.12750414228E+02  0.00000000000E+00 0.  1.
         35    2    1    2    0    0  0.00000000000E+00  0.00000000000E+00  0.14725294973E+04  0.14980303257E+04  0.27523033347E+03 0.  0.
         25    1    3    3    0    0  0.10760254687E+02 -0.41309464517E+02  0.10199021776E+04  0.10278242587E+04  0.12000000000E+03 0.  0.
         25    1    3    3    0    0 -0.10760254687E+02  0.41309464517E+02  0.45262731974E+03  0.47020606708E+03  0.12000000000E+03 0.  0.
<mgrwt>
<rscale>  0 0.27523033E+03</rscale>
<asrwt>0</asrwt>
<pdfrwt beam="1">  1        2 0.22850447E+00 0.27523033E+03</pdfrwt>
<pdfrwt beam="2">  1       -2 0.19616034E-02 0.27523033E+03</pdfrwt>
<totfact> 0.11052561E+04</totfact>
</mgrwt>
</event>
<event>
 5    1  0.1132878E+001  0.2744884E+03  0.7818608E-02  0.1098738E+00
         -2   -1    0    0    0  501 -0.00000000000E+00  0.00000000000E+00  0.75380797291E+01  0.75380797291E+01  0.00000000000E+00 0.  1.
          2   -1    0    0  501    0  0.00000000000E+00 -0.00000000000E+00 -0.24987749134E+04  0.24987749134E+04  0.00000000000E+00 0.  1.
         35    2    1    2    0    0  0.00000000000E+00  0.00000000000E+00 -0.24912368336E+04  0.25063129931E+04  0.27448835693E+03 0.  0.
         25    1    3    3    0    0  0.60458897366E+02 -0.16547203110E+02 -0.10400471655E+04  0.10488218126E+04  0.12000000000E+03 0.  0.
         25    1    3    3    0    0 -0.60458897366E+02  0.16547203110E+02 -0.14511896682E+04  0.14574911805E+04  0.12000000000E+03 0.  0.
<mgrwt>
<rscale>  0 0.27448836E+03</rscale>
<asrwt>0</asrwt>
<pdfrwt beam="1">  1        2 0.38442686E+00 0.27448836E+03</pdfrwt>
<pdfrwt beam="2">  1       -2 0.11597047E-02 0.27448836E+03</pdfrwt>
<totfact> 0.69025540E+03</totfact>
</mgrwt>
</event>
<event>
 5    1  0.1132878E+001  0.2754843E+03  0.7818608E-02  0.1098181E+00
          2   -1    0    0  501    0  0.00000000000E+00  0.00000000000E+00  0.59580011604E+02  0.59580011604E+02  0.00000000000E+00 0. -1.
         -2   -1    0    0    0  501 -0.00000000000E+00 -0.00000000000E+00 -0.31844408374E+03  0.31844408374E+03  0.00000000000E+00 0. -1.
         35    2    1    2    0    0  0.00000000000E+00  0.00000000000E+00 -0.25886407213E+03  0.37802409534E+03  0.27548431683E+03 0.  0.
         25    1    3    3    0    0 -0.14718834599E+02 -0.61845793230E+02 -0.97800856613E+02  0.16735158734E+03  0.12000000000E+03 0.  0.
         25    1    3    3    0    0  0.14718834599E+02  0.61845793230E+02 -0.16106321552E+03  0.21067250800E+03  0.12000000000E+03 0.  0.
<mgrwt>
<rscale>  0 0.27548432E+03</rscale>
<asrwt>0</asrwt>
<pdfrwt beam="1">  1        2 0.91661558E-02 0.27548432E+03</pdfrwt>
<pdfrwt beam="2">  1       -2 0.48991397E-01 0.27548432E+03</pdfrwt>
<totfact> 0.28510232E+03</totfact>
</mgrwt>
</event>
<event>
 5    1  0.1132878E+001  0.2713291E+03  0.7818608E-02  0.1100521E+00
         -1   -1    0    0    0  501 -0.00000000000E+00  0.00000000000E+00  0.55115539905E+02  0.55115539905E+02  0.00000000000E+00 0. -1.
          1   -1    0    0  501    0  0.00000000000E+00 -0.00000000000E+00 -0.33393253095E+03  0.33393253095E+03  0.00000000000E+00 0. -1.
         35    2    1    2    0    0  0.00000000000E+00  0.00000000000E+00 -0.27881699105E+03  0.38904807086E+03  0.27132911186E+03 0.  0.
         25    1    3    3    0    0 -0.10425933342E+02  0.31913656348E+02 -0.21632665627E+03  0.24964856050E+03  0.12000000000E+03 0.  0.
         25    1    3    3    0    0  0.10425933342E+02 -0.31913656348E+02 -0.62490334782E+02  0.13939951036E+03  0.12000000000E+03 0.  0.
<mgrwt>
<rscale>  0 0.27132911E+03</rscale>
<asrwt>0</asrwt>
<pdfrwt beam="1">  1        1 0.51374236E-01 0.27132911E+03</pdfrwt>
<pdfrwt beam="2">  1       -1 0.84793137E-02 0.27132911E+03</pdfrwt>
<totfact> 0.59737311E+03</totfact>
</mgrwt>
</event>
<event>
 5    1  0.1132878E+001  0.2744080E+03  0.7818608E-02  0.1098783E+00
          1   -1    0    0  501    0  0.00000000000E+00  0.00000000000E+00  0.39770541656E+03  0.39770541656E+03  0.00000000000E+00 0.  1.
         -1   -1    0    0    0  501 -0.00000000000E+00 -0.00000000000E+00 -0.47333858673E+02  0.47333858673E+02  0.00000000000E+00 0.  1.
         35    2    1    2    0    0  0.00000000000E+00  0.00000000000E+00  0.35037155789E+03  0.44503927523E+03  0.27440795893E+03 0.  0.
         25    1    3    3    0    0  0.33498622655E+02  0.80184156584E+01  0.82892049187E+02  0.14985841494E+03  0.12000000000E+03 0.  0.
         25    1    3    3    0    0 -0.33498622655E+02 -0.80184156584E+01  0.26747950870E+03  0.29518086029E+03  0.12000000000E+03 0.  0.
<mgrwt>
<rscale>  0 0.27440796E+03</rscale>
<asrwt>0</asrwt>
<pdfrwt beam="1">  1        1 0.61185447E-01 0.27440796E+03</pdfrwt>
<pdfrwt beam="2">  1       -1 0.72821324E-02 0.27440796E+03</pdfrwt>
<totfact> 0.60357146E+03</totfact>
</mgrwt>
</event>
<event>
 5    1  0.1132878E+001  0.2775714E+03  0.7818608E-02  0.1097023E+00
          1   -1    0    0  501    0  0.00000000000E+00  0.00000000000E+00  0.70663209198E+03  0.70663209198E+03  0.00000000000E+00 0.  1.
         -1   -1    0    0    0  501 -0.00000000000E+00 -0.00000000000E+00 -0.27258122902E+02  0.27258122902E+02  0.00000000000E+00 0.  1.
         35    2    1    2    0    0  0.00000000000E+00  0.00000000000E+00  0.67937396908E+03  0.73389021488E+03  0.27757135594E+03 0.  0.
         25    1    3    3    0    0 -0.34803319287E+02 -0.48738942455E+02  0.24528916707E+03  0.27955953038E+03  0.12000000000E+03 0.  0.
         25    1    3    3    0    0  0.34803319287E+02  0.48738942455E+02  0.43408480201E+03  0.45433068450E+03  0.12000000000E+03 0.  0.
<mgrwt>
<rscale>  0 0.27757136E+03</rscale>
<asrwt>0</asrwt>
<pdfrwt beam="1">  1        1 0.10871262E+00 0.27757136E+03</pdfrwt>
<pdfrwt beam="2">  1       -1 0.41935579E-02 0.27757136E+03</pdfrwt>
<totfact> 0.63558641E+03</totfact>
</mgrwt>
</event>
<event>
 5    1  0.1132878E+001  0.2759705E+03  0.7818608E-02  0.1097910E+00
          1   -1    0    0  501    0  0.00000000000E+00  0.00000000000E+00  0.57464978953E+03  0.57464978953E+03  0.00000000000E+00 0.  1.
         -1   -1    0    0    0  501 -0.00000000000E+00 -0.00000000000E+00 -0.33133099555E+02  0.33133099555E+02  0.00000000000E+00 0.  1.
         35    2    1    2    0    0  0.00000000000E+00  0.00000000000E+00  0.54151668997E+03  0.60778288908E+03  0.27597049615E+03 0.  0.
         25    1    3    3    0    0  0.13070581342E+02  0.64111508754E+02  0.31247542174E+03  0.34106013376E+03  0.12000000000E+03 0.  0.
         25    1    3    3    0    0 -0.13070581342E+02 -0.64111508754E+02  0.22904126823E+03  0.26672275532E+03  0.12000000000E+03 0.  0.
<mgrwt>
<rscale>  0 0.27597050E+03</rscale>
<asrwt>0</asrwt>
<pdfrwt beam="1">  1        1 0.88407653E-01 0.27597050E+03</pdfrwt>
<pdfrwt beam="2">  1       -1 0.50974004E-02 0.27597050E+03</pdfrwt>
<totfact> 0.63614867E+03</totfact>
</mgrwt>
</event>
<event>
 5    1  0.1132878E+001  0.2747959E+03  0.7818608E-02  0.1098566E+00
          3   -1    0    0  501    0  0.00000000000E+00  0.00000000000E+00  0.81553468872E+02  0.81553468872E+02  0.00000000000E+00 0.  1.
         -3   -1    0    0    0  501 -0.00000000000E+00 -0.00000000000E+00 -0.23148237933E+03  0.23148237933E+03  0.00000000000E+00 0.  1.
         35    2    1    2    0    0  0.00000000000E+00  0.00000000000E+00 -0.14992891045E+03  0.31303584820E+03  0.27479585890E+03 0.  0.
         25    1    3    3    0    0  0.51847715472E+02 -0.41428318772E+02 -0.84743965515E+02  0.16120183277E+03  0.12000000000E+03 0.  0.
         25    1    3    3    0    0 -0.51847715472E+02  0.41428318772E+02 -0.65184944940E+02  0.15183401543E+03  0.12000000000E+03 0.  0.
<mgrwt>
<rscale>  0 0.27479586E+03</rscale>
<asrwt>0</asrwt>
<pdfrwt beam="1">  1        3 0.12546688E-01 0.27479586E+03</pdfrwt>
<pdfrwt beam="2">  1       -3 0.35612672E-01 0.27479586E+03</pdfrwt>
<totfact> 0.99510632E+02</totfact>
</mgrwt>
</event>
<event>
 5    1  0.1132878E+001  0.2759097E+03  0.7818608E-02  0.1097944E+00
         -2   -1    0    0    0  501 -0.00000000000E+00  0.00000000000E+00  0.36654535980E+02  0.36654535980E+02  0.00000000000E+00 0. -1.
          2   -1    0    0  501    0  0.00000000000E+00 -0.00000000000E+00 -0.51921376349E+03  0.51921376349E+03  0.00000000000E+00 0. -1.
         35    2    1    2    0    0  0.00000000000E+00  0.00000000000E+00 -0.48255922751E+03  0.55586829947E+03  0.27590969229E+03 0.  0.
         25    1    3    3    0    0  0.61302695908E+02 -0.59063631938E+01 -0.29962293708E+03  0.32858303376E+03  0.12000000000E+03 0.  0.
         25    1    3    3    0    0 -0.61302695908E+02  0.59063631938E+01 -0.18293629043E+03  0.22728526571E+03  0.12000000000E+03 0.  0.
<mgrwt>
<rscale>  0 0.27590969E+03</rscale>
<asrwt>0</asrwt>
<pdfrwt beam="1">  1        2 0.79879040E-01 0.27590969E+03</pdfrwt>
<pdfrwt beam="2">  1       -2 0.56391594E-02 0.27590969E+03</pdfrwt>
<totfact> 0.96597397E+03</totfact>
</mgrwt>
</event>
<event>
 5    1  0.1132878E+001  0.2861900E+03  0.7818608E-02  0.1092355E+00
         -1   -1    0    0    0  501 -0.00000000000E+00  0.00000000000E+00  0.29119447673E+02  0.29119447673E+02  0.00000000000E+00 0.  1.
          1   -1    0    0  501    0  0.00000000000E+00 -0.00000000000E+00 -0.70317898289E+03  0.70317898289E+03  0.00000000000E+00 0.  1.
         35    2    1    2    0    0  0.00000000000E+00  0.00000000000E+00 -0.67405953522E+03  0.73229843056E+03  0.28619003195E+03 0.  0.
         25    1    3    3    0    0  0.51890724165E+02  0.52103853645E+02 -0.27086035065E+03  0.30524217987E+03  0.12000000000E+03 0.  0.
         25    1    3    3    0    0 -0.51890724165E+02 -0.52103853645E+02 -0.40319918456E+03  0.42705625069E+03  0.12000000000E+03 0.  0.
<mgrwt>
<rscale>  0 0.28619003E+03</rscale>
<asrwt>0</asrwt>
<pdfrwt beam="1">  1        1 0.10818137E+00 0.28619003E+03</pdfrwt>
<pdfrwt beam="2">  1       -1 0.44799153E-02 0.28619003E+03</pdfrwt>
<totfact> 0.58051317E+03</totfact>
</mgrwt>
</event>
<event>
 5    1  0.1132878E+001  0.2756942E+03  0.7818608E-02  0.1098064E+00
          1   -1    0    0  501    0  0.00000000000E+00  0.00000000000E+00  0.14472063641E+04  0.14472063641E+04  0.00000000000E+00 0. -1.
         -1   -1    0    0    0  501 -0.00000000000E+00 -0.00000000000E+00 -0.13130000673E+02  0.13130000673E+02  0.00000000000E+00 0. -1.
         35    2    1    2    0    0  0.00000000000E+00  0.00000000000E+00  0.14340763634E+04  0.14603363648E+04  0.27569418227E+03 0.  0.
         25    1    3    3    0    0 -0.69378621574E+01  0.66411325064E+02  0.65364669559E+03  0.66791661207E+03  0.12000000000E+03 0.  0.
         25    1    3    3    0    0  0.69378621574E+01 -0.66411325064E+02  0.78042966782E+03  0.79241975268E+03  0.12000000000E+03 0.  0.
<mgrwt>
<rscale>  0 0.27569418E+03</rscale>
<asrwt>0</asrwt>
<pdfrwt beam="1">  1        1 0.22264701E+00 0.27569418E+03</pdfrwt>
<pdfrwt beam="2">  1       -1 0.20200012E-02 0.27569418E+03</pdfrwt>
<totfact> 0.52438916E+03</totfact>
</mgrwt>
</event>
<event>
 5    1  0.1132878E+001  0.2747382E+03  0.7818608E-02  0.1098598E+00
         -2   -1    0    0    0  501 -0.00000000000E+00  0.00000000000E+00  0.12757816959E+02  0.12757816959E+02  0.00000000000E+00 0.  1.
          2   -1    0    0  501    0  0.00000000000E+00 -0.00000000000E+00 -0.14791141654E+04  0.14791141654E+04  0.00000000000E+00 0.  1.
         35    2    1    2    0    0  0.00000000000E+00  0.00000000000E+00 -0.14663563485E+04  0.14918719824E+04  0.27473818652E+03 0.  0.
         25    1    3    3    0    0 -0.55847369371E+02 -0.15003953090E+02 -0.55094633996E+03  0.56682088598E+03  0.12000000000E+03 0.  0.
         25    1    3    3    0    0  0.55847369371E+02  0.15003953090E+02 -0.91541000851E+03  0.92505109640E+03  0.12000000000E+03 0.  0.
<mgrwt>
<rscale>  0 0.27473819E+03</rscale>
<asrwt>0</asrwt>
<pdfrwt beam="1">  1        2 0.22755610E+00 0.27473819E+03</pdfrwt>
<pdfrwt beam="2">  1       -2 0.19627404E-02 0.27473819E+03</pdfrwt>
<totfact> 0.11127137E+04</totfact>
</mgrwt>
</event>
<event>
 5    1  0.1132878E+001  0.2743419E+03  0.7818608E-02  0.1098820E+00
         -3   -1    0    0    0  501 -0.00000000000E+00  0.00000000000E+00  0.24840237844E+03  0.24840237844E+03  0.00000000000E+00 0. -1.
          3   -1    0    0  501    0  0.00000000000E+00 -0.00000000000E+00 -0.75747522920E+02  0.75747522920E+02  0.00000000000E+00 0. -1.
         35    2    1    2    0    0  0.00000000000E+00  0.00000000000E+00  0.17265485552E+03  0.32414990136E+03  0.27434186595E+03 0.  0.
         25    1    3    3    0    0 -0.36821275056E+02  0.44776807078E+02  0.47947883311E+02  0.14163251132E+03  0.12000000000E+03 0.  0.
         25    1    3    3    0    0  0.36821275056E+02 -0.44776807078E+02  0.12470697220E+03  0.18251739004E+03  0.12000000000E+03 0.  0.
<mgrwt>
<rscale>  0 0.27434187E+03</rscale>
<asrwt>0</asrwt>
<pdfrwt beam="1">  1        3 0.11653465E-01 0.27434187E+03</pdfrwt>
<pdfrwt beam="2">  1       -3 0.38215750E-01 0.27434187E+03</pdfrwt>
<totfact> 0.98452298E+02</totfact>
</mgrwt>
</event>
<event>
 5    1  0.1132878E+001  0.2750496E+03  0.7818608E-02  0.1098424E+00
         -1   -1    0    0    0  501 -0.00000000000E+00  0.00000000000E+00  0.82295241129E+02  0.82295241129E+02  0.00000000000E+00 0.  1.
          1   -1    0    0  501    0  0.00000000000E+00 -0.00000000000E+00 -0.22981972896E+03  0.22981972896E+03  0.00000000000E+00 0.  1.
         35    2    1    2    0    0  0.00000000000E+00  0.00000000000E+00 -0.14752448783E+03  0.31211497009E+03  0.27504959561E+03 0.  0.
         25    1    3    3    0    0 -0.35561800763E+02 -0.88062806295E+00 -0.13843008874E+03  0.18662343542E+03  0.12000000000E+03 0.  0.
         25    1    3    3    0    0  0.35561800763E+02  0.88062806295E+00 -0.90943990928E+01  0.12549153467E+03  0.12000000000E+03 0.  0.
<mgrwt>
<rscale>  0 0.27504960E+03</rscale>
<asrwt>0</asrwt>
<pdfrwt beam="1">  1        1 0.35356881E-01 0.27504960E+03</pdfrwt>
<pdfrwt beam="2">  1       -1 0.12660807E-01 0.27504960E+03</pdfrwt>
<totfact> 0.51375498E+03</totfact>
</mgrwt>
</event>
<event>
 5    1  0.1132878E+001  0.2755726E+03  0.7818608E-02  0.1098132E+00
         -1   -1    0    0    0  501 -0.00000000000E+00  0.00000000000E+00  0.12164572489E+04  0.12164572489E+04  0.00000000000E+00 0. -1.
          1   -1    0    0  501    0  0.00000000000E+00 -0.00000000000E+00 -0.15606843557E+02  0.15606843557E+02  0.00000000000E+00 0. -1.
         35    2    1    2    0    0  0.00000000000E+00  0.00000000000E+00  0.12008504053E+04  0.12320640924E+04  0.27557255289E+03 0.  0.
         25    1    3    3    0    0  0.25474765017E+02 -0.35691051237E+02  0.83111118376E+03  0.84087372094E+03  0.12000000000E+03 0.  0.
         25    1    3    3    0    0 -0.25474765017E+02  0.35691051237E+02  0.36973922155E+03  0.39119037148E+03  0.12000000000E+03 0.  0.
<mgrwt>
<rscale>  0 0.27557255E+03</rscale>
<asrwt>0</asrwt>
<pdfrwt beam="1">  1        1 0.24010538E-02 0.27557255E+03</pdfrwt>
<pdfrwt beam="2">  1       -1 0.18714719E+00 0.27557255E+03</pdfrwt>
<totfact> 0.95278172E+02</totfact>
</mgrwt>
</event>
<event>
 5    1  0.1132878E+001  0.2733294E+03  0.7818608E-02  0.1099389E+00
          2   -1    0    0  501    0  0.00000000000E+00  0.00000000000E+00  0.13696570651E+04  0.13696570651E+04  0.00000000000E+00 0.  1.
         -2   -1    0    0    0  501 -0.00000000000E+00 -0.00000000000E+00 -0.13636433536E+02  0.13636433536E+02  0.00000000000E+00 0.  1.
         35    2    1    2    0    0  0.00000000000E+00  0.00000000000E+00  0.13560206316E+04  0.13832934987E+04  0.27332938031E+03 0.  0.
         25    1    3    3    0    0 -0.32413726307E+02  0.39395900564E+02  0.47091170021E+03  0.48863126796E+03  0.12000000000E+03 0.  0.
         25    1    3    3    0    0  0.32413726307E+02 -0.39395900564E+02  0.88510893140E+03  0.89466223072E+03  0.12000000000E+03 0.  0.
<mgrwt>
<rscale>  0 0.27332938E+03</rscale>
<asrwt>0</asrwt>
<pdfrwt beam="1">  1        2 0.21071636E+00 0.27332938E+03</pdfrwt>
<pdfrwt beam="2">  1       -2 0.20979139E-02 0.27332938E+03</pdfrwt>
<totfact> 0.11560551E+04</totfact>
</mgrwt>
</event>
<event>
 5    1  0.1132878E+001  0.2739443E+03  0.7818608E-02  0.1099043E+00
         -2   -1    0    0    0  501 -0.00000000000E+00  0.00000000000E+00  0.22564450654E+02  0.22564450654E+02  0.00000000000E+00 0.  1.
          2   -1    0    0  501    0  0.00000000000E+00 -0.00000000000E+00 -0.83145671791E+03  0.83145671791E+03  0.00000000000E+00 0.  1.
         35    2    1    2    0    0  0.00000000000E+00  0.00000000000E+00 -0.80889226725E+03  0.85402116856E+03  0.27394425770E+03 0.  0.
         25    1    3    3    0    0 -0.35083162521E+02  0.46636037081E+02 -0.30807474804E+03  0.33573173610E+03  0.12000000000E+03 0.  0.
         25    1    3    3    0    0  0.35083162521E+02 -0.46636037081E+02 -0.50081751921E+03  0.51828943246E+03  0.12000000000E+03 0.  0.
<mgrwt>
<rscale>  0 0.27394426E+03</rscale>
<asrwt>0</asrwt>
<pdfrwt beam="1">  1        2 0.12791641E+00 0.27394426E+03</pdfrwt>
<pdfrwt beam="2">  1       -2 0.34714541E-02 0.27394426E+03</pdfrwt>
<totfact> 0.11444891E+04</totfact>
</mgrwt>
</event>
<event>
 5    1  0.1132878E+001  0.2774744E+03  0.7818608E-02  0.1097076E+00
          2   -1    0    0  501    0  0.00000000000E+00  0.00000000000E+00  0.48290415707E+03  0.48290415707E+03  0.00000000000E+00 0. -1.
         -2   -1    0    0    0  501 -0.00000000000E+00 -0.00000000000E+00 -0.39858848980E+02  0.39858848980E+02  0.00000000000E+00 0. -1.
         35    2    1    2    0    0  0.00000000000E+00  0.00000000000E+00  0.44304530809E+03  0.52276300605E+03  0.27747435102E+03 0.  0.
         25    1    3    3    0    0  0.27138423115E+01 -0.36145133350E+02  0.33352461169E+03  0.35630394638E+03  0.12000000000E+03 0.  0.
         25    1    3    3    0    0 -0.27138423115E+01  0.36145133350E+02  0.10952069640E+03  0.16645905967E+03  0.12000000000E+03 0.  0.
<mgrwt>
<rscale>  0 0.27747435E+03</rscale>
<asrwt>0</asrwt>
<pdfrwt beam="1">  1        2 0.74292943E-01 0.27747435E+03</pdfrwt>
<pdfrwt beam="2">  1       -2 0.61321309E-02 0.27747435E+03</pdfrwt>
<totfact> 0.92155315E+03</totfact>
</mgrwt>
</event>
<event>
 5    1  0.1132878E+001  0.2762160E+03  0.7818608E-02  0.1097774E+00
         -1   -1    0    0    0  501 -0.00000000000E+00  0.00000000000E+00  0.57416747183E+01  0.57416747183E+01  0.00000000000E+00 0. -1.
          1   -1    0    0  501    0  0.00000000000E+00 -0.00000000000E+00 -0.33219949192E+04  0.33219949192E+04  0.00000000000E+00 0. -1.
         35    2    1    2    0    0  0.00000000000E+00  0.00000000000E+00 -0.33162532445E+04  0.33277365939E+04  0.27621596074E+03 0.  0.
         25    1    3    3    0    0  0.62833130635E+02  0.83181068034E+01 -0.13494117383E+04  0.13562187260E+04  0.12000000000E+03 0.  0.
         25    1    3    3    0    0 -0.62833130635E+02 -0.83181068034E+01 -0.19668415062E+04  0.19715178680E+04  0.12000000000E+03 0.  0.
<mgrwt>
<rscale>  0 0.27621596E+03</rscale>
<asrwt>0</asrwt>
<pdfrwt beam="1">  1        1 0.51107712E+00 0.27621596E+03</pdfrwt>
<pdfrwt beam="2">  1       -1 0.88333288E-03 0.27621596E+03</pdfrwt>
<totfact> 0.95786147E+02</totfact>
</mgrwt>
</event>
<event>
 5    1  0.1132878E+001  0.2755988E+03  0.7818608E-02  0.1098117E+00
         -2   -1    0    0    0  501 -0.00000000000E+00  0.00000000000E+00  0.14129515374E+04  0.14129515374E+04  0.00000000000E+00 0.  1.
          2   -1    0    0  501    0  0.00000000000E+00 -0.00000000000E+00 -0.13439014050E+02  0.13439014050E+02  0.00000000000E+00 0.  1.
         35    2    1    2    0    0  0.00000000000E+00  0.00000000000E+00  0.13995125233E+04  0.14263905514E+04  0.27559880670E+03 0.  0.
         25    1    3    3    0    0 -0.13552988748E+02  0.54874498372E+01  0.10420856553E+04  0.10490740243E+04  0.12000000000E+03 0.  0.
         25    1    3    3    0    0  0.13552988748E+02 -0.54874498372E+01  0.35742686806E+03  0.37731652709E+03  0.12000000000E+03 0.  0.
<mgrwt>
<rscale>  0 0.27559881E+03</rscale>
<asrwt>0</asrwt>
<pdfrwt beam="1">  1        2 0.20675417E-02 0.27559881E+03</pdfrwt>
<pdfrwt beam="2">  1       -2 0.21737704E+00 0.27559881E+03</pdfrwt>
<totfact> 0.58810694E+02</totfact>
</mgrwt>
</event>
<event>
 5    1  0.1132878E+001  0.2744017E+03  0.7818608E-02  0.1098787E+00
         -2   -1    0    0    0  501 -0.00000000000E+00  0.00000000000E+00  0.16894977852E+02  0.16894977852E+02  0.00000000000E+00 0.  1.
          2   -1    0    0  501    0  0.00000000000E+00 -0.00000000000E+00 -0.11141814050E+04  0.11141814050E+04  0.00000000000E+00 0.  1.
         35    2    1    2    0    0  0.00000000000E+00  0.00000000000E+00 -0.10972864272E+04  0.11310763829E+04  0.27440167755E+03 0.  0.
         25    1    3    3    0    0 -0.18661958877E+02  0.58010913597E+02 -0.65851799362E+03  0.67213055482E+03  0.12000000000E+03 0.  0.
         25    1    3    3    0    0  0.18661958877E+02 -0.58010913597E+02 -0.43876843354E+03  0.45894582804E+03  0.12000000000E+03 0.  0.
<mgrwt>
<rscale>  0 0.27440168E+03</rscale>
<asrwt>0</asrwt>
<pdfrwt beam="1">  1        2 0.17141255E+00 0.27440168E+03</pdfrwt>
<pdfrwt beam="2">  1       -2 0.25992269E-02 0.27440168E+03</pdfrwt>
<totfact> 0.11731318E+04</totfact>
</mgrwt>
</event>
<event>
 5    1  0.1132878E+001  0.2730739E+03  0.7818608E-02  0.1099533E+00
          2   -1    0    0  501    0  0.00000000000E+00  0.00000000000E+00  0.10276149611E+04  0.10276149611E+04  0.00000000000E+00 0. -1.
         -2   -1    0    0    0  501 -0.00000000000E+00 -0.00000000000E+00 -0.18141362188E+02  0.18141362188E+02  0.00000000000E+00 0. -1.
         35    2    1    2    0    0  0.00000000000E+00  0.00000000000E+00  0.10094735989E+04  0.10457563233E+04  0.27307387424E+03 0.  0.
         25    1    3    3    0    0 -0.65595017584E+01  0.28897168079E+02  0.72686067396E+03  0.73729540399E+03  0.12000000000E+03 0.  0.
         25    1    3    3    0    0  0.65595017584E+01 -0.28897168079E+02  0.28261292493E+03  0.30846091928E+03  0.12000000000E+03 0.  0.
<mgrwt>
<rscale>  0 0.27307387E+03</rscale>
<asrwt>0</asrwt>
<pdfrwt beam="1">  1        2 0.15809456E+00 0.27307387E+03</pdfrwt>
<pdfrwt beam="2">  1       -2 0.27909796E-02 0.27307387E+03</pdfrwt>
<totfact> 0.11881490E+04</totfact>
</mgrwt>
</event>
<event>
 5    1  0.1132878E+001  0.2751102E+03  0.7818608E-02  0.1098390E+00
         -2   -1    0    0    0  501 -0.00000000000E+00  0.00000000000E+00  0.81983898208E+02  0.81983898208E+02  0.00000000000E+00 0.  1.
          2   -1    0    0  501    0  0.00000000000E+00 -0.00000000000E+00 -0.23079417875E+03  0.23079417875E+03  0.00000000000E+00 0.  1.
         35    2    1    2    0    0  0.00000000000E+00  0.00000000000E+00 -0.14881028054E+03  0.31277807696E+03  0.27511020670E+03 0.  0.
         25    1    3    3    0    0  0.40288098342E+02  0.83150939610E+01 -0.13487743132E+03  0.18515991233E+03  0.12000000000E+03 0.  0.
         25    1    3    3    0    0 -0.40288098342E+02 -0.83150939610E+01 -0.13932849225E+02  0.12761816463E+03  0.12000000000E+03 0.  0.
<mgrwt>
<rscale>  0 0.27511021E+03</rscale>
<asrwt>0</asrwt>
<pdfrwt beam="1">  1        2 0.35506796E-01 0.27511021E+03</pdfrwt>
<pdfrwt beam="2">  1       -2 0.12612908E-01 0.27511021E+03</pdfrwt>
<totfact> 0.65852320E+03</totfact>
</mgrwt>
</event>
<event>
 5    1  0.1132878E+001  0.2736195E+03  0.7818608E-02  0.1099226E+00
         -2   -1    0    0    0  501 -0.00000000000E+00  0.00000000000E+00  0.13892313516E+03  0.13892313516E+03  0.00000000000E+00 0.  1.
          2   -1    0    0  501    0  0.00000000000E+00 -0.00000000000E+00 -0.13472849722E+03  0.13472849722E+03  0.00000000000E+00 0.  1.
         35    2    1    2    0    0  0.00000000000E+00  0.00000000000E+00  0.41946379384E+01  0.27365163238E+03  0.27361948198E+03 0.  0.
         25    1    3    3    0    0  0.19171653757E+02  0.57739786151E+02 -0.22714264248E+02  0.13644549466E+03  0.12000000000E+03 0.  0.
         25    1    3    3    0    0 -0.19171653757E+02 -0.57739786151E+02  0.26908902187E+02  0.13720613773E+03  0.12000000000E+03 0.  0.
<mgrwt>
<rscale>  0 0.27361948E+03</rscale>
<asrwt>0</asrwt>
<pdfrwt beam="1">  1        2 0.20727461E-01 0.27361948E+03</pdfrwt>
<pdfrwt beam="2">  1       -2 0.21372790E-01 0.27361948E+03</pdfrwt>
<totfact> 0.49565555E+03</totfact>
</mgrwt>
</event>
<event>
 5    1  0.1132878E+001  0.2746831E+03  0.7818608E-02  0.1098629E+00
          2   -1    0    0  501    0  0.00000000000E+00  0.00000000000E+00  0.50581718585E+02  0.50581718585E+02  0.00000000000E+00 0.  1.
         -2   -1    0    0    0  501 -0.00000000000E+00 -0.00000000000E+00 -0.37291551386E+03  0.37291551386E+03  0.00000000000E+00 0.  1.
         35    2    1    2    0    0  0.00000000000E+00  0.00000000000E+00 -0.32233379527E+03  0.42349723244E+03  0.27468314530E+03 0.  0.
         25    1    3    3    0    0 -0.47800176063E+02  0.41686436596E+02 -0.12882316201E+03  0.18713103136E+03  0.12000000000E+03 0.  0.
         25    1    3    3    0    0  0.47800176063E+02 -0.41686436596E+02 -0.19351063327E+03  0.23636620108E+03  0.12000000000E+03 0.  0.
<mgrwt>
<rscale>  0 0.27468315E+03</rscale>
<asrwt>0</asrwt>
<pdfrwt beam="1">  1        2 0.77818030E-02 0.27468315E+03</pdfrwt>
<pdfrwt beam="2">  1       -2 0.57371617E-01 0.27468315E+03</pdfrwt>
<totfact> 0.25491336E+03</totfact>
</mgrwt>
</event>
<event>
 5    1  0.1132878E+001  0.2747990E+03  0.7818608E-02  0.1098564E+00
         -1   -1    0    0    0  501 -0.00000000000E+00  0.00000000000E+00  0.51198406570E+02  0.51198406570E+02  0.00000000000E+00 0. -1.
          1   -1    0    0  501    0  0.00000000000E+00 -0.00000000000E+00 -0.36873455505E+03  0.36873455505E+03  0.00000000000E+00 0. -1.
         35    2    1    2    0    0  0.00000000000E+00  0.00000000000E+00 -0.31753614848E+03  0.41993296162E+03  0.27479899320E+03 0.  0.
         25    1    3    3    0    0  0.38379752738E+01 -0.45071574555E+02 -0.83400190217E+02  0.15297636620E+03  0.12000000000E+03 0.  0.
         25    1    3    3    0    0 -0.38379752738E+01  0.45071574555E+02 -0.23413595826E+03  0.26695659542E+03  0.12000000000E+03 0.  0.
<mgrwt>
<rscale>  0 0.27479899E+03</rscale>
<asrwt>0</asrwt>
<pdfrwt beam="1">  1        1 0.56728391E-01 0.27479899E+03</pdfrwt>
<pdfrwt beam="2">  1       -1 0.78766783E-02 0.27479899E+03</pdfrwt>
<totfact> 0.58988644E+03</totfact>
</mgrwt>
</event>
<event>
 5    1  0.1132878E+001  0.2780838E+03  0.7818608E-02  0.1096740E+00
         -1   -1    0    0    0  501 -0.00000000000E+00  0.00000000000E+00  0.33318724180E+03  0.33318724180E+03  0.00000000000E+00 0. -1.
          1   -1    0    0  501    0  0.00000000000E+00 -0.00000000000E+00 -0.58023363950E+02  0.58023363950E+02  0.00000000000E+00 0. -1.
         35    2    1    2    0    0  0.00000000000E+00  0.00000000000E+00  0.27516387785E+03  0.39121060575E+03  0.27808376144E+03 0.  0.
         25    1    3    3    0    0 -0.33463607940E+02 -0.56941793007E+02  0.17118269239E+03  0.21923889943E+03  0.12000000000E+03 0.  0.
         25    1    3    3    0    0  0.33463607940E+02  0.56941793007E+02  0.10398118546E+03  0.17197170633E+03  0.12000000000E+03 0.  0.
<mgrwt>
<rscale>  0 0.27808376E+03</rscale>
<asrwt>0</asrwt>
<pdfrwt beam="1">  1        1 0.89266716E-02 0.27808376E+03</pdfrwt>
<pdfrwt beam="2">  1       -1 0.51259575E-01 0.27808376E+03</pdfrwt>
<totfact> 0.29266829E+03</totfact>
</mgrwt>
</event>
<event>
 5    1  0.1132878E+001  0.2823541E+03  0.7818608E-02  0.1094410E+00
         -2   -1    0    0    0  501 -0.00000000000E+00  0.00000000000E+00  0.38632276085E+02  0.38632276085E+02  0.00000000000E+00 0.  1.
          2   -1    0    0  501    0  0.00000000000E+00 -0.00000000000E+00 -0.51591463879E+03  0.51591463879E+03  0.00000000000E+00 0.  1.
         35    2    1    2    0    0  0.00000000000E+00  0.00000000000E+00 -0.47728236271E+03  0.55454691488E+03  0.28235408098E+03 0.  0.
         25    1    3    3    0    0 -0.58165835462E+02  0.21581181618E+02 -0.31918831915E+03  0.34659803072E+03  0.12000000000E+03 0.  0.
         25    1    3    3    0    0  0.58165835462E+02 -0.21581181618E+02 -0.15809404356E+03  0.20794888416E+03  0.12000000000E+03 0.  0.
<mgrwt>
<rscale>  0 0.28235408E+03</rscale>
<asrwt>0</asrwt>
<pdfrwt beam="1">  1        2 0.79371485E-01 0.28235408E+03</pdfrwt>
<pdfrwt beam="2">  1       -2 0.59434270E-02 0.28235408E+03</pdfrwt>
<totfact> 0.89845759E+03</totfact>
</mgrwt>
</event>
<event>
 5    1  0.1132878E+001  0.2752400E+03  0.7818608E-02  0.1098317E+00
          1   -1    0    0  501    0  0.00000000000E+00  0.00000000000E+00  0.13615758411E+04  0.13615758411E+04  0.00000000000E+00 0.  1.
         -1   -1    0    0    0  501 -0.00000000000E+00 -0.00000000000E+00 -0.13909815993E+02  0.13909815993E+02  0.00000000000E+00 0.  1.
         35    2    1    2    0    0  0.00000000000E+00  0.00000000000E+00  0.13476660251E+04  0.13754856571E+04  0.27524003641E+03 0.  0.
         25    1    3    3    0    0  0.47742910931E+02 -0.14333071548E+02  0.90034538184E+03  0.90967391360E+03  0.12000000000E+03 0.  0.
         25    1    3    3    0    0 -0.47742910931E+02  0.14333071548E+02  0.44732064330E+03  0.46581174352E+03  0.12000000000E+03 0.  0.
<mgrwt>
<rscale>  0 0.27524004E+03</rscale>
<asrwt>0</asrwt>
<pdfrwt beam="1">  1        1 0.20947310E+00 0.27524004E+03</pdfrwt>
<pdfrwt beam="2">  1       -1 0.21399728E-02 0.27524004E+03</pdfrwt>
<totfact> 0.55013459E+03</totfact>
</mgrwt>
</event>
<event>
 5    1  0.1132878E+001  0.2747338E+03  0.7818608E-02  0.1098600E+00
         -1   -1    0    0    0  501 -0.00000000000E+00  0.00000000000E+00  0.82963618664E+02  0.82963618664E+02  0.00000000000E+00 0.  1.
          1   -1    0    0  501    0  0.00000000000E+00 -0.00000000000E+00 -0.22744503246E+03  0.22744503246E+03  0.00000000000E+00 0.  1.
         35    2    1    2    0    0  0.00000000000E+00  0.00000000000E+00 -0.14448141379E+03  0.31040865112E+03  0.27473378343E+03 0.  0.
         25    1    3    3    0    0  0.24770027268E+02  0.27602955364E+00 -0.14240111269E+03  0.18786087229E+03  0.12000000000E+03 0.  0.
         25    1    3    3    0    0 -0.24770027268E+02 -0.27602955364E+00 -0.20803011023E+01  0.12254777883E+03  0.12000000000E+03 0.  0.
<mgrwt>
<rscale>  0 0.27473378E+03</rscale>
<asrwt>0</asrwt>
<pdfrwt beam="1">  1        1 0.34991543E-01 0.27473378E+03</pdfrwt>
<pdfrwt beam="2">  1       -1 0.12763634E-01 0.27473378E+03</pdfrwt>
<totfact> 0.51392537E+03</totfact>
</mgrwt>
</event>
<event>
 5    1  0.1132878E+001  0.2749287E+03  0.7818608E-02  0.1098491E+00
          2   -1    0    0  501    0  0.00000000000E+00  0.00000000000E+00  0.86983456682E+03  0.86983456682E+03  0.00000000000E+00 0.  1.
         -2   -1    0    0    0  501 -0.00000000000E+00 -0.00000000000E+00 -0.21724178608E+02  0.21724178608E+02  0.00000000000E+00 0.  1.
         35    2    1    2    0    0  0.00000000000E+00  0.00000000000E+00  0.84811038821E+03  0.89155874543E+03  0.27492865612E+03 0.  0.
         25    1    3    3    0    0  0.16819129343E+02  0.35742046563E+02  0.59977177740E+03  0.61293275486E+03  0.12000000000E+03 0.  0.
         25    1    3    3    0    0 -0.16819129343E+02 -0.35742046563E+02  0.24833861081E+03  0.27862599057E+03  0.12000000000E+03 0.  0.
<mgrwt>
<rscale>  0 0.27492866E+03</rscale>
<asrwt>0</asrwt>
<pdfrwt beam="1">  1        2 0.13382068E+00 0.27492866E+03</pdfrwt>
<pdfrwt beam="2">  1       -2 0.33421820E-02 0.27492866E+03</pdfrwt>
<totfact> 0.11421458E+04</totfact>
</mgrwt>
</event>
<event>
 5    1  0.1132878E+001  0.2747139E+03  0.7818608E-02  0.1098612E+00
         -1   -1    0    0    0  501 -0.00000000000E+00  0.00000000000E+00  0.18363803014E+02  0.18363803014E+02  0.00000000000E+00 0. -1.
          1   -1    0    0  501    0  0.00000000000E+00 -0.00000000000E+00 -0.10273980830E+04  0.10273980830E+04  0.00000000000E+00 0. -1.
         35    2    1    2    0    0  0.00000000000E+00  0.00000000000E+00 -0.10090342800E+04  0.10457618861E+04  0.27471393131E+03 0.  0.
         25    1    3    3    0    0  0.74710227713E+01 -0.65288515970E+02 -0.45812349380E+03  0.47811666157E+03  0.12000000000E+03 0.  0.
         25    1    3    3    0    0 -0.74710227713E+01  0.65288515970E+02 -0.55091078623E+03  0.56764522448E+03  0.12000000000E+03 0.  0.
<mgrwt>
<rscale>  0 0.27471393E+03</rscale>
<asrwt>0</asrwt>
<pdfrwt beam="1">  1        1 0.15806126E+00 0.27471393E+03</pdfrwt>
<pdfrwt beam="2">  1       -1 0.28252001E-02 0.27471393E+03</pdfrwt>
<totfact> 0.62843565E+03</totfact>
</mgrwt>
</event>
<event>
 5    1  0.1132878E+001  0.2777669E+03  0.7818608E-02  0.1096915E+00
          2   -1    0    0  501    0  0.00000000000E+00  0.00000000000E+00  0.70336813464E+03  0.70336813464E+03  0.00000000000E+00 0. -1.
         -2   -1    0    0    0  501 -0.00000000000E+00 -0.00000000000E+00 -0.27423203730E+02  0.27423203730E+02  0.00000000000E+00 0. -1.
         35    2    1    2    0    0  0.00000000000E+00  0.00000000000E+00  0.67594493091E+03  0.73079133837E+03  0.27776686378E+03 0.  0.
         25    1    3    3    0    0 -0.47692501948E+02 -0.25149997314E+02  0.22085783562E+03  0.25707057525E+03  0.12000000000E+03 0.  0.
         25    1    3    3    0    0  0.47692501948E+02  0.25149997314E+02  0.45508709529E+03  0.47372076312E+03  0.12000000000E+03 0.  0.
<mgrwt>
<rscale>  0 0.27776686E+03</rscale>
<asrwt>0</asrwt>
<pdfrwt beam="1">  1        2 0.10821047E+00 0.27776686E+03</pdfrwt>
<pdfrwt beam="2">  1       -2 0.42189550E-02 0.27776686E+03</pdfrwt>
<totfact> 0.10534861E+04</totfact>
</mgrwt>
</event>
<event>
 5    1  0.1132878E+001  0.2741788E+03  0.7818608E-02  0.1098911E+00
         -4   -1    0    0    0  501 -0.00000000000E+00  0.00000000000E+00  0.19410748923E+03  0.19410748923E+03  0.00000000000E+00 0.  1.
          4   -1    0    0  501    0  0.00000000000E+00 -0.00000000000E+00 -0.96820100714E+02  0.96820100714E+02  0.00000000000E+00 0.  1.
         35    2    1    2    0    0  0.00000000000E+00  0.00000000000E+00  0.97287388518E+02  0.29092758995E+03  0.27417882235E+03 0.  0.
         25    1    3    3    0    0 -0.25685804017E+00 -0.63655519162E+02  0.29037529037E+02  0.13890741229E+03  0.12000000000E+03 0.  0.
         25    1    3    3    0    0  0.25685804017E+00  0.63655519162E+02  0.68249859481E+02  0.15202017766E+03  0.12000000000E+03 0.  0.
<mgrwt>
<rscale>  0 0.27417882E+03</rscale>
<asrwt>0</asrwt>
<pdfrwt beam="1">  1        4 0.14895400E-01 0.27417882E+03</pdfrwt>
<pdfrwt beam="2">  1       -4 0.29862690E-01 0.27417882E+03</pdfrwt>
<totfact> 0.76722153E+02</totfact>
</mgrwt>
</event>
<event>
 5    1  0.1132878E+001  0.2745700E+03  0.7818608E-02  0.1098692E+00
         -2   -1    0    0    0  501 -0.00000000000E+00  0.00000000000E+00  0.29318645836E+02  0.29318645836E+02  0.00000000000E+00 0.  1.
          2   -1    0    0  501    0  0.00000000000E+00 -0.00000000000E+00 -0.64283888329E+03  0.64283888329E+03  0.00000000000E+00 0.  1.
         35    2    1    2    0    0  0.00000000000E+00  0.00000000000E+00 -0.61352023745E+03  0.67215752912E+03  0.27456995865E+03 0.  0.
         25    1    3    3    0    0 -0.57151534434E+02 -0.34316125572E+02 -0.30233249508E+03  0.33203739540E+03  0.12000000000E+03 0.  0.
         25    1    3    3    0    0  0.57151534434E+02  0.34316125572E+02 -0.31118774238E+03  0.34012013373E+03  0.12000000000E+03 0.  0.
<mgrwt>
<rscale>  0 0.27456996E+03</rscale>
<asrwt>0</asrwt>
<pdfrwt beam="1">  1        2 0.98898279E-01 0.27456996E+03</pdfrwt>
<pdfrwt beam="2">  1       -2 0.45105614E-02 0.27456996E+03</pdfrwt>
<totfact> 0.10603861E+04</totfact>
</mgrwt>
</event>
<event>
 5    1  0.1132878E+001  0.2749530E+03  0.7818608E-02  0.1098478E+00
          4   -1    0    0  501    0  0.00000000000E+00  0.00000000000E+00  0.17999205058E+03  0.17999205058E+03  0.00000000000E+00 0.  1.
         -4   -1    0    0    0  501 -0.00000000000E+00 -0.00000000000E+00 -0.10500342994E+03  0.10500342994E+03  0.00000000000E+00 0.  1.
         35    2    1    2    0    0  0.00000000000E+00  0.00000000000E+00  0.74988620644E+02  0.28499548052E+03  0.27495296087E+03 0.  0.
         25    1    3    3    0    0 -0.65644207207E+02  0.13459876719E+02  0.34307532403E+02  0.14165922843E+03  0.12000000000E+03 0.  0.
         25    1    3    3    0    0  0.65644207207E+02 -0.13459876719E+02  0.40681088241E+02  0.14333625208E+03  0.12000000000E+03 0.  0.
<mgrwt>
<rscale>  0 0.27495296E+03</rscale>
<asrwt>0</asrwt>
<pdfrwt beam="1">  1        4 0.27691085E-01 0.27495296E+03</pdfrwt>
<pdfrwt beam="2">  1       -4 0.16154374E-01 0.27495296E+03</pdfrwt>
<totfact> 0.76738007E+02</totfact>
</mgrwt>
</event>
<event>
 5    1  0.1132878E+001  0.2735914E+03  0.7818608E-02  0.1099242E+00
         -2   -1    0    0    0  501 -0.00000000000E+00  0.00000000000E+00  0.34892626797E+02  0.34892626797E+02  0.00000000000E+00 0.  1.
          2   -1    0    0  501    0  0.00000000000E+00 -0.00000000000E+00 -0.53630429883E+03  0.53630429883E+03  0.00000000000E+00 0.  1.
         35    2    1    2    0    0  0.00000000000E+00  0.00000000000E+00 -0.50141167204E+03  0.57119692563E+03  0.27359141616E+03 0.  0.
         25    1    3    3    0    0  0.52164796613E+02 -0.28034001656E+02 -0.19143385653E+03  0.23356796159E+03  0.12000000000E+03 0.  0.
         25    1    3    3    0    0 -0.52164796613E+02  0.28034001656E+02 -0.30997781550E+03  0.33762896404E+03  0.12000000000E+03 0.  0.
<mgrwt>
<rscale>  0 0.27359142E+03</rscale>
<asrwt>0</asrwt>
<pdfrwt beam="1">  1        2 0.82508356E-01 0.27359142E+03</pdfrwt>
<pdfrwt beam="2">  1       -2 0.53680963E-02 0.27359142E+03</pdfrwt>
<totfact> 0.10036952E+04</totfact>
</mgrwt>
</event>
<event>
 5    1  0.1132878E+001  0.2760881E+03  0.7818608E-02  0.1097845E+00
         -2   -1    0    0    0  501 -0.00000000000E+00  0.00000000000E+00  0.23612263344E+02  0.23612263344E+02  0.00000000000E+00 0.  1.
          2   -1    0    0  501    0  0.00000000000E+00 -0.00000000000E+00 -0.80704526625E+03  0.80704526625E+03  0.00000000000E+00 0.  1.
         35    2    1    2    0    0  0.00000000000E+00  0.00000000000E+00 -0.78343300291E+03  0.83065752960E+03  0.27608814069E+03 0.  0.
         25    1    3    3    0    0 -0.13066471736E+02  0.25097323829E+02 -0.57853411446E+03  0.59152542628E+03  0.12000000000E+03 0.  0.
         25    1    3    3    0    0  0.13066471736E+02 -0.25097323829E+02 -0.20489888845E+03  0.23913210331E+03  0.12000000000E+03 0.  0.
<mgrwt>
<rscale>  0 0.27608814E+03</rscale>
<asrwt>0</asrwt>
<pdfrwt beam="1">  1        2 0.12416079E+00 0.27608814E+03</pdfrwt>
<pdfrwt beam="2">  1       -2 0.36326563E-02 0.27608814E+03</pdfrwt>
<totfact> 0.11113402E+04</totfact>
</mgrwt>
</event>
<event>
 5    1  0.1132878E+001  0.2752626E+03  0.7818608E-02  0.1098305E+00
         -2   -1    0    0    0  501 -0.00000000000E+00  0.00000000000E+00  0.34811466547E+02  0.34811466547E+02  0.00000000000E+00 0. -1.
          2   -1    0    0  501    0  0.00000000000E+00 -0.00000000000E+00 -0.54414183714E+03  0.54414183714E+03  0.00000000000E+00 0. -1.
         35    2    1    2    0    0  0.00000000000E+00  0.00000000000E+00 -0.50933037059E+03  0.57895330369E+03  0.27526260451E+03 0.  0.
         25    1    3    3    0    0 -0.79581519071E+01 -0.31057211792E+02 -0.37935404379E+03  0.39917085706E+03  0.12000000000E+03 0.  0.
         25    1    3    3    0    0  0.79581519071E+01  0.31057211792E+02 -0.12997632680E+03  0.17978244663E+03  0.12000000000E+03 0.  0.
<mgrwt>
<rscale>  0 0.27526260E+03</rscale>
<asrwt>0</asrwt>
<pdfrwt beam="1">  1        2 0.83714121E-01 0.27526260E+03</pdfrwt>
<pdfrwt beam="2">  1       -2 0.53556108E-02 0.27526260E+03</pdfrwt>
<totfact> 0.99105401E+03</totfact>
</mgrwt>
</event>
<event>
 5    1  0.1132878E+001  0.2743836E+03  0.7818608E-02  0.1098797E+00
         -2   -1    0    0    0  501 -0.00000000000E+00  0.00000000000E+00  0.42673006623E+02  0.42673006623E+02  0.00000000000E+00 0.  1.
          2   -1    0    0  501    0  0.00000000000E+00 -0.00000000000E+00 -0.44106556729E+03  0.44106556729E+03  0.00000000000E+00 0.  1.
         35    2    1    2    0    0  0.00000000000E+00  0.00000000000E+00 -0.39839256067E+03  0.48373857392E+03  0.27438362833E+03 0.  0.
         25    1    3    3    0    0 -0.36958038653E+02  0.53521059905E+02 -0.22357376957E+03  0.26194585492E+03  0.12000000000E+03 0.  0.
         25    1    3    3    0    0  0.36958038653E+02 -0.53521059905E+02 -0.17481879111E+03  0.22179271899E+03  0.12000000000E+03 0.  0.
<mgrwt>
<rscale>  0 0.27438363E+03</rscale>
<asrwt>0</asrwt>
<pdfrwt beam="1">  1        2 0.67856240E-01 0.27438363E+03</pdfrwt>
<pdfrwt beam="2">  1       -2 0.65650781E-02 0.27438363E+03</pdfrwt>
<totfact> 0.91667922E+03</totfact>
</mgrwt>
</event>
<event>
 5    1  0.1132878E+001  0.2750228E+03  0.7818608E-02  0.1098439E+00
          2   -1    0    0  501    0  0.00000000000E+00  0.00000000000E+00  0.97449289062E+02  0.97449289062E+02  0.00000000000E+00 0.  1.
         -2   -1    0    0    0  501 -0.00000000000E+00 -0.00000000000E+00 -0.19404335026E+03  0.19404335026E+03  0.00000000000E+00 0.  1.
         35    2    1    2    0    0  0.00000000000E+00  0.00000000000E+00 -0.96594061195E+02  0.29149263932E+03  0.27502281018E+03 0.  0.
         25    1    3    3    0    0 -0.51936663874E+02  0.13032636131E+02 -0.91246846377E+02  0.15997891621E+03  0.12000000000E+03 0.  0.
         25    1    3    3    0    0  0.51936663874E+02 -0.13032636131E+02 -0.53472148179E+01  0.13151372311E+03  0.12000000000E+03 0.  0.
<mgrwt>
<rscale>  0 0.27502281E+03</rscale>
<asrwt>0</asrwt>
<pdfrwt beam="1">  1        2 0.14992198E-01 0.27502281E+03</pdfrwt>
<pdfrwt beam="2">  1       -2 0.29852823E-01 0.27502281E+03</pdfrwt>
<totfact> 0.40014870E+03</totfact>
</mgrwt>
</event>
<event>
 5    1  0.1132878E+001  0.2747892E+03  0.7818608E-02  0.1098570E+00
          3   -1    0    0  501    0  0.00000000000E+00  0.00000000000E+00  0.10062077806E+03  0.10062077806E+03  0.00000000000E+00 0.  1.
         -3   -1    0    0    0  501 -0.00000000000E+00 -0.00000000000E+00 -0.18760808426E+03  0.18760808426E+03  0.00000000000E+00 0.  1.
         35    2    1    2    0    0  0.00000000000E+00  0.00000000000E+00 -0.86987306196E+02  0.28822886232E+03  0.27478916579E+03 0.  0.
         25    1    3    3    0    0 -0.40943461720E+02 -0.13685027096E+02 -0.97117682999E+02  0.16029813279E+03  0.12000000000E+03 0.  0.
         25    1    3    3    0    0  0.40943461720E+02  0.13685027096E+02  0.10130376803E+02  0.12793072953E+03  0.12000000000E+03 0.  0.
<mgrwt>
<rscale>  0 0.27478917E+03</rscale>
<asrwt>0</asrwt>
<pdfrwt beam="1">  1        3 0.15480120E-01 0.27478917E+03</pdfrwt>
<pdfrwt beam="2">  1       -3 0.28862782E-01 0.27478917E+03</pdfrwt>
<totfact> 0.10312682E+03</totfact>
</mgrwt>
</event>
<event>
 5    1  0.1132878E+001  0.2755347E+03  0.7818608E-02  0.1098153E+00
          2   -1    0    0  501    0  0.00000000000E+00  0.00000000000E+00  0.41265546702E+03  0.41265546702E+03  0.00000000000E+00 0. -1.
         -2   -1    0    0    0  501 -0.00000000000E+00 -0.00000000000E+00 -0.45994414166E+02  0.45994414166E+02  0.00000000000E+00 0. -1.
         35    2    1    2    0    0  0.00000000000E+00  0.00000000000E+00  0.36666105285E+03  0.45864988119E+03  0.27553472709E+03 0.  0.
         25    1    3    3    0    0 -0.27665169277E+02  0.32118086415E+02  0.95518340627E+02  0.15912475126E+03  0.12000000000E+03 0.  0.
         25    1    3    3    0    0  0.27665169277E+02 -0.32118086415E+02  0.27114271223E+03  0.29952512993E+03  0.12000000000E+03 0.  0.
<mgrwt>
<rscale>  0 0.27553473E+03</rscale>
<asrwt>0</asrwt>
<pdfrwt beam="1">  1        2 0.63485454E-01 0.27553473E+03</pdfrwt>
<pdfrwt beam="2">  1       -2 0.70760640E-02 0.27553473E+03</pdfrwt>
<totfact> 0.87820748E+03</totfact>
</mgrwt>
</event>
<event>
 5    1  0.1132878E+001  0.2750562E+03  0.7818608E-02  0.1098420E+00
         -1   -1    0    0    0  501 -0.00000000000E+00  0.00000000000E+00  0.15834222989E+02  0.15834222989E+02  0.00000000000E+00 0. -1.
          1   -1    0    0  501    0  0.00000000000E+00 -0.00000000000E+00 -0.11945001792E+04  0.11945001792E+04  0.00000000000E+00 0. -1.
         35    2    1    2    0    0  0.00000000000E+00  0.00000000000E+00 -0.11786659563E+04  0.12103344022E+04  0.27505622842E+03 0.  0.
         25    1    3    3    0    0 -0.65737425671E+02  0.11825604875E+02 -0.62128549658E+03  0.63628368070E+03  0.12000000000E+03 0.  0.
         25    1    3    3    0    0  0.65737425671E+02 -0.11825604875E+02 -0.55738045968E+03  0.57405072154E+03  0.12000000000E+03 0.  0.
<mgrwt>
<rscale>  0 0.27505623E+03</rscale>
<asrwt>0</asrwt>
<pdfrwt beam="1">  1        1 0.18376927E+00 0.27505623E+03</pdfrwt>
<pdfrwt beam="2">  1       -1 0.24360341E-02 0.27505623E+03</pdfrwt>
<totfact> 0.59264362E+03</totfact>
</mgrwt>
</event>
<event>
 5    1  0.1132878E+001  0.2748348E+03  0.7818608E-02  0.1098544E+00
          1   -1    0    0  501    0  0.00000000000E+00  0.00000000000E+00  0.33444742932E+03  0.33444742932E+03  0.00000000000E+00 0. -1.
         -1   -1    0    0    0  501 -0.00000000000E+00 -0.00000000000E+00 -0.56461914977E+02  0.56461914977E+02  0.00000000000E+00 0. -1.
         35    2    1    2    0    0  0.00000000000E+00  0.00000000000E+00  0.27798551435E+03  0.39090934430E+03  0.27483480361E+03 0.  0.
         25    1    3    3    0    0 -0.35152708648E+02 -0.55884037051E+02  0.15488254951E+03  0.20675430507E+03  0.12000000000E+03 0.  0.
         25    1    3    3    0    0  0.35152708648E+02  0.55884037051E+02  0.12310296484E+03  0.18415503923E+03  0.12000000000E+03 0.  0.
<mgrwt>
<rscale>  0 0.27483480E+03</rscale>
<asrwt>0</asrwt>
<pdfrwt beam="1">  1        1 0.51453450E-01 0.27483480E+03</pdfrwt>
<pdfrwt beam="2">  1       -1 0.86864486E-02 0.27483480E+03</pdfrwt>
<totfact> 0.57480625E+03</totfact>
</mgrwt>
</event>
<event>
 5    1  0.1132878E+001  0.2746778E+03  0.7818608E-02  0.1098632E+00
          2   -1    0    0  501    0  0.00000000000E+00  0.00000000000E+00  0.14993016705E+04  0.14993016705E+04  0.00000000000E+00 0. -1.
         -2   -1    0    0    0  501 -0.00000000000E+00 -0.00000000000E+00 -0.12580502896E+02  0.12580502896E+02  0.00000000000E+00 0. -1.
         35    2    1    2    0    0  0.00000000000E+00  0.00000000000E+00  0.14867211676E+04  0.15118821734E+04  0.27467776763E+03 0.  0.
         25    1    3    3    0    0 -0.31328384117E+02  0.61183964107E+01  0.42038689206E+03  0.43834237925E+03  0.12000000000E+03 0.  0.
         25    1    3    3    0    0  0.31328384117E+02 -0.61183964107E+01  0.10663342755E+04  0.10735397941E+04  0.12000000000E+03 0.  0.
<mgrwt>
<rscale>  0 0.27467777E+03</rscale>
<asrwt>0</asrwt>
<pdfrwt beam="1">  1        2 0.23066165E+00 0.27467777E+03</pdfrwt>
<pdfrwt beam="2">  1       -2 0.19354632E-02 0.27467777E+03</pdfrwt>
<totfact> 0.11078943E+04</totfact>
</mgrwt>
</event>
<event>
 5    1  0.1132878E+001  0.2751331E+03  0.7818608E-02  0.1098377E+00
         -2   -1    0    0    0  501 -0.00000000000E+00  0.00000000000E+00  0.40205116772E+02  0.40205116772E+02  0.00000000000E+00 0. -1.
          2   -1    0    0  501    0  0.00000000000E+00 -0.00000000000E+00 -0.47070013125E+03  0.47070013125E+03  0.00000000000E+00 0. -1.
         35    2    1    2    0    0  0.00000000000E+00  0.00000000000E+00 -0.43049501448E+03  0.51090524802E+03  0.27513308592E+03 0.  0.
         25    1    3    3    0    0 -0.10722634204E+02 -0.38643467554E+02 -0.31552668396E+03  0.33994908554E+03  0.12000000000E+03 0.  0.
         25    1    3    3    0    0  0.10722634204E+02  0.38643467554E+02 -0.11496833052E+03  0.17095616249E+03  0.12000000000E+03 0.  0.
<mgrwt>
<rscale>  0 0.27513309E+03</rscale>
<asrwt>0</asrwt>
<pdfrwt beam="1">  1        2 0.72415397E-01 0.27513309E+03</pdfrwt>
<pdfrwt beam="2">  1       -2 0.61854032E-02 0.27513309E+03</pdfrwt>
<totfact> 0.93529799E+03</totfact>
</mgrwt>
</event>
<event>
 5    1  0.1132878E+001  0.2740772E+03  0.7818608E-02  0.1098969E+00
         -1   -1    0    0    0  501 -0.00000000000E+00  0.00000000000E+00  0.92481770307E+03  0.92481770307E+03  0.00000000000E+00 0.  1.
          1   -1    0    0  501    0  0.00000000000E+00 -0.00000000000E+00 -0.20306241797E+02  0.20306241797E+02  0.00000000000E+00 0.  1.
         35    2    1    2    0    0  0.00000000000E+00  0.00000000000E+00  0.90451146127E+03  0.94512394487E+03  0.27407715627E+03 0.  0.
         25    1    3    3    0    0 -0.40439121928E+02 -0.38685413308E+02  0.33044965670E+03  0.35598997092E+03  0.12000000000E+03 0.  0.
         25    1    3    3    0    0  0.40439121928E+02  0.38685413308E+02  0.57406180457E+03  0.58913397394E+03  0.12000000000E+03 0.  0.
<mgrwt>
<rscale>  0 0.27407716E+03</rscale>
<asrwt>0</asrwt>
<pdfrwt beam="1">  1        1 0.31240379E-02 0.27407716E+03</pdfrwt>
<pdfrwt beam="2">  1       -1 0.14227961E+00 0.27407716E+03</pdfrwt>
<totfact> 0.13956420E+03</totfact>
</mgrwt>
</event>
<event>
 5    1  0.1132878E+001  0.2750538E+03  0.7818608E-02  0.1098422E+00
          1   -1    0    0  501    0  0.00000000000E+00  0.00000000000E+00  0.14197953596E+04  0.14197953596E+04  0.00000000000E+00 0.  1.
         -1   -1    0    0    0  501 -0.00000000000E+00 -0.00000000000E+00 -0.13321388098E+02  0.13321388098E+02  0.00000000000E+00 0.  1.
         35    2    1    2    0    0  0.00000000000E+00  0.00000000000E+00  0.14064739715E+04  0.14331167477E+04  0.27505377659E+03 0.  0.
         25    1    3    3    0    0  0.54116105583E+02  0.20456134481E+02  0.52527299124E+03  0.54190287104E+03  0.12000000000E+03 0.  0.
         25    1    3    3    0    0 -0.54116105583E+02 -0.20456134481E+02  0.88120098025E+03  0.89121387664E+03  0.12000000000E+03 0.  0.
<mgrwt>
<rscale>  0 0.27505378E+03</rscale>
<asrwt>0</asrwt>
<pdfrwt beam="1">  1        1 0.21842994E+00 0.27505378E+03</pdfrwt>
<pdfrwt beam="2">  1       -1 0.20494454E-02 0.27505378E+03</pdfrwt>
<totfact> 0.53551838E+03</totfact>
</mgrwt>
</event>
<event>
 5    1  0.1132878E+001  0.2747863E+03  0.7818608E-02  0.1098571E+00
          2   -1    0    0  501    0  0.00000000000E+00  0.00000000000E+00  0.40381551819E+03  0.40381551819E+03  0.00000000000E+00 0. -1.
         -2   -1    0    0    0  501 -0.00000000000E+00 -0.00000000000E+00 -0.46746298661E+02  0.46746298661E+02  0.00000000000E+00 0. -1.
         35    2    1    2    0    0  0.00000000000E+00  0.00000000000E+00  0.35706921953E+03  0.45056181685E+03  0.27478632293E+03 0.  0.
         25    1    3    3    0    0 -0.35488650778E+02 -0.28798737970E+02  0.98406901221E+02  0.16177988086E+03  0.12000000000E+03 0.  0.
         25    1    3    3    0    0  0.35488650778E+02  0.28798737970E+02  0.25866231831E+03  0.28878193599E+03  0.12000000000E+03 0.  0.
<mgrwt>
<rscale>  0 0.27478632E+03</rscale>
<asrwt>0</asrwt>
<pdfrwt beam="1">  1        2 0.62125462E-01 0.27478632E+03</pdfrwt>
<pdfrwt beam="2">  1       -2 0.71917385E-02 0.27478632E+03</pdfrwt>
<totfact> 0.87674829E+03</totfact>
</mgrwt>
</event>
<event>
 5    1  0.1132878E+001  0.2753600E+03  0.7818608E-02  0.1098251E+00
          1   -1    0    0  501    0  0.00000000000E+00  0.00000000000E+00  0.33596814298E+03  0.33596814298E+03  0.00000000000E+00 0. -1.
         -1   -1    0    0    0  501 -0.00000000000E+00 -0.00000000000E+00 -0.56421373409E+02  0.56421373409E+02  0.00000000000E+00 0. -1.
         35    2    1    2    0    0  0.00000000000E+00  0.00000000000E+00  0.27954676957E+03  0.39238951639E+03  0.27536001197E+03 0.  0.
         25    1    3    3    0    0  0.21548779670E+02 -0.60070378490E+02  0.10845619437E+03  0.17388371509E+03  0.12000000000E+03 0.  0.
         25    1    3    3    0    0 -0.21548779670E+02  0.60070378490E+02  0.17109057520E+03  0.21850580129E+03  0.12000000000E+03 0.  0.
<mgrwt>
<rscale>  0 0.27536001E+03</rscale>
<asrwt>0</asrwt>
<pdfrwt beam="1">  1        1 0.51687406E-01 0.27536001E+03</pdfrwt>
<pdfrwt beam="2">  1       -1 0.86802115E-02 0.27536001E+03</pdfrwt>
<totfact> 0.57218378E+03</totfact>
</mgrwt>
</event>
<event>
 5    1  0.1132878E+001  0.2755797E+03  0.7818608E-02  0.1098128E+00
          2   -1    0    0  501    0  0.00000000000E+00  0.00000000000E+00  0.23517119681E+03  0.23517119681E+03  0.00000000000E+00 0. -1.
         -2   -1    0    0    0  501 -0.00000000000E+00 -0.00000000000E+00 -0.80732872963E+02  0.80732872963E+02  0.00000000000E+00 0. -1.
         35    2    1    2    0    0  0.00000000000E+00  0.00000000000E+00  0.15443832385E+03  0.31590406977E+03  0.27557972608E+03 0.  0.
         25    1    3    3    0    0  0.10132812615E+02  0.60794060093E+02  0.10938691695E+03  0.17367811962E+03  0.12000000000E+03 0.  0.
         25    1    3    3    0    0 -0.10132812615E+02 -0.60794060093E+02  0.45051406895E+02  0.14222595015E+03  0.12000000000E+03 0.  0.
<mgrwt>
<rscale>  0 0.27557973E+03</rscale>
<asrwt>0</asrwt>
<pdfrwt beam="1">  1        2 0.36180184E-01 0.27557973E+03</pdfrwt>
<pdfrwt beam="2">  1       -2 0.12420442E-01 0.27557973E+03</pdfrwt>
<totfact> 0.66157113E+03</totfact>
</mgrwt>
</event>
<event>
 5    1  0.1132878E+001  0.2752695E+03  0.7818608E-02  0.1098301E+00
          1   -1    0    0  501    0  0.00000000000E+00  0.00000000000E+00  0.13136509733E+04  0.13136509733E+04  0.00000000000E+00 0. -1.
         -1   -1    0    0    0  501 -0.00000000000E+00 -0.00000000000E+00 -0.14420367535E+02  0.14420367535E+02  0.00000000000E+00 0. -1.
         35    2    1    2    0    0  0.00000000000E+00  0.00000000000E+00  0.12992306057E+04  0.13280713408E+04  0.27526953952E+03 0.  0.
         25    1    3    3    0    0  0.24615320432E+02  0.54455900831E+02  0.80002984907E+03  0.81118377605E+03  0.12000000000E+03 0.  0.
         25    1    3    3    0    0 -0.24615320432E+02 -0.54455900831E+02  0.49920075666E+03  0.51688756475E+03  0.12000000000E+03 0.  0.
<mgrwt>
<rscale>  0 0.27526954E+03</rscale>
<asrwt>0</asrwt>
<pdfrwt beam="1">  1        1 0.20210005E+00 0.27526954E+03</pdfrwt>
<pdfrwt beam="2">  1       -1 0.22185191E-02 0.27526954E+03</pdfrwt>
<totfact> 0.56243476E+03</totfact>
</mgrwt>
</event>
<event>
 5    1  0.1132878E+001  0.2752536E+03  0.7818608E-02  0.1098310E+00
         -1   -1    0    0    0  501 -0.00000000000E+00  0.00000000000E+00  0.58700927835E+02  0.58700927835E+02  0.00000000000E+00 0. -1.
          1   -1    0    0  501    0  0.00000000000E+00 -0.00000000000E+00 -0.32267180840E+03  0.32267180840E+03  0.00000000000E+00 0. -1.
         35    2    1    2    0    0  0.00000000000E+00  0.00000000000E+00 -0.26397088057E+03  0.38137273624E+03  0.27525358882E+03 0.  0.
         25    1    3    3    0    0 -0.45505928311E+02 -0.26909751969E+02 -0.18988362168E+03  0.23076116234E+03  0.12000000000E+03 0.  0.
         25    1    3    3    0    0  0.45505928311E+02  0.26909751969E+02 -0.74087258888E+02  0.15061157390E+03  0.12000000000E+03 0.  0.
<mgrwt>
<rscale>  0 0.27525359E+03</rscale>
<asrwt>0</asrwt>
<pdfrwt beam="1">  1        1 0.49641817E-01 0.27525359E+03</pdfrwt>
<pdfrwt beam="2">  1       -1 0.90309119E-02 0.27525359E+03</pdfrwt>
<totfact> 0.56659567E+03</totfact>
</mgrwt>
</event>
<event>
 5    1  0.1132878E+001  0.2753020E+03  0.7818608E-02  0.1098283E+00
         -2   -1    0    0    0  501 -0.00000000000E+00  0.00000000000E+00  0.79054612544E+01  0.79054612544E+01  0.00000000000E+00 0.  1.
          2   -1    0    0  501    0  0.00000000000E+00 -0.00000000000E+00 -0.23967991088E+04  0.23967991088E+04  0.00000000000E+00 0.  1.
         35    2    1    2    0    0  0.00000000000E+00  0.00000000000E+00 -0.23888936476E+04  0.24047045701E+04  0.27530203406E+03 0.  0.
         25    1    3    3    0    0 -0.31594746189E+01  0.12850267541E+02 -0.17720461722E+04  0.17761539201E+04  0.12000000000E+03 0.  0.
         25    1    3    3    0    0  0.31594746189E+01 -0.12850267541E+02 -0.61684747538E+03  0.62855064994E+03  0.12000000000E+03 0.  0.
<mgrwt>
<rscale>  0 0.27530203E+03</rscale>
<asrwt>0</asrwt>
<pdfrwt beam="1">  1        2 0.36873795E+00 0.27530203E+03</pdfrwt>
<pdfrwt beam="2">  1       -2 0.12162261E-02 0.27530203E+03</pdfrwt>
<totfact> 0.73189166E+03</totfact>
</mgrwt>
</event>
<event>
 5    1  0.1132878E+001  0.2738202E+03  0.7818608E-02  0.1099113E+00
          2   -1    0    0  501    0  0.00000000000E+00  0.00000000000E+00  0.75411777032E+03  0.75411777032E+03  0.00000000000E+00 0.  1.
         -2   -1    0    0    0  501 -0.00000000000E+00 -0.00000000000E+00 -0.24856033965E+02  0.24856033965E+02  0.00000000000E+00 0.  1.
         35    2    1    2    0    0  0.00000000000E+00  0.00000000000E+00  0.72926173635E+03  0.77897380428E+03  0.27382021045E+03 0.  0.
         25    1    3    3    0    0  0.16072246022E+02  0.46276595418E+02  0.23918238711E+03  0.27204421456E+03  0.12000000000E+03 0.  0.
         25    1    3    3    0    0 -0.16072246022E+02 -0.46276595418E+02  0.49007934925E+03  0.50692958972E+03  0.12000000000E+03 0.  0.
<mgrwt>
<rscale>  0 0.27382021E+03</rscale>
<asrwt>0</asrwt>
<pdfrwt beam="1">  1        2 0.11601810E+00 0.27382021E+03</pdfrwt>
<pdfrwt beam="2">  1       -2 0.38240058E-02 0.27382021E+03</pdfrwt>
<totfact> 0.11205195E+04</totfact>
</mgrwt>
</event>
<event>
 5    1  0.1132878E+001  0.2748604E+03  0.7818608E-02  0.1098530E+00
          2   -1    0    0  501    0  0.00000000000E+00  0.00000000000E+00  0.15397295900E+02  0.15397295900E+02  0.00000000000E+00 0.  1.
         -2   -1    0    0    0  501 -0.00000000000E+00 -0.00000000000E+00 -0.12266479690E+04  0.12266479690E+04  0.00000000000E+00 0.  1.
         35    2    1    2    0    0  0.00000000000E+00  0.00000000000E+00 -0.12112506731E+04  0.12420452649E+04  0.27486041362E+03 0.  0.
         25    1    3    3    0    0 -0.46327599071E+02  0.44665575144E+02 -0.52159447947E+03  0.53907519053E+03  0.12000000000E+03 0.  0.
         25    1    3    3    0    0  0.46327599071E+02 -0.44665575144E+02 -0.68965619368E+03  0.70297007441E+03  0.12000000000E+03 0.  0.
<mgrwt>
<rscale>  0 0.27486041E+03</rscale>
<asrwt>0</asrwt>
<pdfrwt beam="1">  1        2 0.23688154E-02 0.27486041E+03</pdfrwt>
<pdfrwt beam="2">  1       -2 0.18871502E+00 0.27486041E+03</pdfrwt>
<totfact> 0.73867766E+02</totfact>
</mgrwt>
</event>
<event>
 5    1  0.1132878E+001  0.2612513E+03  0.7818608E-02  0.1106394E+00
          3   -1    0    0  501    0  0.00000000000E+00  0.00000000000E+00  0.66107034431E+03  0.66107034431E+03  0.00000000000E+00 0.  1.
         -3   -1    0    0    0  501 -0.00000000000E+00 -0.00000000000E+00 -0.25811263726E+02  0.25811263726E+02  0.00000000000E+00 0.  1.
         35    2    1    2    0    0  0.00000000000E+00  0.00000000000E+00  0.63525908058E+03  0.68688160803E+03  0.26125130429E+03 0.  0.
         25    1    3    3    0    0  0.45299215264E+02  0.20049067998E+02  0.27961265639E+03  0.30828107571E+03  0.12000000000E+03 0.  0.
         25    1    3    3    0    0 -0.45299215264E+02 -0.20049067998E+02  0.35564642419E+03  0.37860053232E+03  0.12000000000E+03 0.  0.
<mgrwt>
<rscale>  0 0.26125130E+03</rscale>
<asrwt>0</asrwt>
<pdfrwt beam="1">  1        3 0.10170312E+00 0.26125130E+03</pdfrwt>
<pdfrwt beam="2">  1       -3 0.39709642E-02 0.26125130E+03</pdfrwt>
<totfact> 0.72355007E+02</totfact>
</mgrwt>
</event>
<event>
 5    1  0.1132878E+001  0.2743496E+03  0.7818608E-02  0.1098816E+00
         -1   -1    0    0    0  501 -0.00000000000E+00  0.00000000000E+00  0.44648245167E+03  0.44648245167E+03  0.00000000000E+00 0.  1.
          1   -1    0    0  501    0  0.00000000000E+00 -0.00000000000E+00 -0.42144822145E+02  0.42144822145E+02  0.00000000000E+00 0.  1.
         35    2    1    2    0    0  0.00000000000E+00  0.00000000000E+00  0.40433762952E+03  0.48862727381E+03  0.27434958368E+03 0.  0.
         25    1    3    3    0    0  0.10592071793E+02 -0.65488234579E+02  0.20929801402E+03  0.25021302829E+03  0.12000000000E+03 0.  0.
         25    1    3    3    0    0 -0.10592071793E+02  0.65488234579E+02  0.19503961551E+03  0.23841424553E+03  0.12000000000E+03 0.  0.
<mgrwt>
<rscale>  0 0.27434958E+03</rscale>
<asrwt>0</asrwt>
<pdfrwt beam="1">  1        1 0.64838191E-02 0.27434958E+03</pdfrwt>
<pdfrwt beam="2">  1       -1 0.68689605E-01 0.27434958E+03</pdfrwt>
<totfact> 0.25782647E+03</totfact>
</mgrwt>
</event>
<event>
 5    1  0.1132878E+001  0.2739088E+03  0.7818608E-02  0.1099063E+00
          1   -1    0    0  501    0  0.00000000000E+00  0.00000000000E+00  0.10302584433E+04  0.10302584433E+04  0.00000000000E+00 0.  1.
         -1   -1    0    0    0  501 -0.00000000000E+00 -0.00000000000E+00 -0.18205636440E+02  0.18205636440E+02  0.00000000000E+00 0.  1.
         35    2    1    2    0    0  0.00000000000E+00  0.00000000000E+00  0.10120528069E+04  0.10484640797E+04  0.27390882175E+03 0.  0.
         25    1    3    3    0    0  0.65459952150E+00 -0.13814136599E+02  0.75306690826E+03  0.76269327202E+03  0.12000000000E+03 0.  0.
         25    1    3    3    0    0 -0.65459952150E+00  0.13814136599E+02  0.25898589860E+03  0.28577080772E+03  0.12000000000E+03 0.  0.
<mgrwt>
<rscale>  0 0.27390882E+03</rscale>
<asrwt>0</asrwt>
<pdfrwt beam="1">  1        1 0.15850125E+00 0.27390882E+03</pdfrwt>
<pdfrwt beam="2">  1       -1 0.28008680E-02 0.27390882E+03</pdfrwt>
<totfact> 0.63336249E+03</totfact>
</mgrwt>
</event>
<event>
 5    1  0.1132878E+001  0.2752159E+03  0.7818608E-02  0.1098331E+00
          3   -1    0    0  501    0  0.00000000000E+00  0.00000000000E+00  0.16146949219E+03  0.16146949219E+03  0.00000000000E+00 0. -1.
         -3   -1    0    0    0  501 -0.00000000000E+00 -0.00000000000E+00 -0.11727264011E+03  0.11727264011E+03  0.00000000000E+00 0. -1.
         35    2    1    2    0    0  0.00000000000E+00  0.00000000000E+00  0.44196852080E+02  0.27874213229E+03  0.27521594173E+03 0.  0.
         25    1    3    3    0    0  0.45690164138E+02 -0.23629314441E+01  0.72156153483E+02  0.14730812954E+03  0.12000000000E+03 0.  0.
         25    1    3    3    0    0 -0.45690164138E+02  0.23629314441E+01 -0.27959301403E+02  0.13143400275E+03  0.12000000000E+03 0.  0.
<mgrwt>
<rscale>  0 0.27521594E+03</rscale>
<asrwt>0</asrwt>
<pdfrwt beam="1">  1        3 0.24841460E-01 0.27521594E+03</pdfrwt>
<pdfrwt beam="2">  1       -3 0.18041945E-01 0.27521594E+03</pdfrwt>
<totfact> 0.10407235E+03</totfact>
</mgrwt>
</event>
<event>
 5    1  0.1132878E+001  0.2744911E+03  0.7818608E-02  0.1098736E+00
          2   -1    0    0  501    0  0.00000000000E+00  0.00000000000E+00  0.49352085993E+03  0.49352085993E+03  0.00000000000E+00 0.  1.
         -2   -1    0    0    0  501 -0.00000000000E+00 -0.00000000000E+00 -0.38167276488E+02  0.38167276488E+02  0.00000000000E+00 0.  1.
         35    2    1    2    0    0  0.00000000000E+00  0.00000000000E+00  0.45535358344E+03  0.53168813642E+03  0.27449114458E+03 0.  0.
         25    1    3    3    0    0 -0.42035331106E+02 -0.18591034655E+02  0.13430332748E+03  0.18587624755E+03  0.12000000000E+03 0.  0.
         25    1    3    3    0    0  0.42035331106E+02  0.18591034655E+02  0.32105025596E+03  0.34581188887E+03  0.12000000000E+03 0.  0.
<mgrwt>
<rscale>  0 0.27449114E+03</rscale>
<asrwt>0</asrwt>
<pdfrwt beam="1">  1        2 0.75926281E-01 0.27449114E+03</pdfrwt>
<pdfrwt beam="2">  1       -2 0.58718891E-02 0.27449114E+03</pdfrwt>
<totfact> 0.96097004E+03</totfact>
</mgrwt>
</event>
<event>
 5    1  0.1132878E+001  0.2746812E+03  0.7818608E-02  0.1098630E+00
         -4   -1    0    0    0  501 -0.00000000000E+00  0.00000000000E+00  0.82297319202E+03  0.82297319202E+03  0.00000000000E+00 0.  1.
          4   -1    0    0  501    0  0.00000000000E+00 -0.00000000000E+00 -0.22919869998E+02  0.22919869998E+02  0.00000000000E+00 0.  1.
         35    2    1    2    0    0  0.00000000000E+00  0.00000000000E+00  0.80005332202E+03  0.84589306201E+03  0.27468118663E+03 0.  0.
         25    1    3    3    0    0  0.64592450237E+02  0.16797447131E+02  0.40879104532E+03  0.43123596509E+03  0.12000000000E+03 0.  0.
         25    1    3    3    0    0 -0.64592450237E+02 -0.16797447131E+02  0.39126227670E+03  0.41465709692E+03  0.12000000000E+03 0.  0.
<mgrwt>
<rscale>  0 0.27468119E+03</rscale>
<asrwt>0</asrwt>
<pdfrwt beam="1">  1        4 0.35261345E-02 0.27468119E+03</pdfrwt>
<pdfrwt beam="2">  1       -4 0.12661124E+00 0.27468119E+03</pdfrwt>
<totfact> 0.37931543E+02</totfact>
</mgrwt>
</event>
<event>
 5    1  0.1132878E+001  0.2738106E+03  0.7818608E-02  0.1099118E+00
         -4   -1    0    0    0  501 -0.00000000000E+00  0.00000000000E+00  0.41207384726E+02  0.41207384726E+02  0.00000000000E+00 0. -1.
          4   -1    0    0  501    0  0.00000000000E+00 -0.00000000000E+00 -0.45484724655E+03  0.45484724655E+03  0.00000000000E+00 0. -1.
         35    2    1    2    0    0  0.00000000000E+00  0.00000000000E+00 -0.41363986182E+03  0.49605463127E+03  0.27381063149E+03 0.  0.
         25    1    3    3    0    0 -0.64942300356E+02  0.56243860954E+01 -0.22437812891E+03  0.26266838566E+03  0.12000000000E+03 0.  0.
         25    1    3    3    0    0  0.64942300356E+02 -0.56243860954E+01 -0.18926173292E+03  0.23338624561E+03  0.12000000000E+03 0.  0.
<mgrwt>
<rscale>  0 0.27381063E+03</rscale>
<asrwt>0</asrwt>
<pdfrwt beam="1">  1        4 0.69976500E-01 0.27381063E+03</pdfrwt>
<pdfrwt beam="2">  1       -4 0.63395976E-02 0.27381063E+03</pdfrwt>
<totfact> 0.57944098E+02</totfact>
</mgrwt>
</event>
<event>
 5    1  0.1132878E+001  0.2754177E+03  0.7818608E-02  0.1098218E+00
         -1   -1    0    0    0  501 -0.00000000000E+00  0.00000000000E+00  0.15906106741E+02  0.15906106741E+02  0.00000000000E+00 0. -1.
          1   -1    0    0  501    0  0.00000000000E+00 -0.00000000000E+00 -0.11922290543E+04  0.11922290543E+04  0.00000000000E+00 0. -1.
         35    2    1    2    0    0  0.00000000000E+00  0.00000000000E+00 -0.11763229475E+04  0.12081351610E+04  0.27541766535E+03 0.  0.
         25    1    3    3    0    0  0.46049941489E+02 -0.30432580716E+02 -0.41731179667E+03  0.43771666032E+03  0.12000000000E+03 0.  0.
         25    1    3    3    0    0 -0.46049941489E+02  0.30432580716E+02 -0.75901115087E+03  0.77041850071E+03  0.12000000000E+03 0.  0.
<mgrwt>
<rscale>  0 0.27541767E+03</rscale>
<asrwt>0</asrwt>
<pdfrwt beam="1">  1        1 0.18341986E+00 0.27541767E+03</pdfrwt>
<pdfrwt beam="2">  1       -1 0.24470932E-02 0.27541767E+03</pdfrwt>
<totfact> 0.59088956E+03</totfact>
</mgrwt>
</event>
<event>
 5    1  0.1132878E+001  0.2741843E+03  0.7818608E-02  0.1098908E+00
         -1   -1    0    0    0  501 -0.00000000000E+00  0.00000000000E+00  0.12871165825E+02  0.12871165825E+02  0.00000000000E+00 0.  1.
          1   -1    0    0  501    0  0.00000000000E+00 -0.00000000000E+00 -0.14601834106E+04  0.14601834106E+04  0.00000000000E+00 0.  1.
         35    2    1    2    0    0  0.00000000000E+00  0.00000000000E+00 -0.14473122448E+04  0.14730545765E+04  0.27418433809E+03 0.  0.
         25    1    3    3    0    0  0.63355379834E+02  0.12413871767E+02 -0.64284432690E+03  0.65712771741E+03  0.12000000000E+03 0.  0.
         25    1    3    3    0    0 -0.63355379834E+02 -0.12413871767E+02 -0.80446791792E+03  0.81592685906E+03  0.12000000000E+03 0.  0.
<mgrwt>
<rscale>  0 0.27418434E+03</rscale>
<asrwt>0</asrwt>
<pdfrwt beam="1">  1        1 0.22464367E+00 0.27418434E+03</pdfrwt>
<pdfrwt beam="2">  1       -1 0.19801787E-02 0.27418434E+03</pdfrwt>
<totfact> 0.52920393E+03</totfact>
</mgrwt>
</event>
<event>
 5    1  0.1132878E+001  0.2744987E+03  0.7818608E-02  0.1098732E+00
         -2   -1    0    0    0  501 -0.00000000000E+00  0.00000000000E+00  0.25160224565E+02  0.25160224565E+02  0.00000000000E+00 0.  1.
          2   -1    0    0  501    0  0.00000000000E+00 -0.00000000000E+00 -0.74869712511E+03  0.74869712511E+03  0.00000000000E+00 0.  1.
         35    2    1    2    0    0  0.00000000000E+00  0.00000000000E+00 -0.72353690055E+03  0.77385734968E+03  0.27449872713E+03 0.  0.
         25    1    3    3    0    0 -0.57785243717E+02  0.24012140511E+02 -0.42615849434E+03  0.44713172509E+03  0.12000000000E+03 0.  0.
         25    1    3    3    0    0  0.57785243717E+02 -0.24012140511E+02 -0.29737840621E+03  0.32672562459E+03  0.12000000000E+03 0.  0.
<mgrwt>
<rscale>  0 0.27449873E+03</rscale>
<asrwt>0</asrwt>
<pdfrwt beam="1">  1        2 0.11518416E+00 0.27449873E+03</pdfrwt>
<pdfrwt beam="2">  1       -2 0.38708041E-02 0.27449873E+03</pdfrwt>
<totfact> 0.11102457E+04</totfact>
</mgrwt>
</event>
<event>
 5    1  0.1132878E+001  0.2724787E+03  0.7818608E-02  0.1099869E+00
         -2   -1    0    0    0  501 -0.00000000000E+00  0.00000000000E+00  0.72549981861E+02  0.72549981861E+02  0.00000000000E+00 0. -1.
          2   -1    0    0  501    0  0.00000000000E+00 -0.00000000000E+00 -0.25583965923E+03  0.25583965923E+03  0.00000000000E+00 0. -1.
         35    2    1    2    0    0  0.00000000000E+00  0.00000000000E+00 -0.18328967737E+03  0.32838964109E+03  0.27247871577E+03 0.  0.
         25    1    3    3    0    0 -0.32350605369E+02  0.22018421483E+02 -0.29840721537E+02  0.12969904091E+03  0.12000000000E+03 0.  0.
         25    1    3    3    0    0  0.32350605369E+02 -0.22018421483E+02 -0.15344895583E+03  0.19869060018E+03  0.12000000000E+03 0.  0.
<mgrwt>
<rscale>  0 0.27247872E+03</rscale>
<asrwt>0</asrwt>
<pdfrwt beam="1">  1        2 0.39359948E-01 0.27247872E+03</pdfrwt>
<pdfrwt beam="2">  1       -2 0.11161536E-01 0.27247872E+03</pdfrwt>
<totfact> 0.71718192E+03</totfact>
</mgrwt>
</event>
<event>
 5    1  0.1132878E+001  0.2749794E+03  0.7818608E-02  0.1098463E+00
         -2   -1    0    0    0  501 -0.00000000000E+00  0.00000000000E+00  0.54511462553E+02  0.54511462553E+02  0.00000000000E+00 0.  1.
          2   -1    0    0  501    0  0.00000000000E+00 -0.00000000000E+00 -0.34677881453E+03  0.34677881453E+03  0.00000000000E+00 0.  1.
         35    2    1    2    0    0  0.00000000000E+00  0.00000000000E+00 -0.29226735198E+03  0.40129027708E+03  0.27497942005E+03 0.  0.
         25    1    3    3    0    0 -0.47714254888E+01 -0.46528046858E+01 -0.48684664415E+02  0.12967116735E+03  0.12000000000E+03 0.  0.
         25    1    3    3    0    0  0.47714254888E+01  0.46528046858E+01 -0.24358268756E+03  0.27161910973E+03  0.12000000000E+03 0.  0.
<mgrwt>
<rscale>  0 0.27497942E+03</rscale>
<asrwt>0</asrwt>
<pdfrwt beam="1">  1        2 0.53350585E-01 0.27497942E+03</pdfrwt>
<pdfrwt beam="2">  1       -2 0.83863791E-02 0.27497942E+03</pdfrwt>
<totfact> 0.81362395E+03</totfact>
</mgrwt>
</event>
<event>
 5    1  0.1132878E+001  0.2752968E+03  0.7818608E-02  0.1098286E+00
         -2   -1    0    0    0  501 -0.00000000000E+00  0.00000000000E+00  0.59871884097E+02  0.59871884097E+02  0.00000000000E+00 0. -1.
          2   -1    0    0  501    0  0.00000000000E+00 -0.00000000000E+00 -0.31646050108E+03  0.31646050108E+03  0.00000000000E+00 0. -1.
         35    2    1    2    0    0  0.00000000000E+00  0.00000000000E+00 -0.25658861698E+03  0.37633238517E+03  0.27529683210E+03 0.  0.
         25    1    3    3    0    0  0.38482548323E+02 -0.47714592424E+02 -0.89884178021E+02  0.16197763523E+03  0.12000000000E+03 0.  0.
         25    1    3    3    0    0 -0.38482548323E+02  0.47714592424E+02 -0.16670443896E+03  0.21435474995E+03  0.12000000000E+03 0.  0.
<mgrwt>
<rscale>  0 0.27529683E+03</rscale>
<asrwt>0</asrwt>
<pdfrwt beam="1">  1        2 0.48686230E-01 0.27529683E+03</pdfrwt>
<pdfrwt beam="2">  1       -2 0.92110593E-02 0.27529683E+03</pdfrwt>
<totfact> 0.77475623E+03</totfact>
</mgrwt>
</event>
<event>
 5    1  0.1132878E+001  0.2755021E+03  0.7818608E-02  0.1098171E+00
         -1   -1    0    0    0  501 -0.00000000000E+00  0.00000000000E+00  0.16458771252E+03  0.16458771252E+03  0.00000000000E+00 0. -1.
          1   -1    0    0  501    0  0.00000000000E+00 -0.00000000000E+00 -0.11529019976E+03  0.11529019976E+03  0.00000000000E+00 0. -1.
         35    2    1    2    0    0  0.00000000000E+00  0.00000000000E+00  0.49297512763E+02  0.27987791229E+03  0.27550208896E+03 0.  0.
         25    1    3    3    0    0  0.38552471867E+00  0.64216061506E+02  0.46234755740E+02  0.14374109998E+03  0.12000000000E+03 0.  0.
         25    1    3    3    0    0 -0.38552471867E+00 -0.64216061506E+02  0.30627570240E+01  0.13613681231E+03  0.12000000000E+03 0.  0.
<mgrwt>
<rscale>  0 0.27550209E+03</rscale>
<asrwt>0</asrwt>
<pdfrwt beam="1">  1        1 0.17736954E-01 0.27550209E+03</pdfrwt>
<pdfrwt beam="2">  1       -1 0.25321187E-01 0.27550209E+03</pdfrwt>
<totfact> 0.40479851E+03</totfact>
</mgrwt>
</event>
<event>
 5    1  0.1132878E+001  0.2752507E+03  0.7818608E-02  0.1098312E+00
          1   -1    0    0  501    0  0.00000000000E+00  0.00000000000E+00  0.12766541946E+03  0.12766541946E+03  0.00000000000E+00 0. -1.
         -1   -1    0    0    0  501 -0.00000000000E+00 -0.00000000000E+00 -0.14836233981E+03  0.14836233981E+03  0.00000000000E+00 0. -1.
         35    2    1    2    0    0  0.00000000000E+00  0.00000000000E+00 -0.20696920353E+02  0.27602775927E+03  0.27525072457E+03 0.  0.
         25    1    3    3    0    0 -0.31010166466E+02  0.25208909118E+02  0.44059848049E+02  0.13393427393E+03  0.12000000000E+03 0.  0.
         25    1    3    3    0    0  0.31010166466E+02 -0.25208909118E+02 -0.64756768402E+02  0.14209348534E+03  0.12000000000E+03 0.  0.
<mgrwt>
<rscale>  0 0.27525072E+03</rscale>
<asrwt>0</asrwt>
<pdfrwt beam="1">  1        1 0.19640834E-01 0.27525072E+03</pdfrwt>
<pdfrwt beam="2">  1       -1 0.22824975E-01 0.27525072E+03</pdfrwt>
<totfact> 0.42127877E+03</totfact>
</mgrwt>
</event>
<event>
 5    1  0.1132878E+001  0.2745691E+03  0.7818608E-02  0.1098693E+00
          1   -1    0    0  501    0  0.00000000000E+00  0.00000000000E+00  0.67783226274E+03  0.67783226274E+03  0.00000000000E+00 0. -1.
         -1   -1    0    0    0  501 -0.00000000000E+00 -0.00000000000E+00 -0.27804875534E+02  0.27804875534E+02  0.00000000000E+00 0. -1.
         35    2    1    2    0    0  0.00000000000E+00  0.00000000000E+00  0.65002738721E+03  0.70563713828E+03  0.27456905651E+03 0.  0.
         25    1    3    3    0    0 -0.46863539475E+02 -0.20763555689E+02  0.43464453164E+03  0.45380963571E+03  0.12000000000E+03 0.  0.
         25    1    3    3    0    0  0.46863539475E+02  0.20763555689E+02  0.21538285557E+03  0.25182750257E+03  0.12000000000E+03 0.  0.
<mgrwt>
<rscale>  0 0.27456906E+03</rscale>
<asrwt>0</asrwt>
<pdfrwt beam="1">  1        1 0.10428187E+00 0.27456906E+03</pdfrwt>
<pdfrwt beam="2">  1       -1 0.42776737E-02 0.27456906E+03</pdfrwt>
<totfact> 0.65534558E+03</totfact>
</mgrwt>
</event>
<event>
 5    1  0.1132878E+001  0.2764244E+03  0.7818608E-02  0.1097658E+00
          2   -1    0    0  501    0  0.00000000000E+00  0.00000000000E+00  0.15663484935E+03  0.15663484935E+03  0.00000000000E+00 0. -1.
         -2   -1    0    0    0  501 -0.00000000000E+00 -0.00000000000E+00 -0.12195631928E+03  0.12195631928E+03  0.00000000000E+00 0. -1.
         35    2    1    2    0    0  0.00000000000E+00  0.00000000000E+00  0.34678530068E+02  0.27859116864E+03  0.27642438169E+03 0.  0.
         25    1    3    3    0    0 -0.34296689667E+02 -0.11464183255E+02 -0.41383395598E+02  0.13198589262E+03  0.12000000000E+03 0.  0.
         25    1    3    3    0    0  0.34296689667E+02  0.11464183255E+02  0.76061925666E+02  0.14660527602E+03  0.12000000000E+03 0.  0.
<mgrwt>
<rscale>  0 0.27642438E+03</rscale>
<asrwt>0</asrwt>
<pdfrwt beam="1">  1        2 0.24097669E-01 0.27642438E+03</pdfrwt>
<pdfrwt beam="2">  1       -2 0.18762511E-01 0.27642438E+03</pdfrwt>
<totfact> 0.52255625E+03</totfact>
</mgrwt>
</event>
<event>
 4    1  0.1132878E+001  0.2566845E+03  0.7818608E-02  0.1109152E+00
          2   -1    0    0  501    0  0.00000000000E+00  0.00000000000E+00  0.11524880178E+04  0.11524880178E+04  0.00000000000E+00 0. -1.
         -2   -1    0    0    0  501 -0.00000000000E+00 -0.00000000000E+00 -0.14292325067E+02  0.14292325067E+02  0.00000000000E+00 0. -1.
         25    1    1    2    0    0  0.23698286977E+02  0.89538903489E+01  0.74098770363E+03  0.75106894350E+03  0.12000000000E+03 0.  0.
         25    1    1    2    0    0 -0.23698286977E+02 -0.89538903489E+01  0.39720798912E+03  0.41571139938E+03  0.12000000000E+03 0.  0.
<mgrwt>
<rscale>  0 0.25668450E+03</rscale>
<asrwt>0</asrwt>
<pdfrwt beam="1">  1        2 0.17730578E+00 0.25668450E+03</pdfrwt>
<pdfrwt beam="2">  1       -2 0.21988202E-02 0.25668450E+03</pdfrwt>
<totfact> 0.14240152E+04</totfact>
</mgrwt>
</event>
<event>
 5    1  0.1132878E+001  0.2732799E+03  0.7818608E-02  0.1099417E+00
          2   -1    0    0  501    0  0.00000000000E+00  0.00000000000E+00  0.31414237379E+03  0.31414237379E+03  0.00000000000E+00 0.  1.
         -2   -1    0    0    0  501 -0.00000000000E+00 -0.00000000000E+00 -0.59433161418E+02  0.59433161418E+02  0.00000000000E+00 0.  1.
         35    2    1    2    0    0  0.00000000000E+00  0.00000000000E+00  0.25470921237E+03  0.37357553521E+03  0.27327988883E+03 0.  0.
         25    1    3    3    0    0 -0.46189021116E+02  0.24419876422E+02  0.73696865065E+02  0.15020314230E+03  0.12000000000E+03 0.  0.
         25    1    3    3    0    0  0.46189021116E+02 -0.24419876422E+02  0.18101234731E+03  0.22337239291E+03  0.12000000000E+03 0.  0.
<mgrwt>
<rscale>  0 0.27327989E+03</rscale>
<asrwt>0</asrwt>
<pdfrwt beam="1">  1        2 0.48329595E-01 0.27327989E+03</pdfrwt>
<pdfrwt beam="2">  1       -2 0.91435635E-02 0.27327989E+03</pdfrwt>
<totfact> 0.78980309E+03</totfact>
</mgrwt>
</event>
<event>
 5    1  0.1132878E+001  0.2769352E+03  0.7818608E-02  0.1097375E+00
         -2   -1    0    0    0  501 -0.00000000000E+00  0.00000000000E+00  0.80542047006E+02  0.80542047006E+02  0.00000000000E+00 0. -1.
          2   -1    0    0  501    0  0.00000000000E+00 -0.00000000000E+00 -0.23805308434E+03  0.23805308434E+03  0.00000000000E+00 0. -1.
         35    2    1    2    0    0  0.00000000000E+00  0.00000000000E+00 -0.15751103733E+03  0.31859513135E+03  0.27693524665E+03 0.  0.
         25    1    3    3    0    0  0.14697879465E+02 -0.40048504852E+02 -0.16235370253E+02  0.12838807440E+03  0.12000000000E+03 0.  0.
         25    1    3    3    0    0 -0.14697879465E+02  0.40048504852E+02 -0.14127566708E+03  0.19020705694E+03  0.12000000000E+03 0.  0.
<mgrwt>
<rscale>  0 0.27693525E+03</rscale>
<asrwt>0</asrwt>
<pdfrwt beam="1">  1        2 0.36623551E-01 0.27693525E+03</pdfrwt>
<pdfrwt beam="2">  1       -2 0.12391084E-01 0.27693525E+03</pdfrwt>
<totfact> 0.65552256E+03</totfact>
</mgrwt>
</event>
<event>
 5    1  0.1132878E+001  0.2754761E+03  0.7818608E-02  0.1098186E+00
         -1   -1    0    0    0  501 -0.00000000000E+00  0.00000000000E+00  0.19130375051E+02  0.19130375051E+02  0.00000000000E+00 0. -1.
          1   -1    0    0  501    0  0.00000000000E+00 -0.00000000000E+00 -0.99170923883E+03  0.99170923883E+03  0.00000000000E+00 0. -1.
         35    2    1    2    0    0  0.00000000000E+00  0.00000000000E+00 -0.97257886378E+03  0.10108396139E+04  0.27547609464E+03 0.  0.
         25    1    3    3    0    0  0.50133281563E+02  0.11381356279E+02 -0.64744744203E+03  0.66047791135E+03  0.12000000000E+03 0.  0.
         25    1    3    3    0    0 -0.50133281563E+02 -0.11381356279E+02 -0.32513142175E+03  0.35036170253E+03  0.12000000000E+03 0.  0.
<mgrwt>
<rscale>  0 0.27547609E+03</rscale>
<asrwt>0</asrwt>
<pdfrwt beam="1">  1        1 0.15257066E+00 0.27547609E+03</pdfrwt>
<pdfrwt beam="2">  1       -1 0.29431344E-02 0.27547609E+03</pdfrwt>
<totfact> 0.62909753E+03</totfact>
</mgrwt>
</event>
<event>
 5    1  0.1132878E+001  0.2726486E+03  0.7818608E-02  0.1099773E+00
          1   -1    0    0  501    0  0.00000000000E+00  0.00000000000E+00  0.23653172090E+02  0.23653172090E+02  0.00000000000E+00 0.  1.
         -1   -1    0    0    0  501 -0.00000000000E+00 -0.00000000000E+00 -0.78570069745E+03  0.78570069745E+03  0.00000000000E+00 0.  1.
         35    2    1    2    0    0  0.00000000000E+00  0.00000000000E+00 -0.76204752536E+03  0.80935386954E+03  0.27264859294E+03 0.  0.
         25    1    3    3    0    0  0.23752804394E+02  0.13215166432E+02 -0.55526858974E+03  0.56873723554E+03  0.12000000000E+03 0.  0.
         25    1    3    3    0    0 -0.23752804394E+02 -0.13215166432E+02 -0.20677893562E+03  0.24061663400E+03  0.12000000000E+03 0.  0.
<mgrwt>
<rscale>  0 0.27264859E+03</rscale>
<asrwt>0</asrwt>
<pdfrwt beam="1">  1        1 0.36389502E-02 0.27264859E+03</pdfrwt>
<pdfrwt beam="2">  1       -1 0.12087701E+00 0.27264859E+03</pdfrwt>
<totfact> 0.16861915E+03</totfact>
</mgrwt>
</event>
<event>
 5    1  0.1132878E+001  0.2749677E+03  0.7818608E-02  0.1098470E+00
          1   -1    0    0  501    0  0.00000000000E+00  0.00000000000E+00  0.58901193751E+03  0.58901193751E+03  0.00000000000E+00 0. -1.
         -1   -1    0    0    0  501 -0.00000000000E+00 -0.00000000000E+00 -0.32090716248E+02  0.32090716248E+02  0.00000000000E+00 0. -1.
         35    2    1    2    0    0  0.00000000000E+00  0.00000000000E+00  0.55692122126E+03  0.62110265375E+03  0.27496774322E+03 0.  0.
         25    1    3    3    0    0  0.16296281528E+02 -0.10817729478E+02  0.13348689105E+03  0.18055841754E+03  0.12000000000E+03 0.  0.
         25    1    3    3    0    0 -0.16296281528E+02  0.10817729478E+02  0.42343433020E+03  0.44054423621E+03  0.12000000000E+03 0.  0.
<mgrwt>
<rscale>  0 0.27496774E+03</rscale>
<asrwt>0</asrwt>
<pdfrwt beam="1">  1        1 0.90617213E-01 0.27496774E+03</pdfrwt>
<pdfrwt beam="2">  1       -1 0.49370337E-02 0.27496774E+03</pdfrwt>
<totfact> 0.64498471E+03</totfact>
</mgrwt>
</event>
<event>
 5    1  0.1132878E+001  0.2755104E+03  0.7818608E-02  0.1098167E+00
          2   -1    0    0  501    0  0.00000000000E+00  0.00000000000E+00  0.33698569418E+03  0.33698569418E+03  0.00000000000E+00 0. -1.
         -2   -1    0    0    0  501 -0.00000000000E+00 -0.00000000000E+00 -0.56312471034E+02  0.56312471034E+02  0.00000000000E+00 0. -1.
         35    2    1    2    0    0  0.00000000000E+00  0.00000000000E+00  0.28067322315E+03  0.39329816522E+03  0.27551041463E+03 0.  0.
         25    1    3    3    0    0 -0.23431776768E+02  0.59760054598E+02  0.10984682873E+03  0.17489036014E+03  0.12000000000E+03 0.  0.
         25    1    3    3    0    0  0.23431776768E+02 -0.59760054598E+02  0.17082639442E+03  0.21840780508E+03  0.12000000000E+03 0.  0.
<mgrwt>
<rscale>  0 0.27551041E+03</rscale>
<asrwt>0</asrwt>
<pdfrwt beam="1">  1        2 0.51843952E-01 0.27551041E+03</pdfrwt>
<pdfrwt beam="2">  1       -2 0.86634573E-02 0.27551041E+03</pdfrwt>
<totfact> 0.79747632E+03</totfact>
</mgrwt>
</event>
<event>
 5    1  0.1132878E+001  0.2753961E+03  0.7818608E-02  0.1098230E+00
          3   -1    0    0  501    0  0.00000000000E+00  0.00000000000E+00  0.24403060049E+03  0.24403060049E+03  0.00000000000E+00 0. -1.
         -3   -1    0    0    0  501 -0.00000000000E+00 -0.00000000000E+00 -0.77698267369E+02  0.77698267369E+02  0.00000000000E+00 0. -1.
         35    2    1    2    0    0  0.00000000000E+00  0.00000000000E+00  0.16633233312E+03  0.32172886786E+03  0.27539611357E+03 0.  0.
         25    1    3    3    0    0 -0.62235557483E+02  0.25798809582E+02  0.77697646837E+02  0.15803723458E+03  0.12000000000E+03 0.  0.
         25    1    3    3    0    0  0.62235557483E+02 -0.25798809582E+02  0.88634686282E+02  0.16369163327E+03  0.12000000000E+03 0.  0.
<mgrwt>
<rscale>  0 0.27539611E+03</rscale>
<asrwt>0</asrwt>
<pdfrwt beam="1">  1        3 0.37543169E-01 0.27539611E+03</pdfrwt>
<pdfrwt beam="2">  1       -3 0.11953580E-01 0.27539611E+03</pdfrwt>
<totfact> 0.97664853E+02</totfact>
</mgrwt>
</event>
<event>
 5    1  0.1132878E+001  0.2747874E+03  0.7818608E-02  0.1098570E+00
         -2   -1    0    0    0  501 -0.00000000000E+00  0.00000000000E+00  0.47530208623E+02  0.47530208623E+02  0.00000000000E+00 0.  1.
          2   -1    0    0  501    0  0.00000000000E+00 -0.00000000000E+00 -0.39715867522E+03  0.39715867522E+03  0.00000000000E+00 0.  1.
         35    2    1    2    0    0  0.00000000000E+00  0.00000000000E+00 -0.34962846659E+03  0.44468888384E+03  0.27478744287E+03 0.  0.
         25    1    3    3    0    0 -0.45062293731E+02  0.24027219451E+02 -0.10484974763E+03  0.16733615022E+03  0.12000000000E+03 0.  0.
         25    1    3    3    0    0  0.45062293731E+02 -0.24027219451E+02 -0.24477871896E+03  0.27735273362E+03  0.12000000000E+03 0.  0.
<mgrwt>
<rscale>  0 0.27478744E+03</rscale>
<asrwt>0</asrwt>
<pdfrwt beam="1">  1        2 0.61101333E-01 0.27478744E+03</pdfrwt>
<pdfrwt beam="2">  1       -2 0.73123400E-02 0.27478744E+03</pdfrwt>
<totfact> 0.86998727E+03</totfact>
</mgrwt>
</event>
<event>
 5    1  0.1132878E+001  0.2753342E+03  0.7818608E-02  0.1098265E+00
          2   -1    0    0  501    0  0.00000000000E+00  0.00000000000E+00  0.33098757081E+04  0.33098757081E+04  0.00000000000E+00 0.  1.
         -2   -1    0    0    0  501 -0.00000000000E+00 -0.00000000000E+00 -0.57259642624E+01  0.57259642624E+01  0.00000000000E+00 0.  1.
         35    2    1    2    0    0  0.00000000000E+00  0.00000000000E+00  0.33041497439E+04  0.33156016724E+04  0.27533419706E+03 0.  0.
         25    1    3    3    0    0 -0.57574135394E+02  0.15685044547E+02  0.20312439016E+04  0.20356602343E+04  0.12000000000E+03 0.  0.
         25    1    3    3    0    0  0.57574135394E+02 -0.15685044547E+02  0.12729058423E+04  0.12799414381E+04  0.12000000000E+03 0.  0.
<mgrwt>
<rscale>  0 0.27533420E+03</rscale>
<asrwt>0</asrwt>
<pdfrwt beam="1">  1        2 0.50921012E+00 0.27533420E+03</pdfrwt>
<pdfrwt beam="2">  1       -2 0.88092022E-03 0.27533420E+03</pdfrwt>
<totfact> 0.34508102E+03</totfact>
</mgrwt>
</event>
<event>
 5    1  0.1132878E+001  0.2754687E+03  0.7818608E-02  0.1098190E+00
         -2   -1    0    0    0  501 -0.00000000000E+00  0.00000000000E+00  0.61631576674E+02  0.61631576674E+02  0.00000000000E+00 0. -1.
          2   -1    0    0  501    0  0.00000000000E+00 -0.00000000000E+00 -0.30780894121E+03  0.30780894121E+03  0.00000000000E+00 0. -1.
         35    2    1    2    0    0  0.00000000000E+00  0.00000000000E+00 -0.24617736454E+03  0.36944051788E+03  0.27546869413E+03 0.  0.
         25    1    3    3    0    0 -0.66012848022E+02  0.13850327630E+02 -0.12926703081E+03  0.18883721279E+03  0.12000000000E+03 0.  0.
         25    1    3    3    0    0  0.66012848022E+02 -0.13850327630E+02 -0.11691033373E+03  0.18060330510E+03  0.12000000000E+03 0.  0.
<mgrwt>
<rscale>  0 0.27546869E+03</rscale>
<asrwt>0</asrwt>
<pdfrwt beam="1">  1        2 0.47355221E-01 0.27546869E+03</pdfrwt>
<pdfrwt beam="2">  1       -2 0.94817811E-02 0.27546869E+03</pdfrwt>
<totfact> 0.76249706E+03</totfact>
</mgrwt>
</event>
<event>
 5    1  0.1132878E+001  0.2751427E+03  0.7818608E-02  0.1098372E+00
          3   -1    0    0  501    0  0.00000000000E+00  0.00000000000E+00  0.16535857568E+02  0.16535857568E+02  0.00000000000E+00 0.  1.
         -3   -1    0    0    0  501 -0.00000000000E+00 -0.00000000000E+00 -0.11445351958E+04  0.11445351958E+04  0.00000000000E+00 0.  1.
         35    2    1    2    0    0  0.00000000000E+00  0.00000000000E+00 -0.11279993383E+04  0.11610710534E+04  0.27514266103E+03 0.  0.
         25    1    3    3    0    0 -0.90593929996E+01  0.64134425969E+02 -0.64072434617E+03  0.65507479342E+03  0.12000000000E+03 0.  0.
         25    1    3    3    0    0  0.90593929996E+01 -0.64134425969E+02 -0.48727499208E+03  0.50599625997E+03  0.12000000000E+03 0.  0.
<mgrwt>
<rscale>  0 0.27514266E+03</rscale>
<asrwt>0</asrwt>
<pdfrwt beam="1">  1        3 0.25439781E-02 0.27514266E+03</pdfrwt>
<pdfrwt beam="2">  1       -3 0.17608234E+00 0.27514266E+03</pdfrwt>
<totfact> 0.37636304E+02</totfact>
</mgrwt>
</event>
<event>
 5    1  0.1132878E+001  0.2780658E+03  0.7818608E-02  0.1096750E+00
          2   -1    0    0  501    0  0.00000000000E+00  0.00000000000E+00  0.98733906022E+03  0.98733906022E+03  0.00000000000E+00 0.  1.
         -2   -1    0    0    0  501 -0.00000000000E+00 -0.00000000000E+00 -0.19578028100E+02  0.19578028100E+02  0.00000000000E+00 0.  1.
         35    2    1    2    0    0  0.00000000000E+00  0.00000000000E+00  0.96776103212E+03  0.10069170883E+04  0.27806583296E+03 0.  0.
         25    1    3    3    0    0  0.30451504476E+02 -0.48648828850E+02  0.33740753055E+03  0.36268146402E+03  0.12000000000E+03 0.  0.
         25    1    3    3    0    0 -0.30451504476E+02  0.48648828850E+02  0.63035350157E+03  0.64423562430E+03  0.12000000000E+03 0.  0.
<mgrwt>
<rscale>  0 0.27806583E+03</rscale>
<asrwt>0</asrwt>
<pdfrwt beam="1">  1        2 0.15189828E+00 0.27806583E+03</pdfrwt>
<pdfrwt beam="2">  1       -2 0.30120051E-02 0.27806583E+03</pdfrwt>
<totfact> 0.11233105E+04</totfact>
</mgrwt>
</event>
<event>
 5    1  0.1132878E+001  0.2747144E+03  0.7818608E-02  0.1098611E+00
          2   -1    0    0  501    0  0.00000000000E+00  0.00000000000E+00  0.28396500302E+04  0.28396500302E+04  0.00000000000E+00 0. -1.
         -2   -1    0    0    0  501 -0.00000000000E+00 -0.00000000000E+00 -0.66441296427E+01  0.66441296427E+01  0.00000000000E+00 0. -1.
         35    2    1    2    0    0  0.00000000000E+00  0.00000000000E+00  0.28330059005E+04  0.28462941598E+04  0.27471441855E+03 0.  0.
         25    1    3    3    0    0 -0.90802667097E+01  0.27085624421E+02  0.20425392621E+04  0.20462606676E+04  0.12000000000E+03 0.  0.
         25    1    3    3    0    0  0.90802667097E+01 -0.27085624421E+02  0.79046663840E+03  0.80003349224E+03  0.12000000000E+03 0.  0.
<mgrwt>
<rscale>  0 0.27471442E+03</rscale>
<asrwt>0</asrwt>
<pdfrwt beam="1">  1        2 0.43686827E+00 0.27471442E+03</pdfrwt>
<pdfrwt beam="2">  1       -2 0.10221761E-02 0.27471442E+03</pdfrwt>
<totfact> 0.53393017E+03</totfact>
</mgrwt>
</event>
<event>
 5    1  0.1132878E+001  0.2738847E+03  0.7818608E-02  0.1099077E+00
         -2   -1    0    0    0  501 -0.00000000000E+00  0.00000000000E+00  0.33093261579E+03  0.33093261579E+03  0.00000000000E+00 0. -1.
          2   -1    0    0  501    0  0.00000000000E+00 -0.00000000000E+00 -0.56667766074E+02  0.56667766074E+02  0.00000000000E+00 0. -1.
         35    2    1    2    0    0  0.00000000000E+00  0.00000000000E+00  0.27426484972E+03  0.38760038186E+03  0.27388473530E+03 0.  0.
         25    1    3    3    0    0  0.55750630104E+02 -0.29261734060E+02  0.10922650298E+03  0.17405404560E+03  0.12000000000E+03 0.  0.
         25    1    3    3    0    0 -0.55750630104E+02  0.29261734060E+02  0.16503834674E+03  0.21354633626E+03  0.12000000000E+03 0.  0.
<mgrwt>
<rscale>  0 0.27388474E+03</rscale>
<asrwt>0</asrwt>
<pdfrwt beam="1">  1        2 0.87181181E-02 0.27388474E+03</pdfrwt>
<pdfrwt beam="2">  1       -2 0.50912709E-01 0.27388474E+03</pdfrwt>
<totfact> 0.28116683E+03</totfact>
</mgrwt>
</event>
<event>
 5    1  0.1132878E+001  0.2748542E+03  0.7818608E-02  0.1098533E+00
          1   -1    0    0  501    0  0.00000000000E+00  0.00000000000E+00  0.95328370815E+02  0.95328370815E+02  0.00000000000E+00 0. -1.
         -1   -1    0    0    0  501 -0.00000000000E+00 -0.00000000000E+00 -0.19811742918E+03  0.19811742918E+03  0.00000000000E+00 0. -1.
         35    2    1    2    0    0  0.00000000000E+00  0.00000000000E+00 -0.10278905837E+03  0.29344579999E+03  0.27485422866E+03 0.  0.
         25    1    3    3    0    0  0.56688025150E+02  0.19257824662E+02 -0.19332988927E+02  0.13549228933E+03  0.12000000000E+03 0.  0.
         25    1    3    3    0    0 -0.56688025150E+02 -0.19257824662E+02 -0.83456069439E+02  0.15795351067E+03  0.12000000000E+03 0.  0.
<mgrwt>
<rscale>  0 0.27485423E+03</rscale>
<asrwt>0</asrwt>
<pdfrwt beam="1">  1        1 0.14665903E-01 0.27485423E+03</pdfrwt>
<pdfrwt beam="2">  1       -1 0.30479604E-01 0.27485423E+03</pdfrwt>
<totfact> 0.37966644E+03</totfact>
</mgrwt>
</event>
<event>
 5    1  0.1132878E+001  0.2702029E+03  0.7818608E-02  0.1101164E+00
         -2   -1    0    0    0  501 -0.00000000000E+00  0.00000000000E+00  0.26848788182E+02  0.26848788182E+02  0.00000000000E+00 0.  1.
          2   -1    0    0  501    0  0.00000000000E+00 -0.00000000000E+00 -0.67982209866E+03  0.67982209866E+03  0.00000000000E+00 0.  1.
         35    2    1    2    0    0  0.00000000000E+00  0.00000000000E+00 -0.65297331047E+03  0.70667088684E+03  0.27020288325E+03 0.  0.
         25    1    3    3    0    0  0.96114068934E+01 -0.46623038765E+02 -0.22232170431E+03  0.25708564156E+03  0.12000000000E+03 0.  0.
         25    1    3    3    0    0 -0.96114068934E+01  0.46623038765E+02 -0.43065160616E+03  0.44958524528E+03  0.12000000000E+03 0.  0.
<mgrwt>
<rscale>  0 0.27020288E+03</rscale>
<asrwt>0</asrwt>
<pdfrwt beam="1">  1        2 0.10458801E+00 0.27020288E+03</pdfrwt>
<pdfrwt beam="2">  1       -2 0.41305832E-02 0.27020288E+03</pdfrwt>
<totfact> 0.11321695E+04</totfact>
</mgrwt>
</event>
<event>
 5    1  0.1132878E+001  0.2751303E+03  0.7818608E-02  0.1098379E+00
          2   -1    0    0  501    0  0.00000000000E+00  0.00000000000E+00  0.22597541562E+03  0.22597541562E+03  0.00000000000E+00 0.  1.
         -2   -1    0    0    0  501 -0.00000000000E+00 -0.00000000000E+00 -0.83744354150E+02  0.83744354150E+02  0.00000000000E+00 0.  1.
         35    2    1    2    0    0  0.00000000000E+00  0.00000000000E+00  0.14223106147E+03  0.30971976977E+03  0.27513026177E+03 0.  0.
         25    1    3    3    0    0  0.42331946378E+02 -0.19753985932E+02  0.12559332601E+03  0.17987745046E+03  0.12000000000E+03 0.  0.
         25    1    3    3    0    0 -0.42331946378E+02  0.19753985932E+02  0.16637735463E+02  0.12984231932E+03  0.12000000000E+03 0.  0.
<mgrwt>
<rscale>  0 0.27513026E+03</rscale>
<asrwt>0</asrwt>
<pdfrwt beam="1">  1        2 0.34765448E-01 0.27513026E+03</pdfrwt>
<pdfrwt beam="2">  1       -2 0.12883747E-01 0.27513026E+03</pdfrwt>
<totfact> 0.65093224E+03</totfact>
</mgrwt>
</event>
<event>
 5    1  0.1132878E+001  0.2751230E+03  0.7818608E-02  0.1098383E+00
          1   -1    0    0  501    0  0.00000000000E+00  0.00000000000E+00  0.29496288045E+03  0.29496288045E+03  0.00000000000E+00 0. -1.
         -1   -1    0    0    0  501 -0.00000000000E+00 -0.00000000000E+00 -0.64154412648E+02  0.64154412648E+02  0.00000000000E+00 0. -1.
         35    2    1    2    0    0  0.00000000000E+00  0.00000000000E+00  0.23080846781E+03  0.35911729310E+03  0.27512302956E+03 0.  0.
         25    1    3    3    0    0  0.35168573129E+02  0.41644681617E+02  0.63980459545E+02  0.14650804499E+03  0.12000000000E+03 0.  0.
         25    1    3    3    0    0 -0.35168573129E+02 -0.41644681617E+02  0.16682800826E+03  0.21260924811E+03  0.12000000000E+03 0.  0.
<mgrwt>
<rscale>  0 0.27512303E+03</rscale>
<asrwt>0</asrwt>
<pdfrwt beam="1">  1        1 0.45378904E-01 0.27512303E+03</pdfrwt>
<pdfrwt beam="2">  1       -1 0.98699098E-02 0.27512303E+03</pdfrwt>
<totfact> 0.55325367E+03</totfact>
</mgrwt>
</event>
<event>
 5    1  0.1132878E+001  0.2747764E+03  0.7818608E-02  0.1098577E+00
          2   -1    0    0  501    0  0.00000000000E+00  0.00000000000E+00  0.26243467317E+04  0.26243467317E+04  0.00000000000E+00 0. -1.
         -2   -1    0    0    0  501 -0.00000000000E+00 -0.00000000000E+00 -0.71924617939E+01  0.71924617939E+01  0.00000000000E+00 0. -1.
         35    2    1    2    0    0  0.00000000000E+00  0.00000000000E+00  0.26171542699E+04  0.26315391935E+04  0.27477637163E+03 0.  0.
         25    1    3    3    0    0  0.13667359257E+02 -0.35052016136E+01  0.68229335362E+03  0.69290930398E+03  0.12000000000E+03 0.  0.
         25    1    3    3    0    0 -0.13667359257E+02  0.35052016136E+01  0.19348609163E+04  0.19386298895E+04  0.12000000000E+03 0.  0.
<mgrwt>
<rscale>  0 0.27477637E+03</rscale>
<asrwt>0</asrwt>
<pdfrwt beam="1">  1        2 0.40374489E+00 0.27477637E+03</pdfrwt>
<pdfrwt beam="2">  1       -2 0.11065347E-02 0.27477637E+03</pdfrwt>
<totfact> 0.62995605E+03</totfact>
</mgrwt>
</event>
<event>
 5    1  0.1132878E+001  0.2746250E+03  0.7818608E-02  0.1098661E+00
          2   -1    0    0  501    0  0.00000000000E+00  0.00000000000E+00  0.20426720504E+03  0.20426720504E+03  0.00000000000E+00 0.  1.
         -2   -1    0    0    0  501 -0.00000000000E+00 -0.00000000000E+00 -0.92304229232E+02  0.92304229232E+02  0.00000000000E+00 0.  1.
         35    2    1    2    0    0  0.00000000000E+00  0.00000000000E+00  0.11196297581E+03  0.29657143428E+03  0.27462503104E+03 0.  0.
         25    1    3    3    0    0  0.48061944435E+02  0.29110832268E+02  0.17084550324E+02  0.13360117110E+03  0.12000000000E+03 0.  0.
         25    1    3    3    0    0 -0.48061944435E+02 -0.29110832268E+02  0.94878425486E+02  0.16297026318E+03  0.12000000000E+03 0.  0.
<mgrwt>
<rscale>  0 0.27462503E+03</rscale>
<asrwt>0</asrwt>
<pdfrwt beam="1">  1        2 0.31425724E-01 0.27462503E+03</pdfrwt>
<pdfrwt beam="2">  1       -2 0.14200651E-01 0.27462503E+03</pdfrwt>
<totfact> 0.61976784E+03</totfact>
</mgrwt>
</event>
<event>
 5    1  0.1132878E+001  0.2748670E+03  0.7818608E-02  0.1098526E+00
         -2   -1    0    0    0  501 -0.00000000000E+00  0.00000000000E+00  0.19786980107E+02  0.19786980107E+02  0.00000000000E+00 0. -1.
          2   -1    0    0  501    0  0.00000000000E+00 -0.00000000000E+00 -0.95456528747E+03  0.95456528747E+03  0.00000000000E+00 0. -1.
         35    2    1    2    0    0  0.00000000000E+00  0.00000000000E+00 -0.93477830736E+03  0.97435226758E+03  0.27486698131E+03 0.  0.
         25    1    3    3    0    0 -0.37396306575E+02  0.34711024229E+02 -0.31350073110E+03  0.33953799102E+03  0.12000000000E+03 0.  0.
         25    1    3    3    0    0  0.37396306575E+02 -0.34711024229E+02 -0.62127757627E+03  0.63481427656E+03  0.12000000000E+03 0.  0.
<mgrwt>
<rscale>  0 0.27486698E+03</rscale>
<asrwt>0</asrwt>
<pdfrwt beam="1">  1        2 0.14685619E+00 0.27486698E+03</pdfrwt>
<pdfrwt beam="2">  1       -2 0.30441511E-02 0.27486698E+03</pdfrwt>
<totfact> 0.11583609E+04</totfact>
</mgrwt>
</event>
<event>
 5    1  0.1132878E+001  0.2723589E+03  0.7818608E-02  0.1099937E+00
         -2   -1    0    0    0  501 -0.00000000000E+00  0.00000000000E+00  0.17231212677E+03  0.17231212677E+03  0.00000000000E+00 0.  1.
          2   -1    0    0  501    0  0.00000000000E+00 -0.00000000000E+00 -0.10762356711E+03  0.10762356711E+03  0.00000000000E+00 0.  1.
         35    2    1    2    0    0  0.00000000000E+00  0.00000000000E+00  0.64688559662E+02  0.27993569388E+03  0.27235892304E+03 0.  0.
         25    1    3    3    0    0 -0.79371626619E+01  0.34529261131E+02 -0.22905916939E+02  0.12720043025E+03  0.12000000000E+03 0.  0.
         25    1    3    3    0    0  0.79371626619E+01 -0.34529261131E+02  0.87594476601E+02  0.15273526363E+03  0.12000000000E+03 0.  0.
<mgrwt>
<rscale>  0 0.27235892E+03</rscale>
<asrwt>0</asrwt>
<pdfrwt beam="1">  1        2 0.16557472E-01 0.27235892E+03</pdfrwt>
<pdfrwt beam="2">  1       -2 0.26509558E-01 0.27235892E+03</pdfrwt>
<totfact> 0.44051966E+03</totfact>
</mgrwt>
</event>
<event>
 5    1  0.1132878E+001  0.2749735E+03  0.7818608E-02  0.1098466E+00
          4   -1    0    0  501    0  0.00000000000E+00  0.00000000000E+00  0.17393860778E+03  0.17393860778E+03  0.00000000000E+00 0. -1.
         -4   -1    0    0    0  501 -0.00000000000E+00 -0.00000000000E+00 -0.10867400364E+03  0.10867400364E+03  0.00000000000E+00 0. -1.
         35    2    1    2    0    0  0.00000000000E+00  0.00000000000E+00  0.65264604137E+02  0.28261261142E+03  0.27497348887E+03 0.  0.
         25    1    3    3    0    0 -0.43770392054E+02  0.45008240093E+02  0.82885039768E+01  0.13568451715E+03  0.12000000000E+03 0.  0.
         25    1    3    3    0    0  0.43770392054E+02 -0.45008240093E+02  0.56976100161E+02  0.14692809427E+03  0.12000000000E+03 0.  0.
<mgrwt>
<rscale>  0 0.27497349E+03</rscale>
<asrwt>0</asrwt>
<pdfrwt beam="1">  1        4 0.26759786E-01 0.27497349E+03</pdfrwt>
<pdfrwt beam="2">  1       -4 0.16719077E-01 0.27497349E+03</pdfrwt>
<totfact> 0.76996390E+02</totfact>
</mgrwt>
</event>
<event>
 5    1  0.1132878E+001  0.2748500E+03  0.7818608E-02  0.1098535E+00
         -2   -1    0    0    0  501 -0.00000000000E+00  0.00000000000E+00  0.42283803302E+02  0.42283803302E+02  0.00000000000E+00 0.  1.
          2   -1    0    0  501    0  0.00000000000E+00 -0.00000000000E+00 -0.44663988794E+03  0.44663988794E+03  0.00000000000E+00 0.  1.
         35    2    1    2    0    0  0.00000000000E+00  0.00000000000E+00 -0.40435608463E+03  0.48892369124E+03  0.27485001851E+03 0.  0.
         25    1    3    3    0    0  0.46474706627E+02  0.51262264260E+01 -0.28747978845E+03  0.31500921466E+03  0.12000000000E+03 0.  0.
         25    1    3    3    0    0 -0.46474706627E+02 -0.51262264260E+01 -0.11687629618E+03  0.17391447658E+03  0.12000000000E+03 0.  0.
<mgrwt>
<rscale>  0 0.27485002E+03</rscale>
<asrwt>0</asrwt>
<pdfrwt beam="1">  1        2 0.68713828E-01 0.27485002E+03</pdfrwt>
<pdfrwt beam="2">  1       -2 0.65052006E-02 0.27485002E+03</pdfrwt>
<totfact> 0.91703744E+03</totfact>
</mgrwt>
</event>
<event>
 5    1  0.1132878E+001  0.2765530E+03  0.7818608E-02  0.1097587E+00
         -2   -1    0    0    0  501 -0.00000000000E+00  0.00000000000E+00  0.59473907189E+03  0.59473907189E+03  0.00000000000E+00 0.  1.
          2   -1    0    0  501    0  0.00000000000E+00 -0.00000000000E+00 -0.32149201975E+02  0.32149201975E+02  0.00000000000E+00 0.  1.
         35    2    1    2    0    0  0.00000000000E+00  0.00000000000E+00  0.56258986992E+03  0.62688827387E+03  0.27655297174E+03 0.  0.
         25    1    3    3    0    0 -0.56744281150E+02  0.35448299425E+02  0.24589439757E+03  0.28167454647E+03  0.12000000000E+03 0.  0.
         25    1    3    3    0    0  0.56744281150E+02 -0.35448299425E+02  0.31669547235E+03  0.34521372740E+03  0.12000000000E+03 0.  0.
<mgrwt>
<rscale>  0 0.27655297E+03</rscale>
<asrwt>0</asrwt>
<pdfrwt beam="1">  1        2 0.49460315E-02 0.27655297E+03</pdfrwt>
<pdfrwt beam="2">  1       -2 0.91498311E-01 0.27655297E+03</pdfrwt>
<totfact> 0.16775406E+03</totfact>
</mgrwt>
</event>
<event>
 5    1  0.1132878E+001  0.2739016E+03  0.7818608E-02  0.1099067E+00
         -2   -1    0    0    0  501 -0.00000000000E+00  0.00000000000E+00  0.65166624378E+03  0.65166624378E+03  0.00000000000E+00 0.  1.
          2   -1    0    0  501    0  0.00000000000E+00 -0.00000000000E+00 -0.28780880395E+02  0.28780880395E+02  0.00000000000E+00 0.  1.
         35    2    1    2    0    0  0.00000000000E+00  0.00000000000E+00  0.62288536338E+03  0.68044712417E+03  0.27390164819E+03 0.  0.
         25    1    3    3    0    0  0.19739274298E+02  0.55979002969E+02  0.23977486740E+03  0.27461841665E+03  0.12000000000E+03 0.  0.
         25    1    3    3    0    0 -0.19739274298E+02 -0.55979002969E+02  0.38311049598E+03  0.40582870753E+03  0.12000000000E+03 0.  0.
<mgrwt>
<rscale>  0 0.27390165E+03</rscale>
<asrwt>0</asrwt>
<pdfrwt beam="1">  1        2 0.44278282E-02 0.27390165E+03</pdfrwt>
<pdfrwt beam="2">  1       -2 0.10025633E+00 0.27390165E+03</pdfrwt>
<totfact> 0.15747320E+03</totfact>
</mgrwt>
</event>
<event>
 5    1  0.1132878E+001  0.2752403E+03  0.7818608E-02  0.1098317E+00
         -2   -1    0    0    0  501 -0.00000000000E+00  0.00000000000E+00  0.19275616226E+02  0.19275616226E+02  0.00000000000E+00 0.  1.
          2   -1    0    0  501    0  0.00000000000E+00 -0.00000000000E+00 -0.98255270496E+03  0.98255270496E+03  0.00000000000E+00 0.  1.
         35    2    1    2    0    0  0.00000000000E+00  0.00000000000E+00 -0.96327708873E+03  0.10018283212E+04  0.27524032308E+03 0.  0.
         25    1    3    3    0    0  0.45552820848E+02 -0.19376250621E+02 -0.31528550323E+03  0.34096253038E+03  0.12000000000E+03 0.  0.
         25    1    3    3    0    0 -0.45552820848E+02  0.19376250621E+02 -0.64799158550E+03  0.66086579080E+03  0.12000000000E+03 0.  0.
<mgrwt>
<rscale>  0 0.27524032E+03</rscale>
<asrwt>0</asrwt>
<pdfrwt beam="1">  1        2 0.15116197E+00 0.27524032E+03</pdfrwt>
<pdfrwt beam="2">  1       -2 0.29654792E-02 0.27524032E+03</pdfrwt>
<totfact> 0.11571170E+04</totfact>
</mgrwt>
</event>
<event>
 5    1  0.1132878E+001  0.2750488E+03  0.7818608E-02  0.1098424E+00
         -2   -1    0    0    0  501 -0.00000000000E+00  0.00000000000E+00  0.65105044148E+02  0.65105044148E+02  0.00000000000E+00 0.  1.
          2   -1    0    0  501    0  0.00000000000E+00 -0.00000000000E+00 -0.29049915885E+03  0.29049915885E+03  0.00000000000E+00 0.  1.
         35    2    1    2    0    0  0.00000000000E+00  0.00000000000E+00 -0.22539411471E+03  0.35560420300E+03  0.27504879976E+03 0.  0.
         25    1    3    3    0    0  0.29371302469E+02 -0.56715391715E+02 -0.85773802906E+02  0.16073722136E+03  0.12000000000E+03 0.  0.
         25    1    3    3    0    0 -0.29371302469E+02  0.56715391715E+02 -0.13962031180E+03  0.19486698164E+03  0.12000000000E+03 0.  0.
<mgrwt>
<rscale>  0 0.27504880E+03</rscale>
<asrwt>0</asrwt>
<pdfrwt beam="1">  1        2 0.44692179E-01 0.27504880E+03</pdfrwt>
<pdfrwt beam="2">  1       -2 0.10016161E-01 0.27504880E+03</pdfrwt>
<totfact> 0.74383583E+03</totfact>
</mgrwt>
</event>
<event>
 5    1  0.1132878E+001  0.2764772E+03  0.7818608E-02  0.1097629E+00
         -2   -1    0    0    0  501 -0.00000000000E+00  0.00000000000E+00  0.25882284188E+02  0.25882284188E+02  0.00000000000E+00 0.  1.
          2   -1    0    0  501    0  0.00000000000E+00 -0.00000000000E+00 -0.73833918226E+03  0.73833918226E+03  0.00000000000E+00 0.  1.
         35    2    1    2    0    0  0.00000000000E+00  0.00000000000E+00 -0.71245689808E+03  0.76422146645E+03  0.27647715669E+03 0.  0.
         25    1    3    3    0    0  0.63638093777E+02  0.70248422696E+01 -0.28791732758E+03  0.31842666803E+03  0.12000000000E+03 0.  0.
         25    1    3    3    0    0 -0.63638093777E+02 -0.70248422696E+01 -0.42453957049E+03  0.44579479842E+03  0.12000000000E+03 0.  0.
<mgrwt>
<rscale>  0 0.27647716E+03</rscale>
<asrwt>0</asrwt>
<pdfrwt beam="1">  1        2 0.11359062E+00 0.27647716E+03</pdfrwt>
<pdfrwt beam="2">  1       -2 0.39818907E-02 0.27647716E+03</pdfrwt>
<totfact> 0.10828131E+04</totfact>
</mgrwt>
</event>
<event>
 5    1  0.1132878E+001  0.2754293E+03  0.7818608E-02  0.1098212E+00
          1   -1    0    0  501    0  0.00000000000E+00  0.00000000000E+00  0.11362293132E+04  0.11362293132E+04  0.00000000000E+00 0. -1.
         -1   -1    0    0    0  501 -0.00000000000E+00 -0.00000000000E+00 -0.16691455658E+02  0.16691455658E+02  0.00000000000E+00 0. -1.
         35    2    1    2    0    0  0.00000000000E+00  0.00000000000E+00  0.11195378576E+04  0.11529207689E+04  0.27542927367E+03 0.  0.
         25    1    3    3    0    0  0.15646619670E+01 -0.62763022093E+02  0.66430565930E+03  0.67797024572E+03  0.12000000000E+03 0.  0.
         25    1    3    3    0    0 -0.15646619670E+01  0.62763022093E+02  0.45523219827E+03  0.47495052316E+03  0.12000000000E+03 0.  0.
<mgrwt>
<rscale>  0 0.27542927E+03</rscale>
<asrwt>0</asrwt>
<pdfrwt beam="1">  1        1 0.17480445E+00 0.27542927E+03</pdfrwt>
<pdfrwt beam="2">  1       -1 0.25679171E-02 0.27542927E+03</pdfrwt>
<totfact> 0.60301928E+03</totfact>
</mgrwt>
</event>
<event>
 5    1  0.1132878E+001  0.2765232E+03  0.7818608E-02  0.1097603E+00
         -1   -1    0    0    0  501 -0.00000000000E+00  0.00000000000E+00  0.77221014623E+02  0.77221014623E+02  0.00000000000E+00 0. -1.
          1   -1    0    0  501    0  0.00000000000E+00 -0.00000000000E+00 -0.24755273399E+03  0.24755273399E+03  0.00000000000E+00 0. -1.
         35    2    1    2    0    0  0.00000000000E+00  0.00000000000E+00 -0.17033171936E+03  0.32477374861E+03  0.27652322356E+03 0.  0.
         25    1    3    3    0    0 -0.41323386052E+02  0.46253845545E+02 -0.11979305903E+03  0.18054754901E+03  0.12000000000E+03 0.  0.
         25    1    3    3    0    0  0.41323386052E+02 -0.46253845545E+02 -0.50538660335E+02  0.14422619960E+03  0.12000000000E+03 0.  0.
<mgrwt>
<rscale>  0 0.27652322E+03</rscale>
<asrwt>0</asrwt>
<pdfrwt beam="1">  1        1 0.38085037E-01 0.27652322E+03</pdfrwt>
<pdfrwt beam="2">  1       -1 0.11880156E-01 0.27652322E+03</pdfrwt>
<totfact> 0.51703918E+03</totfact>
</mgrwt>
</event>
<event>
 5    1  0.1132878E+001  0.2746211E+03  0.7818608E-02  0.1098664E+00
         -3   -1    0    0    0  501 -0.00000000000E+00  0.00000000000E+00  0.56724729419E+02  0.56724729419E+02  0.00000000000E+00 0.  1.
          3   -1    0    0  501    0  0.00000000000E+00 -0.00000000000E+00 -0.33238039510E+03  0.33238039510E+03  0.00000000000E+00 0.  1.
         35    2    1    2    0    0  0.00000000000E+00  0.00000000000E+00 -0.27565566569E+03  0.38910512452E+03  0.27462110608E+03 0.  0.
         25    1    3    3    0    0  0.21712928164E+02  0.60336960977E+02 -0.11161793418E+03  0.17598455427E+03  0.12000000000E+03 0.  0.
         25    1    3    3    0    0 -0.21712928164E+02 -0.60336960977E+02 -0.16403773150E+03  0.21312057026E+03  0.12000000000E+03 0.  0.
<mgrwt>
<rscale>  0 0.27462111E+03</rscale>
<asrwt>0</asrwt>
<pdfrwt beam="1">  1        3 0.51135444E-01 0.27462111E+03</pdfrwt>
<pdfrwt beam="2">  1       -3 0.87268817E-02 0.27462111E+03</pdfrwt>
<totfact> 0.89788865E+02</totfact>
</mgrwt>
</event>
<event>
 5    1  0.1132878E+001  0.2763265E+03  0.7818608E-02  0.1097712E+00
         -1   -1    0    0    0  501 -0.00000000000E+00  0.00000000000E+00  0.32226305694E+02  0.32226305694E+02  0.00000000000E+00 0. -1.
          1   -1    0    0  501    0  0.00000000000E+00 -0.00000000000E+00 -0.59234471622E+03  0.59234471622E+03  0.00000000000E+00 0. -1.
         35    2    1    2    0    0  0.00000000000E+00  0.00000000000E+00 -0.56011841053E+03  0.62457102192E+03  0.27632648734E+03 0.  0.
         25    1    3    3    0    0 -0.56894857954E+02  0.37902447219E+02 -0.27117158254E+03  0.30431504653E+03  0.12000000000E+03 0.  0.
         25    1    3    3    0    0  0.56894857954E+02 -0.37902447219E+02 -0.28894682799E+03  0.32025597539E+03  0.12000000000E+03 0.  0.
<mgrwt>
<rscale>  0 0.27632649E+03</rscale>
<asrwt>0</asrwt>
<pdfrwt beam="1">  1        1 0.91129957E-01 0.27632649E+03</pdfrwt>
<pdfrwt beam="2">  1       -1 0.49578932E-02 0.27632649E+03</pdfrwt>
<totfact> 0.63603418E+03</totfact>
</mgrwt>
</event>
<event>
 5    1  0.1132878E+001  0.2755513E+03  0.7818608E-02  0.1098144E+00
         -3   -1    0    0    0  501 -0.00000000000E+00  0.00000000000E+00  0.86760902308E+02  0.86760902308E+02  0.00000000000E+00 0.  1.
          3   -1    0    0  501    0  0.00000000000E+00 -0.00000000000E+00 -0.21878661245E+03  0.21878661245E+03  0.00000000000E+00 0.  1.
         35    2    1    2    0    0  0.00000000000E+00  0.00000000000E+00 -0.13202571015E+03  0.30554751476E+03  0.27555125773E+03 0.  0.
         25    1    3    3    0    0 -0.56839140162E+02  0.32750064847E+02 -0.47495595393E+02  0.14477253256E+03  0.12000000000E+03 0.  0.
         25    1    3    3    0    0  0.56839140162E+02 -0.32750064847E+02 -0.84530114752E+02  0.16077498220E+03  0.12000000000E+03 0.  0.
<mgrwt>
<rscale>  0 0.27555126E+03</rscale>
<asrwt>0</asrwt>
<pdfrwt beam="1">  1        3 0.33659479E-01 0.27555126E+03</pdfrwt>
<pdfrwt beam="2">  1       -3 0.13347831E-01 0.27555126E+03</pdfrwt>
<totfact> 0.99758035E+02</totfact>
</mgrwt>
</event>
<event>
 5    1  0.1132878E+001  0.2740895E+03  0.7818608E-02  0.1098962E+00
         -2   -1    0    0    0  501 -0.00000000000E+00  0.00000000000E+00  0.97864843929E+02  0.97864843929E+02  0.00000000000E+00 0. -1.
          2   -1    0    0  501    0  0.00000000000E+00 -0.00000000000E+00 -0.19191018686E+03  0.19191018686E+03  0.00000000000E+00 0. -1.
         35    2    1    2    0    0  0.00000000000E+00  0.00000000000E+00 -0.94045342928E+02  0.28977503079E+03  0.27408947798E+03 0.  0.
         25    1    3    3    0    0 -0.20110566899E+02 -0.54152721620E+02 -0.81187792768E+02  0.15597567071E+03  0.12000000000E+03 0.  0.
         25    1    3    3    0    0  0.20110566899E+02  0.54152721620E+02 -0.12857550160E+02  0.13379936007E+03  0.12000000000E+03 0.  0.
<mgrwt>
<rscale>  0 0.27408948E+03</rscale>
<asrwt>0</asrwt>
<pdfrwt beam="1">  1        2 0.29524644E-01 0.27408948E+03</pdfrwt>
<pdfrwt beam="2">  1       -2 0.15056130E-01 0.27408948E+03</pdfrwt>
<totfact> 0.60262643E+03</totfact>
</mgrwt>
</event>
<event>
 5    1  0.1132878E+001  0.2747523E+03  0.7818608E-02  0.1098590E+00
         -1   -1    0    0    0  501 -0.00000000000E+00  0.00000000000E+00  0.60797398249E+02  0.60797398249E+02  0.00000000000E+00 0. -1.
          1   -1    0    0  501    0  0.00000000000E+00 -0.00000000000E+00 -0.31041150668E+03  0.31041150668E+03  0.00000000000E+00 0. -1.
         35    2    1    2    0    0  0.00000000000E+00  0.00000000000E+00 -0.24961410843E+03  0.37120890493E+03  0.27475233934E+03 0.  0.
         25    1    3    3    0    0 -0.33495762878E+02 -0.57567514086E+02 -0.13293899625E+03  0.19107266035E+03  0.12000000000E+03 0.  0.
         25    1    3    3    0    0  0.33495762878E+02  0.57567514086E+02 -0.11667511218E+03  0.18013624458E+03  0.12000000000E+03 0.  0.
<mgrwt>
<rscale>  0 0.27475234E+03</rscale>
<asrwt>0</asrwt>
<pdfrwt beam="1">  1        1 0.47755616E-01 0.27475234E+03</pdfrwt>
<pdfrwt beam="2">  1       -1 0.93534459E-02 0.27475234E+03</pdfrwt>
<totfact> 0.56364689E+03</totfact>
</mgrwt>
</event>
<event>
 4    1  0.1132878E+001  0.3456972E+03  0.7818608E-02  0.1064395E+00
         -2   -1    0    0    0  501 -0.00000000000E+00  0.00000000000E+00  0.32646252407E+02  0.32646252407E+02  0.00000000000E+00 0. -1.
          2   -1    0    0  501    0  0.00000000000E+00 -0.00000000000E+00 -0.91516291427E+03  0.91516291427E+03  0.00000000000E+00 0. -1.
         25    1    1    2    0    0  0.48911560206E+02 -0.46694559622E+01 -0.75461439490E+03  0.76567423198E+03  0.12000000000E+03 0.  0.
         25    1    1    2    0    0 -0.48911560206E+02  0.46694559622E+01 -0.12790226697E+03  0.18213493470E+03  0.12000000000E+03 0.  0.
<mgrwt>
<rscale>  0 0.34569721E+03</rscale>
<asrwt>0</asrwt>
<pdfrwt beam="1">  1        2 0.14079428E+00 0.34569721E+03</pdfrwt>
<pdfrwt beam="2">  1       -2 0.50225007E-02 0.34569721E+03</pdfrwt>
<totfact> 0.57988538E+03</totfact>
</mgrwt>
</event>
<event>
 5    1  0.1132878E+001  0.2773684E+03  0.7818608E-02  0.1097135E+00
          1   -1    0    0  501    0  0.00000000000E+00  0.00000000000E+00  0.27873014474E+03  0.27873014474E+03  0.00000000000E+00 0.  1.
         -1   -1    0    0    0  501 -0.00000000000E+00 -0.00000000000E+00 -0.69003348441E+02  0.69003348441E+02  0.00000000000E+00 0.  1.
         35    2    1    2    0    0  0.00000000000E+00  0.00000000000E+00  0.20972679630E+03  0.34773349318E+03  0.27736844304E+03 0.  0.
         25    1    3    3    0    0 -0.58023457940E+02 -0.65848774521E+01  0.57567097354E+02  0.14534116065E+03  0.12000000000E+03 0.  0.
         25    1    3    3    0    0  0.58023457940E+02  0.65848774521E+01  0.15215969894E+03  0.20239233253E+03  0.12000000000E+03 0.  0.
<mgrwt>
<rscale>  0 0.27736844E+03</rscale>
<asrwt>0</asrwt>
<pdfrwt beam="1">  1        1 0.42881560E-01 0.27736844E+03</pdfrwt>
<pdfrwt beam="2">  1       -1 0.10615900E-01 0.27736844E+03</pdfrwt>
<totfact> 0.53081944E+03</totfact>
</mgrwt>
</event>
<event>
 5    1  0.1132878E+001  0.2772373E+03  0.7818608E-02  0.1097207E+00
          3   -1    0    0  501    0  0.00000000000E+00  0.00000000000E+00  0.34651500216E+03  0.34651500216E+03  0.00000000000E+00 0. -1.
         -3   -1    0    0    0  501 -0.00000000000E+00 -0.00000000000E+00 -0.55452538690E+02  0.55452538690E+02  0.00000000000E+00 0. -1.
         35    2    1    2    0    0  0.00000000000E+00  0.00000000000E+00  0.29106246346E+03  0.40196754085E+03  0.27723734643E+03 0.  0.
         25    1    3    3    0    0  0.53097144825E+02 -0.11521085195E+02  0.82948188411E+02  0.15566773639E+03  0.12000000000E+03 0.  0.
         25    1    3    3    0    0 -0.53097144825E+02  0.11521085195E+02  0.20811427505E+03  0.24629980445E+03  0.12000000000E+03 0.  0.
<mgrwt>
<rscale>  0 0.27723735E+03</rscale>
<asrwt>0</asrwt>
<pdfrwt beam="1">  1        3 0.53309999E-01 0.27723735E+03</pdfrwt>
<pdfrwt beam="2">  1       -3 0.85311600E-02 0.27723735E+03</pdfrwt>
<totfact> 0.85743335E+02</totfact>
</mgrwt>
</event>
<event>
 5    1  0.1132878E+001  0.2744807E+03  0.7818608E-02  0.1098742E+00
          4   -1    0    0  501    0  0.00000000000E+00  0.00000000000E+00  0.21875946670E+03  0.21875946670E+03  0.00000000000E+00 0.  1.
         -4   -1    0    0    0  501 -0.00000000000E+00 -0.00000000000E+00 -0.86098711242E+02  0.86098711242E+02  0.00000000000E+00 0.  1.
         35    2    1    2    0    0  0.00000000000E+00  0.00000000000E+00  0.13266075546E+03  0.30485817794E+03  0.27448065983E+03 0.  0.
         25    1    3    3    0    0  0.17936821969E+02  0.52990325861E+02  0.10645632409E+03  0.16989012083E+03  0.12000000000E+03 0.  0.
         25    1    3    3    0    0 -0.17936821969E+02 -0.52990325861E+02  0.26204431371E+02  0.13496805711E+03  0.12000000000E+03 0.  0.
<mgrwt>
<rscale>  0 0.27448066E+03</rscale>
<asrwt>0</asrwt>
<pdfrwt beam="1">  1        4 0.33655302E-01 0.27448066E+03</pdfrwt>
<pdfrwt beam="2">  1       -4 0.13245956E-01 0.27448066E+03</pdfrwt>
<totfact> 0.74892578E+02</totfact>
</mgrwt>
</event>
<event>
 5    1  0.1132878E+001  0.2756641E+03  0.7818608E-02  0.1098081E+00
         -4   -1    0    0    0  501 -0.00000000000E+00  0.00000000000E+00  0.26672832728E+02  0.26672832728E+02  0.00000000000E+00 0.  1.
          4   -1    0    0  501    0  0.00000000000E+00 -0.00000000000E+00 -0.71224791758E+03  0.71224791758E+03  0.00000000000E+00 0.  1.
         35    2    1    2    0    0  0.00000000000E+00  0.00000000000E+00 -0.68557508485E+03  0.73892075031E+03  0.27566406778E+03 0.  0.
         25    1    3    3    0    0  0.39700167898E+02  0.52542846040E+02 -0.29949785446E+03  0.32929594414E+03  0.12000000000E+03 0.  0.
         25    1    3    3    0    0 -0.39700167898E+02 -0.52542846040E+02 -0.38607723039E+03  0.40962480617E+03  0.12000000000E+03 0.  0.
<mgrwt>
<rscale>  0 0.27566407E+03</rscale>
<asrwt>0</asrwt>
<pdfrwt beam="1">  1        4 0.10957661E+00 0.27566407E+03</pdfrwt>
<pdfrwt beam="2">  1       -4 0.41035126E-02 0.27566407E+03</pdfrwt>
<totfact> 0.42291316E+02</totfact>
</mgrwt>
</event>
<event>
 5    1  0.1132878E+001  0.2750121E+03  0.7818608E-02  0.1098445E+00
          4   -1    0    0  501    0  0.00000000000E+00  0.00000000000E+00  0.18369045468E+04  0.18369045468E+04  0.00000000000E+00 0. -1.
         -4   -1    0    0    0  501 -0.00000000000E+00 -0.00000000000E+00 -0.10293354919E+02  0.10293354919E+02  0.00000000000E+00 0. -1.
         35    2    1    2    0    0  0.00000000000E+00  0.00000000000E+00  0.18266111918E+04  0.18471979017E+04  0.27501207575E+03 0.  0.
         25    1    3    3    0    0 -0.47349057723E+02 -0.33272873669E+02  0.68464920521E+03  0.69749089714E+03  0.12000000000E+03 0.  0.
         25    1    3    3    0    0  0.47349057723E+02  0.33272873669E+02  0.11419619866E+04  0.11497070045E+04  0.12000000000E+03 0.  0.
<mgrwt>
<rscale>  0 0.27501208E+03</rscale>
<asrwt>0</asrwt>
<pdfrwt beam="1">  1        4 0.28260044E+00 0.27501208E+03</pdfrwt>
<pdfrwt beam="2">  1       -4 0.15835945E-02 0.27501208E+03</pdfrwt>
<totfact> 0.12517106E+02</totfact>
</mgrwt>
</event>
<event>
 5    1  0.1132878E+001  0.2751154E+03  0.7818608E-02  0.1098387E+00
          2   -1    0    0  501    0  0.00000000000E+00  0.00000000000E+00  0.99526819656E+03  0.99526819656E+03  0.00000000000E+00 0.  1.
         -2   -1    0    0    0  501 -0.00000000000E+00 -0.00000000000E+00 -0.19012077809E+02  0.19012077809E+02  0.00000000000E+00 0.  1.
         35    2    1    2    0    0  0.00000000000E+00  0.00000000000E+00  0.97625611875E+03  0.10142802744E+04  0.27511536776E+03 0.  0.
         25    1    3    3    0    0  0.59630346191E+02  0.19299744065E+02  0.39828501367E+03  0.42066519992E+03  0.12000000000E+03 0.  0.
         25    1    3    3    0    0 -0.59630346191E+02 -0.19299744065E+02  0.57797110508E+03  0.59361507445E+03  0.12000000000E+03 0.  0.
<mgrwt>
<rscale>  0 0.27511537E+03</rscale>
<asrwt>0</asrwt>
<pdfrwt beam="1">  1        2 0.15311814E+00 0.27511537E+03</pdfrwt>
<pdfrwt beam="2">  1       -2 0.29249358E-02 0.27511537E+03</pdfrwt>
<totfact> 0.11599345E+04</totfact>
</mgrwt>
</event>
<event>
 5    1  0.1132878E+001  0.2740453E+03  0.7818608E-02  0.1098986E+00
          2   -1    0    0  501    0  0.00000000000E+00  0.00000000000E+00  0.16989290771E+04  0.16989290771E+04  0.00000000000E+00 0. -1.
         -2   -1    0    0    0  501 -0.00000000000E+00 -0.00000000000E+00 -0.11051200624E+02  0.11051200624E+02  0.00000000000E+00 0. -1.
         35    2    1    2    0    0  0.00000000000E+00  0.00000000000E+00  0.16878778765E+04  0.17099802778E+04  0.27404529610E+03 0.  0.
         25    1    3    3    0    0  0.43328904098E+02  0.37407932270E+02  0.63713413282E+03  0.65085839514E+03  0.12000000000E+03 0.  0.
         25    1    3    3    0    0 -0.43328904098E+02 -0.37407932270E+02  0.10507437437E+04  0.10591218826E+04  0.12000000000E+03 0.  0.
<mgrwt>
<rscale>  0 0.27404530E+03</rscale>
<asrwt>0</asrwt>
<pdfrwt beam="1">  1        2 0.26137350E+00 0.27404530E+03</pdfrwt>
<pdfrwt beam="2">  1       -2 0.17001861E-02 0.27404530E+03</pdfrwt>
<totfact> 0.10501516E+04</totfact>
</mgrwt>
</event>
<event>
 5    1  0.1132878E+001  0.2690640E+03  0.7818608E-02  0.1101816E+00
         -1   -1    0    0    0  501 -0.00000000000E+00  0.00000000000E+00  0.73621687534E+02  0.73621687534E+02  0.00000000000E+00 0.  1.
          1   -1    0    0  501    0  0.00000000000E+00 -0.00000000000E+00 -0.24583603325E+03  0.24583603325E+03  0.00000000000E+00 0.  1.
         35    2    1    2    0    0  0.00000000000E+00  0.00000000000E+00 -0.17221434572E+03  0.31945772078E+03  0.26906403420E+03 0.  0.
         25    1    3    3    0    0  0.38475369010E+02  0.41597335546E+02 -0.59874420961E+02  0.14558722001E+03  0.12000000000E+03 0.  0.
         25    1    3    3    0    0 -0.38475369010E+02 -0.41597335546E+02 -0.11233992476E+03  0.17387050077E+03  0.12000000000E+03 0.  0.
<mgrwt>
<rscale>  0 0.26906403E+03</rscale>
<asrwt>0</asrwt>
<pdfrwt beam="1">  1        1 0.37820928E-01 0.26906403E+03</pdfrwt>
<pdfrwt beam="2">  1       -1 0.11326413E-01 0.26906403E+03</pdfrwt>
<totfact> 0.56134859E+03</totfact>
</mgrwt>
</event>
<event>
 5    1  0.1132878E+001  0.2749507E+03  0.7818608E-02  0.1098479E+00
          1   -1    0    0  501    0  0.00000000000E+00  0.00000000000E+00  0.16241338733E+04  0.16241338733E+04  0.00000000000E+00 0. -1.
         -1   -1    0    0    0  501 -0.00000000000E+00 -0.00000000000E+00 -0.11636650385E+02  0.11636650385E+02  0.00000000000E+00 0. -1.
         35    2    1    2    0    0  0.00000000000E+00  0.00000000000E+00  0.16124972229E+04  0.16357705237E+04  0.27495074513E+03 0.  0.
         25    1    3    3    0    0 -0.38614589110E+02  0.16709741302E+02  0.49544700281E+03  0.51150565445E+03  0.12000000000E+03 0.  0.
         25    1    3    3    0    0  0.38614589110E+02 -0.16709741302E+02  0.11170502201E+04  0.11242648692E+04  0.12000000000E+03 0.  0.
<mgrwt>
<rscale>  0 0.27495075E+03</rscale>
<asrwt>0</asrwt>
<pdfrwt beam="1">  1        1 0.24986657E+00 0.27495075E+03</pdfrwt>
<pdfrwt beam="2">  1       -1 0.17902552E-02 0.27495075E+03</pdfrwt>
<totfact> 0.47790405E+03</totfact>
</mgrwt>
</event>
<event>
 5    1  0.1132878E+001  0.2741754E+03  0.7818608E-02  0.1098913E+00
         -1   -1    0    0    0  501 -0.00000000000E+00  0.00000000000E+00  0.84808027302E+01  0.84808027302E+01  0.00000000000E+00 0.  1.
          1   -1    0    0  501    0  0.00000000000E+00 -0.00000000000E+00 -0.22159498105E+04  0.22159498105E+04  0.00000000000E+00 0.  1.
         35    2    1    2    0    0  0.00000000000E+00  0.00000000000E+00 -0.22074690078E+04  0.22244306133E+04  0.27417536872E+03 0.  0.
         25    1    3    3    0    0 -0.78030486672E+01 -0.60683011495E+02 -0.89693342834E+03  0.90699111921E+03  0.12000000000E+03 0.  0.
         25    1    3    3    0    0  0.78030486672E+01  0.60683011495E+02 -0.13105355795E+04  0.13174394941E+04  0.12000000000E+03 0.  0.
<mgrwt>
<rscale>  0 0.27417537E+03</rscale>
<asrwt>0</asrwt>
<pdfrwt beam="1">  1        1 0.34091528E+00 0.27417537E+03</pdfrwt>
<pdfrwt beam="2">  1       -1 0.13047392E-02 0.27417537E+03</pdfrwt>
<totfact> 0.31203332E+03</totfact>
</mgrwt>
</event>
<event>
 5    1  0.1132878E+001  0.2749524E+03  0.7818608E-02  0.1098478E+00
         -2   -1    0    0    0  501 -0.00000000000E+00  0.00000000000E+00  0.12179718653E+02  0.12179718653E+02  0.00000000000E+00 0.  1.
          2   -1    0    0  501    0  0.00000000000E+00 -0.00000000000E+00 -0.15517360656E+04  0.15517360656E+04  0.00000000000E+00 0.  1.
         35    2    1    2    0    0  0.00000000000E+00  0.00000000000E+00 -0.15395563470E+04  0.15639157843E+04  0.27495242282E+03 0.  0.
         25    1    3    3    0    0 -0.18116220113E+02 -0.11286058717E+02 -0.11314949868E+04  0.11380406309E+04  0.12000000000E+03 0.  0.
         25    1    3    3    0    0  0.18116220113E+02  0.11286058717E+02 -0.40806136018E+03  0.42587515333E+03  0.12000000000E+03 0.  0.
<mgrwt>
<rscale>  0 0.27495242E+03</rscale>
<asrwt>0</asrwt>
<pdfrwt beam="1">  1        2 0.23872867E+00 0.27495242E+03</pdfrwt>
<pdfrwt beam="2">  1       -2 0.18738025E-02 0.27495242E+03</pdfrwt>
<totfact> 0.10893930E+04</totfact>
</mgrwt>
</event>
<event>
 5    1  0.1132878E+001  0.2679550E+03  0.7818608E-02  0.1102456E+00
          1   -1    0    0  501    0  0.00000000000E+00  0.00000000000E+00  0.11204410918E+04  0.11204410918E+04  0.00000000000E+00 0.  1.
         -1   -1    0    0    0  501 -0.00000000000E+00 -0.00000000000E+00 -0.16020445695E+02  0.16020445695E+02  0.00000000000E+00 0.  1.
         35    2    1    2    0    0  0.00000000000E+00  0.00000000000E+00  0.11044206461E+04  0.11364615375E+04  0.26795496387E+03 0.  0.
         25    1    3    3    0    0  0.49463194796E+02  0.29864401253E+02  0.61388729326E+03  0.62816884587E+03  0.12000000000E+03 0.  0.
         25    1    3    3    0    0 -0.49463194796E+02 -0.29864401253E+02  0.49053335289E+03  0.50829269166E+03  0.12000000000E+03 0.  0.
<mgrwt>
<rscale>  0 0.26795496E+03</rscale>
<asrwt>0</asrwt>
<pdfrwt beam="1">  1        1 0.17237549E+00 0.26795496E+03</pdfrwt>
<pdfrwt beam="2">  1       -1 0.24646848E-02 0.26795496E+03</pdfrwt>
<totfact> 0.65698086E+03</totfact>
</mgrwt>
</event>
<event>
 5    1  0.1132878E+001  0.2747977E+03  0.7818608E-02  0.1098565E+00
          2   -1    0    0  501    0  0.00000000000E+00  0.00000000000E+00  0.28732250058E+03  0.28732250058E+03  0.00000000000E+00 0. -1.
         -2   -1    0    0    0  501 -0.00000000000E+00 -0.00000000000E+00 -0.65704723605E+02  0.65704723605E+02  0.00000000000E+00 0. -1.
         35    2    1    2    0    0  0.00000000000E+00  0.00000000000E+00  0.22161777698E+03  0.35302722419E+03  0.27479771095E+03 0.  0.
         25    1    3    3    0    0  0.38600795002E+02 -0.49045962025E+02  0.79791965183E+02  0.15704230473E+03  0.12000000000E+03 0.  0.
         25    1    3    3    0    0 -0.38600795002E+02  0.49045962025E+02  0.14182581179E+03  0.19598491946E+03  0.12000000000E+03 0.  0.
<mgrwt>
<rscale>  0 0.27479771E+03</rscale>
<asrwt>0</asrwt>
<pdfrwt beam="1">  1        2 0.44203461E-01 0.27479771E+03</pdfrwt>
<pdfrwt beam="2">  1       -2 0.10108419E-01 0.27479771E+03</pdfrwt>
<totfact> 0.74176295E+03</totfact>
</mgrwt>
</event>
<event>
 5    1  0.1132878E+001  0.2755344E+03  0.7818608E-02  0.1098153E+00
          1   -1    0    0  501    0  0.00000000000E+00  0.00000000000E+00  0.12995715712E+03  0.12995715712E+03  0.00000000000E+00 0. -1.
         -1   -1    0    0    0  501 -0.00000000000E+00 -0.00000000000E+00 -0.14604661766E+03  0.14604661766E+03  0.00000000000E+00 0. -1.
         35    2    1    2    0    0  0.00000000000E+00  0.00000000000E+00 -0.16089460535E+02  0.27600377478E+03  0.27553441337E+03 0.  0.
         25    1    3    3    0    0  0.62933828855E+01  0.71672818760E+01 -0.75157566033E+02  0.14191418650E+03  0.12000000000E+03 0.  0.
         25    1    3    3    0    0 -0.62933828855E+01 -0.71672818760E+01  0.59068105498E+02  0.13408958828E+03  0.12000000000E+03 0.  0.
<mgrwt>
<rscale>  0 0.27553441E+03</rscale>
<asrwt>0</asrwt>
<pdfrwt beam="1">  1        1 0.19993409E-01 0.27553441E+03</pdfrwt>
<pdfrwt beam="2">  1       -1 0.22468710E-01 0.27553441E+03</pdfrwt>
<totfact> 0.42253722E+03</totfact>
</mgrwt>
</event>
<event>
 5    1  0.1132878E+001  0.2750370E+03  0.7818608E-02  0.1098431E+00
         -1   -1    0    0    0  501 -0.00000000000E+00  0.00000000000E+00  0.13667159896E+03  0.13667159896E+03  0.00000000000E+00 0.  1.
          1   -1    0    0  501    0  0.00000000000E+00 -0.00000000000E+00 -0.13837063044E+03  0.13837063044E+03  0.00000000000E+00 0.  1.
         35    2    1    2    0    0  0.00000000000E+00  0.00000000000E+00 -0.16990314761E+01  0.27504222940E+03  0.27503698160E+03 0.  0.
         25    1    3    3    0    0  0.36380885615E+02  0.55206924362E+02  0.10981262656E+02  0.13744803187E+03  0.12000000000E+03 0.  0.
         25    1    3    3    0    0 -0.36380885615E+02 -0.55206924362E+02 -0.12680294132E+02  0.13759419753E+03  0.12000000000E+03 0.  0.
<mgrwt>
<rscale>  0 0.27503698E+03</rscale>
<asrwt>0</asrwt>
<pdfrwt beam="1">  1        1 0.21287789E-01 0.27503698E+03</pdfrwt>
<pdfrwt beam="2">  1       -1 0.21026400E-01 0.27503698E+03</pdfrwt>
<totfact> 0.43453329E+03</totfact>
</mgrwt>
</event>
<event>
 4    1  0.1132878E+001  0.2577861E+03  0.7818608E-02  0.1108481E+00
         -1   -1    0    0    0  501 -0.00000000000E+00  0.00000000000E+00  0.99770027917E+02  0.99770027917E+02  0.00000000000E+00 0.  1.
          1   -1    0    0  501    0  0.00000000000E+00 -0.00000000000E+00 -0.16651713387E+03  0.16651713387E+03  0.00000000000E+00 0.  1.
         25    1    1    2    0    0 -0.37958975251E+02 -0.27736751163E+02 -0.35223686198E+02  0.13360733227E+03  0.12000000000E+03 0.  0.
         25    1    1    2    0    0  0.37958975251E+02  0.27736751163E+02 -0.31523419755E+02  0.13267982952E+03  0.12000000000E+03 0.  0.
<mgrwt>
<rscale>  0 0.25778611E+03</rscale>
<asrwt>0</asrwt>
<pdfrwt beam="1">  1        1 0.25618021E-01 0.25778611E+03</pdfrwt>
<pdfrwt beam="2">  1       -1 0.15349235E-01 0.25778611E+03</pdfrwt>
<totfact> 0.56805678E+03</totfact>
</mgrwt>
</event>
<event>
 5    1  0.1132878E+001  0.2744626E+03  0.7818608E-02  0.1098752E+00
          2   -1    0    0  501    0  0.00000000000E+00  0.00000000000E+00  0.15117388530E+04  0.15117388530E+04  0.00000000000E+00 0.  1.
         -2   -1    0    0    0  501 -0.00000000000E+00 -0.00000000000E+00 -0.12457466456E+02  0.12457466456E+02  0.00000000000E+00 0.  1.
         35    2    1    2    0    0  0.00000000000E+00  0.00000000000E+00  0.14992813865E+04  0.15241963194E+04  0.27446264628E+03 0.  0.
         25    1    3    3    0    0 -0.81057196260E+01  0.65802141092E+02  0.78333448866E+03  0.79524118705E+03  0.12000000000E+03 0.  0.
         25    1    3    3    0    0  0.81057196260E+01 -0.65802141092E+02  0.71594689785E+03  0.72895513236E+03  0.12000000000E+03 0.  0.
<mgrwt>
<rscale>  0 0.27446265E+03</rscale>
<asrwt>0</asrwt>
<pdfrwt beam="1">  1        2 0.23257506E+00 0.27446265E+03</pdfrwt>
<pdfrwt beam="2">  1       -2 0.19165345E-02 0.27446265E+03</pdfrwt>
<totfact> 0.11069104E+04</totfact>
</mgrwt>
</event>
<event>
 5    1  0.1132878E+001  0.2741464E+03  0.7818608E-02  0.1098930E+00
         -4   -1    0    0    0  501 -0.00000000000E+00  0.00000000000E+00  0.26259039210E+03  0.26259039210E+03  0.00000000000E+00 0.  1.
          4   -1    0    0  501    0  0.00000000000E+00 -0.00000000000E+00 -0.71552747317E+02  0.71552747317E+02  0.00000000000E+00 0.  1.
         35    2    1    2    0    0  0.00000000000E+00  0.00000000000E+00  0.19103764479E+03  0.33414313942E+03  0.27414641325E+03 0.  0.
         25    1    3    3    0    0  0.62962918725E+02 -0.12046382125E+02  0.11590020873E+03  0.17872409698E+03  0.12000000000E+03 0.  0.
         25    1    3    3    0    0 -0.62962918725E+02  0.12046382125E+02  0.75137436057E+02  0.15541904244E+03  0.12000000000E+03 0.  0.
<mgrwt>
<rscale>  0 0.27414641E+03</rscale>
<asrwt>0</asrwt>
<pdfrwt beam="1">  1        4 0.11008115E-01 0.27414641E+03</pdfrwt>
<pdfrwt beam="2">  1       -4 0.40398521E-01 0.27414641E+03</pdfrwt>
<totfact> 0.72020042E+02</totfact>
</mgrwt>
</event>
<event>
 5    1  0.1132878E+001  0.2738192E+03  0.7818608E-02  0.1099113E+00
         -2   -1    0    0    0  501 -0.00000000000E+00  0.00000000000E+00  0.44019896763E+03  0.44019896763E+03  0.00000000000E+00 0. -1.
          2   -1    0    0  501    0  0.00000000000E+00 -0.00000000000E+00 -0.42581291858E+02  0.42581291858E+02  0.00000000000E+00 0. -1.
         35    2    1    2    0    0  0.00000000000E+00  0.00000000000E+00  0.39761767577E+03  0.48278025948E+03  0.27381921566E+03 0.  0.
         25    1    3    3    0    0  0.14267265310E+02 -0.37014344088E+02  0.10600319310E+03  0.16495542876E+03  0.12000000000E+03 0.  0.
         25    1    3    3    0    0 -0.14267265310E+02  0.37014344088E+02  0.29161448266E+03  0.31782483073E+03  0.12000000000E+03 0.  0.
<mgrwt>
<rscale>  0 0.27381922E+03</rscale>
<asrwt>0</asrwt>
<pdfrwt beam="1">  1        2 0.65509683E-02 0.27381922E+03</pdfrwt>
<pdfrwt beam="2">  1       -2 0.67722915E-01 0.27381922E+03</pdfrwt>
<totfact> 0.22490000E+03</totfact>
</mgrwt>
</event>
<event>
 5    1  0.1132878E+001  0.2750536E+03  0.7818608E-02  0.1098422E+00
          1   -1    0    0  501    0  0.00000000000E+00  0.00000000000E+00  0.26967415525E+02  0.26967415525E+02  0.00000000000E+00 0. -1.
         -1   -1    0    0    0  501 -0.00000000000E+00 -0.00000000000E+00 -0.70135076009E+03  0.70135076009E+03  0.00000000000E+00 0. -1.
         35    2    1    2    0    0  0.00000000000E+00  0.00000000000E+00 -0.67438334457E+03  0.72831817562E+03  0.27505357570E+03 0.  0.
         25    1    3    3    0    0 -0.52749886427E+01 -0.55257432750E+02 -0.23697563604E+03  0.27136444398E+03  0.12000000000E+03 0.  0.
         25    1    3    3    0    0  0.52749886427E+01  0.55257432750E+02 -0.43740770853E+03  0.45695373164E+03  0.12000000000E+03 0.  0.
<mgrwt>
<rscale>  0 0.27505358E+03</rscale>
<asrwt>0</asrwt>
<pdfrwt beam="1">  1        1 0.41488339E-02 0.27505358E+03</pdfrwt>
<pdfrwt beam="2">  1       -1 0.10790010E+00 0.27505358E+03</pdfrwt>
<totfact> 0.18308114E+03</totfact>
</mgrwt>
</event>
<event>
 5    1  0.1132878E+001  0.2755435E+03  0.7818608E-02  0.1098148E+00
         -1   -1    0    0    0  501 -0.00000000000E+00  0.00000000000E+00  0.83851460148E+02  0.83851460148E+02  0.00000000000E+00 0.  1.
          1   -1    0    0  501    0  0.00000000000E+00 -0.00000000000E+00 -0.22636527910E+03  0.22636527910E+03  0.00000000000E+00 0.  1.
         35    2    1    2    0    0  0.00000000000E+00  0.00000000000E+00 -0.14251381895E+03  0.31021673925E+03  0.27554352962E+03 0.  0.
         25    1    3    3    0    0  0.38252585965E+01  0.38719517797E+02 -0.13360854727E+03  0.18375276206E+03  0.12000000000E+03 0.  0.
         25    1    3    3    0    0 -0.38252585965E+01 -0.38719517797E+02 -0.89052716812E+01  0.12646397719E+03  0.12000000000E+03 0.  0.
<mgrwt>
<rscale>  0 0.27554353E+03</rscale>
<asrwt>0</asrwt>
<pdfrwt beam="1">  1        1 0.34825428E-01 0.27554353E+03</pdfrwt>
<pdfrwt beam="2">  1       -1 0.12900225E-01 0.27554353E+03</pdfrwt>
<totfact> 0.50849363E+03</totfact>
</mgrwt>
</event>
<event>
 5    1  0.1132878E+001  0.2738077E+03  0.7818608E-02  0.1099120E+00
          2   -1    0    0  501    0  0.00000000000E+00  0.00000000000E+00  0.12824793212E+04  0.12824793212E+04  0.00000000000E+00 0.  1.
         -2   -1    0    0    0  501 -0.00000000000E+00 -0.00000000000E+00 -0.14614398365E+02  0.14614398365E+02  0.00000000000E+00 0.  1.
         35    2    1    2    0    0  0.00000000000E+00  0.00000000000E+00  0.12678649228E+04  0.12970937196E+04  0.27380769671E+03 0.  0.
         25    1    3    3    0    0 -0.23087304579E+02 -0.17927876221E+02  0.91371998409E+03  0.92202963169E+03  0.12000000000E+03 0.  0.
         25    1    3    3    0    0  0.23087304579E+02  0.17927876221E+02  0.35414493873E+03  0.37506408786E+03  0.12000000000E+03 0.  0.
<mgrwt>
<rscale>  0 0.27380770E+03</rscale>
<asrwt>0</asrwt>
<pdfrwt beam="1">  1        2 0.19730442E+00 0.27380770E+03</pdfrwt>
<pdfrwt beam="2">  1       -2 0.22483700E-02 0.27380770E+03</pdfrwt>
<totfact> 0.11659043E+04</totfact>
</mgrwt>
</event>
<event>
 5    1  0.1132878E+001  0.2742625E+03  0.7818608E-02  0.1098865E+00
          2   -1    0    0  501    0  0.00000000000E+00  0.00000000000E+00  0.31619398217E+04  0.31619398217E+04  0.00000000000E+00 0. -1.
         -2   -1    0    0    0  501 -0.00000000000E+00 -0.00000000000E+00 -0.59472941402E+01  0.59472941402E+01  0.00000000000E+00 0. -1.
         35    2    1    2    0    0  0.00000000000E+00  0.00000000000E+00  0.31559925276E+04  0.31678871158E+04  0.27426254701E+03 0.  0.
         25    1    3    3    0    0  0.54816491880E+02  0.13703150080E+02  0.11758172889E+04  0.11832746599E+04  0.12000000000E+03 0.  0.
         25    1    3    3    0    0 -0.54816491880E+02 -0.13703150080E+02  0.19801752387E+04  0.19846124559E+04  0.12000000000E+03 0.  0.
<mgrwt>
<rscale>  0 0.27426255E+03</rscale>
<asrwt>0</asrwt>
<pdfrwt beam="1">  1        2 0.48645094E+00 0.27426255E+03</pdfrwt>
<pdfrwt beam="2">  1       -2 0.91497085E-03 0.27426255E+03</pdfrwt>
<totfact> 0.40377766E+03</totfact>
</mgrwt>
</event>
<event>
 5    1  0.1132878E+001  0.2750036E+03  0.7818608E-02  0.1098450E+00
         -2   -1    0    0    0  501 -0.00000000000E+00  0.00000000000E+00  0.64566046270E+02  0.64566046270E+02  0.00000000000E+00 0.  1.
          2   -1    0    0  501    0  0.00000000000E+00 -0.00000000000E+00 -0.29282800674E+03  0.29282800674E+03  0.00000000000E+00 0.  1.
         35    2    1    2    0    0  0.00000000000E+00  0.00000000000E+00 -0.22826196047E+03  0.35739405301E+03  0.27500361185E+03 0.  0.
         25    1    3    3    0    0  0.58621624556E+02 -0.25881651914E+02 -0.88126298423E+02  0.16208824524E+03  0.12000000000E+03 0.  0.
         25    1    3    3    0    0 -0.58621624556E+02  0.25881651914E+02 -0.14013566205E+03  0.19530580777E+03  0.12000000000E+03 0.  0.
<mgrwt>
<rscale>  0 0.27500361E+03</rscale>
<asrwt>0</asrwt>
<pdfrwt beam="1">  1        2 0.45050462E-01 0.27500361E+03</pdfrwt>
<pdfrwt beam="2">  1       -2 0.99332380E-02 0.27500361E+03</pdfrwt>
<totfact> 0.74727862E+03</totfact>
</mgrwt>
</event>
<event>
 5    1  0.1132878E+001  0.2747966E+03  0.7818608E-02  0.1098565E+00
          2   -1    0    0  501    0  0.00000000000E+00  0.00000000000E+00  0.65877203650E+03  0.65877203650E+03  0.00000000000E+00 0.  1.
         -2   -1    0    0    0  501 -0.00000000000E+00 -0.00000000000E+00 -0.28656793794E+02  0.28656793794E+02  0.00000000000E+00 0.  1.
         35    2    1    2    0    0  0.00000000000E+00  0.00000000000E+00  0.63011524271E+03  0.68742883030E+03  0.27479661138E+03 0.  0.
         25    1    3    3    0    0  0.57373522877E+02  0.53104576418E+01  0.22991628651E+03  0.26567164111E+03  0.12000000000E+03 0.  0.
         25    1    3    3    0    0 -0.57373522877E+02 -0.53104576418E+01  0.40019895620E+03  0.42175718918E+03  0.12000000000E+03 0.  0.
<mgrwt>
<rscale>  0 0.27479661E+03</rscale>
<asrwt>0</asrwt>
<pdfrwt beam="1">  1        2 0.10134953E+00 0.27479661E+03</pdfrwt>
<pdfrwt beam="2">  1       -2 0.44087380E-02 0.27479661E+03</pdfrwt>
<totfact> 0.10662139E+04</totfact>
</mgrwt>
</event>
<event>
 5    1  0.1132878E+001  0.2753985E+03  0.7818608E-02  0.1098229E+00
         -1   -1    0    0    0  501 -0.00000000000E+00  0.00000000000E+00  0.53043530523E+02  0.53043530523E+02  0.00000000000E+00 0.  1.
          1   -1    0    0  501    0  0.00000000000E+00 -0.00000000000E+00 -0.35746277991E+03  0.35746277991E+03  0.00000000000E+00 0.  1.
         35    2    1    2    0    0  0.00000000000E+00  0.00000000000E+00 -0.30441924939E+03  0.41050631044E+03  0.27539853215E+03 0.  0.
         25    1    3    3    0    0  0.58588312753E+02  0.29230092336E+02 -0.17688774579E+03  0.22355371457E+03  0.12000000000E+03 0.  0.
         25    1    3    3    0    0 -0.58588312753E+02 -0.29230092336E+02 -0.12753150360E+03  0.18695259586E+03  0.12000000000E+03 0.  0.
<mgrwt>
<rscale>  0 0.27539853E+03</rscale>
<asrwt>0</asrwt>
<pdfrwt beam="1">  1        1 0.54994276E-01 0.27539853E+03</pdfrwt>
<pdfrwt beam="2">  1       -1 0.81605429E-02 0.27539853E+03</pdfrwt>
<totfact> 0.58137860E+03</totfact>
</mgrwt>
</event>
<event>
 5    1  0.1132878E+001  0.2751074E+03  0.7818608E-02  0.1098392E+00
          4   -1    0    0  501    0  0.00000000000E+00  0.00000000000E+00  0.70193801718E+02  0.70193801718E+02  0.00000000000E+00 0. -1.
         -4   -1    0    0    0  501 -0.00000000000E+00 -0.00000000000E+00 -0.26955402544E+03  0.26955402544E+03  0.00000000000E+00 0. -1.
         35    2    1    2    0    0  0.00000000000E+00  0.00000000000E+00 -0.19936022372E+03  0.33974782716E+03  0.27510741040E+03 0.  0.
         25    1    3    3    0    0 -0.41421975591E+02  0.49385020382E+02 -0.76042188431E+02  0.15600344458E+03  0.12000000000E+03 0.  0.
         25    1    3    3    0    0  0.41421975591E+02 -0.49385020382E+02 -0.12331803529E+03  0.18374438257E+03  0.12000000000E+03 0.  0.
<mgrwt>
<rscale>  0 0.27510741E+03</rscale>
<asrwt>0</asrwt>
<pdfrwt beam="1">  1        4 0.10799047E-01 0.27510741E+03</pdfrwt>
<pdfrwt beam="2">  1       -4 0.41469849E-01 0.27510741E+03</pdfrwt>
<totfact> 0.70673744E+02</totfact>
</mgrwt>
</event>
<event>
 5    1  0.1132878E+001  0.2743111E+03  0.7818608E-02  0.1098837E+00
         -2   -1    0    0    0  501 -0.00000000000E+00  0.00000000000E+00  0.39666977454E+02  0.39666977454E+02  0.00000000000E+00 0.  1.
          2   -1    0    0  501    0  0.00000000000E+00 -0.00000000000E+00 -0.47423927976E+03  0.47423927976E+03  0.00000000000E+00 0.  1.
         35    2    1    2    0    0  0.00000000000E+00  0.00000000000E+00 -0.43457230231E+03  0.51390625721E+03  0.27431105569E+03 0.  0.
         25    1    3    3    0    0  0.13177253242E+02  0.50079819066E+02 -0.13936327604E+03  0.19105954828E+03  0.12000000000E+03 0.  0.
         25    1    3    3    0    0 -0.13177253242E+02 -0.50079819066E+02 -0.29520902626E+03  0.32284670893E+03  0.12000000000E+03 0.  0.
<mgrwt>
<rscale>  0 0.27431106E+03</rscale>
<asrwt>0</asrwt>
<pdfrwt beam="1">  1        2 0.72959888E-01 0.27431106E+03</pdfrwt>
<pdfrwt beam="2">  1       -2 0.61026120E-02 0.27431106E+03</pdfrwt>
<totfact> 0.94685643E+03</totfact>
</mgrwt>
</event>
<event>
 5    1  0.1132878E+001  0.2732400E+03  0.7818608E-02  0.1099439E+00
          1   -1    0    0  501    0  0.00000000000E+00  0.00000000000E+00  0.12601398486E+04  0.12601398486E+04  0.00000000000E+00 0.  1.
         -1   -1    0    0    0  501 -0.00000000000E+00 -0.00000000000E+00 -0.14811863858E+02  0.14811863858E+02  0.00000000000E+00 0.  1.
         35    2    1    2    0    0  0.00000000000E+00  0.00000000000E+00  0.12453279847E+04  0.12749517124E+04  0.27323996691E+03 0.  0.
         25    1    3    3    0    0  0.61296241180E+02  0.12374662376E+02  0.53479115394E+03  0.55164475869E+03  0.12000000000E+03 0.  0.
         25    1    3    3    0    0 -0.61296241180E+02 -0.12374662376E+02  0.71053683078E+03  0.72330695376E+03  0.12000000000E+03 0.  0.
<mgrwt>
<rscale>  0 0.27323997E+03</rscale>
<asrwt>0</asrwt>
<pdfrwt beam="1">  1        1 0.19386759E+00 0.27323997E+03</pdfrwt>
<pdfrwt beam="2">  1       -1 0.22787493E-02 0.27323997E+03</pdfrwt>
<totfact> 0.58838549E+03</totfact>
</mgrwt>
</event>
<event>
 5    1  0.1132878E+001  0.2757342E+03  0.7818608E-02  0.1098042E+00
          4   -1    0    0  501    0  0.00000000000E+00  0.00000000000E+00  0.10321541473E+03  0.10321541473E+03  0.00000000000E+00 0.  1.
         -4   -1    0    0    0  501 -0.00000000000E+00 -0.00000000000E+00 -0.18415207511E+03  0.18415207511E+03  0.00000000000E+00 0.  1.
         35    2    1    2    0    0  0.00000000000E+00  0.00000000000E+00 -0.80936660386E+02  0.28736748984E+03  0.27573416767E+03 0.  0.
         25    1    3    3    0    0  0.31784468035E+02  0.19597336818E+02 -0.99543378743E+02  0.16032215153E+03  0.12000000000E+03 0.  0.
         25    1    3    3    0    0 -0.31784468035E+02 -0.19597336818E+02  0.18606718357E+02  0.12704533831E+03  0.12000000000E+03 0.  0.
<mgrwt>
<rscale>  0 0.27573417E+03</rscale>
<asrwt>0</asrwt>
<pdfrwt beam="1">  1        4 0.15879295E-01 0.27573417E+03</pdfrwt>
<pdfrwt beam="2">  1       -4 0.28331088E-01 0.27573417E+03</pdfrwt>
<totfact> 0.75796321E+02</totfact>
</mgrwt>
</event>
<event>
 5    1  0.1132878E+001  0.2781104E+03  0.7818608E-02  0.1096725E+00
         -1   -1    0    0    0  501 -0.00000000000E+00  0.00000000000E+00  0.10778533770E+04  0.10778533770E+04  0.00000000000E+00 0.  1.
          1   -1    0    0  501    0  0.00000000000E+00 -0.00000000000E+00 -0.17939684674E+02  0.17939684674E+02  0.00000000000E+00 0.  1.
         35    2    1    2    0    0  0.00000000000E+00  0.00000000000E+00  0.10599136923E+04  0.10957930616E+04  0.27811040762E+03 0.  0.
         25    1    3    3    0    0  0.29307971702E+02  0.49791111740E+02  0.68747549907E+03  0.70025757678E+03  0.12000000000E+03 0.  0.
         25    1    3    3    0    0 -0.29307971702E+02 -0.49791111740E+02  0.37243819322E+03  0.39553548485E+03  0.12000000000E+03 0.  0.
<mgrwt>
<rscale>  0 0.27811041E+03</rscale>
<asrwt>0</asrwt>
<pdfrwt beam="1">  1        1 0.27599523E-02 0.27811041E+03</pdfrwt>
<pdfrwt beam="2">  1       -1 0.16582355E+00 0.27811041E+03</pdfrwt>
<totfact> 0.11059946E+03</totfact>
</mgrwt>
</event>
<event>
 5    1  0.1132878E+001  0.2752836E+03  0.7818608E-02  0.1098293E+00
          2   -1    0    0  501    0  0.00000000000E+00  0.00000000000E+00  0.17681099908E+03  0.17681099908E+03  0.00000000000E+00 0. -1.
         -2   -1    0    0    0  501 -0.00000000000E+00 -0.00000000000E+00 -0.10714978364E+03  0.10714978364E+03  0.00000000000E+00 0. -1.
         35    2    1    2    0    0  0.00000000000E+00  0.00000000000E+00  0.69661215432E+02  0.28396078272E+03  0.27528356505E+03 0.  0.
         25    1    3    3    0    0 -0.33984922753E+02  0.34590877204E+02 -0.13483314366E+02  0.13012802744E+03  0.12000000000E+03 0.  0.
         25    1    3    3    0    0  0.33984922753E+02 -0.34590877204E+02  0.83144529798E+02  0.15383275528E+03  0.12000000000E+03 0.  0.
<mgrwt>
<rscale>  0 0.27528357E+03</rscale>
<asrwt>0</asrwt>
<pdfrwt beam="1">  1        2 0.27201692E-01 0.27528357E+03</pdfrwt>
<pdfrwt beam="2">  1       -2 0.16484582E-01 0.27528357E+03</pdfrwt>
<totfact> 0.56751871E+03</totfact>
</mgrwt>
</event>
<event>
 5    1  0.1132878E+001  0.2754923E+03  0.7818608E-02  0.1098177E+00
          2   -1    0    0  501    0  0.00000000000E+00  0.00000000000E+00  0.10907706487E+03  0.10907706487E+03  0.00000000000E+00 0.  1.
         -2   -1    0    0    0  501 -0.00000000000E+00 -0.00000000000E+00 -0.17395043582E+03  0.17395043582E+03  0.00000000000E+00 0.  1.
         35    2    1    2    0    0  0.00000000000E+00  0.00000000000E+00 -0.64873370946E+02  0.28302750069E+03  0.27549230822E+03 0.  0.
         25    1    3    3    0    0 -0.29042130209E+02 -0.26271269694E+02  0.24211101940E+02  0.12852938339E+03  0.12000000000E+03 0.  0.
         25    1    3    3    0    0  0.29042130209E+02  0.26271269694E+02 -0.89084472886E+02  0.15449811730E+03  0.12000000000E+03 0.  0.
<mgrwt>
<rscale>  0 0.27549231E+03</rscale>
<asrwt>0</asrwt>
<pdfrwt beam="1">  1        2 0.16781087E-01 0.27549231E+03</pdfrwt>
<pdfrwt beam="2">  1       -2 0.26761606E-01 0.27549231E+03</pdfrwt>
<totfact> 0.42657135E+03</totfact>
</mgrwt>
</event>
<event>
 5    1  0.1132878E+001  0.2767270E+03  0.7818608E-02  0.1097490E+00
          1   -1    0    0  501    0  0.00000000000E+00  0.00000000000E+00  0.69821741813E+03  0.69821741813E+03  0.00000000000E+00 0. -1.
         -1   -1    0    0    0  501 -0.00000000000E+00 -0.00000000000E+00 -0.27419049244E+02  0.27419049244E+02  0.00000000000E+00 0. -1.
         35    2    1    2    0    0  0.00000000000E+00  0.00000000000E+00  0.67079836889E+03  0.72563646738E+03  0.27672699739E+03 0.  0.
         25    1    3    3    0    0 -0.61140043328E+02 -0.26975251024E+02  0.37917429519E+03  0.40328515371E+03  0.12000000000E+03 0.  0.
         25    1    3    3    0    0  0.61140043328E+02  0.26975251024E+02  0.29162407370E+03  0.32235131367E+03  0.12000000000E+03 0.  0.
<mgrwt>
<rscale>  0 0.27672700E+03</rscale>
<asrwt>0</asrwt>
<pdfrwt beam="1">  1        1 0.10741805E+00 0.27672700E+03</pdfrwt>
<pdfrwt beam="2">  1       -1 0.42183158E-02 0.27672700E+03</pdfrwt>
<totfact> 0.64111527E+03</totfact>
</mgrwt>
</event>
<event>
 5    1  0.1132878E+001  0.2755432E+03  0.7818608E-02  0.1098148E+00
         -2   -1    0    0    0  501 -0.00000000000E+00  0.00000000000E+00  0.83382373404E+01  0.83382373404E+01  0.00000000000E+00 0. -1.
          2   -1    0    0  501    0  0.00000000000E+00 -0.00000000000E+00 -0.22763822497E+04  0.22763822497E+04  0.00000000000E+00 0. -1.
         35    2    1    2    0    0  0.00000000000E+00  0.00000000000E+00 -0.22680440123E+04  0.22847204870E+04  0.27554321240E+03 0.  0.
         25    1    3    3    0    0 -0.50815367822E+02 -0.18339406948E+02 -0.14721036382E+04  0.14779741733E+04  0.12000000000E+03 0.  0.
         25    1    3    3    0    0  0.50815367822E+02  0.18339406948E+02 -0.79594037415E+03  0.80674631370E+03  0.12000000000E+03 0.  0.
<mgrwt>
<rscale>  0 0.27554321E+03</rscale>
<asrwt>0</asrwt>
<pdfrwt beam="1">  1        2 0.35021266E+00 0.27554321E+03</pdfrwt>
<pdfrwt beam="2">  1       -2 0.12828057E-02 0.27554321E+03</pdfrwt>
<totfact> 0.78618119E+03</totfact>
</mgrwt>
</event>
<event>
 5    1  0.1132878E+001  0.2744655E+03  0.7818608E-02  0.1098751E+00
         -1   -1    0    0    0  501 -0.00000000000E+00  0.00000000000E+00  0.18722706878E+02  0.18722706878E+02  0.00000000000E+00 0.  1.
          1   -1    0    0  501    0  0.00000000000E+00 -0.00000000000E+00 -0.10058814325E+04  0.10058814325E+04  0.00000000000E+00 0.  1.
         35    2    1    2    0    0  0.00000000000E+00  0.00000000000E+00 -0.98715872567E+03  0.10246041394E+04  0.27446546752E+03 0.  0.
         25    1    3    3    0    0 -0.44112094267E+02  0.49857518566E+02 -0.48953417232E+03  0.50840471564E+03  0.12000000000E+03 0.  0.
         25    1    3    3    0    0  0.44112094267E+02 -0.49857518566E+02 -0.49762455335E+03  0.51619942378E+03  0.12000000000E+03 0.  0.
<mgrwt>
<rscale>  0 0.27446547E+03</rscale>
<asrwt>0</asrwt>
<pdfrwt beam="1">  1        1 0.15475103E+00 0.27446547E+03</pdfrwt>
<pdfrwt beam="2">  1       -1 0.28804157E-02 0.27446547E+03</pdfrwt>
<totfact> 0.63366992E+03</totfact>
</mgrwt>
</event>
<event>
 5    1  0.1132878E+001  0.2748296E+03  0.7818608E-02  0.1098547E+00
         -2   -1    0    0    0  501 -0.00000000000E+00  0.00000000000E+00  0.20635275562E+04  0.20635275562E+04  0.00000000000E+00 0.  1.
          2   -1    0    0  501    0  0.00000000000E+00 -0.00000000000E+00 -0.91507502831E+01  0.91507502831E+01  0.00000000000E+00 0.  1.
         35    2    1    2    0    0  0.00000000000E+00  0.00000000000E+00  0.20543768060E+04  0.20726783065E+04  0.27482958625E+03 0.  0.
         25    1    3    3    0    0 -0.52468819025E+02 -0.38261313172E+02  0.11501711460E+04  0.11582359734E+04  0.12000000000E+03 0.  0.
         25    1    3    3    0    0  0.52468819025E+02  0.38261313172E+02  0.90420565998E+03  0.91444233312E+03  0.12000000000E+03 0.  0.
<mgrwt>
<rscale>  0 0.27482959E+03</rscale>
<asrwt>0</asrwt>
<pdfrwt beam="1">  1        2 0.14078094E-02 0.27482959E+03</pdfrwt>
<pdfrwt beam="2">  1       -2 0.31746541E+00 0.27482959E+03</pdfrwt>
<totfact> 0.25805258E+02</totfact>
</mgrwt>
</event>
<event>
 4    1  0.1132878E+001  0.2595109E+03  0.7818608E-02  0.1107437E+00
          2   -1    0    0  501    0  0.00000000000E+00  0.00000000000E+00  0.36281804645E+02  0.36281804645E+02  0.00000000000E+00 0.  1.
         -2   -1    0    0    0  501 -0.00000000000E+00 -0.00000000000E+00 -0.46404738937E+03  0.46404738937E+03  0.00000000000E+00 0.  1.
         25    1    1    2    0    0  0.29617724183E+02  0.31925563689E+02 -0.25868582229E+03  0.28846976593E+03  0.12000000000E+03 0.  0.
         25    1    1    2    0    0 -0.29617724183E+02 -0.31925563689E+02 -0.16907976244E+03  0.21185942808E+03  0.12000000000E+03 0.  0.
<mgrwt>
<rscale>  0 0.25951090E+03</rscale>
<asrwt>0</asrwt>
<pdfrwt beam="1">  1        2 0.55818158E-02 0.25951090E+03</pdfrwt>
<pdfrwt beam="2">  1       -2 0.71391910E-01 0.25951090E+03</pdfrwt>
<totfact> 0.24708291E+03</totfact>
</mgrwt>
</event>
<event>
 5    1  0.1132878E+001  0.2701418E+03  0.7818608E-02  0.1101199E+00
          1   -1    0    0  501    0  0.00000000000E+00  0.00000000000E+00  0.73954887927E+02  0.73954887927E+02  0.00000000000E+00 0. -1.
         -1   -1    0    0    0  501 -0.00000000000E+00 -0.00000000000E+00 -0.24669284083E+03  0.24669284083E+03  0.00000000000E+00 0. -1.
         35    2    1    2    0    0  0.00000000000E+00  0.00000000000E+00 -0.17273795290E+03  0.32064772875E+03  0.27014175091E+03 0.  0.
         25    1    3    3    0    0  0.38120937916E+02 -0.25887361339E+02 -0.37131120446E+02  0.13379866027E+03  0.12000000000E+03 0.  0.
         25    1    3    3    0    0 -0.38120937916E+02  0.25887361339E+02 -0.13560683246E+03  0.18684906848E+03  0.12000000000E+03 0.  0.
<mgrwt>
<rscale>  0 0.27014175E+03</rscale>
<asrwt>0</asrwt>
<pdfrwt beam="1">  1        1 0.11377675E-01 0.27014175E+03</pdfrwt>
<pdfrwt beam="2">  1       -1 0.37952745E-01 0.27014175E+03</pdfrwt>
<totfact> 0.36335278E+03</totfact>
</mgrwt>
</event>
<event>
 5    1  0.1132878E+001  0.2751942E+03  0.7818608E-02  0.1098343E+00
         -2   -1    0    0    0  501 -0.00000000000E+00  0.00000000000E+00  0.19230127566E+03  0.19230127566E+03  0.00000000000E+00 0. -1.
          2   -1    0    0  501    0  0.00000000000E+00 -0.00000000000E+00 -0.98454680028E+02  0.98454680028E+02  0.00000000000E+00 0. -1.
         35    2    1    2    0    0  0.00000000000E+00  0.00000000000E+00  0.93846595631E+02  0.29075595569E+03  0.27519419008E+03 0.  0.
         25    1    3    3    0    0 -0.60486742337E+02 -0.16078453047E+02  0.20704760177E+02  0.13691548395E+03  0.12000000000E+03 0.  0.
         25    1    3    3    0    0  0.60486742337E+02  0.16078453047E+02  0.73141835454E+02  0.15384047174E+03  0.12000000000E+03 0.  0.
<mgrwt>
<rscale>  0 0.27519419E+03</rscale>
<asrwt>0</asrwt>
<pdfrwt beam="1">  1        2 0.15146874E-01 0.27519419E+03</pdfrwt>
<pdfrwt beam="2">  1       -2 0.29584812E-01 0.27519419E+03</pdfrwt>
<totfact> 0.40183808E+03</totfact>
</mgrwt>
</event>
<event>
 5    1  0.1132878E+001  0.2802155E+03  0.7818608E-02  0.1095571E+00
          1   -1    0    0  501    0  0.00000000000E+00  0.00000000000E+00  0.16559606007E+03  0.16559606007E+03  0.00000000000E+00 0.  1.
         -1   -1    0    0    0  501 -0.00000000000E+00 -0.00000000000E+00 -0.11854259297E+03  0.11854259297E+03  0.00000000000E+00 0.  1.
         35    2    1    2    0    0  0.00000000000E+00  0.00000000000E+00  0.47053467106E+02  0.28413865304E+03  0.28021553380E+03 0.  0.
         25    1    3    3    0    0 -0.69958928062E+02 -0.18314584444E+02  0.24251390698E+02  0.14218933001E+03  0.12000000000E+03 0.  0.
         25    1    3    3    0    0  0.69958928062E+02  0.18314584444E+02  0.22802076408E+02  0.14194932303E+03  0.12000000000E+03 0.  0.
<mgrwt>
<rscale>  0 0.28021553E+03</rscale>
<asrwt>0</asrwt>
<pdfrwt beam="1">  1        1 0.25476317E-01 0.28021553E+03</pdfrwt>
<pdfrwt beam="2">  1       -1 0.18237322E-01 0.28021553E+03</pdfrwt>
<totfact> 0.43540475E+03</totfact>
</mgrwt>
</event>
<event>
 5    1  0.1132878E+001  0.2744700E+03  0.7818608E-02  0.1098748E+00
         -1   -1    0    0    0  501 -0.00000000000E+00  0.00000000000E+00  0.95810606536E+02  0.95810606536E+02  0.00000000000E+00 0.  1.
          1   -1    0    0  501    0  0.00000000000E+00 -0.00000000000E+00 -0.19656946925E+03  0.19656946925E+03  0.00000000000E+00 0.  1.
         35    2    1    2    0    0  0.00000000000E+00  0.00000000000E+00 -0.10075886272E+03  0.29238007579E+03  0.27446996248E+03 0.  0.
         25    1    3    3    0    0  0.43194989833E+02 -0.14918417256E+01 -0.10433435940E+03  0.16478377132E+03  0.12000000000E+03 0.  0.
         25    1    3    3    0    0 -0.43194989833E+02  0.14918417256E+01  0.35754966824E+01  0.12759630447E+03  0.12000000000E+03 0.  0.
<mgrwt>
<rscale>  0 0.27446996E+03</rscale>
<asrwt>0</asrwt>
<pdfrwt beam="1">  1        1 0.30241456E-01 0.27446996E+03</pdfrwt>
<pdfrwt beam="2">  1       -1 0.14740094E-01 0.27446996E+03</pdfrwt>
<totfact> 0.49212077E+03</totfact>
</mgrwt>
</event>
<event>
 5    1  0.1132878E+001  0.2874638E+03  0.7818608E-02  0.1091681E+00
         -4   -1    0    0    0  501 -0.00000000000E+00  0.00000000000E+00  0.65485819866E+03  0.65485819866E+03  0.00000000000E+00 0.  1.
          4   -1    0    0  501    0  0.00000000000E+00 -0.00000000000E+00 -0.31547077226E+02  0.31547077226E+02  0.00000000000E+00 0.  1.
         35    2    1    2    0    0  0.00000000000E+00  0.00000000000E+00  0.62331112144E+03  0.68640527589E+03  0.28746382148E+03 0.  0.
         25    1    3    3    0    0 -0.11004676673E+02 -0.66349744202E+02  0.41112875432E+03  0.43353228726E+03  0.12000000000E+03 0.  0.
         25    1    3    3    0    0  0.11004676673E+02  0.66349744202E+02  0.21218236711E+03  0.25287298863E+03  0.12000000000E+03 0.  0.
<mgrwt>
<rscale>  0 0.28746382E+03</rscale>
<asrwt>0</asrwt>
<pdfrwt beam="1">  1        4 0.48533970E-02 0.28746382E+03</pdfrwt>
<pdfrwt beam="2">  1       -4 0.10074741E+00 0.28746382E+03</pdfrwt>
<totfact> 0.39580897E+02</totfact>
</mgrwt>
</event>
<event>
 5    1  0.1132878E+001  0.2749874E+03  0.7818608E-02  0.1098459E+00
          2   -1    0    0  501    0  0.00000000000E+00  0.00000000000E+00  0.38892316316E+03  0.38892316316E+03  0.00000000000E+00 0. -1.
         -2   -1    0    0    0  501 -0.00000000000E+00 -0.00000000000E+00 -0.48607321296E+02  0.48607321296E+02  0.00000000000E+00 0. -1.
         35    2    1    2    0    0  0.00000000000E+00  0.00000000000E+00  0.34031584186E+03  0.43753048445E+03  0.27498736808E+03 0.  0.
         25    1    3    3    0    0 -0.32013803290E+02 -0.19962934706E+02  0.81839919996E+02  0.15007056630E+03  0.12000000000E+03 0.  0.
         25    1    3    3    0    0  0.32013803290E+02  0.19962934706E+02  0.25847592187E+03  0.28745991816E+03  0.12000000000E+03 0.  0.
<mgrwt>
<rscale>  0 0.27498737E+03</rscale>
<asrwt>0</asrwt>
<pdfrwt beam="1">  1        2 0.59834331E-01 0.27498737E+03</pdfrwt>
<pdfrwt beam="2">  1       -2 0.74780497E-02 0.27498737E+03</pdfrwt>
<totfact> 0.85956428E+03</totfact>
</mgrwt>
</event>
<event>
 5    1  0.1132878E+001  0.2756406E+03  0.7818608E-02  0.1098094E+00
          1   -1    0    0  501    0  0.00000000000E+00  0.00000000000E+00  0.43606923875E+03  0.43606923875E+03  0.00000000000E+00 0. -1.
         -1   -1    0    0    0  501 -0.00000000000E+00 -0.00000000000E+00 -0.43558309342E+02  0.43558309342E+02  0.00000000000E+00 0. -1.
         35    2    1    2    0    0  0.00000000000E+00  0.00000000000E+00  0.39251092940E+03  0.47962754809E+03  0.27564062687E+03 0.  0.
         25    1    3    3    0    0 -0.86306696193E+01 -0.34616341747E+02  0.29654103025E+03  0.32188408192E+03  0.12000000000E+03 0.  0.
         25    1    3    3    0    0  0.86306696193E+01  0.34616341747E+02  0.95969899155E+02  0.15774346617E+03  0.12000000000E+03 0.  0.
<mgrwt>
<rscale>  0 0.27564063E+03</rscale>
<asrwt>0</asrwt>
<pdfrwt beam="1">  1        1 0.67087572E-01 0.27564063E+03</pdfrwt>
<pdfrwt beam="2">  1       -1 0.67012787E-02 0.27564063E+03</pdfrwt>
<totfact> 0.60817257E+03</totfact>
</mgrwt>
</event>
<event>
 5    1  0.1132878E+001  0.2744476E+03  0.7818608E-02  0.1098761E+00
          1   -1    0    0  501    0  0.00000000000E+00  0.00000000000E+00  0.50607998867E+03  0.50607998867E+03  0.00000000000E+00 0.  1.
         -1   -1    0    0    0  501 -0.00000000000E+00 -0.00000000000E+00 -0.37208289760E+02  0.37208289760E+02  0.00000000000E+00 0.  1.
         35    2    1    2    0    0  0.00000000000E+00  0.00000000000E+00  0.46887169891E+03  0.54328827843E+03  0.27444759689E+03 0.  0.
         25    1    3    3    0    0 -0.31751522507E+02  0.22036976927E+02  0.34170925473E+03  0.36422383544E+03  0.12000000000E+03 0.  0.
         25    1    3    3    0    0  0.31751522507E+02 -0.22036976927E+02  0.12716244418E+03  0.17906444299E+03  0.12000000000E+03 0.  0.
<mgrwt>
<rscale>  0 0.27444760E+03</rscale>
<asrwt>0</asrwt>
<pdfrwt beam="1">  1        1 0.77858455E-01 0.27444760E+03</pdfrwt>
<pdfrwt beam="2">  1       -1 0.57243526E-02 0.27444760E+03</pdfrwt>
<totfact> 0.63442501E+03</totfact>
</mgrwt>
</event>
<event>
 5    1  0.1132878E+001  0.2763335E+03  0.7818608E-02  0.1097709E+00
          1   -1    0    0  501    0  0.00000000000E+00  0.00000000000E+00  0.13405460058E+02  0.13405460058E+02  0.00000000000E+00 0. -1.
         -1   -1    0    0    0  501 -0.00000000000E+00 -0.00000000000E+00 -0.14240507265E+04  0.14240507265E+04  0.00000000000E+00 0. -1.
         35    2    1    2    0    0  0.00000000000E+00  0.00000000000E+00 -0.14106452665E+04  0.14374561866E+04  0.27633353133E+03 0.  0.
         25    1    3    3    0    0 -0.36042531287E+02  0.57007838759E+02 -0.76711296466E+03  0.77936593349E+03  0.12000000000E+03 0.  0.
         25    1    3    3    0    0  0.36042531287E+02 -0.57007838759E+02 -0.64353230181E+03  0.65809025309E+03  0.12000000000E+03 0.  0.
<mgrwt>
<rscale>  0 0.27633353E+03</rscale>
<asrwt>0</asrwt>
<pdfrwt beam="1">  1        1 0.20623801E-02 0.27633353E+03</pdfrwt>
<pdfrwt beam="2">  1       -1 0.21908456E+00 0.27633353E+03</pdfrwt>
<totfact> 0.72403851E+02</totfact>
</mgrwt>
</event>
<event>
 5    1  0.1132878E+001  0.2755233E+03  0.7818608E-02  0.1098159E+00
          2   -1    0    0  501    0  0.00000000000E+00  0.00000000000E+00  0.33895137661E+03  0.33895137661E+03  0.00000000000E+00 0.  1.
         -2   -1    0    0    0  501 -0.00000000000E+00 -0.00000000000E+00 -0.55991122326E+02  0.55991122326E+02  0.00000000000E+00 0.  1.
         35    2    1    2    0    0  0.00000000000E+00  0.00000000000E+00  0.28296025429E+03  0.39494249894E+03  0.27552326937E+03 0.  0.
         25    1    3    3    0    0  0.64470256035E+02  0.20126788054E+02  0.13561068897E+03  0.19326603549E+03  0.12000000000E+03 0.  0.
         25    1    3    3    0    0 -0.64470256035E+02 -0.20126788054E+02  0.14734956531E+03  0.20167646345E+03  0.12000000000E+03 0.  0.
<mgrwt>
<rscale>  0 0.27552327E+03</rscale>
<asrwt>0</asrwt>
<pdfrwt beam="1">  1        2 0.52146365E-01 0.27552327E+03</pdfrwt>
<pdfrwt beam="2">  1       -2 0.86140190E-02 0.27552327E+03</pdfrwt>
<totfact> 0.79965046E+03</totfact>
</mgrwt>
</event>
<event>
 5    1  0.1132878E+001  0.2797802E+03  0.7818608E-02  0.1095809E+00
          2   -1    0    0  501    0  0.00000000000E+00  0.00000000000E+00  0.93891039135E+03  0.93891039135E+03  0.00000000000E+00 0.  1.
         -2   -1    0    0    0  501 -0.00000000000E+00 -0.00000000000E+00 -0.20842498260E+02  0.20842498260E+02  0.00000000000E+00 0.  1.
         35    2    1    2    0    0  0.00000000000E+00  0.00000000000E+00  0.91806789309E+03  0.95975288961E+03  0.27978018656E+03 0.  0.
         25    1    3    3    0    0  0.26709838370E+02  0.65484133352E+02  0.41461732094E+03  0.43738896878E+03  0.12000000000E+03 0.  0.
         25    1    3    3    0    0 -0.26709838370E+02 -0.65484133352E+02  0.50345057215E+03  0.52236392083E+03  0.12000000000E+03 0.  0.
<mgrwt>
<rscale>  0 0.27978019E+03</rscale>
<asrwt>0</asrwt>
<pdfrwt beam="1">  1        2 0.14444772E+00 0.27978019E+03</pdfrwt>
<pdfrwt beam="2">  1       -2 0.32065389E-02 0.27978019E+03</pdfrwt>
<totfact> 0.10972285E+04</totfact>
</mgrwt>
</event>
<event>
 5    1  0.1132878E+001  0.2751342E+03  0.7818608E-02  0.1098377E+00
          2   -1    0    0  501    0  0.00000000000E+00  0.00000000000E+00  0.78970080502E+03  0.78970080502E+03  0.00000000000E+00 0. -1.
         -2   -1    0    0    0  501 -0.00000000000E+00 -0.00000000000E+00 -0.23964400681E+02  0.23964400681E+02  0.00000000000E+00 0. -1.
         35    2    1    2    0    0  0.00000000000E+00  0.00000000000E+00  0.76573640434E+03  0.81366520570E+03  0.27513419642E+03 0.  0.
         25    1    3    3    0    0 -0.47687222388E+02  0.20150237323E+02  0.50988251396E+03  0.52636515964E+03  0.12000000000E+03 0.  0.
         25    1    3    3    0    0  0.47687222388E+02 -0.20150237323E+02  0.25585389038E+03  0.28730004606E+03  0.12000000000E+03 0.  0.
<mgrwt>
<rscale>  0 0.27513420E+03</rscale>
<asrwt>0</asrwt>
<pdfrwt beam="1">  1        2 0.12149241E+00 0.27513420E+03</pdfrwt>
<pdfrwt beam="2">  1       -2 0.36868315E-02 0.27513420E+03</pdfrwt>
<totfact> 0.11172742E+04</totfact>
</mgrwt>
</event>
<event>
 5    1  0.1132878E+001  0.2751153E+03  0.7818608E-02  0.1098387E+00
         -2   -1    0    0    0  501 -0.00000000000E+00  0.00000000000E+00  0.24248792620E+03  0.24248792620E+03  0.00000000000E+00 0. -1.
          2   -1    0    0  501    0  0.00000000000E+00 -0.00000000000E+00 -0.78033215792E+02  0.78033215792E+02  0.00000000000E+00 0. -1.
         35    2    1    2    0    0  0.00000000000E+00  0.00000000000E+00  0.16445471041E+03  0.32052114199E+03  0.27511534070E+03 0.  0.
         25    1    3    3    0    0 -0.79607180504E+01  0.49600761095E+02  0.30144546139E+02  0.13353764336E+03  0.12000000000E+03 0.  0.
         25    1    3    3    0    0  0.79607180504E+01 -0.49600761095E+02  0.13431016427E+03  0.18698349863E+03  0.12000000000E+03 0.  0.
<mgrwt>
<rscale>  0 0.27511534E+03</rscale>
<asrwt>0</asrwt>
<pdfrwt beam="1">  1        2 0.12005110E-01 0.27511534E+03</pdfrwt>
<pdfrwt beam="2">  1       -2 0.37305834E-01 0.27511534E+03</pdfrwt>
<totfact> 0.34606665E+03</totfact>
</mgrwt>
</event>
<event>
 5    1  0.1132878E+001  0.2743324E+03  0.7818608E-02  0.1098825E+00
         -1   -1    0    0    0  501 -0.00000000000E+00  0.00000000000E+00  0.55929793384E+01  0.55929793384E+01  0.00000000000E+00 0. -1.
          1   -1    0    0  501    0  0.00000000000E+00 -0.00000000000E+00 -0.33639609710E+04  0.33639609710E+04  0.00000000000E+00 0. -1.
         35    2    1    2    0    0  0.00000000000E+00  0.00000000000E+00 -0.33583679917E+04  0.33695539504E+04  0.27433238384E+03 0.  0.
         25    1    3    3    0    0 -0.26099384659E+02 -0.40042823405E+02 -0.22460506626E+04  0.22497618062E+04  0.12000000000E+03 0.  0.
         25    1    3    3    0    0  0.26099384659E+02  0.40042823405E+02 -0.11123173291E+04  0.11197921442E+04  0.12000000000E+03 0.  0.
<mgrwt>
<rscale>  0 0.27433238E+03</rscale>
<asrwt>0</asrwt>
<pdfrwt beam="1">  1        1 0.51753215E+00 0.27433238E+03</pdfrwt>
<pdfrwt beam="2">  1       -1 0.86045886E-03 0.27433238E+03</pdfrwt>
<totfact> 0.92686925E+02</totfact>
</mgrwt>
</event>
<event>
 5    1  0.1132878E+001  0.2752221E+03  0.7818608E-02  0.1098328E+00
          2   -1    0    0  501    0  0.00000000000E+00  0.00000000000E+00  0.34056314447E+03  0.34056314447E+03  0.00000000000E+00 0.  1.
         -2   -1    0    0    0  501 -0.00000000000E+00 -0.00000000000E+00 -0.55604374886E+02  0.55604374886E+02  0.00000000000E+00 0.  1.
         35    2    1    2    0    0  0.00000000000E+00  0.00000000000E+00  0.28495876958E+03  0.39616751935E+03  0.27522209764E+03 0.  0.
         25    1    3    3    0    0  0.30740140461E+02 -0.51829938143E+02  0.99164189126E+02  0.16692763441E+03  0.12000000000E+03 0.  0.
         25    1    3    3    0    0 -0.30740140461E+02  0.51829938143E+02  0.18579458045E+03  0.22923988495E+03  0.12000000000E+03 0.  0.
<mgrwt>
<rscale>  0 0.27522210E+03</rscale>
<asrwt>0</asrwt>
<pdfrwt beam="1">  1        2 0.52394328E-01 0.27522210E+03</pdfrwt>
<pdfrwt beam="2">  1       -2 0.85545195E-02 0.27522210E+03</pdfrwt>
<totfact> 0.80424304E+03</totfact>
</mgrwt>
</event>
<event>
 5    1  0.1132878E+001  0.2739286E+03  0.7818608E-02  0.1099052E+00
          1   -1    0    0  501    0  0.00000000000E+00  0.00000000000E+00  0.41000662259E+03  0.41000662259E+03  0.00000000000E+00 0. -1.
         -1   -1    0    0    0  501 -0.00000000000E+00 -0.00000000000E+00 -0.45753446712E+02  0.45753446712E+02  0.00000000000E+00 0. -1.
         35    2    1    2    0    0  0.00000000000E+00  0.00000000000E+00  0.36425317588E+03  0.45576006930E+03  0.27392857579E+03 0.  0.
         25    1    3    3    0    0  0.30938521716E+02 -0.59573671826E+01  0.27866283764E+03  0.30503386604E+03  0.12000000000E+03 0.  0.
         25    1    3    3    0    0 -0.30938521716E+02  0.59573671826E+01  0.85590338233E+02  0.15072620326E+03  0.12000000000E+03 0.  0.
<mgrwt>
<rscale>  0 0.27392858E+03</rscale>
<asrwt>0</asrwt>
<pdfrwt beam="1">  1        1 0.63077940E-01 0.27392858E+03</pdfrwt>
<pdfrwt beam="2">  1       -1 0.70389921E-02 0.27392858E+03</pdfrwt>
<totfact> 0.61112004E+03</totfact>
</mgrwt>
</event>
<event>
 5    1  0.1132878E+001  0.2747090E+03  0.7818608E-02  0.1098614E+00
         -2   -1    0    0    0  501 -0.00000000000E+00  0.00000000000E+00  0.29219572156E+02  0.29219572156E+02  0.00000000000E+00 0.  1.
          2   -1    0    0  501    0  0.00000000000E+00 -0.00000000000E+00 -0.64567201528E+03  0.64567201528E+03  0.00000000000E+00 0.  1.
         35    2    1    2    0    0  0.00000000000E+00  0.00000000000E+00 -0.61645244312E+03  0.67489158744E+03  0.27470900997E+03 0.  0.
         25    1    3    3    0    0  0.16362083941E+02  0.97782511366E+01 -0.46559119098E+03  0.48118446474E+03  0.12000000000E+03 0.  0.
         25    1    3    3    0    0 -0.16362083941E+02 -0.97782511366E+01 -0.15086125214E+03  0.19370712270E+03  0.12000000000E+03 0.  0.
<mgrwt>
<rscale>  0 0.27470901E+03</rscale>
<asrwt>0</asrwt>
<pdfrwt beam="1">  1        2 0.99334146E-01 0.27470901E+03</pdfrwt>
<pdfrwt beam="2">  1       -2 0.44953192E-02 0.27470901E+03</pdfrwt>
<totfact> 0.10603146E+04</totfact>
</mgrwt>
</event>
<event>
 5    1  0.1132878E+001  0.2761027E+03  0.7818608E-02  0.1097837E+00
          2   -1    0    0  501    0  0.00000000000E+00  0.00000000000E+00  0.13890726387E+04  0.13890726387E+04  0.00000000000E+00 0.  1.
         -2   -1    0    0    0  501 -0.00000000000E+00 -0.00000000000E+00 -0.13720074957E+02  0.13720074957E+02  0.00000000000E+00 0.  1.
         35    2    1    2    0    0  0.00000000000E+00  0.00000000000E+00  0.13753525637E+04  0.14027927136E+04  0.27610273974E+03 0.  0.
         25    1    3    3    0    0  0.28978035813E+02  0.34861343712E+02  0.42845442253E+03  0.44724515875E+03  0.12000000000E+03 0.  0.
         25    1    3    3    0    0 -0.28978035813E+02 -0.34861343712E+02  0.94689814118E+03  0.95554755486E+03  0.12000000000E+03 0.  0.
<mgrwt>
<rscale>  0 0.27610274E+03</rscale>
<asrwt>0</asrwt>
<pdfrwt beam="1">  1        2 0.21370337E+00 0.27610274E+03</pdfrwt>
<pdfrwt beam="2">  1       -2 0.21107819E-02 0.27610274E+03</pdfrwt>
<totfact> 0.11183794E+04</totfact>
</mgrwt>
</event>
<event>
 5    1  0.1132878E+001  0.2745561E+03  0.7818608E-02  0.1098700E+00
          1   -1    0    0  501    0  0.00000000000E+00  0.00000000000E+00  0.16413582755E+04  0.16413582755E+04  0.00000000000E+00 0. -1.
         -1   -1    0    0    0  501 -0.00000000000E+00 -0.00000000000E+00 -0.11481501787E+02  0.11481501787E+02  0.00000000000E+00 0. -1.
         35    2    1    2    0    0  0.00000000000E+00  0.00000000000E+00  0.16298767737E+04  0.16528397773E+04  0.27455606330E+03 0.  0.
         25    1    3    3    0    0  0.63414981261E+02 -0.20308957428E+02  0.79466202719E+03  0.80642522967E+03  0.12000000000E+03 0.  0.
         25    1    3    3    0    0 -0.63414981261E+02  0.20308957428E+02  0.83521474655E+03  0.84641454763E+03  0.12000000000E+03 0.  0.
<mgrwt>
<rscale>  0 0.27455606E+03</rscale>
<asrwt>0</asrwt>
<pdfrwt beam="1">  1        1 0.25251647E+00 0.27455606E+03</pdfrwt>
<pdfrwt beam="2">  1       -1 0.17663862E-02 0.27455606E+03</pdfrwt>
<totfact> 0.47485407E+03</totfact>
</mgrwt>
</event>
<event>
 5    1  0.1132878E+001  0.2753259E+03  0.7818608E-02  0.1098270E+00
         -3   -1    0    0    0  501 -0.00000000000E+00  0.00000000000E+00  0.69327630312E+02  0.69327630312E+02  0.00000000000E+00 0.  1.
          3   -1    0    0  501    0  0.00000000000E+00 -0.00000000000E+00 -0.27335547038E+03  0.27335547038E+03  0.00000000000E+00 0.  1.
         35    2    1    2    0    0  0.00000000000E+00  0.00000000000E+00 -0.20402784007E+03  0.34268310069E+03  0.27532589413E+03 0.  0.
         25    1    3    3    0    0  0.52191761764E+02 -0.37715251435E+02 -0.76976220629E+02  0.15643451898E+03  0.12000000000E+03 0.  0.
         25    1    3    3    0    0 -0.52191761764E+02  0.37715251435E+02 -0.12705161944E+03  0.18624858171E+03  0.12000000000E+03 0.  0.
<mgrwt>
<rscale>  0 0.27532589E+03</rscale>
<asrwt>0</asrwt>
<pdfrwt beam="1">  1        3 0.42054689E-01 0.27532589E+03</pdfrwt>
<pdfrwt beam="2">  1       -3 0.10665789E-01 0.27532589E+03</pdfrwt>
<totfact> 0.94918298E+02</totfact>
</mgrwt>
</event>
<event>
 5    1  0.1132878E+001  0.2868960E+03  0.7818608E-02  0.1091981E+00
          1   -1    0    0  501    0  0.00000000000E+00  0.00000000000E+00  0.19533929197E+02  0.19533929197E+02  0.00000000000E+00 0.  1.
         -1   -1    0    0    0  501 -0.00000000000E+00 -0.00000000000E+00 -0.10534148712E+04  0.10534148712E+04  0.00000000000E+00 0.  1.
         35    2    1    2    0    0  0.00000000000E+00  0.00000000000E+00 -0.10338809420E+04  0.10729488004E+04  0.28689601956E+03 0.  0.
         25    1    3    3    0    0  0.18703306542E+02  0.64783884711E+02 -0.36592422083E+03  0.39095690399E+03  0.12000000000E+03 0.  0.
         25    1    3    3    0    0 -0.18703306542E+02 -0.64783884711E+02 -0.66795672120E+03  0.68199189643E+03  0.12000000000E+03 0.  0.
<mgrwt>
<rscale>  0 0.28689602E+03</rscale>
<asrwt>0</asrwt>
<pdfrwt beam="1">  1        1 0.30052196E-02 0.28689602E+03</pdfrwt>
<pdfrwt beam="2">  1       -1 0.16206384E+00 0.28689602E+03</pdfrwt>
<totfact> 0.10452029E+03</totfact>
</mgrwt>
</event>
<event>
 5    1  0.1132878E+001  0.2748264E+03  0.7818608E-02  0.1098549E+00
         -1   -1    0    0    0  501 -0.00000000000E+00  0.00000000000E+00  0.22164239742E+03  0.22164239742E+03  0.00000000000E+00 0.  1.
          1   -1    0    0  501    0  0.00000000000E+00 -0.00000000000E+00 -0.85193003738E+02  0.85193003738E+02  0.00000000000E+00 0.  1.
         35    2    1    2    0    0  0.00000000000E+00  0.00000000000E+00  0.13644939369E+03  0.30683540116E+03  0.27482635676E+03 0.  0.
         25    1    3    3    0    0  0.45608985276E+02 -0.49011961814E+02  0.68032438753E+02  0.15333220360E+03  0.12000000000E+03 0.  0.
         25    1    3    3    0    0 -0.45608985276E+02  0.49011961814E+02  0.68416954933E+02  0.15350319756E+03  0.12000000000E+03 0.  0.
<mgrwt>
<rscale>  0 0.27482636E+03</rscale>
<asrwt>0</asrwt>
<pdfrwt beam="1">  1        1 0.13106616E-01 0.27482636E+03</pdfrwt>
<pdfrwt beam="2">  1       -1 0.34098830E-01 0.27482636E+03</pdfrwt>
<totfact> 0.36313065E+03</totfact>
</mgrwt>
</event>
<event>
 5    1  0.1132878E+001  0.2744543E+03  0.7818608E-02  0.1098757E+00
         -3   -1    0    0    0  501 -0.00000000000E+00  0.00000000000E+00  0.22704359555E+02  0.22704359555E+02  0.00000000000E+00 0. -1.
          3   -1    0    0  501    0  0.00000000000E+00 -0.00000000000E+00 -0.82941289084E+03  0.82941289084E+03  0.00000000000E+00 0. -1.
         35    2    1    2    0    0  0.00000000000E+00  0.00000000000E+00 -0.80670853128E+03  0.85211725039E+03  0.27445428394E+03 0.  0.
         25    1    3    3    0    0  0.64803696094E+02  0.13190676428E+02 -0.37975484842E+03  0.40371680405E+03  0.12000000000E+03 0.  0.
         25    1    3    3    0    0 -0.64803696094E+02 -0.13190676428E+02 -0.42695368286E+03  0.44840044634E+03  0.12000000000E+03 0.  0.
<mgrwt>
<rscale>  0 0.27445428E+03</rscale>
<asrwt>0</asrwt>
<pdfrwt beam="1">  1        3 0.12760199E+00 0.27445428E+03</pdfrwt>
<pdfrwt beam="2">  1       -3 0.34929783E-02 0.27445428E+03</pdfrwt>
<totfact> 0.52102452E+02</totfact>
</mgrwt>
</event>
<event>
 5    1  0.1132878E+001  0.2737214E+03  0.7818608E-02  0.1099168E+00
          2   -1    0    0  501    0  0.00000000000E+00  0.00000000000E+00  0.27602239525E+03  0.27602239525E+03  0.00000000000E+00 0. -1.
         -2   -1    0    0    0  501 -0.00000000000E+00 -0.00000000000E+00 -0.67859895386E+02  0.67859895386E+02  0.00000000000E+00 0. -1.
         35    2    1    2    0    0  0.00000000000E+00  0.00000000000E+00  0.20816249987E+03  0.34388229064E+03  0.27372139753E+03 0.  0.
         25    1    3    3    0    0  0.23056011135E+02  0.59247934284E+02  0.82725489437E+02  0.15901384836E+03  0.12000000000E+03 0.  0.
         25    1    3    3    0    0 -0.23056011135E+02 -0.59247934284E+02  0.12543701043E+03  0.18486844228E+03  0.12000000000E+03 0.  0.
<mgrwt>
<rscale>  0 0.27372140E+03</rscale>
<asrwt>0</asrwt>
<pdfrwt beam="1">  1        2 0.42464983E-01 0.27372140E+03</pdfrwt>
<pdfrwt beam="2">  1       -2 0.10439984E-01 0.27372140E+03</pdfrwt>
<totfact> 0.73555708E+03</totfact>
</mgrwt>
</event>
<event>
 5    1  0.1132878E+001  0.2752547E+03  0.7818608E-02  0.1098309E+00
         -4   -1    0    0    0  501 -0.00000000000E+00  0.00000000000E+00  0.26309327537E+03  0.26309327537E+03  0.00000000000E+00 0.  1.
          4   -1    0    0  501    0  0.00000000000E+00 -0.00000000000E+00 -0.71994582574E+02  0.71994582574E+02  0.00000000000E+00 0.  1.
         35    2    1    2    0    0  0.00000000000E+00  0.00000000000E+00  0.19109869280E+03  0.33508785795E+03  0.27525472231E+03 0.  0.
         25    1    3    3    0    0 -0.17375794329E+02  0.38536107359E+02  0.31659367359E+02  0.13110783859E+03  0.12000000000E+03 0.  0.
         25    1    3    3    0    0  0.17375794329E+02 -0.38536107359E+02  0.15943932544E+03  0.20398001935E+03  0.12000000000E+03 0.  0.
<mgrwt>
<rscale>  0 0.27525472E+03</rscale>
<asrwt>0</asrwt>
<pdfrwt beam="1">  1        4 0.11076090E-01 0.27525472E+03</pdfrwt>
<pdfrwt beam="2">  1       -4 0.40475888E-01 0.27525472E+03</pdfrwt>
<totfact> 0.71033424E+02</totfact>
</mgrwt>
</event>
<event>
 5    1  0.1132878E+001  0.2745782E+03  0.7818608E-02  0.1098688E+00
         -1   -1    0    0    0  501 -0.00000000000E+00  0.00000000000E+00  0.47752816990E+02  0.47752816990E+02  0.00000000000E+00 0.  1.
          1   -1    0    0  501    0  0.00000000000E+00 -0.00000000000E+00 -0.39470552332E+03  0.39470552332E+03  0.00000000000E+00 0.  1.
         35    2    1    2    0    0  0.00000000000E+00  0.00000000000E+00 -0.34695270633E+03  0.44245834031E+03  0.27457822652E+03 0.  0.
         25    1    3    3    0    0 -0.26030834102E+02 -0.69756423903E+00 -0.74532448856E+02  0.14364253149E+03  0.12000000000E+03 0.  0.
         25    1    3    3    0    0  0.26030834102E+02  0.69756423903E+00 -0.27242025747E+03  0.29881580882E+03  0.12000000000E+03 0.  0.
<mgrwt>
<rscale>  0 0.27457823E+03</rscale>
<asrwt>0</asrwt>
<pdfrwt beam="1">  1        1 0.60723927E-01 0.27457823E+03</pdfrwt>
<pdfrwt beam="2">  1       -1 0.73465872E-02 0.27457823E+03</pdfrwt>
<totfact> 0.60135326E+03</totfact>
</mgrwt>
</event>
<event>
 5    1  0.1132878E+001  0.2751312E+03  0.7818608E-02  0.1098378E+00
         -4   -1    0    0    0  501 -0.00000000000E+00  0.00000000000E+00  0.27001199410E+02  0.27001199410E+02  0.00000000000E+00 0. -1.
          4   -1    0    0  501    0  0.00000000000E+00 -0.00000000000E+00 -0.70086871587E+03  0.70086871587E+03  0.00000000000E+00 0. -1.
         35    2    1    2    0    0  0.00000000000E+00  0.00000000000E+00 -0.67386751646E+03  0.72786991528E+03  0.27513121203E+03 0.  0.
         25    1    3    3    0    0 -0.51411829077E+02  0.19933689528E+02 -0.23502843275E+03  0.26959023044E+03  0.12000000000E+03 0.  0.
         25    1    3    3    0    0  0.51411829077E+02 -0.19933689528E+02 -0.43883908371E+03  0.45827968484E+03  0.12000000000E+03 0.  0.
<mgrwt>
<rscale>  0 0.27513121E+03</rscale>
<asrwt>0</asrwt>
<pdfrwt beam="1">  1        4 0.10782596E+00 0.27513121E+03</pdfrwt>
<pdfrwt beam="2">  1       -4 0.41540305E-02 0.27513121E+03</pdfrwt>
<totfact> 0.43081664E+02</totfact>
</mgrwt>
</event>
<event>
 5    1  0.1132878E+001  0.2769143E+03  0.7818608E-02  0.1097386E+00
          1   -1    0    0  501    0  0.00000000000E+00  0.00000000000E+00  0.82362379814E+03  0.82362379814E+03  0.00000000000E+00 0. -1.
         -1   -1    0    0    0  501 -0.00000000000E+00 -0.00000000000E+00 -0.23275656558E+02  0.23275656558E+02  0.00000000000E+00 0. -1.
         35    2    1    2    0    0  0.00000000000E+00  0.00000000000E+00  0.80034814158E+03  0.84689945469E+03  0.27691431641E+03 0.  0.
         25    1    3    3    0    0 -0.39401485093E+02  0.33231642751E+02  0.25957116218E+03  0.29057530409E+03  0.12000000000E+03 0.  0.
         25    1    3    3    0    0  0.39401485093E+02 -0.33231642751E+02  0.54077697939E+03  0.55632415061E+03  0.12000000000E+03 0.  0.
<mgrwt>
<rscale>  0 0.27691432E+03</rscale>
<asrwt>0</asrwt>
<pdfrwt beam="1">  1        1 0.12671133E+00 0.27691432E+03</pdfrwt>
<pdfrwt beam="2">  1       -1 0.35808709E-02 0.27691432E+03</pdfrwt>
<totfact> 0.63766849E+03</totfact>
</mgrwt>
</event>
<event>
 5    1  0.1132878E+001  0.2744572E+03  0.7818608E-02  0.1098755E+00
         -2   -1    0    0    0  501 -0.00000000000E+00  0.00000000000E+00  0.12669823753E+02  0.12669823753E+02  0.00000000000E+00 0. -1.
          2   -1    0    0  501    0  0.00000000000E+00 -0.00000000000E+00 -0.14863417693E+04  0.14863417693E+04  0.00000000000E+00 0. -1.
         35    2    1    2    0    0  0.00000000000E+00  0.00000000000E+00 -0.14736719455E+04  0.14990115930E+04  0.27445719705E+03 0.  0.
         25    1    3    3    0    0 -0.42065602962E+02 -0.38828830203E+02 -0.92241395241E+03  0.93194672198E+03  0.12000000000E+03 0.  0.
         25    1    3    3    0    0  0.42065602962E+02  0.38828830203E+02 -0.55125799312E+03  0.56706487106E+03  0.12000000000E+03 0.  0.
<mgrwt>
<rscale>  0 0.27445720E+03</rscale>
<asrwt>0</asrwt>
<pdfrwt beam="1">  1        2 0.22866799E+00 0.27445720E+03</pdfrwt>
<pdfrwt beam="2">  1       -2 0.19492035E-02 0.27445720E+03</pdfrwt>
<totfact> 0.11140802E+04</totfact>
</mgrwt>
</event>
<event>
 5    1  0.1132878E+001  0.2751680E+03  0.7818608E-02  0.1098358E+00
          2   -1    0    0  501    0  0.00000000000E+00  0.00000000000E+00  0.86733131483E+02  0.86733131483E+02  0.00000000000E+00 0.  1.
         -2   -1    0    0    0  501 -0.00000000000E+00 -0.00000000000E+00 -0.21824830960E+03  0.21824830960E+03  0.00000000000E+00 0.  1.
         35    2    1    2    0    0  0.00000000000E+00  0.00000000000E+00 -0.13151517812E+03  0.30498144108E+03  0.27516801655E+03 0.  0.
         25    1    3    3    0    0  0.16227325896E+02 -0.43586988429E+02 -0.11967163041E+03  0.17573972457E+03  0.12000000000E+03 0.  0.
         25    1    3    3    0    0 -0.16227325896E+02  0.43586988429E+02 -0.11843547710E+02  0.12924171652E+03  0.12000000000E+03 0.  0.
<mgrwt>
<rscale>  0 0.27516802E+03</rscale>
<asrwt>0</asrwt>
<pdfrwt beam="1">  1        2 0.13343559E-01 0.27516802E+03</pdfrwt>
<pdfrwt beam="2">  1       -2 0.33576663E-01 0.27516802E+03</pdfrwt>
<totfact> 0.37074013E+03</totfact>
</mgrwt>
</event>
<event>
 5    1  0.1132878E+001  0.2752307E+03  0.7818608E-02  0.1098323E+00
         -1   -1    0    0    0  501 -0.00000000000E+00  0.00000000000E+00  0.26894018820E+03  0.26894018820E+03  0.00000000000E+00 0.  1.
          1   -1    0    0  501    0  0.00000000000E+00 -0.00000000000E+00 -0.70417081622E+02  0.70417081622E+02  0.00000000000E+00 0.  1.
         35    2    1    2    0    0  0.00000000000E+00  0.00000000000E+00  0.19852310658E+03  0.33935726982E+03  0.27523069003E+03 0.  0.
         25    1    3    3    0    0 -0.60644755980E+02 -0.11837966711E+02  0.13234756585E+03  0.18903386488E+03  0.12000000000E+03 0.  0.
         25    1    3    3    0    0  0.60644755980E+02  0.11837966711E+02  0.66175540727E+02  0.15032340494E+03  0.12000000000E+03 0.  0.
<mgrwt>
<rscale>  0 0.27523069E+03</rscale>
<asrwt>0</asrwt>
<pdfrwt beam="1">  1        1 0.10833397E-01 0.27523069E+03</pdfrwt>
<pdfrwt beam="2">  1       -1 0.41375413E-01 0.27523069E+03</pdfrwt>
<totfact> 0.33307760E+03</totfact>
</mgrwt>
</event>
<event>
 5    1  0.1132878E+001  0.2754980E+03  0.7818608E-02  0.1098174E+00
         -2   -1    0    0    0  501 -0.00000000000E+00  0.00000000000E+00  0.11834613593E+03  0.11834613593E+03  0.00000000000E+00 0. -1.
          2   -1    0    0  501    0  0.00000000000E+00 -0.00000000000E+00 -0.16033299619E+03  0.16033299619E+03  0.00000000000E+00 0. -1.
         35    2    1    2    0    0  0.00000000000E+00  0.00000000000E+00 -0.41986860258E+02  0.27867913213E+03  0.27549802585E+03 0.  0.
         25    1    3    3    0    0 -0.49986848130E+02 -0.86967016821E+01  0.24249664240E+02  0.13252306902E+03  0.12000000000E+03 0.  0.
         25    1    3    3    0    0  0.49986848130E+02  0.86967016821E+01 -0.66236524497E+02  0.14615606311E+03  0.12000000000E+03 0.  0.
<mgrwt>
<rscale>  0 0.27549803E+03</rscale>
<asrwt>0</asrwt>
<pdfrwt beam="1">  1        2 0.24666615E-01 0.27549803E+03</pdfrwt>
<pdfrwt beam="2">  1       -2 0.18207098E-01 0.27549803E+03</pdfrwt>
<totfact> 0.53557061E+03</totfact>
</mgrwt>
</event>
<event>
 5    1  0.1132878E+001  0.2744663E+03  0.7818608E-02  0.1098750E+00
          2   -1    0    0  501    0  0.00000000000E+00  0.00000000000E+00  0.26472927569E+04  0.26472927569E+04  0.00000000000E+00 0.  1.
         -2   -1    0    0    0  501 -0.00000000000E+00 -0.00000000000E+00 -0.71140373620E+01  0.71140373620E+01  0.00000000000E+00 0.  1.
         35    2    1    2    0    0  0.00000000000E+00  0.00000000000E+00  0.26401787196E+04  0.26544067943E+04  0.27446631546E+03 0.  0.
         25    1    3    3    0    0  0.53983421150E+02 -0.53445062658E+01  0.94675688943E+03  0.95587205273E+03  0.12000000000E+03 0.  0.
         25    1    3    3    0    0 -0.53983421150E+02  0.53445062658E+01  0.16934218301E+04  0.16985347416E+04  0.12000000000E+03 0.  0.
<mgrwt>
<rscale>  0 0.27446632E+03</rscale>
<asrwt>0</asrwt>
<pdfrwt beam="1">  1        2 0.40727502E+00 0.27446632E+03</pdfrwt>
<pdfrwt beam="2">  1       -2 0.10944694E-02 0.27446632E+03</pdfrwt>
<totfact> 0.62149584E+03</totfact>
</mgrwt>
</event>
<event>
 5    1  0.1132878E+001  0.2752728E+03  0.7818608E-02  0.1098299E+00
          1   -1    0    0  501    0  0.00000000000E+00  0.00000000000E+00  0.28717234890E+03  0.28717234890E+03  0.00000000000E+00 0.  1.
         -1   -1    0    0    0  501 -0.00000000000E+00 -0.00000000000E+00 -0.65966601516E+02  0.65966601516E+02  0.00000000000E+00 0.  1.
         35    2    1    2    0    0  0.00000000000E+00  0.00000000000E+00  0.22120574738E+03  0.35313895041E+03  0.27527283852E+03 0.  0.
         25    1    3    3    0    0 -0.26705955082E+02  0.33552504242E+02  0.43883760160E+02  0.13477671529E+03  0.12000000000E+03 0.  0.
         25    1    3    3    0    0  0.26705955082E+02 -0.33552504242E+02  0.17732198722E+03  0.21836223513E+03  0.12000000000E+03 0.  0.
<mgrwt>
<rscale>  0 0.27527284E+03</rscale>
<asrwt>0</asrwt>
<pdfrwt beam="1">  1        1 0.44180361E-01 0.27527284E+03</pdfrwt>
<pdfrwt beam="2">  1       -1 0.10148708E-01 0.27527284E+03</pdfrwt>
<totfact> 0.54807652E+03</totfact>
</mgrwt>
</event>
<event>
 5    1  0.1132878E+001  0.2746766E+03  0.7818608E-02  0.1098633E+00
         -2   -1    0    0    0  501 -0.00000000000E+00  0.00000000000E+00  0.17077918681E+02  0.17077918681E+02  0.00000000000E+00 0. -1.
          2   -1    0    0  501    0  0.00000000000E+00 -0.00000000000E+00 -0.11044559558E+04  0.11044559558E+04  0.00000000000E+00 0. -1.
         35    2    1    2    0    0  0.00000000000E+00  0.00000000000E+00 -0.10873780371E+04  0.11215338745E+04  0.27467660257E+03 0.  0.
         25    1    3    3    0    0  0.21319938110E+02  0.67742811316E+01 -0.80067763746E+03  0.80992907701E+03  0.12000000000E+03 0.  0.
         25    1    3    3    0    0 -0.21319938110E+02 -0.67742811316E+01 -0.28670039964E+03  0.31160479746E+03  0.12000000000E+03 0.  0.
<mgrwt>
<rscale>  0 0.27467660E+03</rscale>
<asrwt>0</asrwt>
<pdfrwt beam="1">  1        2 0.16991629E+00 0.27467660E+03</pdfrwt>
<pdfrwt beam="2">  1       -2 0.26273723E-02 0.27467660E+03</pdfrwt>
<totfact> 0.11698279E+04</totfact>
</mgrwt>
</event>
<event>
 5    1  0.1132878E+001  0.2744833E+03  0.7818608E-02  0.1098741E+00
          1   -1    0    0  501    0  0.00000000000E+00  0.00000000000E+00  0.39185851005E+03  0.39185851005E+03  0.00000000000E+00 0. -1.
         -1   -1    0    0    0  501 -0.00000000000E+00 -0.00000000000E+00 -0.48066498355E+02  0.48066498355E+02  0.00000000000E+00 0. -1.
         35    2    1    2    0    0  0.00000000000E+00  0.00000000000E+00  0.34379201170E+03  0.43992500841E+03  0.27448327037E+03 0.  0.
         25    1    3    3    0    0  0.43618448884E+01 -0.29759042142E+02  0.26712945179E+03  0.29438541114E+03  0.12000000000E+03 0.  0.
         25    1    3    3    0    0 -0.43618448884E+01  0.29759042142E+02  0.76662559903E+02  0.14553959726E+03  0.12000000000E+03 0.  0.
<mgrwt>
<rscale>  0 0.27448327E+03</rscale>
<asrwt>0</asrwt>
<pdfrwt beam="1">  1        1 0.60285922E-01 0.27448327E+03</pdfrwt>
<pdfrwt beam="2">  1       -1 0.73948462E-02 0.27448327E+03</pdfrwt>
<totfact> 0.60092947E+03</totfact>
</mgrwt>
</event>
<event>
 5    1  0.1132878E+001  0.2737827E+03  0.7818608E-02  0.1099134E+00
          1   -1    0    0  501    0  0.00000000000E+00  0.00000000000E+00  0.17142394523E+02  0.17142394523E+02  0.00000000000E+00 0.  1.
         -1   -1    0    0    0  501 -0.00000000000E+00 -0.00000000000E+00 -0.10931521889E+04  0.10931521889E+04  0.00000000000E+00 0.  1.
         35    2    1    2    0    0  0.00000000000E+00  0.00000000000E+00 -0.10760097944E+04  0.11102945834E+04  0.27378273207E+03 0.  0.
         25    1    3    3    0    0  0.44873915197E+02  0.23780467439E+01 -0.73333488708E+03  0.74444568638E+03  0.12000000000E+03 0.  0.
         25    1    3    3    0    0 -0.44873915197E+02 -0.23780467439E+01 -0.34267490731E+03  0.36584889705E+03  0.12000000000E+03 0.  0.
<mgrwt>
<rscale>  0 0.27378273E+03</rscale>
<asrwt>0</asrwt>
<pdfrwt beam="1">  1        1 0.26372909E-02 0.27378273E+03</pdfrwt>
<pdfrwt beam="2">  1       -1 0.16817730E+00 0.27378273E+03</pdfrwt>
<totfact> 0.11337526E+03</totfact>
</mgrwt>
</event>
<event>
 5    1  0.1132878E+001  0.2741460E+03  0.7818608E-02  0.1098930E+00
         -4   -1    0    0    0  501 -0.00000000000E+00  0.00000000000E+00  0.31819246026E+02  0.31819246026E+02  0.00000000000E+00 0. -1.
          4   -1    0    0  501    0  0.00000000000E+00 -0.00000000000E+00 -0.59049202776E+03  0.59049202776E+03  0.00000000000E+00 0. -1.
         35    2    1    2    0    0  0.00000000000E+00  0.00000000000E+00 -0.55867278173E+03  0.62231127379E+03  0.27414602757E+03 0.  0.
         25    1    3    3    0    0  0.28849759816E+02  0.51929185932E+02 -0.34590824001E+03  0.37091974806E+03  0.12000000000E+03 0.  0.
         25    1    3    3    0    0 -0.28849759816E+02 -0.51929185932E+02 -0.21276454173E+03  0.25139152573E+03  0.12000000000E+03 0.  0.
<mgrwt>
<rscale>  0 0.27414603E+03</rscale>
<asrwt>0</asrwt>
<pdfrwt beam="1">  1        4 0.90844935E-01 0.27414603E+03</pdfrwt>
<pdfrwt beam="2">  1       -4 0.48952682E-02 0.27414603E+03</pdfrwt>
<totfact> 0.49320991E+02</totfact>
</mgrwt>
</event>
<event>
 5    1  0.1132878E+001  0.2757786E+03  0.7818608E-02  0.1098017E+00
         -2   -1    0    0    0  501 -0.00000000000E+00  0.00000000000E+00  0.12781669482E+02  0.12781669482E+02  0.00000000000E+00 0. -1.
          2   -1    0    0  501    0  0.00000000000E+00 -0.00000000000E+00 -0.14875568356E+04  0.14875568356E+04  0.00000000000E+00 0. -1.
         35    2    1    2    0    0  0.00000000000E+00  0.00000000000E+00 -0.14747751661E+04  0.15003385051E+04  0.27577860547E+03 0.  0.
         25    1    3    3    0    0  0.46714649902E+02 -0.11600626479E+02 -0.47666785507E+03  0.49389176659E+03  0.12000000000E+03 0.  0.
         25    1    3    3    0    0 -0.46714649902E+02  0.11600626479E+02 -0.99810731106E+03  0.10064467385E+04  0.12000000000E+03 0.  0.
<mgrwt>
<rscale>  0 0.27577861E+03</rscale>
<asrwt>0</asrwt>
<pdfrwt beam="1">  1        2 0.22885490E+00 0.27577861E+03</pdfrwt>
<pdfrwt beam="2">  1       -2 0.19664107E-02 0.27577861E+03</pdfrwt>
<totfact> 0.10982378E+04</totfact>
</mgrwt>
</event>
<event>
 5    1  0.1132878E+001  0.2746392E+03  0.7818608E-02  0.1098653E+00
          2   -1    0    0  501    0  0.00000000000E+00  0.00000000000E+00  0.17571306484E+04  0.17571306484E+04  0.00000000000E+00 0.  1.
         -2   -1    0    0    0  501 -0.00000000000E+00 -0.00000000000E+00 -0.10731517712E+02  0.10731517712E+02  0.00000000000E+00 0.  1.
         35    2    1    2    0    0  0.00000000000E+00  0.00000000000E+00  0.17463991307E+04  0.17678621661E+04  0.27463924465E+03 0.  0.
         25    1    3    3    0    0  0.23715386421E+02 -0.24336321111E+01  0.47180847347E+03  0.48741314894E+03  0.12000000000E+03 0.  0.
         25    1    3    3    0    0 -0.23715386421E+02  0.24336321111E+01  0.12745906572E+04  0.12804490172E+04  0.12000000000E+03 0.  0.
<mgrwt>
<rscale>  0 0.27463924E+03</rscale>
<asrwt>0</asrwt>
<pdfrwt beam="1">  1        2 0.27032756E+00 0.27463924E+03</pdfrwt>
<pdfrwt beam="2">  1       -2 0.16510041E-02 0.27463924E+03</pdfrwt>
<totfact> 0.10217334E+04</totfact>
</mgrwt>
</event>
<event>
 5    1  0.1132878E+001  0.2747351E+03  0.7818608E-02  0.1098600E+00
          1   -1    0    0  501    0  0.00000000000E+00  0.00000000000E+00  0.46538174824E+02  0.46538174824E+02  0.00000000000E+00 0.  1.
         -1   -1    0    0    0  501 -0.00000000000E+00 -0.00000000000E+00 -0.40547028068E+03  0.40547028068E+03  0.00000000000E+00 0.  1.
         35    2    1    2    0    0  0.00000000000E+00  0.00000000000E+00 -0.35893210586E+03  0.45200845551E+03  0.27473512195E+03 0.  0.
         25    1    3    3    0    0 -0.15318171590E+02  0.54327245903E+02 -0.23841454992E+03  0.27281421085E+03  0.12000000000E+03 0.  0.
         25    1    3    3    0    0  0.15318171590E+02 -0.54327245903E+02 -0.12051755594E+03  0.17919424466E+03  0.12000000000E+03 0.  0.
<mgrwt>
<rscale>  0 0.27473512E+03</rscale>
<asrwt>0</asrwt>
<pdfrwt beam="1">  1        1 0.71597192E-02 0.27473512E+03</pdfrwt>
<pdfrwt beam="2">  1       -1 0.62380043E-01 0.27473512E+03</pdfrwt>
<totfact> 0.27201308E+03</totfact>
</mgrwt>
</event>
<event>
 5    1  0.1132878E+001  0.2742562E+03  0.7818608E-02  0.1098868E+00
         -2   -1    0    0    0  501 -0.00000000000E+00  0.00000000000E+00  0.21866867446E+02  0.21866867446E+02  0.00000000000E+00 0.  1.
          2   -1    0    0  501    0  0.00000000000E+00 -0.00000000000E+00 -0.85993657632E+03  0.85993657632E+03  0.00000000000E+00 0.  1.
         35    2    1    2    0    0  0.00000000000E+00  0.00000000000E+00 -0.83806970887E+03  0.88180344376E+03  0.27425622419E+03 0.  0.
         25    1    3    3    0    0  0.34768787183E+01 -0.51781794046E+02 -0.55201879889E+03  0.56729022309E+03  0.12000000000E+03 0.  0.
         25    1    3    3    0    0 -0.34768787183E+01  0.51781794046E+02 -0.28605090998E+03  0.31451322068E+03  0.12000000000E+03 0.  0.
<mgrwt>
<rscale>  0 0.27425622E+03</rscale>
<asrwt>0</asrwt>
<pdfrwt beam="1">  1        2 0.13229792E+00 0.27425622E+03</pdfrwt>
<pdfrwt beam="2">  1       -2 0.33641338E-02 0.27425622E+03</pdfrwt>
<totfact> 0.11480812E+04</totfact>
</mgrwt>
</event>
<event>
 5    1  0.1132878E+001  0.2741690E+03  0.7818608E-02  0.1098917E+00
         -1   -1    0    0    0  501 -0.00000000000E+00  0.00000000000E+00  0.40134465248E+02  0.40134465248E+02  0.00000000000E+00 0. -1.
          1   -1    0    0  501    0  0.00000000000E+00 -0.00000000000E+00 -0.46822993943E+03  0.46822993943E+03  0.00000000000E+00 0. -1.
         35    2    1    2    0    0  0.00000000000E+00  0.00000000000E+00 -0.42809547418E+03  0.50836440468E+03  0.27416898608E+03 0.  0.
         25    1    3    3    0    0 -0.43969327578E+02 -0.32958042424E+02 -0.28274391694E+03  0.31203149984E+03  0.12000000000E+03 0.  0.
         25    1    3    3    0    0  0.43969327578E+02  0.32958042424E+02 -0.14535155725E+03  0.19633290484E+03  0.12000000000E+03 0.  0.
<mgrwt>
<rscale>  0 0.27416899E+03</rscale>
<asrwt>0</asrwt>
<pdfrwt beam="1">  1        1 0.72035373E-01 0.27416899E+03</pdfrwt>
<pdfrwt beam="2">  1       -1 0.61745333E-02 0.27416899E+03</pdfrwt>
<totfact> 0.62721995E+03</totfact>
</mgrwt>
</event>
<event>
 5    1  0.1132878E+001  0.2745350E+03  0.7818608E-02  0.1098712E+00
          2   -1    0    0  501    0  0.00000000000E+00  0.00000000000E+00  0.82564297511E+03  0.82564297511E+03  0.00000000000E+00 0.  1.
         -2   -1    0    0    0  501 -0.00000000000E+00 -0.00000000000E+00 -0.22821450082E+02  0.22821450082E+02  0.00000000000E+00 0.  1.
         35    2    1    2    0    0  0.00000000000E+00  0.00000000000E+00  0.80282152503E+03  0.84846442519E+03  0.27453502467E+03 0.  0.
         25    1    3    3    0    0  0.31939324213E+02 -0.56111801516E+02  0.45254189006E+03  0.47261275581E+03  0.12000000000E+03 0.  0.
         25    1    3    3    0    0 -0.31939324213E+02  0.56111801516E+02  0.35027963497E+03  0.37585166938E+03  0.12000000000E+03 0.  0.
<mgrwt>
<rscale>  0 0.27453502E+03</rscale>
<asrwt>0</asrwt>
<pdfrwt beam="1">  1        2 0.12702197E+00 0.27453502E+03</pdfrwt>
<pdfrwt beam="2">  1       -2 0.35109930E-02 0.27453502E+03</pdfrwt>
<totfact> 0.11355846E+04</totfact>
</mgrwt>
</event>
<event>
 5    1  0.1132878E+001  0.2750998E+03  0.7818608E-02  0.1098396E+00
         -1   -1    0    0    0  501 -0.00000000000E+00  0.00000000000E+00  0.60233844994E+02  0.60233844994E+02  0.00000000000E+00 0.  1.
          1   -1    0    0  501    0  0.00000000000E+00 -0.00000000000E+00 -0.31410867271E+03  0.31410867271E+03  0.00000000000E+00 0.  1.
         35    2    1    2    0    0  0.00000000000E+00  0.00000000000E+00 -0.25387482772E+03  0.37434251770E+03  0.27509978628E+03 0.  0.
         25    1    3    3    0    0  0.26942154670E+02  0.60282027835E+02 -0.10971594449E+03  0.17549185466E+03  0.12000000000E+03 0.  0.
         25    1    3    3    0    0 -0.26942154670E+02 -0.60282027835E+02 -0.14415888323E+03  0.19885066304E+03  0.12000000000E+03 0.  0.
<mgrwt>
<rscale>  0 0.27509979E+03</rscale>
<asrwt>0</asrwt>
<pdfrwt beam="1">  1        1 0.48324412E-01 0.27509979E+03</pdfrwt>
<pdfrwt beam="2">  1       -1 0.92667452E-02 0.27509979E+03</pdfrwt>
<totfact> 0.56334429E+03</totfact>
</mgrwt>
</event>
<event>
 5    1  0.1132878E+001  0.2746523E+03  0.7818608E-02  0.1098646E+00
         -2   -1    0    0    0  501 -0.00000000000E+00  0.00000000000E+00  0.23926204401E+03  0.23926204401E+03  0.00000000000E+00 0. -1.
          2   -1    0    0  501    0  0.00000000000E+00 -0.00000000000E+00 -0.78819323702E+02  0.78819323702E+02  0.00000000000E+00 0. -1.
         35    2    1    2    0    0  0.00000000000E+00  0.00000000000E+00  0.16044272031E+03  0.31808136771E+03  0.27465230745E+03 0.  0.
         25    1    3    3    0    0 -0.17872769703E+02 -0.56521853295E+02  0.44632521753E+02  0.14108939646E+03  0.12000000000E+03 0.  0.
         25    1    3    3    0    0  0.17872769703E+02  0.56521853295E+02  0.11581019856E+03  0.17699197125E+03  0.12000000000E+03 0.  0.
<mgrwt>
<rscale>  0 0.27465231E+03</rscale>
<asrwt>0</asrwt>
<pdfrwt beam="1">  1        2 0.12126050E-01 0.27465231E+03</pdfrwt>
<pdfrwt beam="2">  1       -2 0.36809545E-01 0.27465231E+03</pdfrwt>
<totfact> 0.35058596E+03</totfact>
</mgrwt>
</event>
<event>
 5    1  0.1132878E+001  0.2728354E+03  0.7818608E-02  0.1099668E+00
         -1   -1    0    0    0  501 -0.00000000000E+00  0.00000000000E+00  0.31895313102E+02  0.31895313102E+02  0.00000000000E+00 0.  1.
          1   -1    0    0  501    0  0.00000000000E+00 -0.00000000000E+00 -0.58346476496E+03  0.58346476496E+03  0.00000000000E+00 0.  1.
         35    2    1    2    0    0  0.00000000000E+00  0.00000000000E+00 -0.55156945186E+03  0.61536007806E+03  0.27283541825E+03 0.  0.
         25    1    3    3    0    0  0.16984429134E+02 -0.20942060146E+02 -0.40888831330E+03  0.42698558930E+03  0.12000000000E+03 0.  0.
         25    1    3    3    0    0 -0.16984429134E+02  0.20942060146E+02 -0.14268113856E+03  0.18837448876E+03  0.12000000000E+03 0.  0.
<mgrwt>
<rscale>  0 0.27283542E+03</rscale>
<asrwt>0</asrwt>
<pdfrwt beam="1">  1        1 0.89763812E-01 0.27283542E+03</pdfrwt>
<pdfrwt beam="2">  1       -1 0.49069711E-02 0.27283542E+03</pdfrwt>
<totfact> 0.65931181E+03</totfact>
</mgrwt>
</event>
<event>
 5    1  0.1132878E+001  0.2750068E+03  0.7818608E-02  0.1098448E+00
          4   -1    0    0  501    0  0.00000000000E+00  0.00000000000E+00  0.10063817820E+04  0.10063817820E+04  0.00000000000E+00 0. -1.
         -4   -1    0    0    0  501 -0.00000000000E+00 -0.00000000000E+00 -0.18787284859E+02  0.18787284859E+02  0.00000000000E+00 0. -1.
         35    2    1    2    0    0  0.00000000000E+00  0.00000000000E+00  0.98759449710E+03  0.10251690668E+04  0.27500677239E+03 0.  0.
         25    1    3    3    0    0  0.79073476675E+01 -0.44785931746E+02  0.30970016449E+03  0.33523498880E+03  0.12000000000E+03 0.  0.
         25    1    3    3    0    0 -0.79073476675E+01  0.44785931746E+02  0.67789433262E+03  0.68993407803E+03  0.12000000000E+03 0.  0.
<mgrwt>
<rscale>  0 0.27500677E+03</rscale>
<asrwt>0</asrwt>
<pdfrwt beam="1">  1        4 0.15482792E+00 0.27500677E+03</pdfrwt>
<pdfrwt beam="2">  1       -4 0.28903523E-02 0.27500677E+03</pdfrwt>
<totfact> 0.31183005E+02</totfact>
</mgrwt>
</event>
<event>
 5    1  0.1132878E+001  0.2755294E+03  0.7818608E-02  0.1098156E+00
         -3   -1    0    0    0  501 -0.00000000000E+00  0.00000000000E+00  0.13727866880E+04  0.13727866880E+04  0.00000000000E+00 0.  1.
          3   -1    0    0  501    0  0.00000000000E+00 -0.00000000000E+00 -0.13825243899E+02  0.13825243899E+02  0.00000000000E+00 0.  1.
         35    2    1    2    0    0  0.00000000000E+00  0.00000000000E+00  0.13589614441E+04  0.13866119319E+04  0.27552938706E+03 0.  0.
         25    1    3    3    0    0 -0.35659809291E+02 -0.34776107702E+02  0.44896462945E+03  0.46738660460E+03  0.12000000000E+03 0.  0.
         25    1    3    3    0    0  0.35659809291E+02  0.34776107702E+02  0.90999681470E+03  0.91922532734E+03  0.12000000000E+03 0.  0.
<mgrwt>
<rscale>  0 0.27552939E+03</rscale>
<asrwt>0</asrwt>
<pdfrwt beam="1">  1        3 0.21269617E-02 0.27552939E+03</pdfrwt>
<pdfrwt beam="2">  1       -3 0.21119784E+00 0.27552939E+03</pdfrwt>
<totfact> 0.29978514E+02</totfact>
</mgrwt>
</event>
<event>
 5    1  0.1132878E+001  0.2761058E+03  0.7818608E-02  0.1097835E+00
         -1   -1    0    0    0  501 -0.00000000000E+00  0.00000000000E+00  0.52827247850E+03  0.52827247850E+03  0.00000000000E+00 0.  1.
          1   -1    0    0  501    0  0.00000000000E+00 -0.00000000000E+00 -0.36077211540E+02  0.36077211540E+02  0.00000000000E+00 0.  1.
         35    2    1    2    0    0  0.00000000000E+00  0.00000000000E+00  0.49219526696E+03  0.56434969004E+03  0.27610576204E+03 0.  0.
         25    1    3    3    0    0 -0.43958400930E+02 -0.48956788272E+02  0.28319933491E+03  0.31453294171E+03  0.12000000000E+03 0.  0.
         25    1    3    3    0    0  0.43958400930E+02  0.48956788272E+02  0.20899593205E+03  0.24981674832E+03  0.12000000000E+03 0.  0.
<mgrwt>
<rscale>  0 0.27610576E+03</rscale>
<asrwt>0</asrwt>
<pdfrwt beam="1">  1        1 0.55503406E-02 0.27610576E+03</pdfrwt>
<pdfrwt beam="2">  1       -1 0.81272684E-01 0.27610576E+03</pdfrwt>
<totfact> 0.22683555E+03</totfact>
</mgrwt>
</event>
<event>
 5    1  0.1132878E+001  0.2755226E+03  0.7818608E-02  0.1098160E+00
          3   -1    0    0  501    0  0.00000000000E+00  0.00000000000E+00  0.66821763456E+03  0.66821763456E+03  0.00000000000E+00 0. -1.
         -3   -1    0    0    0  501 -0.00000000000E+00 -0.00000000000E+00 -0.28401185094E+02  0.28401185094E+02  0.00000000000E+00 0. -1.
         35    2    1    2    0    0  0.00000000000E+00  0.00000000000E+00  0.63981644947E+03  0.69661881966E+03  0.27552257782E+03 0.  0.
         25    1    3    3    0    0  0.27808605177E+02 -0.59702355647E+01  0.47513377404E+03  0.49087785188E+03  0.12000000000E+03 0.  0.
         25    1    3    3    0    0 -0.27808605177E+02  0.59702355647E+01  0.16468267543E+03  0.20574096778E+03  0.12000000000E+03 0.  0.
<mgrwt>
<rscale>  0 0.27552258E+03</rscale>
<asrwt>0</asrwt>
<pdfrwt beam="1">  1        3 0.10280270E+00 0.27552258E+03</pdfrwt>
<pdfrwt beam="2">  1       -3 0.43694136E-02 0.27552258E+03</pdfrwt>
<totfact> 0.60994286E+02</totfact>
</mgrwt>
</event>
<event>
 5    1  0.1132878E+001  0.2782858E+03  0.7818608E-02  0.1096629E+00
         -2   -1    0    0    0  501 -0.00000000000E+00  0.00000000000E+00  0.47318614960E+01  0.47318614960E+01  0.00000000000E+00 0.  1.
          2   -1    0    0  501    0  0.00000000000E+00 -0.00000000000E+00 -0.40915713872E+04  0.40915713872E+04  0.00000000000E+00 0.  1.
         35    2    1    2    0    0  0.00000000000E+00  0.00000000000E+00 -0.40868395257E+04  0.40963032487E+04  0.27828581786E+03 0.  0.
         25    1    3    3    0    0 -0.35305207079E+02 -0.26377323525E+02 -0.12346988962E+04  0.12412991521E+04  0.12000000000E+03 0.  0.
         25    1    3    3    0    0  0.35305207079E+02  0.26377323525E+02 -0.28521406295E+04  0.28550040966E+04  0.12000000000E+03 0.  0.
<mgrwt>
<rscale>  0 0.27828582E+03</rscale>
<asrwt>0</asrwt>
<pdfrwt beam="1">  1        2 0.62947292E+00 0.27828582E+03</pdfrwt>
<pdfrwt beam="2">  1       -2 0.72797823E-03 0.27828582E+03</pdfrwt>
<totfact> 0.12811973E+03</totfact>
</mgrwt>
</event>
<event>
 5    1  0.1132878E+001  0.2747782E+03  0.7818608E-02  0.1098576E+00
          2   -1    0    0  501    0  0.00000000000E+00  0.00000000000E+00  0.17023906711E+03  0.17023906711E+03  0.00000000000E+00 0. -1.
         -2   -1    0    0    0  501 -0.00000000000E+00 -0.00000000000E+00 -0.11087801498E+03  0.11087801498E+03  0.00000000000E+00 0. -1.
         35    2    1    2    0    0  0.00000000000E+00  0.00000000000E+00  0.59361052130E+02  0.28111708209E+03  0.27477823665E+03 0.  0.
         25    1    3    3    0    0 -0.29682281594E+02  0.59656730220E+02  0.23558628813E+02  0.13926583319E+03  0.12000000000E+03 0.  0.
         25    1    3    3    0    0  0.29682281594E+02 -0.59656730220E+02  0.35802423317E+02  0.14185124891E+03  0.12000000000E+03 0.  0.
<mgrwt>
<rscale>  0 0.27477824E+03</rscale>
<asrwt>0</asrwt>
<pdfrwt beam="1">  1        2 0.26190626E-01 0.27477824E+03</pdfrwt>
<pdfrwt beam="2">  1       -2 0.17058156E-01 0.27477824E+03</pdfrwt>
<totfact> 0.55894112E+03</totfact>
</mgrwt>
</event>
<event>
 5    1  0.1132878E+001  0.2772087E+03  0.7818608E-02  0.1097223E+00
          1   -1    0    0  501    0  0.00000000000E+00  0.00000000000E+00  0.14676181502E+03  0.14676181502E+03  0.00000000000E+00 0. -1.
         -1   -1    0    0    0  501 -0.00000000000E+00 -0.00000000000E+00 -0.13090030768E+03  0.13090030768E+03  0.00000000000E+00 0. -1.
         35    2    1    2    0    0  0.00000000000E+00  0.00000000000E+00  0.15861507336E+02  0.27766212270E+03  0.27720870651E+03 0.  0.
         25    1    3    3    0    0  0.44972922947E+02  0.13378960281E+02 -0.43237108779E+02  0.13590808641E+03  0.12000000000E+03 0.  0.
         25    1    3    3    0    0 -0.44972922947E+02 -0.13378960281E+02  0.59098616116E+02  0.14175403629E+03  0.12000000000E+03 0.  0.
<mgrwt>
<rscale>  0 0.27720871E+03</rscale>
<asrwt>0</asrwt>
<pdfrwt beam="1">  1        1 0.22578741E-01 0.27720871E+03</pdfrwt>
<pdfrwt beam="2">  1       -1 0.20138509E-01 0.27720871E+03</pdfrwt>
<totfact> 0.43241411E+03</totfact>
</mgrwt>
</event>
<event>
 5    1  0.1132878E+001  0.2751329E+03  0.7818608E-02  0.1098377E+00
          2   -1    0    0  501    0  0.00000000000E+00  0.00000000000E+00  0.34038363816E+03  0.34038363816E+03  0.00000000000E+00 0. -1.
         -2   -1    0    0    0  501 -0.00000000000E+00 -0.00000000000E+00 -0.55597654335E+02  0.55597654335E+02  0.00000000000E+00 0. -1.
         35    2    1    2    0    0  0.00000000000E+00  0.00000000000E+00  0.28478598383E+03  0.39598129250E+03  0.27513292683E+03 0.  0.
         25    1    3    3    0    0  0.20725942360E+02 -0.59177041358E+02  0.17744201400E+03  0.22319756998E+03  0.12000000000E+03 0.  0.
         25    1    3    3    0    0 -0.20725942360E+02  0.59177041358E+02  0.10734396983E+03  0.17278372252E+03  0.12000000000E+03 0.  0.
<mgrwt>
<rscale>  0 0.27513293E+03</rscale>
<asrwt>0</asrwt>
<pdfrwt beam="1">  1        2 0.52366712E-01 0.27513293E+03</pdfrwt>
<pdfrwt beam="2">  1       -2 0.85534855E-02 0.27513293E+03</pdfrwt>
<totfact> 0.80484300E+03</totfact>
</mgrwt>
</event>
<event>
 5    1  0.1132878E+001  0.2761699E+03  0.7818608E-02  0.1097799E+00
          1   -1    0    0  501    0  0.00000000000E+00  0.00000000000E+00  0.22877287401E+03  0.22877287401E+03  0.00000000000E+00 0. -1.
         -1   -1    0    0    0  501 -0.00000000000E+00 -0.00000000000E+00 -0.83346651048E+02  0.83346651048E+02  0.00000000000E+00 0. -1.
         35    2    1    2    0    0  0.00000000000E+00  0.00000000000E+00  0.14542622296E+03  0.31211952506E+03  0.27616989625E+03 0.  0.
         25    1    3    3    0    0  0.12836152460E+02 -0.66116479662E+02  0.59763034693E+02  0.15002591779E+03  0.12000000000E+03 0.  0.
         25    1    3    3    0    0 -0.12836152460E+02  0.66116479662E+02  0.85663188269E+02  0.16209360727E+03  0.12000000000E+03 0.  0.
<mgrwt>
<rscale>  0 0.27616990E+03</rscale>
<asrwt>0</asrwt>
<pdfrwt beam="1">  1        1 0.35195826E-01 0.27616990E+03</pdfrwt>
<pdfrwt beam="2">  1       -1 0.12822562E-01 0.27616990E+03</pdfrwt>
<totfact> 0.50659157E+03</totfact>
</mgrwt>
</event>
<event>
 5    1  0.1132878E+001  0.2750824E+03  0.7818608E-02  0.1098406E+00
         -1   -1    0    0    0  501 -0.00000000000E+00  0.00000000000E+00  0.32199207012E+02  0.32199207012E+02  0.00000000000E+00 0.  1.
          1   -1    0    0  501    0  0.00000000000E+00 -0.00000000000E+00 -0.58751698161E+03  0.58751698161E+03  0.00000000000E+00 0.  1.
         35    2    1    2    0    0  0.00000000000E+00  0.00000000000E+00 -0.55531777460E+03  0.61971618862E+03  0.27508239430E+03 0.  0.
         25    1    3    3    0    0 -0.60170379727E+02  0.19989010440E+01 -0.34498486899E+03  0.37018783075E+03  0.12000000000E+03 0.  0.
         25    1    3    3    0    0  0.60170379727E+02 -0.19989010440E+01 -0.21033290560E+03  0.24952835787E+03  0.12000000000E+03 0.  0.
<mgrwt>
<rscale>  0 0.27508239E+03</rscale>
<asrwt>0</asrwt>
<pdfrwt beam="1">  1        1 0.90387221E-01 0.27508239E+03</pdfrwt>
<pdfrwt beam="2">  1       -1 0.49537245E-02 0.27508239E+03</pdfrwt>
<totfact> 0.64399725E+03</totfact>
</mgrwt>
</event>
<event>
 5    1  0.1132878E+001  0.2750033E+03  0.7818608E-02  0.1098450E+00
         -2   -1    0    0    0  501 -0.00000000000E+00  0.00000000000E+00  0.31805856858E+02  0.31805856858E+02  0.00000000000E+00 0.  1.
          2   -1    0    0  501    0  0.00000000000E+00 -0.00000000000E+00 -0.59444094908E+03  0.59444094908E+03  0.00000000000E+00 0.  1.
         35    2    1    2    0    0  0.00000000000E+00  0.00000000000E+00 -0.56263509222E+03  0.62624680594E+03  0.27500329989E+03 0.  0.
         25    1    3    3    0    0 -0.65845862013E+02  0.11441989447E+02 -0.29573930027E+03  0.32608025146E+03  0.12000000000E+03 0.  0.
         25    1    3    3    0    0  0.65845862013E+02 -0.11441989447E+02 -0.26689579195E+03  0.30016655447E+03  0.12000000000E+03 0.  0.
<mgrwt>
<rscale>  0 0.27500330E+03</rscale>
<asrwt>0</asrwt>
<pdfrwt beam="1">  1        2 0.91452439E-01 0.27500330E+03</pdfrwt>
<pdfrwt beam="2">  1       -2 0.48932095E-02 0.27500330E+03</pdfrwt>
<totfact> 0.10273082E+04</totfact>
</mgrwt>
</event>
<event>
 5    1  0.1132878E+001  0.2753786E+03  0.7818608E-02  0.1098240E+00
         -1   -1    0    0    0  501 -0.00000000000E+00  0.00000000000E+00  0.38588108238E+02  0.38588108238E+02  0.00000000000E+00 0. -1.
          1   -1    0    0  501    0  0.00000000000E+00 -0.00000000000E+00 -0.49130006409E+03  0.49130006409E+03  0.00000000000E+00 0. -1.
         35    2    1    2    0    0  0.00000000000E+00  0.00000000000E+00 -0.45271195585E+03  0.52988817232E+03  0.27537857615E+03 0.  0.
         25    1    3    3    0    0  0.39362085470E+02  0.17790420793E+02 -0.12651029616E+03  0.17964055188E+03  0.12000000000E+03 0.  0.
         25    1    3    3    0    0 -0.39362085470E+02 -0.17790420793E+02 -0.32620165969E+03  0.35024762045E+03  0.12000000000E+03 0.  0.
<mgrwt>
<rscale>  0 0.27537858E+03</rscale>
<asrwt>0</asrwt>
<pdfrwt beam="1">  1        1 0.75584624E-01 0.27537858E+03</pdfrwt>
<pdfrwt beam="2">  1       -1 0.59366321E-02 0.27537858E+03</pdfrwt>
<totfact> 0.62473319E+03</totfact>
</mgrwt>
</event>
<event>
 5    1  0.1132878E+001  0.2756220E+03  0.7818608E-02  0.1098104E+00
         -1   -1    0    0    0  501 -0.00000000000E+00  0.00000000000E+00  0.21530590640E+03  0.21530590640E+03  0.00000000000E+00 0. -1.
          1   -1    0    0  501    0  0.00000000000E+00 -0.00000000000E+00 -0.88208765791E+02  0.88208765791E+02  0.00000000000E+00 0. -1.
         35    2    1    2    0    0  0.00000000000E+00  0.00000000000E+00  0.12709714061E+03  0.30351467219E+03  0.27562197496E+03 0.  0.
         25    1    3    3    0    0  0.28018483314E+02 -0.59519941954E+02  0.81448031591E+02  0.15925275742E+03  0.12000000000E+03 0.  0.
         25    1    3    3    0    0 -0.28018483314E+02  0.59519941954E+02  0.45649109017E+02  0.14426191476E+03  0.12000000000E+03 0.  0.
<mgrwt>
<rscale>  0 0.27562197E+03</rscale>
<asrwt>0</asrwt>
<pdfrwt beam="1">  1        1 0.13570579E-01 0.27562197E+03</pdfrwt>
<pdfrwt beam="2">  1       -1 0.33123985E-01 0.27562197E+03</pdfrwt>
<totfact> 0.36466563E+03</totfact>
</mgrwt>
</event>
<event>
 5    1  0.1132878E+001  0.2744385E+03  0.7818608E-02  0.1098766E+00
          2   -1    0    0  501    0  0.00000000000E+00  0.00000000000E+00  0.17842910990E+03  0.17842910990E+03  0.00000000000E+00 0. -1.
         -2   -1    0    0    0  501 -0.00000000000E+00 -0.00000000000E+00 -0.10552715744E+03  0.10552715744E+03  0.00000000000E+00 0. -1.
         35    2    1    2    0    0  0.00000000000E+00  0.00000000000E+00  0.72901952461E+02  0.28395626735E+03  0.27443845775E+03 0.  0.
         25    1    3    3    0    0 -0.25477420771E+02  0.61421464278E+02  0.33632247891E+02  0.14125446308E+03  0.12000000000E+03 0.  0.
         25    1    3    3    0    0  0.25477420771E+02 -0.61421464278E+02  0.39269704570E+02  0.14270180426E+03  0.12000000000E+03 0.  0.
<mgrwt>
<rscale>  0 0.27443846E+03</rscale>
<asrwt>0</asrwt>
<pdfrwt beam="1">  1        2 0.27450632E-01 0.27443846E+03</pdfrwt>
<pdfrwt beam="2">  1       -2 0.16234947E-01 0.27443846E+03</pdfrwt>
<totfact> 0.57624711E+03</totfact>
</mgrwt>
</event>
<event>
 5    1  0.1132878E+001  0.2748602E+03  0.7818608E-02  0.1098530E+00
          2   -1    0    0  501    0  0.00000000000E+00  0.00000000000E+00  0.50103193530E+03  0.50103193530E+03  0.00000000000E+00 0.  1.
         -2   -1    0    0    0  501 -0.00000000000E+00 -0.00000000000E+00 -0.37696269320E+02  0.37696269320E+02  0.00000000000E+00 0.  1.
         35    2    1    2    0    0  0.00000000000E+00  0.00000000000E+00  0.46333566598E+03  0.53872820462E+03  0.27486021736E+03 0.  0.
         25    1    3    3    0    0  0.34336544416E+02  0.41004392360E+02  0.15261664577E+03  0.20137576578E+03  0.12000000000E+03 0.  0.
         25    1    3    3    0    0 -0.34336544416E+02 -0.41004392360E+02  0.31071902021E+03  0.33735243884E+03  0.12000000000E+03 0.  0.
<mgrwt>
<rscale>  0 0.27486022E+03</rscale>
<asrwt>0</asrwt>
<pdfrwt beam="1">  1        2 0.77081831E-01 0.27486022E+03</pdfrwt>
<pdfrwt beam="2">  1       -2 0.57994264E-02 0.27486022E+03</pdfrwt>
<totfact> 0.96307586E+03</totfact>
</mgrwt>
</event>
<event>
 5    1  0.1132878E+001  0.2746307E+03  0.7818608E-02  0.1098658E+00
          4   -1    0    0  501    0  0.00000000000E+00  0.00000000000E+00  0.38102619507E+02  0.38102619507E+02  0.00000000000E+00 0. -1.
         -4   -1    0    0    0  501 -0.00000000000E+00 -0.00000000000E+00 -0.49486102819E+03  0.49486102819E+03  0.00000000000E+00 0. -1.
         35    2    1    2    0    0  0.00000000000E+00  0.00000000000E+00 -0.45675840868E+03  0.53296364770E+03  0.27463067175E+03 0.  0.
         25    1    3    3    0    0  0.44849095130E+02 -0.48058655345E+02 -0.25087958309E+03  0.28576500992E+03  0.12000000000E+03 0.  0.
         25    1    3    3    0    0 -0.44849095130E+02  0.48058655345E+02 -0.20587882560E+03  0.24719863777E+03  0.12000000000E+03 0.  0.
<mgrwt>
<rscale>  0 0.27463067E+03</rscale>
<asrwt>0</asrwt>
<pdfrwt beam="1">  1        4 0.58619421E-02 0.27463067E+03</pdfrwt>
<pdfrwt beam="2">  1       -4 0.76132458E-01 0.27463067E+03</pdfrwt>
<totfact> 0.54769415E+02</totfact>
</mgrwt>
</event>
<event>
 5    1  0.1132878E+001  0.2736532E+03  0.7818608E-02  0.1099207E+00
          2   -1    0    0  501    0  0.00000000000E+00  0.00000000000E+00  0.47333016063E+03  0.47333016063E+03  0.00000000000E+00 0. -1.
         -2   -1    0    0    0  501 -0.00000000000E+00 -0.00000000000E+00 -0.39552772962E+02  0.39552772962E+02  0.00000000000E+00 0. -1.
         35    2    1    2    0    0  0.00000000000E+00  0.00000000000E+00  0.43377738767E+03  0.51288293359E+03  0.27365321397E+03 0.  0.
         25    1    3    3    0    0 -0.39148811588E+02 -0.45413949844E+02  0.26740420717E+03  0.29916561685E+03  0.12000000000E+03 0.  0.
         25    1    3    3    0    0  0.39148811588E+02  0.45413949844E+02  0.16637318050E+03  0.21371731675E+03  0.12000000000E+03 0.  0.
<mgrwt>
<rscale>  0 0.27365321E+03</rscale>
<asrwt>0</asrwt>
<pdfrwt beam="1">  1        2 0.72820021E-01 0.27365321E+03</pdfrwt>
<pdfrwt beam="2">  1       -2 0.60850423E-02 0.27365321E+03</pdfrwt>
<totfact> 0.95299417E+03</totfact>
</mgrwt>
</event>
<event>
 5    1  0.1132878E+001  0.2705905E+03  0.7818608E-02  0.1100942E+00
         -2   -1    0    0    0  501 -0.00000000000E+00  0.00000000000E+00  0.56161983774E+01  0.56161983774E+01  0.00000000000E+00 0. -1.
          2   -1    0    0  501    0  0.00000000000E+00 -0.00000000000E+00 -0.32592867148E+04  0.32592867148E+04  0.00000000000E+00 0. -1.
         35    2    1    2    0    0  0.00000000000E+00  0.00000000000E+00 -0.32536705165E+04  0.32649029132E+04  0.27059047108E+03 0.  0.
         25    1    3    3    0    0  0.43356204407E+02  0.24819474280E+02 -0.11739183768E+04  0.11810927661E+04  0.12000000000E+03 0.  0.
         25    1    3    3    0    0 -0.43356204407E+02 -0.24819474280E+02 -0.20797521397E+04  0.20838101471E+04  0.12000000000E+03 0.  0.
<mgrwt>
<rscale>  0 0.27059047E+03</rscale>
<asrwt>0</asrwt>
<pdfrwt beam="1">  1        2 0.50142783E+00 0.27059047E+03</pdfrwt>
<pdfrwt beam="2">  1       -2 0.86403206E-03 0.27059047E+03</pdfrwt>
<totfact> 0.38207500E+03</totfact>
</mgrwt>
</event>
<event>
 5    1  0.1132878E+001  0.2748962E+03  0.7818608E-02  0.1098510E+00
          2   -1    0    0  501    0  0.00000000000E+00  0.00000000000E+00  0.48911444116E+03  0.48911444116E+03  0.00000000000E+00 0. -1.
         -2   -1    0    0    0  501 -0.00000000000E+00 -0.00000000000E+00 -0.38624859335E+02  0.38624859335E+02  0.00000000000E+00 0. -1.
         35    2    1    2    0    0  0.00000000000E+00  0.00000000000E+00  0.45048958182E+03  0.52773930049E+03  0.27489617304E+03 0.  0.
         25    1    3    3    0    0 -0.63917859996E+02 -0.18533750773E+02  0.21000900081E+03  0.25086405315E+03  0.12000000000E+03 0.  0.
         25    1    3    3    0    0  0.63917859996E+02  0.18533750773E+02  0.24048058101E+03  0.27687524734E+03  0.12000000000E+03 0.  0.
<mgrwt>
<rscale>  0 0.27489617E+03</rscale>
<asrwt>0</asrwt>
<pdfrwt beam="1">  1        2 0.75248371E-01 0.27489617E+03</pdfrwt>
<pdfrwt beam="2">  1       -2 0.59422864E-02 0.27489617E+03</pdfrwt>
<totfact> 0.95311736E+03</totfact>
</mgrwt>
</event>
<event>
 5    1  0.1132878E+001  0.2756899E+03  0.7818608E-02  0.1098067E+00
          2   -1    0    0  501    0  0.00000000000E+00  0.00000000000E+00  0.13353526743E+04  0.13353526743E+04  0.00000000000E+00 0.  1.
         -2   -1    0    0    0  501 -0.00000000000E+00 -0.00000000000E+00 -0.14229375573E+02  0.14229375573E+02  0.00000000000E+00 0.  1.
         35    2    1    2    0    0  0.00000000000E+00  0.00000000000E+00  0.13211232987E+04  0.13495820499E+04  0.27568993253E+03 0.  0.
         25    1    3    3    0    0 -0.66350965240E+02  0.98371576299E+01  0.61111814252E+03  0.62639013751E+03  0.12000000000E+03 0.  0.
         25    1    3    3    0    0  0.66350965240E+02 -0.98371576299E+01  0.71000515619E+03  0.72319191234E+03  0.12000000000E+03 0.  0.
<mgrwt>
<rscale>  0 0.27568993E+03</rscale>
<asrwt>0</asrwt>
<pdfrwt beam="1">  1        2 0.20543877E+00 0.27568993E+03</pdfrwt>
<pdfrwt beam="2">  1       -2 0.21891358E-02 0.27568993E+03</pdfrwt>
<totfact> 0.11340098E+04</totfact>
</mgrwt>
</event>
<event>
 5    1  0.1132878E+001  0.2751571E+03  0.7818608E-02  0.1098364E+00
          3   -1    0    0  501    0  0.00000000000E+00  0.00000000000E+00  0.18095350439E+03  0.18095350439E+03  0.00000000000E+00 0. -1.
         -3   -1    0    0    0  501 -0.00000000000E+00 -0.00000000000E+00 -0.10460066572E+03  0.10460066572E+03  0.00000000000E+00 0. -1.
         35    2    1    2    0    0  0.00000000000E+00  0.00000000000E+00  0.76352838669E+02  0.28555417011E+03  0.27515709711E+03 0.  0.
         25    1    3    3    0    0 -0.56659930599E+02  0.28338697453E+02  0.61714436878E+02  0.14907079267E+03  0.12000000000E+03 0.  0.
         25    1    3    3    0    0  0.56659930599E+02 -0.28338697453E+02  0.14638401791E+02  0.13648337743E+03  0.12000000000E+03 0.  0.
<mgrwt>
<rscale>  0 0.27515710E+03</rscale>
<asrwt>0</asrwt>
<pdfrwt beam="1">  1        3 0.27839001E-01 0.27515710E+03</pdfrwt>
<pdfrwt beam="2">  1       -3 0.16092410E-01 0.27515710E+03</pdfrwt>
<totfact> 0.10311675E+03</totfact>
</mgrwt>
</event>
<event>
 5    1  0.1132878E+001  0.2745881E+03  0.7818608E-02  0.1098682E+00
         -1   -1    0    0    0  501 -0.00000000000E+00  0.00000000000E+00  0.28616133771E+02  0.28616133771E+02  0.00000000000E+00 0. -1.
          1   -1    0    0  501    0  0.00000000000E+00 -0.00000000000E+00 -0.65870706108E+03  0.65870706108E+03  0.00000000000E+00 0. -1.
         35    2    1    2    0    0  0.00000000000E+00  0.00000000000E+00 -0.63009092731E+03  0.68732319485E+03  0.27458805055E+03 0.  0.
         25    1    3    3    0    0  0.58046910977E+02  0.30035678548E+02 -0.34844703041E+03  0.37428187087E+03  0.12000000000E+03 0.  0.
         25    1    3    3    0    0 -0.58046910977E+02 -0.30035678548E+02 -0.28164389690E+03  0.31304132398E+03  0.12000000000E+03 0.  0.
<mgrwt>
<rscale>  0 0.27458805E+03</rscale>
<asrwt>0</asrwt>
<pdfrwt beam="1">  1        1 0.10133954E+00 0.27458805E+03</pdfrwt>
<pdfrwt beam="2">  1       -1 0.44024824E-02 0.27458805E+03</pdfrwt>
<totfact> 0.65418678E+03</totfact>
</mgrwt>
</event>
<event>
 5    1  0.1132878E+001  0.2763868E+03  0.7818608E-02  0.1097679E+00
         -1   -1    0    0    0  501 -0.00000000000E+00  0.00000000000E+00  0.64594584940E+02  0.64594584940E+02  0.00000000000E+00 0. -1.
          1   -1    0    0  501    0  0.00000000000E+00 -0.00000000000E+00 -0.29565045928E+03  0.29565045928E+03  0.00000000000E+00 0. -1.
         35    2    1    2    0    0  0.00000000000E+00  0.00000000000E+00 -0.23105587434E+03  0.36024504422E+03  0.27638682099E+03 0.  0.
         25    1    3    3    0    0  0.34454472464E+02 -0.47477869283E+02 -0.69332066424E+02  0.15049316987E+03  0.12000000000E+03 0.  0.
         25    1    3    3    0    0 -0.34454472464E+02  0.47477869283E+02 -0.16172380792E+03  0.20975187435E+03  0.12000000000E+03 0.  0.
<mgrwt>
<rscale>  0 0.27638682E+03</rscale>
<asrwt>0</asrwt>
<pdfrwt beam="1">  1        1 0.45484687E-01 0.27638682E+03</pdfrwt>
<pdfrwt beam="2">  1       -1 0.99376282E-02 0.27638682E+03</pdfrwt>
<totfact> 0.54592209E+03</totfact>
</mgrwt>
</event>
<event>
 5    1  0.1132878E+001  0.2748328E+03  0.7818608E-02  0.1098545E+00
         -1   -1    0    0    0  501 -0.00000000000E+00  0.00000000000E+00  0.16678285336E+02  0.16678285336E+02  0.00000000000E+00 0. -1.
          1   -1    0    0  501    0  0.00000000000E+00 -0.00000000000E+00 -0.11322066636E+04  0.11322066636E+04  0.00000000000E+00 0. -1.
         35    2    1    2    0    0  0.00000000000E+00  0.00000000000E+00 -0.11155283783E+04  0.11488849490E+04  0.27483279132E+03 0.  0.
         25    1    3    3    0    0 -0.18069005445E+02 -0.81014299139E+01 -0.29038330391E+03  0.31482468981E+03  0.12000000000E+03 0.  0.
         25    1    3    3    0    0  0.18069005445E+02  0.81014299139E+01 -0.82514507440E+03  0.83406025918E+03  0.12000000000E+03 0.  0.
<mgrwt>
<rscale>  0 0.27483279E+03</rscale>
<asrwt>0</asrwt>
<pdfrwt beam="1">  1        1 0.17418563E+00 0.27483279E+03</pdfrwt>
<pdfrwt beam="2">  1       -1 0.25658903E-02 0.27483279E+03</pdfrwt>
<totfact> 0.60769604E+03</totfact>
</mgrwt>
</event>
<event>
 5    1  0.1132878E+001  0.2751947E+03  0.7818608E-02  0.1098343E+00
          2   -1    0    0  501    0  0.00000000000E+00  0.00000000000E+00  0.52855401872E+03  0.52855401872E+03  0.00000000000E+00 0.  1.
         -2   -1    0    0    0  501 -0.00000000000E+00 -0.00000000000E+00 -0.35820432628E+02  0.35820432628E+02  0.00000000000E+00 0.  1.
         35    2    1    2    0    0  0.00000000000E+00  0.00000000000E+00  0.49273358609E+03  0.56437445135E+03  0.27519472101E+03 0.  0.
         25    1    3    3    0    0 -0.54027287595E+02 -0.30773999948E+02  0.29933379357E+03  0.32843067282E+03  0.12000000000E+03 0.  0.
         25    1    3    3    0    0  0.54027287595E+02  0.30773999948E+02  0.19339979253E+03  0.23594377853E+03  0.12000000000E+03 0.  0.
<mgrwt>
<rscale>  0 0.27519472E+03</rscale>
<asrwt>0</asrwt>
<pdfrwt beam="1">  1        2 0.81315997E-01 0.27519472E+03</pdfrwt>
<pdfrwt beam="2">  1       -2 0.55108362E-02 0.27519472E+03</pdfrwt>
<totfact> 0.98053214E+03</totfact>
</mgrwt>
</event>
<event>
 5    1  0.1132878E+001  0.2760637E+03  0.7818608E-02  0.1097858E+00
         -1   -1    0    0    0  501 -0.00000000000E+00  0.00000000000E+00  0.27325678825E+02  0.27325678825E+02  0.00000000000E+00 0. -1.
          1   -1    0    0  501    0  0.00000000000E+00 -0.00000000000E+00 -0.69724878190E+03  0.69724878190E+03  0.00000000000E+00 0. -1.
         35    2    1    2    0    0  0.00000000000E+00  0.00000000000E+00 -0.66992310308E+03  0.72457446073E+03  0.27606373377E+03 0.  0.
         25    1    3    3    0    0 -0.69951488092E+01 -0.57572734031E+02 -0.42920285895E+03  0.44942034438E+03  0.12000000000E+03 0.  0.
         25    1    3    3    0    0  0.69951488092E+01  0.57572734031E+02 -0.24072024413E+03  0.27515411635E+03  0.12000000000E+03 0.  0.
<mgrwt>
<rscale>  0 0.27606373E+03</rscale>
<asrwt>0</asrwt>
<pdfrwt beam="1">  1        1 0.10726902E+00 0.27606373E+03</pdfrwt>
<pdfrwt beam="2">  1       -1 0.42039516E-02 0.27606373E+03</pdfrwt>
<totfact> 0.64564534E+03</totfact>
</mgrwt>
</event>
<event>
 5    1  0.1132878E+001  0.2675299E+03  0.7818608E-02  0.1102702E+00
          1   -1    0    0  501    0  0.00000000000E+00  0.00000000000E+00  0.14801292165E+03  0.14801292165E+03  0.00000000000E+00 0.  1.
         -1   -1    0    0    0  501 -0.00000000000E+00 -0.00000000000E+00 -0.12088855693E+03  0.12088855693E+03  0.00000000000E+00 0.  1.
         35    2    1    2    0    0  0.00000000000E+00  0.00000000000E+00  0.27124364721E+02  0.26890147859E+03  0.26752994977E+03 0.  0.
         25    1    3    3    0    0 -0.52167536935E+02  0.23111865792E+02  0.29050862782E+02  0.13601309819E+03  0.12000000000E+03 0.  0.
         25    1    3    3    0    0  0.52167536935E+02 -0.23111865792E+02 -0.19264980608E+01  0.13288838040E+03  0.12000000000E+03 0.  0.
<mgrwt>
<rscale>  0 0.26752995E+03</rscale>
<asrwt>0</asrwt>
<pdfrwt beam="1">  1        1 0.22771219E-01 0.26752995E+03</pdfrwt>
<pdfrwt beam="2">  1       -1 0.18598239E-01 0.26752995E+03</pdfrwt>
<totfact> 0.48606171E+03</totfact>
</mgrwt>
</event>
<event>
 5    1  0.1132878E+001  0.2750895E+03  0.7818608E-02  0.1098402E+00
          2   -1    0    0  501    0  0.00000000000E+00  0.00000000000E+00  0.25090243339E+04  0.25090243339E+04  0.00000000000E+00 0. -1.
         -2   -1    0    0    0  501 -0.00000000000E+00 -0.00000000000E+00 -0.75402033880E+01  0.75402033880E+01  0.00000000000E+00 0. -1.
         35    2    1    2    0    0  0.00000000000E+00  0.00000000000E+00  0.25014841305E+04  0.25165645373E+04  0.27508946751E+03 0.  0.
         25    1    3    3    0    0  0.14582001042E+02 -0.26410468929E+02  0.70121154520E+03  0.71204478704E+03  0.12000000000E+03 0.  0.
         25    1    3    3    0    0 -0.14582001042E+02  0.26410468929E+02  0.18002725853E+04  0.18045197503E+04  0.12000000000E+03 0.  0.
<mgrwt>
<rscale>  0 0.27508947E+03</rscale>
<asrwt>0</asrwt>
<pdfrwt beam="1">  1        2 0.38600308E+00 0.27508947E+03</pdfrwt>
<pdfrwt beam="2">  1       -2 0.11600333E-02 0.27508947E+03</pdfrwt>
<totfact> 0.68109551E+03</totfact>
</mgrwt>
</event>
<event>
 5    1  0.1132878E+001  0.2756010E+03  0.7818608E-02  0.1098116E+00
          2   -1    0    0  501    0  0.00000000000E+00  0.00000000000E+00  0.30243510340E+02  0.30243510340E+02  0.00000000000E+00 0.  1.
         -2   -1    0    0    0  501 -0.00000000000E+00 -0.00000000000E+00 -0.62786949074E+03  0.62786949074E+03  0.00000000000E+00 0.  1.
         35    2    1    2    0    0  0.00000000000E+00  0.00000000000E+00 -0.59762598040E+03  0.65811300108E+03  0.27560099735E+03 0.  0.
         25    1    3    3    0    0 -0.57564923160E+02  0.35688312465E+02 -0.30183482710E+03  0.33180060108E+03  0.12000000000E+03 0.  0.
         25    1    3    3    0    0  0.57564923160E+02 -0.35688312465E+02 -0.29579115329E+03  0.32631240000E+03  0.12000000000E+03 0.  0.
<mgrwt>
<rscale>  0 0.27560100E+03</rscale>
<asrwt>0</asrwt>
<pdfrwt beam="1">  1        2 0.46528482E-02 0.27560100E+03</pdfrwt>
<pdfrwt beam="2">  1       -2 0.96595296E-01 0.27560100E+03</pdfrwt>
<totfact> 0.16068829E+03</totfact>
</mgrwt>
</event>
<event>
 5    1  0.1132878E+001  0.2751046E+03  0.7818608E-02  0.1098393E+00
         -2   -1    0    0    0  501 -0.00000000000E+00  0.00000000000E+00  0.15295298649E+03  0.15295298649E+03  0.00000000000E+00 0. -1.
          2   -1    0    0  501    0  0.00000000000E+00 -0.00000000000E+00 -0.12370226250E+03  0.12370226250E+03  0.00000000000E+00 0. -1.
         35    2    1    2    0    0  0.00000000000E+00  0.00000000000E+00  0.29250723988E+02  0.27665524899E+03  0.27510456546E+03 0.  0.
         25    1    3    3    0    0 -0.10267418447E+02  0.14088442769E+02  0.79927714569E+02  0.14523203385E+03  0.12000000000E+03 0.  0.
         25    1    3    3    0    0  0.10267418447E+02 -0.14088442769E+02 -0.50676990581E+02  0.13142321513E+03  0.12000000000E+03 0.  0.
<mgrwt>
<rscale>  0 0.27510457E+03</rscale>
<asrwt>0</asrwt>
<pdfrwt beam="1">  1        2 0.19031117E-01 0.27510457E+03</pdfrwt>
<pdfrwt beam="2">  1       -2 0.23531229E-01 0.27510457E+03</pdfrwt>
<totfact> 0.46256082E+03</totfact>
</mgrwt>
</event>
<event>
 5    1  0.1132878E+001  0.2752405E+03  0.7818608E-02  0.1098317E+00
          4   -1    0    0  501    0  0.00000000000E+00  0.00000000000E+00  0.18713103269E+03  0.18713103269E+03  0.00000000000E+00 0. -1.
         -4   -1    0    0    0  501 -0.00000000000E+00 -0.00000000000E+00 -0.10120892144E+03  0.10120892144E+03  0.00000000000E+00 0. -1.
         35    2    1    2    0    0  0.00000000000E+00  0.00000000000E+00  0.85922111256E+02  0.28833995413E+03  0.27524047657E+03 0.  0.
         25    1    3    3    0    0  0.16264816754E+02 -0.52176036769E+02  0.84237369133E+02  0.15646986111E+03  0.12000000000E+03 0.  0.
         25    1    3    3    0    0 -0.16264816754E+02  0.52176036769E+02  0.16847421227E+01  0.13187009302E+03  0.12000000000E+03 0.  0.
<mgrwt>
<rscale>  0 0.27524048E+03</rscale>
<asrwt>0</asrwt>
<pdfrwt beam="1">  1        4 0.28789390E-01 0.27524048E+03</pdfrwt>
<pdfrwt beam="2">  1       -4 0.15570603E-01 0.27524048E+03</pdfrwt>
<totfact> 0.76106126E+02</totfact>
</mgrwt>
</event>
<event>
 5    1  0.1132878E+001  0.2753098E+03  0.7818608E-02  0.1098279E+00
          1   -1    0    0  501    0  0.00000000000E+00  0.00000000000E+00  0.44661891718E+02  0.44661891718E+02  0.00000000000E+00 0. -1.
         -1   -1    0    0    0  501 -0.00000000000E+00 -0.00000000000E+00 -0.42427368836E+03  0.42427368836E+03  0.00000000000E+00 0. -1.
         35    2    1    2    0    0  0.00000000000E+00  0.00000000000E+00 -0.37961179664E+03  0.46893558007E+03  0.27530975666E+03 0.  0.
         25    1    3    3    0    0 -0.31780447777E+02  0.37922239841E+02 -0.11173645477E+03  0.17126916961E+03  0.12000000000E+03 0.  0.
         25    1    3    3    0    0  0.31780447777E+02 -0.37922239841E+02 -0.26787534187E+03  0.29766641046E+03  0.12000000000E+03 0.  0.
<mgrwt>
<rscale>  0 0.27530976E+03</rscale>
<asrwt>0</asrwt>
<pdfrwt beam="1">  1        1 0.68710605E-02 0.27530976E+03</pdfrwt>
<pdfrwt beam="2">  1       -1 0.65272873E-01 0.27530976E+03</pdfrwt>
<totfact> 0.26340006E+03</totfact>
</mgrwt>
</event>
<event>
 5    1  0.1132878E+001  0.2745567E+03  0.7818608E-02  0.1098700E+00
         -1   -1    0    0    0  501 -0.00000000000E+00  0.00000000000E+00  0.10797672077E+02  0.10797672077E+02  0.00000000000E+00 0.  1.
          1   -1    0    0  501    0  0.00000000000E+00 -0.00000000000E+00 -0.17453162116E+04  0.17453162116E+04  0.00000000000E+00 0.  1.
         35    2    1    2    0    0  0.00000000000E+00  0.00000000000E+00 -0.17345185395E+04  0.17561138837E+04  0.27455674913E+03 0.  0.
         25    1    3    3    0    0 -0.34554964856E+02 -0.39263525275E+02 -0.11317303786E+04  0.11392757874E+04  0.12000000000E+03 0.  0.
         25    1    3    3    0    0  0.34554964856E+02  0.39263525275E+02 -0.60278816093E+03  0.61683809624E+03  0.12000000000E+03 0.  0.
<mgrwt>
<rscale>  0 0.27455675E+03</rscale>
<asrwt>0</asrwt>
<pdfrwt beam="1">  1        1 0.26851039E+00 0.27455675E+03</pdfrwt>
<pdfrwt beam="2">  1       -1 0.16611791E-02 0.27455675E+03</pdfrwt>
<totfact> 0.44420939E+03</totfact>
</mgrwt>
</event>
<event>
 5    1  0.1132878E+001  0.2760642E+03  0.7818608E-02  0.1097858E+00
         -2   -1    0    0    0  501 -0.00000000000E+00  0.00000000000E+00  0.19558862694E+03  0.19558862694E+03  0.00000000000E+00 0.  1.
          2   -1    0    0  501    0  0.00000000000E+00 -0.00000000000E+00 -0.97412957603E+02  0.97412957603E+02  0.00000000000E+00 0.  1.
         35    2    1    2    0    0  0.00000000000E+00  0.00000000000E+00  0.98175669337E+02  0.29300158454E+03  0.27606424342E+03 0.  0.
         25    1    3    3    0    0 -0.64791966491E+02  0.90961936366E+01  0.69561961020E+02  0.15336103182E+03  0.12000000000E+03 0.  0.
         25    1    3    3    0    0  0.64791966491E+02 -0.90961936366E+01  0.28613708317E+02  0.13964055272E+03  0.12000000000E+03 0.  0.
<mgrwt>
<rscale>  0 0.27606424E+03</rscale>
<asrwt>0</asrwt>
<pdfrwt beam="1">  1        2 0.14986609E-01 0.27606424E+03</pdfrwt>
<pdfrwt beam="2">  1       -2 0.30090558E-01 0.27606424E+03</pdfrwt>
<totfact> 0.39464874E+03</totfact>
</mgrwt>
</event>
<event>
 5    1  0.1132878E+001  0.2742686E+03  0.7818608E-02  0.1098861E+00
          2   -1    0    0  501    0  0.00000000000E+00  0.00000000000E+00  0.39603162620E+03  0.39603162620E+03  0.00000000000E+00 0.  1.
         -2   -1    0    0    0  501 -0.00000000000E+00 -0.00000000000E+00 -0.47485645034E+02  0.47485645034E+02  0.00000000000E+00 0.  1.
         35    2    1    2    0    0  0.00000000000E+00  0.00000000000E+00  0.34854598117E+03  0.44351727124E+03  0.27426860720E+03 0.  0.
         25    1    3    3    0    0 -0.41325206888E+02  0.49818540350E+02  0.19804794140E+03  0.24044260600E+03  0.12000000000E+03 0.  0.
         25    1    3    3    0    0  0.41325206888E+02 -0.49818540350E+02  0.15049803977E+03  0.20307466524E+03  0.12000000000E+03 0.  0.
<mgrwt>
<rscale>  0 0.27426861E+03</rscale>
<asrwt>0</asrwt>
<pdfrwt beam="1">  1        2 0.60927940E-01 0.27426861E+03</pdfrwt>
<pdfrwt beam="2">  1       -2 0.73054841E-02 0.27426861E+03</pdfrwt>
<totfact> 0.87388460E+03</totfact>
</mgrwt>
</event>
<event>
 5    1  0.1132878E+001  0.2754445E+03  0.7818608E-02  0.1098203E+00
         -1   -1    0    0    0  501 -0.00000000000E+00  0.00000000000E+00  0.10182942260E+03  0.10182942260E+03  0.00000000000E+00 0.  1.
          1   -1    0    0  501    0  0.00000000000E+00 -0.00000000000E+00 -0.18626657079E+03  0.18626657079E+03  0.00000000000E+00 0.  1.
         35    2    1    2    0    0  0.00000000000E+00  0.00000000000E+00 -0.84437148190E+02  0.28809599339E+03  0.27544449425E+03 0.  0.
         25    1    3    3    0    0 -0.12445885022E+02 -0.60379860108E+02 -0.13255724824E+02  0.13555936634E+03  0.12000000000E+03 0.  0.
         25    1    3    3    0    0  0.12445885022E+02  0.60379860108E+02 -0.71181423366E+02  0.15253662705E+03  0.12000000000E+03 0.  0.
<mgrwt>
<rscale>  0 0.27544449E+03</rscale>
<asrwt>0</asrwt>
<pdfrwt beam="1">  1        1 0.28656396E-01 0.27544449E+03</pdfrwt>
<pdfrwt beam="2">  1       -1 0.15666065E-01 0.27544449E+03</pdfrwt>
<totfact> 0.47821022E+03</totfact>
</mgrwt>
</event>
<event>
 5    1  0.1132878E+001  0.2748008E+03  0.7818608E-02  0.1098563E+00
         -1   -1    0    0    0  501 -0.00000000000E+00  0.00000000000E+00  0.17322636380E+03  0.17322636380E+03  0.00000000000E+00 0.  1.
          1   -1    0    0  501    0  0.00000000000E+00 -0.00000000000E+00 -0.10898378144E+03  0.10898378144E+03  0.00000000000E+00 0.  1.
         35    2    1    2    0    0  0.00000000000E+00  0.00000000000E+00  0.64242582354E+02  0.28221014524E+03  0.27480075816E+03 0.  0.
         25    1    3    3    0    0  0.43153757960E+02  0.16390673358E+02  0.81883578681E+02  0.15243300645E+03  0.12000000000E+03 0.  0.
         25    1    3    3    0    0 -0.43153757960E+02 -0.16390673358E+02 -0.17640996326E+02  0.12977713878E+03  0.12000000000E+03 0.  0.
<mgrwt>
<rscale>  0 0.27480076E+03</rscale>
<asrwt>0</asrwt>
<pdfrwt beam="1">  1        1 0.16766736E-01 0.27480076E+03</pdfrwt>
<pdfrwt beam="2">  1       -1 0.26650210E-01 0.27480076E+03</pdfrwt>
<totfact> 0.39982529E+03</totfact>
</mgrwt>
</event>
<event>
 5    1  0.1132878E+001  0.2758515E+03  0.7818608E-02  0.1097977E+00
          2   -1    0    0  501    0  0.00000000000E+00  0.00000000000E+00  0.27741810043E+04  0.27741810043E+04  0.00000000000E+00 0. -1.
         -2   -1    0    0    0  501 -0.00000000000E+00 -0.00000000000E+00 -0.68573458881E+01  0.68573458881E+01  0.00000000000E+00 0. -1.
         35    2    1    2    0    0  0.00000000000E+00  0.00000000000E+00  0.27673236584E+04  0.27810383502E+04  0.27585154488E+03 0.  0.
         25    1    3    3    0    0 -0.24341307027E+02  0.38873882004E+02  0.18897405848E+04  0.18941022031E+04  0.12000000000E+03 0.  0.
         25    1    3    3    0    0  0.24341307027E+02 -0.38873882004E+02  0.87758307361E+03  0.88693614709E+03  0.12000000000E+03 0.  0.
<mgrwt>
<rscale>  0 0.27585154E+03</rscale>
<asrwt>0</asrwt>
<pdfrwt beam="1">  1        2 0.42679618E+00 0.27585154E+03</pdfrwt>
<pdfrwt beam="2">  1       -2 0.10549785E-02 0.27585154E+03</pdfrwt>
<totfact> 0.55593547E+03</totfact>
</mgrwt>
</event>
<event>
 5    1  0.1132878E+001  0.2755992E+03  0.7818608E-02  0.1098117E+00
          4   -1    0    0  501    0  0.00000000000E+00  0.00000000000E+00  0.21848117815E+03  0.21848117815E+03  0.00000000000E+00 0. -1.
         -4   -1    0    0    0  501 -0.00000000000E+00 -0.00000000000E+00 -0.86912414215E+02  0.86912414215E+02  0.00000000000E+00 0. -1.
         35    2    1    2    0    0  0.00000000000E+00  0.00000000000E+00  0.13156876394E+03  0.30539359237E+03  0.27559917746E+03 0.  0.
         25    1    3    3    0    0  0.39894004808E+02 -0.40054553212E+02  0.10713963829E+03  0.17051334536E+03  0.12000000000E+03 0.  0.
         25    1    3    3    0    0 -0.39894004808E+02  0.40054553212E+02  0.24429125643E+02  0.13488024701E+03  0.12000000000E+03 0.  0.
<mgrwt>
<rscale>  0 0.27559918E+03</rscale>
<asrwt>0</asrwt>
<pdfrwt beam="1">  1        4 0.33612489E-01 0.27559918E+03</pdfrwt>
<pdfrwt beam="2">  1       -4 0.13371141E-01 0.27559918E+03</pdfrwt>
<totfact> 0.73899246E+02</totfact>
</mgrwt>
</event>
<event>
 5    1  0.1132878E+001  0.2745619E+03  0.7818608E-02  0.1098697E+00
         -3   -1    0    0    0  501 -0.00000000000E+00  0.00000000000E+00  0.94264581027E+02  0.94264581027E+02  0.00000000000E+00 0.  1.
          3   -1    0    0  501    0  0.00000000000E+00 -0.00000000000E+00 -0.19992723277E+03  0.19992723277E+03  0.00000000000E+00 0.  1.
         35    2    1    2    0    0  0.00000000000E+00  0.00000000000E+00 -0.10566265174E+03  0.29419181379E+03  0.27456188252E+03 0.  0.
         25    1    3    3    0    0  0.16373795239E+02 -0.63124402963E+02 -0.37935403200E+02  0.14174585086E+03  0.12000000000E+03 0.  0.
         25    1    3    3    0    0 -0.16373795239E+02  0.63124402963E+02 -0.67727248540E+02  0.15244596293E+03  0.12000000000E+03 0.  0.
<mgrwt>
<rscale>  0 0.27456188E+03</rscale>
<asrwt>0</asrwt>
<pdfrwt beam="1">  1        3 0.30758036E-01 0.27456188E+03</pdfrwt>
<pdfrwt beam="2">  1       -3 0.14502243E-01 0.27456188E+03</pdfrwt>
<totfact> 0.10251635E+03</totfact>
</mgrwt>
</event>
<event>
 5    1  0.1132878E+001  0.2749968E+03  0.7818608E-02  0.1098453E+00
          1   -1    0    0  501    0  0.00000000000E+00  0.00000000000E+00  0.55834895232E+02  0.55834895232E+02  0.00000000000E+00 0. -1.
         -1   -1    0    0    0  501 -0.00000000000E+00 -0.00000000000E+00 -0.33860211998E+03  0.33860211998E+03  0.00000000000E+00 0. -1.
         35    2    1    2    0    0  0.00000000000E+00  0.00000000000E+00 -0.28276722475E+03  0.39443701521E+03  0.27499682831E+03 0.  0.
         25    1    3    3    0    0  0.30629587877E+01 -0.40234143390E+02 -0.64440694177E+02  0.14205904081E+03  0.12000000000E+03 0.  0.
         25    1    3    3    0    0 -0.30629587877E+01  0.40234143390E+02 -0.21832653057E+03  0.25237797440E+03  0.12000000000E+03 0.  0.
<mgrwt>
<rscale>  0 0.27499683E+03</rscale>
<asrwt>0</asrwt>
<pdfrwt beam="1">  1        1 0.85899841E-02 0.27499683E+03</pdfrwt>
<pdfrwt beam="2">  1       -1 0.52092633E-01 0.27499683E+03</pdfrwt>
<totfact> 0.29910344E+03</totfact>
</mgrwt>
</event>
<event>
 5    1  0.1132878E+001  0.2749863E+03  0.7818608E-02  0.1098459E+00
          4   -1    0    0  501    0  0.00000000000E+00  0.00000000000E+00  0.14616385534E+03  0.14616385534E+03  0.00000000000E+00 0. -1.
         -4   -1    0    0    0  501 -0.00000000000E+00 -0.00000000000E+00 -0.12933677879E+03  0.12933677879E+03  0.00000000000E+00 0. -1.
         35    2    1    2    0    0  0.00000000000E+00  0.00000000000E+00  0.16827076552E+02  0.27550063412E+03  0.27498627038E+03 0.  0.
         25    1    3    3    0    0 -0.64799085294E+02  0.55842111411E+01  0.25005232442E+02  0.13876370750E+03  0.12000000000E+03 0.  0.
         25    1    3    3    0    0  0.64799085294E+02 -0.55842111411E+01 -0.81781558899E+01  0.13673692662E+03  0.12000000000E+03 0.  0.
<mgrwt>
<rscale>  0 0.27498627E+03</rscale>
<asrwt>0</asrwt>
<pdfrwt beam="1">  1        4 0.22486747E-01 0.27498627E+03</pdfrwt>
<pdfrwt beam="2">  1       -4 0.19897966E-01 0.27498627E+03</pdfrwt>
<totfact> 0.77816683E+02</totfact>
</mgrwt>
</event>
<event>
 5    1  0.1132878E+001  0.2744227E+03  0.7818608E-02  0.1098775E+00
          3   -1    0    0  501    0  0.00000000000E+00  0.00000000000E+00  0.57716528137E+02  0.57716528137E+02  0.00000000000E+00 0. -1.
         -3   -1    0    0    0  501 -0.00000000000E+00 -0.00000000000E+00 -0.32619702757E+03  0.32619702757E+03  0.00000000000E+00 0. -1.
         35    2    1    2    0    0  0.00000000000E+00  0.00000000000E+00 -0.26848049944E+03  0.38391355571E+03  0.27442273900E+03 0.  0.
         25    1    3    3    0    0  0.27346248065E+02 -0.59557633813E+02 -0.11816524422E+03  0.18071511827E+03  0.12000000000E+03 0.  0.
         25    1    3    3    0    0 -0.27346248065E+02  0.59557633813E+02 -0.15031525521E+03  0.20319843744E+03  0.12000000000E+03 0.  0.
<mgrwt>
<rscale>  0 0.27442274E+03</rscale>
<asrwt>0</asrwt>
<pdfrwt beam="1">  1        3 0.88794657E-02 0.27442274E+03</pdfrwt>
<pdfrwt beam="2">  1       -3 0.50184159E-01 0.27442274E+03</pdfrwt>
<totfact> 0.90568370E+02</totfact>
</mgrwt>
</event>
<event>
 5    1  0.1132878E+001  0.2804469E+03  0.7818608E-02  0.1095445E+00
          2   -1    0    0  501    0  0.00000000000E+00  0.00000000000E+00  0.12980617927E+02  0.12980617927E+02  0.00000000000E+00 0.  1.
         -2   -1    0    0    0  501 -0.00000000000E+00 -0.00000000000E+00 -0.15147677312E+04  0.15147677312E+04  0.00000000000E+00 0.  1.
         35    2    1    2    0    0  0.00000000000E+00  0.00000000000E+00 -0.15017871133E+04  0.15277483492E+04  0.28044693735E+03 0.  0.
         25    1    3    3    0    0  0.19760651870E+02 -0.40270546927E+02 -0.10614717215E+04  0.10691746423E+04  0.12000000000E+03 0.  0.
         25    1    3    3    0    0 -0.19760651870E+02  0.40270546927E+02 -0.44031539182E+03  0.45857370682E+03  0.12000000000E+03 0.  0.
<mgrwt>
<rscale>  0 0.28044694E+03</rscale>
<asrwt>0</asrwt>
<pdfrwt beam="1">  1        2 0.19970188E-02 0.28044694E+03</pdfrwt>
<pdfrwt beam="2">  1       -2 0.23304112E+00 0.28044694E+03</pdfrwt>
<totfact> 0.49630993E+02</totfact>
</mgrwt>
</event>
<event>
 5    1  0.1132878E+001  0.2767784E+03  0.7818608E-02  0.1097462E+00
          2   -1    0    0  501    0  0.00000000000E+00  0.00000000000E+00  0.59269152682E+03  0.59269152682E+03  0.00000000000E+00 0.  1.
         -2   -1    0    0    0  501 -0.00000000000E+00 -0.00000000000E+00 -0.32312885487E+02  0.32312885487E+02  0.00000000000E+00 0.  1.
         35    2    1    2    0    0  0.00000000000E+00  0.00000000000E+00  0.56037864134E+03  0.62500441231E+03  0.27677841993E+03 0.  0.
         25    1    3    3    0    0  0.55467931157E+02 -0.39429801764E+02  0.30494380671E+03  0.33469706588E+03  0.12000000000E+03 0.  0.
         25    1    3    3    0    0 -0.55467931157E+02  0.39429801764E+02  0.25543483462E+03  0.29030734643E+03  0.12000000000E+03 0.  0.
<mgrwt>
<rscale>  0 0.27677842E+03</rscale>
<asrwt>0</asrwt>
<pdfrwt beam="1">  1        2 0.91183304E-01 0.27677842E+03</pdfrwt>
<pdfrwt beam="2">  1       -2 0.49712136E-02 0.27677842E+03</pdfrwt>
<totfact> 0.10066004E+04</totfact>
</mgrwt>
</event>
<event>
 5    1  0.1132878E+001  0.2751700E+03  0.7818608E-02  0.1098357E+00
         -3   -1    0    0    0  501 -0.00000000000E+00  0.00000000000E+00  0.88817443294E+02  0.88817443294E+02  0.00000000000E+00 0. -1.
          3   -1    0    0  501    0  0.00000000000E+00 -0.00000000000E+00 -0.21312961358E+03  0.21312961358E+03  0.00000000000E+00 0. -1.
         35    2    1    2    0    0  0.00000000000E+00  0.00000000000E+00 -0.12431217028E+03  0.30194705687E+03  0.27516996470E+03 0.  0.
         25    1    3    3    0    0  0.60443752152E+02  0.27530451402E+02 -0.50223391247E+02  0.14606081595E+03  0.12000000000E+03 0.  0.
         25    1    3    3    0    0 -0.60443752152E+02 -0.27530451402E+02 -0.74088779038E+02  0.15588624092E+03  0.12000000000E+03 0.  0.
<mgrwt>
<rscale>  0 0.27516996E+03</rscale>
<asrwt>0</asrwt>
<pdfrwt beam="1">  1        3 0.32789171E-01 0.27516996E+03</pdfrwt>
<pdfrwt beam="2">  1       -3 0.13664222E-01 0.27516996E+03</pdfrwt>
<totfact> 0.10069794E+03</totfact>
</mgrwt>
</event>
<event>
 5    1  0.1132878E+001  0.2759537E+03  0.7818608E-02  0.1097920E+00
          2   -1    0    0  501    0  0.00000000000E+00  0.00000000000E+00  0.98719912983E+03  0.98719912983E+03  0.00000000000E+00 0.  1.
         -2   -1    0    0    0  501 -0.00000000000E+00 -0.00000000000E+00 -0.19284472819E+02  0.19284472819E+02  0.00000000000E+00 0.  1.
         35    2    1    2    0    0  0.00000000000E+00  0.00000000000E+00  0.96791465701E+03  0.10064836026E+04  0.27595372646E+03 0.  0.
         25    1    3    3    0    0 -0.14057473536E+02 -0.60577842938E+02  0.58518705151E+03  0.60059235166E+03  0.12000000000E+03 0.  0.
         25    1    3    3    0    0  0.14057473536E+02  0.60577842938E+02  0.38272760550E+03  0.40589125099E+03  0.12000000000E+03 0.  0.
<mgrwt>
<rscale>  0 0.27595373E+03</rscale>
<asrwt>0</asrwt>
<pdfrwt beam="1">  1        2 0.15187675E+00 0.27595373E+03</pdfrwt>
<pdfrwt beam="2">  1       -2 0.29668427E-02 0.27595373E+03</pdfrwt>
<totfact> 0.11488115E+04</totfact>
</mgrwt>
</event>
<event>
 5    1  0.1132878E+001  0.2742485E+03  0.7818608E-02  0.1098872E+00
         -4   -1    0    0    0  501 -0.00000000000E+00  0.00000000000E+00  0.84846557610E+03  0.84846557610E+03  0.00000000000E+00 0. -1.
          4   -1    0    0  501    0  0.00000000000E+00 -0.00000000000E+00 -0.22161248982E+02  0.22161248982E+02  0.00000000000E+00 0. -1.
         35    2    1    2    0    0  0.00000000000E+00  0.00000000000E+00  0.82630432712E+03  0.87062682508E+03  0.27424847773E+03 0.  0.
         25    1    3    3    0    0 -0.53772672035E+02 -0.13330653425E+02  0.52909431768E+03  0.54535309990E+03  0.12000000000E+03 0.  0.
         25    1    3    3    0    0  0.53772672035E+02  0.13330653425E+02  0.29721000944E+03  0.32527372518E+03  0.12000000000E+03 0.  0.
<mgrwt>
<rscale>  0 0.27424848E+03</rscale>
<asrwt>0</asrwt>
<pdfrwt beam="1">  1        4 0.34094236E-02 0.27424848E+03</pdfrwt>
<pdfrwt beam="2">  1       -4 0.13053314E+00 0.27424848E+03</pdfrwt>
<totfact> 0.37095074E+02</totfact>
</mgrwt>
</event>
<event>
 5    1  0.1132878E+001  0.2747420E+03  0.7818608E-02  0.1098596E+00
         -1   -1    0    0    0  501 -0.00000000000E+00  0.00000000000E+00  0.67144389260E+02  0.67144389260E+02  0.00000000000E+00 0. -1.
          1   -1    0    0  501    0  0.00000000000E+00 -0.00000000000E+00 -0.28104784513E+03  0.28104784513E+03  0.00000000000E+00 0. -1.
         35    2    1    2    0    0  0.00000000000E+00  0.00000000000E+00 -0.21390345587E+03  0.34819223439E+03  0.27474195831E+03 0.  0.
         25    1    3    3    0    0  0.20052220166E+02 -0.57733559196E+02 -0.14132290787E+03  0.19521121812E+03  0.12000000000E+03 0.  0.
         25    1    3    3    0    0 -0.20052220166E+02  0.57733559196E+02 -0.72580547997E+02  0.15298101627E+03  0.12000000000E+03 0.  0.
<mgrwt>
<rscale>  0 0.27474196E+03</rscale>
<asrwt>0</asrwt>
<pdfrwt beam="1">  1        1 0.43238130E-01 0.27474196E+03</pdfrwt>
<pdfrwt beam="2">  1       -1 0.10329906E-01 0.27474196E+03</pdfrwt>
<totfact> 0.54786905E+03</totfact>
</mgrwt>
</event>
<event>
 5    1  0.1132878E+001  0.2747722E+03  0.7818608E-02  0.1098579E+00
         -2   -1    0    0    0  501 -0.00000000000E+00  0.00000000000E+00  0.43246211914E+02  0.43246211914E+02  0.00000000000E+00 0. -1.
          2   -1    0    0  501    0  0.00000000000E+00 -0.00000000000E+00 -0.43645317909E+03  0.43645317909E+03  0.00000000000E+00 0. -1.
         35    2    1    2    0    0  0.00000000000E+00  0.00000000000E+00 -0.39320696718E+03  0.47969939101E+03  0.27477224513E+03 0.  0.
         25    1    3    3    0    0  0.64172167483E+02 -0.13299692773E+02 -0.22002580103E+03  0.25904884101E+03  0.12000000000E+03 0.  0.
         25    1    3    3    0    0 -0.64172167483E+02  0.13299692773E+02 -0.17318116615E+03  0.22065055000E+03  0.12000000000E+03 0.  0.
<mgrwt>
<rscale>  0 0.27477225E+03</rscale>
<asrwt>0</asrwt>
<pdfrwt beam="1">  1        2 0.67146646E-01 0.27477225E+03</pdfrwt>
<pdfrwt beam="2">  1       -2 0.66532631E-02 0.27477225E+03</pdfrwt>
<totfact> 0.90846915E+03</totfact>
</mgrwt>
</event>
<event>
 4    1  0.1132878E+001  0.2911655E+03  0.7818608E-02  0.1089742E+00
          2   -1    0    0  501    0  0.00000000000E+00  0.00000000000E+00  0.13143234996E+03  0.13143234996E+03  0.00000000000E+00 0.  1.
         -2   -1    0    0    0  501 -0.00000000000E+00 -0.00000000000E+00 -0.16125663607E+03  0.16125663607E+03  0.00000000000E+00 0.  1.
         25    1    1    2    0    0  0.19013900611E+02  0.25290019654E+02  0.61599345678E+02  0.13854816093E+03  0.12000000000E+03 0.  0.
         25    1    1    2    0    0 -0.19013900611E+02 -0.25290019654E+02 -0.91423631787E+02  0.15414082509E+03  0.12000000000E+03 0.  0.
<mgrwt>
<rscale>  0 0.29116551E+03</rscale>
<asrwt>0</asrwt>
<pdfrwt beam="1">  1        2 0.20220362E-01 0.29116551E+03</pdfrwt>
<pdfrwt beam="2">  1       -2 0.24808713E-01 0.29116551E+03</pdfrwt>
<totfact> 0.39386719E+03</totfact>
</mgrwt>
</event>
<event>
 5    1  0.1132878E+001  0.2746349E+03  0.7818608E-02  0.1098656E+00
         -1   -1    0    0    0  501 -0.00000000000E+00  0.00000000000E+00  0.11433877495E+03  0.11433877495E+03  0.00000000000E+00 0.  1.
          1   -1    0    0  501    0  0.00000000000E+00 -0.00000000000E+00 -0.16491409885E+03  0.16491409885E+03  0.00000000000E+00 0.  1.
         35    2    1    2    0    0  0.00000000000E+00  0.00000000000E+00 -0.50575323897E+02  0.27925287380E+03  0.27463485601E+03 0.  0.
         25    1    3    3    0    0  0.51792943336E+02  0.52149509941E+01  0.17204643338E+02  0.13193068046E+03  0.12000000000E+03 0.  0.
         25    1    3    3    0    0 -0.51792943336E+02 -0.52149509941E+01 -0.67779967235E+02  0.14732219334E+03  0.12000000000E+03 0.  0.
<mgrwt>
<rscale>  0 0.27463486E+03</rscale>
<asrwt>0</asrwt>
<pdfrwt beam="1">  1        1 0.25371400E-01 0.27463486E+03</pdfrwt>
<pdfrwt beam="2">  1       -1 0.17590581E-01 0.27463486E+03</pdfrwt>
<totfact> 0.46360088E+03</totfact>
</mgrwt>
</event>
<event>
 5    1  0.1132878E+001  0.2746615E+03  0.7818608E-02  0.1098641E+00
         -1   -1    0    0    0  501 -0.00000000000E+00  0.00000000000E+00  0.79438115257E+02  0.79438115257E+02  0.00000000000E+00 0. -1.
          1   -1    0    0  501    0  0.00000000000E+00 -0.00000000000E+00 -0.23741419883E+03  0.23741419883E+03  0.00000000000E+00 0. -1.
         35    2    1    2    0    0  0.00000000000E+00  0.00000000000E+00 -0.15797608357E+03  0.31685231409E+03  0.27466151161E+03 0.  0.
         25    1    3    3    0    0 -0.50552177217E+02  0.14334522628E+02 -0.12653491226E+03  0.18213205424E+03  0.12000000000E+03 0.  0.
         25    1    3    3    0    0  0.50552177217E+02 -0.14334522628E+02 -0.31441171315E+02  0.13472025985E+03  0.12000000000E+03 0.  0.
<mgrwt>
<rscale>  0 0.27466151E+03</rscale>
<asrwt>0</asrwt>
<pdfrwt beam="1">  1        1 0.36525261E-01 0.27466151E+03</pdfrwt>
<pdfrwt beam="2">  1       -1 0.12221248E-01 0.27466151E+03</pdfrwt>
<totfact> 0.52122624E+03</totfact>
</mgrwt>
</event>
<event>
 5    1  0.1132878E+001  0.2752864E+03  0.7818608E-02  0.1098292E+00
          2   -1    0    0  501    0  0.00000000000E+00  0.00000000000E+00  0.45026315749E+04  0.45026315749E+04  0.00000000000E+00 0.  1.
         -2   -1    0    0    0  501 -0.00000000000E+00 -0.00000000000E+00 -0.42076842258E+01  0.42076842258E+01  0.00000000000E+00 0.  1.
         35    2    1    2    0    0  0.00000000000E+00  0.00000000000E+00  0.44984238907E+04  0.45068392591E+04  0.27528640978E+03 0.  0.
         25    1    3    3    0    0 -0.67331766681E+02 -0.31332015621E+01  0.22738676834E+04  0.22780293294E+04  0.12000000000E+03 0.  0.
         25    1    3    3    0    0  0.67331766681E+02  0.31332015621E+01  0.22245562073E+04  0.22288099298E+04  0.12000000000E+03 0.  0.
<mgrwt>
<rscale>  0 0.27528641E+03</rscale>
<asrwt>0</asrwt>
<pdfrwt beam="1">  1        2 0.69270869E+00 0.27528641E+03</pdfrwt>
<pdfrwt beam="2">  1       -2 0.64733964E-03 0.27528641E+03</pdfrwt>
<totfact> 0.67593577E+02</totfact>
</mgrwt>
</event>
<event>
 5    1  0.1132878E+001  0.2732274E+03  0.7818608E-02  0.1099447E+00
         -2   -1    0    0    0  501 -0.00000000000E+00  0.00000000000E+00  0.36371931608E+02  0.36371931608E+02  0.00000000000E+00 0. -1.
          2   -1    0    0  501    0  0.00000000000E+00 -0.00000000000E+00 -0.51312370666E+03  0.51312370666E+03  0.00000000000E+00 0. -1.
         35    2    1    2    0    0  0.00000000000E+00  0.00000000000E+00 -0.47675177506E+03  0.54949563827E+03  0.27322738051E+03 0.  0.
         25    1    3    3    0    0 -0.14557291271E+02  0.60533980412E+02 -0.19881114579E+03  0.24042077531E+03  0.12000000000E+03 0.  0.
         25    1    3    3    0    0  0.14557291271E+02 -0.60533980412E+02 -0.27794062927E+03  0.30907486296E+03  0.12000000000E+03 0.  0.
<mgrwt>
<rscale>  0 0.27322738E+03</rscale>
<asrwt>0</asrwt>
<pdfrwt beam="1">  1        2 0.78942113E-01 0.27322738E+03</pdfrwt>
<pdfrwt beam="2">  1       -2 0.55956815E-02 0.27322738E+03</pdfrwt>
<totfact> 0.99015853E+03</totfact>
</mgrwt>
</event>
<event>
 5    1  0.1132878E+001  0.2660391E+03  0.7818608E-02  0.1103568E+00
          1   -1    0    0  501    0  0.00000000000E+00  0.00000000000E+00  0.15444925024E+03  0.15444925024E+03  0.00000000000E+00 0. -1.
         -1   -1    0    0    0  501 -0.00000000000E+00 -0.00000000000E+00 -0.11456316795E+03  0.11456316795E+03  0.00000000000E+00 0. -1.
         35    2    1    2    0    0  0.00000000000E+00  0.00000000000E+00  0.39886082295E+02  0.26901241819E+03  0.26603906025E+03 0.  0.
         25    1    3    3    0    0  0.25831538355E+02 -0.17278314876E+02 -0.28849618619E+02  0.12727179198E+03  0.12000000000E+03 0.  0.
         25    1    3    3    0    0 -0.25831538355E+02  0.17278314876E+02  0.68735700915E+02  0.14174062621E+03  0.12000000000E+03 0.  0.
<mgrwt>
<rscale>  0 0.26603906E+03</rscale>
<asrwt>0</asrwt>
<pdfrwt beam="1">  1        1 0.23761423E-01 0.26603906E+03</pdfrwt>
<pdfrwt beam="2">  1       -1 0.17625103E-01 0.26603906E+03</pdfrwt>
<totfact> 0.50185965E+03</totfact>
</mgrwt>
</event>
<event>
 5    1  0.1132878E+001  0.2751921E+03  0.7818608E-02  0.1098344E+00
         -1   -1    0    0    0  501 -0.00000000000E+00  0.00000000000E+00  0.68499595241E+01  0.68499595241E+01  0.00000000000E+00 0.  1.
          1   -1    0    0  501    0  0.00000000000E+00 -0.00000000000E+00 -0.27639111197E+04  0.27639111197E+04  0.00000000000E+00 0.  1.
         35    2    1    2    0    0  0.00000000000E+00  0.00000000000E+00 -0.27570611601E+04  0.27707610792E+04  0.27519214595E+03 0.  0.
         25    1    3    3    0    0  0.10366094003E+02  0.37416763684E+01 -0.20472478860E+04  0.20507913991E+04  0.12000000000E+03 0.  0.
         25    1    3    3    0    0 -0.10366094003E+02 -0.37416763684E+01 -0.70981327417E+03  0.71996968008E+03  0.12000000000E+03 0.  0.
<mgrwt>
<rscale>  0 0.27519215E+03</rscale>
<asrwt>0</asrwt>
<pdfrwt beam="1">  1        1 0.42521769E+00 0.27519215E+03</pdfrwt>
<pdfrwt beam="2">  1       -1 0.10538384E-02 0.27519215E+03</pdfrwt>
<totfact> 0.18365607E+03</totfact>
</mgrwt>
</event>
<event>
 5    1  0.1132878E+001  0.2697828E+03  0.7818608E-02  0.1101404E+00
         -2   -1    0    0    0  501 -0.00000000000E+00  0.00000000000E+00  0.10965319480E+02  0.10965319480E+02  0.00000000000E+00 0. -1.
          2   -1    0    0  501    0  0.00000000000E+00 -0.00000000000E+00 -0.16593847104E+04  0.16593847104E+04  0.00000000000E+00 0. -1.
         35    2    1    2    0    0  0.00000000000E+00  0.00000000000E+00 -0.16484193910E+04  0.16703500299E+04  0.26978275327E+03 0.  0.
         25    1    3    3    0    0 -0.23513877499E+02 -0.55338084315E+02 -0.90738699489E+03  0.91726024906E+03  0.12000000000E+03 0.  0.
         25    1    3    3    0    0  0.23513877499E+02  0.55338084315E+02 -0.74103239608E+03  0.75308978087E+03  0.12000000000E+03 0.  0.
<mgrwt>
<rscale>  0 0.26978275E+03</rscale>
<asrwt>0</asrwt>
<pdfrwt beam="1">  1        2 0.25529002E+00 0.26978275E+03</pdfrwt>
<pdfrwt beam="2">  1       -2 0.16869718E-02 0.26978275E+03</pdfrwt>
<totfact> 0.11141251E+04</totfact>
</mgrwt>
</event>
<event>
 5    1  0.1132878E+001  0.2754925E+03  0.7818608E-02  0.1098177E+00
          2   -1    0    0  501    0  0.00000000000E+00  0.00000000000E+00  0.11605533930E+04  0.11605533930E+04  0.00000000000E+00 0.  1.
         -2   -1    0    0    0  501 -0.00000000000E+00 -0.00000000000E+00 -0.16349121795E+02  0.16349121795E+02  0.00000000000E+00 0.  1.
         35    2    1    2    0    0  0.00000000000E+00  0.00000000000E+00  0.11442042712E+04  0.11769025148E+04  0.27549249552E+03 0.  0.
         25    1    3    3    0    0 -0.91047154959E+01  0.66614250463E+02  0.54080425172E+03  0.55802293222E+03  0.12000000000E+03 0.  0.
         25    1    3    3    0    0  0.91047154959E+01 -0.66614250463E+02  0.60340001945E+03  0.61887958254E+03  0.12000000000E+03 0.  0.
<mgrwt>
<rscale>  0 0.27549250E+03</rscale>
<asrwt>0</asrwt>
<pdfrwt beam="1">  1        2 0.17854661E+00 0.27549250E+03</pdfrwt>
<pdfrwt beam="2">  1       -2 0.25152504E-02 0.27549250E+03</pdfrwt>
<totfact> 0.11578140E+04</totfact>
</mgrwt>
</event>
<event>
 5    1  0.1132878E+001  0.2751694E+03  0.7818608E-02  0.1098357E+00
          2   -1    0    0  501    0  0.00000000000E+00  0.00000000000E+00  0.92005156947E+02  0.92005156947E+02  0.00000000000E+00 0.  1.
         -2   -1    0    0    0  501 -0.00000000000E+00 -0.00000000000E+00 -0.20574440156E+03  0.20574440156E+03  0.00000000000E+00 0.  1.
         35    2    1    2    0    0  0.00000000000E+00  0.00000000000E+00 -0.11373924461E+03  0.29774955851E+03  0.27516937298E+03 0.  0.
         25    1    3    3    0    0 -0.45933593519E+02  0.12875198403E+02 -0.10824043626E+03  0.16849824269E+03  0.12000000000E+03 0.  0.
         25    1    3    3    0    0  0.45933593519E+02 -0.12875198403E+02 -0.54988083540E+01  0.12925131582E+03  0.12000000000E+03 0.  0.
<mgrwt>
<rscale>  0 0.27516937E+03</rscale>
<asrwt>0</asrwt>
<pdfrwt beam="1">  1        2 0.14154640E-01 0.27516937E+03</pdfrwt>
<pdfrwt beam="2">  1       -2 0.31652984E-01 0.27516937E+03</pdfrwt>
<totfact> 0.38508658E+03</totfact>
</mgrwt>
</event>
<event>
 5    1  0.1132878E+001  0.2757833E+03  0.7818608E-02  0.1098015E+00
          1   -1    0    0  501    0  0.00000000000E+00  0.00000000000E+00  0.16906756080E+04  0.16906756080E+04  0.00000000000E+00 0. -1.
         -1   -1    0    0    0  501 -0.00000000000E+00 -0.00000000000E+00 -0.11246457754E+02  0.11246457754E+02  0.00000000000E+00 0. -1.
         35    2    1    2    0    0  0.00000000000E+00  0.00000000000E+00  0.16794291502E+04  0.17019220657E+04  0.27578333380E+03 0.  0.
         25    1    3    3    0    0  0.38369178413E+02  0.37664319880E+02  0.10958998905E+04  0.11037605560E+04  0.12000000000E+03 0.  0.
         25    1    3    3    0    0 -0.38369178413E+02 -0.37664319880E+02  0.58352925967E+03  0.59816150974E+03  0.12000000000E+03 0.  0.
<mgrwt>
<rscale>  0 0.27578333E+03</rscale>
<asrwt>0</asrwt>
<pdfrwt beam="1">  1        1 0.26010374E+00 0.27578333E+03</pdfrwt>
<pdfrwt beam="2">  1       -1 0.17302256E-02 0.27578333E+03</pdfrwt>
<totfact> 0.45439256E+03</totfact>
</mgrwt>
</event>
<event>
 5    1  0.1132878E+001  0.2747458E+03  0.7818608E-02  0.1098594E+00
         -2   -1    0    0    0  501 -0.00000000000E+00  0.00000000000E+00  0.55000703650E+02  0.55000703650E+02  0.00000000000E+00 0. -1.
          2   -1    0    0  501    0  0.00000000000E+00 -0.00000000000E+00 -0.34311045005E+03  0.34311045005E+03  0.00000000000E+00 0. -1.
         35    2    1    2    0    0  0.00000000000E+00  0.00000000000E+00 -0.28810974640E+03  0.39811115370E+03  0.27474581840E+03 0.  0.
         25    1    3    3    0    0 -0.59872763453E+02 -0.29079245719E+02 -0.13478050731E+03  0.19234379503E+03  0.12000000000E+03 0.  0.
         25    1    3    3    0    0  0.59872763453E+02  0.29079245719E+02 -0.15332923909E+03  0.20576735867E+03  0.12000000000E+03 0.  0.
<mgrwt>
<rscale>  0 0.27474582E+03</rscale>
<asrwt>0</asrwt>
<pdfrwt beam="1">  1        2 0.52786222E-01 0.27474582E+03</pdfrwt>
<pdfrwt beam="2">  1       -2 0.84616469E-02 0.27474582E+03</pdfrwt>
<totfact> 0.81153497E+03</totfact>
</mgrwt>
</event>
<event>
 5    1  0.1132878E+001  0.2750105E+03  0.7818608E-02  0.1098446E+00
          2   -1    0    0  501    0  0.00000000000E+00  0.00000000000E+00  0.32472383290E+03  0.32472383290E+03  0.00000000000E+00 0. -1.
         -2   -1    0    0    0  501 -0.00000000000E+00 -0.00000000000E+00 -0.58226992509E+02  0.58226992509E+02  0.00000000000E+00 0. -1.
         35    2    1    2    0    0  0.00000000000E+00  0.00000000000E+00  0.26649684039E+03  0.38295082540E+03  0.27501048842E+03 0.  0.
         25    1    3    3    0    0 -0.36791091753E+02  0.53436535949E+02  0.10918424809E+03  0.17472906982E+03  0.12000000000E+03 0.  0.
         25    1    3    3    0    0  0.36791091753E+02 -0.53436535949E+02  0.15731259229E+03  0.20822175559E+03  0.12000000000E+03 0.  0.
<mgrwt>
<rscale>  0 0.27501049E+03</rscale>
<asrwt>0</asrwt>
<pdfrwt beam="1">  1        2 0.49957512E-01 0.27501049E+03</pdfrwt>
<pdfrwt beam="2">  1       -2 0.89579990E-02 0.27501049E+03</pdfrwt>
<totfact> 0.78737769E+03</totfact>
</mgrwt>
</event>
<event>
 5    1  0.1132878E+001  0.2763518E+03  0.7818608E-02  0.1097698E+00
         -1   -1    0    0    0  501 -0.00000000000E+00  0.00000000000E+00  0.38059472663E+02  0.38059472663E+02  0.00000000000E+00 0.  1.
          1   -1    0    0  501    0  0.00000000000E+00 -0.00000000000E+00 -0.50165134441E+03  0.50165134441E+03  0.00000000000E+00 0.  1.
         35    2    1    2    0    0  0.00000000000E+00  0.00000000000E+00 -0.46359187175E+03  0.53971081707E+03  0.27635184551E+03 0.  0.
         25    1    3    3    0    0 -0.33338426896E+02  0.57315204460E+02 -0.26540215178E+03  0.29872192009E+03  0.12000000000E+03 0.  0.
         25    1    3    3    0    0  0.33338426896E+02 -0.57315204460E+02 -0.19818971996E+03  0.24098889698E+03  0.12000000000E+03 0.  0.
<mgrwt>
<rscale>  0 0.27635185E+03</rscale>
<asrwt>0</asrwt>
<pdfrwt beam="1">  1        1 0.77177126E-01 0.27635185E+03</pdfrwt>
<pdfrwt beam="2">  1       -1 0.58553038E-02 0.27635185E+03</pdfrwt>
<totfact> 0.62052036E+03</totfact>
</mgrwt>
</event>
<event>
 5    1  0.1132878E+001  0.2749223E+03  0.7818608E-02  0.1098495E+00
         -2   -1    0    0    0  501 -0.00000000000E+00  0.00000000000E+00  0.24279890227E+02  0.24279890227E+02  0.00000000000E+00 0. -1.
          2   -1    0    0  501    0  0.00000000000E+00 -0.00000000000E+00 -0.77823964008E+03  0.77823964008E+03  0.00000000000E+00 0. -1.
         35    2    1    2    0    0  0.00000000000E+00  0.00000000000E+00 -0.75395974985E+03  0.80251953030E+03  0.27492233835E+03 0.  0.
         25    1    3    3    0    0  0.36968226428E+02  0.55839455351E+02 -0.36735201139E+03  0.39221447553E+03  0.12000000000E+03 0.  0.
         25    1    3    3    0    0 -0.36968226428E+02 -0.55839455351E+02 -0.38660773846E+03  0.41030505478E+03  0.12000000000E+03 0.  0.
<mgrwt>
<rscale>  0 0.27492234E+03</rscale>
<asrwt>0</asrwt>
<pdfrwt beam="1">  1        2 0.11972920E+00 0.27492234E+03</pdfrwt>
<pdfrwt beam="2">  1       -2 0.37353671E-02 0.27492234E+03</pdfrwt>
<totfact> 0.11159599E+04</totfact>
</mgrwt>
</event>
<event>
 5    1  0.1132878E+001  0.2751652E+03  0.7818608E-02  0.1098359E+00
          1   -1    0    0  501    0  0.00000000000E+00  0.00000000000E+00  0.10905174146E+03  0.10905174146E+03  0.00000000000E+00 0.  1.
         -1   -1    0    0    0  501 -0.00000000000E+00 -0.00000000000E+00 -0.17357788963E+03  0.17357788963E+03  0.00000000000E+00 0.  1.
         35    2    1    2    0    0  0.00000000000E+00  0.00000000000E+00 -0.64526148168E+02  0.28262963110E+03  0.27516519507E+03 0.  0.
         25    1    3    3    0    0  0.57059927534E+02  0.13941104855E+02  0.14727185295E+01  0.13361271884E+03  0.12000000000E+03 0.  0.
         25    1    3    3    0    0 -0.57059927534E+02 -0.13941104855E+02 -0.65998866698E+02  0.14901691226E+03  0.12000000000E+03 0.  0.
<mgrwt>
<rscale>  0 0.27516520E+03</rscale>
<asrwt>0</asrwt>
<pdfrwt beam="1">  1        1 0.16777191E-01 0.27516520E+03</pdfrwt>
<pdfrwt beam="2">  1       -1 0.26704291E-01 0.27516520E+03</pdfrwt>
<totfact> 0.39816147E+03</totfact>
</mgrwt>
</event>
<event>
 5    1  0.1132878E+001  0.2737292E+03  0.7818608E-02  0.1099164E+00
          2   -1    0    0  501    0  0.00000000000E+00  0.00000000000E+00  0.16106588083E+04  0.16106588083E+04  0.00000000000E+00 0.  1.
         -2   -1    0    0    0  501 -0.00000000000E+00 -0.00000000000E+00 -0.11629970600E+02  0.11629970600E+02  0.00000000000E+00 0.  1.
         35    2    1    2    0    0  0.00000000000E+00  0.00000000000E+00  0.15990288377E+04  0.16222887789E+04  0.27372916970E+03 0.  0.
         25    1    3    3    0    0  0.17178351878E+02 -0.15800408697E+02  0.43479049700E+03  0.45164978132E+03  0.12000000000E+03 0.  0.
         25    1    3    3    0    0 -0.17178351878E+02  0.15800408697E+02  0.11642383407E+04  0.11706389976E+04  0.12000000000E+03 0.  0.
<mgrwt>
<rscale>  0 0.27372917E+03</rscale>
<asrwt>0</asrwt>
<pdfrwt beam="1">  1        2 0.24779349E+00 0.27372917E+03</pdfrwt>
<pdfrwt beam="2">  1       -2 0.17892275E-02 0.27372917E+03</pdfrwt>
<totfact> 0.10847334E+04</totfact>
</mgrwt>
</event>
<event>
 5    1  0.1132878E+001  0.2761895E+03  0.7818608E-02  0.1097789E+00
          1   -1    0    0  501    0  0.00000000000E+00  0.00000000000E+00  0.51141061348E+02  0.51141061348E+02  0.00000000000E+00 0.  1.
         -1   -1    0    0    0  501 -0.00000000000E+00 -0.00000000000E+00 -0.37289327502E+03  0.37289327502E+03  0.00000000000E+00 0.  1.
         35    2    1    2    0    0  0.00000000000E+00  0.00000000000E+00 -0.32175221367E+03  0.42403433636E+03  0.27618948462E+03 0.  0.
         25    1    3    3    0    0 -0.41093397971E+02 -0.11643132709E+02 -0.78971970219E+02  0.14986928296E+03  0.12000000000E+03 0.  0.
         25    1    3    3    0    0  0.41093397971E+02  0.11643132709E+02 -0.24278024345E+03  0.27416505340E+03  0.12000000000E+03 0.  0.
<mgrwt>
<rscale>  0 0.27618948E+03</rscale>
<asrwt>0</asrwt>
<pdfrwt beam="1">  1        1 0.78678556E-02 0.27618948E+03</pdfrwt>
<pdfrwt beam="2">  1       -1 0.57368196E-01 0.27618948E+03</pdfrwt>
<totfact> 0.28102562E+03</totfact>
</mgrwt>
</event>
<event>
 5    1  0.1132878E+001  0.2775794E+03  0.7818608E-02  0.1097018E+00
         -2   -1    0    0    0  501 -0.00000000000E+00  0.00000000000E+00  0.16818371889E+02  0.16818371889E+02  0.00000000000E+00 0. -1.
          2   -1    0    0  501    0  0.00000000000E+00 -0.00000000000E+00 -0.11453294793E+04  0.11453294793E+04  0.00000000000E+00 0. -1.
         35    2    1    2    0    0  0.00000000000E+00  0.00000000000E+00 -0.11285111074E+04  0.11621478512E+04  0.27757937329E+03 0.  0.
         25    1    3    3    0    0 -0.40279943817E+02 -0.12777848417E+02 -0.33202148465E+03  0.35556154679E+03  0.12000000000E+03 0.  0.
         25    1    3    3    0    0  0.40279943817E+02  0.12777848417E+02 -0.79648962276E+03  0.80658630440E+03  0.12000000000E+03 0.  0.
<mgrwt>
<rscale>  0 0.27757937E+03</rscale>
<asrwt>0</asrwt>
<pdfrwt beam="1">  1        2 0.17620453E+00 0.27757937E+03</pdfrwt>
<pdfrwt beam="2">  1       -2 0.25874419E-02 0.27757937E+03</pdfrwt>
<totfact> 0.11332108E+04</totfact>
</mgrwt>
</event>
<event>
 5    1  0.1132878E+001  0.2796659E+03  0.7818608E-02  0.1095872E+00
          1   -1    0    0  501    0  0.00000000000E+00  0.00000000000E+00  0.40026123362E+03  0.40026123362E+03  0.00000000000E+00 0.  1.
         -1   -1    0    0    0  501 -0.00000000000E+00 -0.00000000000E+00 -0.48851216783E+02  0.48851216783E+02  0.00000000000E+00 0.  1.
         35    2    1    2    0    0  0.00000000000E+00  0.00000000000E+00  0.35141001684E+03  0.44911245041E+03  0.27966585986E+03 0.  0.
         25    1    3    3    0    0  0.60092279037E+02  0.25060844076E+02  0.22425815039E+03  0.26254684520E+03  0.12000000000E+03 0.  0.
         25    1    3    3    0    0 -0.60092279037E+02 -0.25060844076E+02  0.12715186645E+03  0.18656560521E+03  0.12000000000E+03 0.  0.
<mgrwt>
<rscale>  0 0.27966586E+03</rscale>
<asrwt>0</asrwt>
<pdfrwt beam="1">  1        1 0.61578649E-01 0.27966586E+03</pdfrwt>
<pdfrwt beam="2">  1       -1 0.75155721E-02 0.27966586E+03</pdfrwt>
<totfact> 0.57089937E+03</totfact>
</mgrwt>
</event>
<event>
 5    1  0.1132878E+001  0.2754698E+03  0.7818608E-02  0.1098189E+00
          1   -1    0    0  501    0  0.00000000000E+00  0.00000000000E+00  0.28024936126E+03  0.28024936126E+03  0.00000000000E+00 0. -1.
         -1   -1    0    0    0  501 -0.00000000000E+00 -0.00000000000E+00 -0.67692955259E+02  0.67692955259E+02  0.00000000000E+00 0. -1.
         35    2    1    2    0    0  0.00000000000E+00  0.00000000000E+00  0.21255640600E+03  0.34794231652E+03  0.27546983482E+03 0.  0.
         25    1    3    3    0    0  0.82733505774E+01 -0.38608529073E+02  0.17559670926E+03  0.21631752391E+03  0.12000000000E+03 0.  0.
         25    1    3    3    0    0 -0.82733505774E+01  0.38608529073E+02  0.36959696741E+02  0.13162479261E+03  0.12000000000E+03 0.  0.
<mgrwt>
<rscale>  0 0.27546983E+03</rscale>
<asrwt>0</asrwt>
<pdfrwt beam="1">  1        1 0.43115286E-01 0.27546983E+03</pdfrwt>
<pdfrwt beam="2">  1       -1 0.10414301E-01 0.27546983E+03</pdfrwt>
<totfact> 0.54299152E+03</totfact>
</mgrwt>
</event>
<event>
 5    1  0.1132878E+001  0.2747151E+03  0.7818608E-02  0.1098611E+00
         -2   -1    0    0    0  501 -0.00000000000E+00  0.00000000000E+00  0.97562252923E+01  0.97562252923E+01  0.00000000000E+00 0.  1.
          2   -1    0    0  501    0  0.00000000000E+00 -0.00000000000E+00 -0.19338526574E+04  0.19338526574E+04  0.00000000000E+00 0.  1.
         35    2    1    2    0    0  0.00000000000E+00  0.00000000000E+00 -0.19240964321E+04  0.19436088827E+04  0.27471514125E+03 0.  0.
         25    1    3    3    0    0  0.10214534990E+01  0.29840129715E+02 -0.53898789821E+03  0.55299134815E+03  0.12000000000E+03 0.  0.
         25    1    3    3    0    0 -0.10214534990E+01 -0.29840129715E+02 -0.13851085339E+04  0.13906175345E+04  0.12000000000E+03 0.  0.
<mgrwt>
<rscale>  0 0.27471514E+03</rscale>
<asrwt>0</asrwt>
<pdfrwt beam="1">  1        2 0.29751549E+00 0.27471514E+03</pdfrwt>
<pdfrwt beam="2">  1       -2 0.15009593E-02 0.27471514E+03</pdfrwt>
<totfact> 0.94873410E+03</totfact>
</mgrwt>
</event>
<event>
 5    1  0.1132878E+001  0.2755050E+03  0.7818608E-02  0.1098170E+00
          1   -1    0    0  501    0  0.00000000000E+00  0.00000000000E+00  0.58169778164E+03  0.58169778164E+03  0.00000000000E+00 0.  1.
         -1   -1    0    0    0  501 -0.00000000000E+00 -0.00000000000E+00 -0.32621317262E+02  0.32621317262E+02  0.00000000000E+00 0.  1.
         35    2    1    2    0    0  0.00000000000E+00  0.00000000000E+00  0.54907646438E+03  0.61431909890E+03  0.27550497553E+03 0.  0.
         25    1    3    3    0    0 -0.18049129500E+02 -0.63236049814E+02  0.23919908428E+03  0.27557353101E+03  0.12000000000E+03 0.  0.
         25    1    3    3    0    0  0.18049129500E+02  0.63236049814E+02  0.30987738009E+03  0.33874556789E+03  0.12000000000E+03 0.  0.
<mgrwt>
<rscale>  0 0.27550498E+03</rscale>
<asrwt>0</asrwt>
<pdfrwt beam="1">  1        1 0.89491959E-01 0.27550498E+03</pdfrwt>
<pdfrwt beam="2">  1       -1 0.50186646E-02 0.27550498E+03</pdfrwt>
<totfact> 0.64031132E+03</totfact>
</mgrwt>
</event>
<event>
 5    1  0.1132878E+001  0.2724415E+03  0.7818608E-02  0.1099890E+00
         -2   -1    0    0    0  501 -0.00000000000E+00  0.00000000000E+00  0.10123879601E+04  0.10123879601E+04  0.00000000000E+00 0. -1.
          2   -1    0    0  501    0  0.00000000000E+00 -0.00000000000E+00 -0.18329029886E+02  0.18329029886E+02  0.00000000000E+00 0. -1.
         35    2    1    2    0    0  0.00000000000E+00  0.00000000000E+00  0.99405893026E+03  0.10307169900E+04  0.27244147392E+03 0.  0.
         25    1    3    3    0    0 -0.30782177254E+02  0.34832500858E+02  0.66602070007E+03  0.67833945666E+03  0.12000000000E+03 0.  0.
         25    1    3    3    0    0  0.30782177254E+02 -0.34832500858E+02  0.32803823020E+03  0.35237753337E+03  0.12000000000E+03 0.  0.
<mgrwt>
<rscale>  0 0.27244147E+03</rscale>
<asrwt>0</asrwt>
<pdfrwt beam="1">  1        2 0.28198516E-02 0.27244147E+03</pdfrwt>
<pdfrwt beam="2">  1       -2 0.15575195E+00 0.27244147E+03</pdfrwt>
<totfact> 0.98030066E+02</totfact>
</mgrwt>
</event>
<event>
 5    1  0.1132878E+001  0.2747653E+03  0.7818608E-02  0.1098583E+00
         -1   -1    0    0    0  501 -0.00000000000E+00  0.00000000000E+00  0.47647108375E+02  0.47647108375E+02  0.00000000000E+00 0.  1.
          1   -1    0    0  501    0  0.00000000000E+00 -0.00000000000E+00 -0.39612033979E+03  0.39612033979E+03  0.00000000000E+00 0.  1.
         35    2    1    2    0    0  0.00000000000E+00  0.00000000000E+00 -0.34847323141E+03  0.44376744816E+03  0.27476527262E+03 0.  0.
         25    1    3    3    0    0 -0.65470073593E+02  0.35837820382E+01 -0.15288244986E+03  0.20511513232E+03  0.12000000000E+03 0.  0.
         25    1    3    3    0    0  0.65470073593E+02 -0.35837820382E+01 -0.19559078155E+03  0.23865231585E+03  0.12000000000E+03 0.  0.
<mgrwt>
<rscale>  0 0.27476527E+03</rscale>
<asrwt>0</asrwt>
<pdfrwt beam="1">  1        1 0.60941591E-01 0.27476527E+03</pdfrwt>
<pdfrwt beam="2">  1       -1 0.73303243E-02 0.27476527E+03</pdfrwt>
<totfact> 0.60063763E+03</totfact>
</mgrwt>
</event>
<event>
 5    1  0.1132878E+001  0.2749217E+03  0.7818608E-02  0.1098495E+00
         -2   -1    0    0    0  501 -0.00000000000E+00  0.00000000000E+00  0.22130841295E+02  0.22130841295E+02  0.00000000000E+00 0.  1.
          2   -1    0    0  501    0  0.00000000000E+00 -0.00000000000E+00 -0.85380752697E+03  0.85380752697E+03  0.00000000000E+00 0.  1.
         35    2    1    2    0    0  0.00000000000E+00  0.00000000000E+00 -0.83167668567E+03  0.87593836826E+03  0.27492165339E+03 0.  0.
         25    1    3    3    0    0 -0.40081180135E+01 -0.66894436081E+02 -0.42263332873E+03  0.44442081538E+03  0.12000000000E+03 0.  0.
         25    1    3    3    0    0  0.40081180135E+01  0.66894436081E+02 -0.40904335694E+03  0.43151755288E+03  0.12000000000E+03 0.  0.
<mgrwt>
<rscale>  0 0.27492165E+03</rscale>
<asrwt>0</asrwt>
<pdfrwt beam="1">  1        2 0.13135501E+00 0.27492165E+03</pdfrwt>
<pdfrwt beam="2">  1       -2 0.34047446E-02 0.27492165E+03</pdfrwt>
<totfact> 0.11383826E+04</totfact>
</mgrwt>
</event>
<event>
 5    1  0.1132878E+001  0.2744298E+03  0.7818608E-02  0.1098771E+00
         -2   -1    0    0    0  501 -0.00000000000E+00  0.00000000000E+00  0.12889865838E+03  0.12889865838E+03  0.00000000000E+00 0. -1.
          2   -1    0    0  501    0  0.00000000000E+00 -0.00000000000E+00 -0.14606768894E+03  0.14606768894E+03  0.00000000000E+00 0. -1.
         35    2    1    2    0    0  0.00000000000E+00  0.00000000000E+00 -0.17169030561E+02  0.27496634731E+03  0.27442980258E+03 0.  0.
         25    1    3    3    0    0  0.15581197812E+02 -0.45909565892E+02  0.37083838421E+02  0.13463161975E+03  0.12000000000E+03 0.  0.
         25    1    3    3    0    0 -0.15581197812E+02  0.45909565892E+02 -0.54252868982E+02  0.14033472756E+03  0.12000000000E+03 0.  0.
<mgrwt>
<rscale>  0 0.27442980E+03</rscale>
<asrwt>0</asrwt>
<pdfrwt beam="1">  1        2 0.22471952E-01 0.27442980E+03</pdfrwt>
<pdfrwt beam="2">  1       -2 0.19830563E-01 0.27442980E+03</pdfrwt>
<totfact> 0.51432523E+03</totfact>
</mgrwt>
</event>
<event>
 5    1  0.1132878E+001  0.2747778E+03  0.7818608E-02  0.1098576E+00
          1   -1    0    0  501    0  0.00000000000E+00  0.00000000000E+00  0.36120566620E+02  0.36120566620E+02  0.00000000000E+00 0.  1.
         -1   -1    0    0    0  501 -0.00000000000E+00 -0.00000000000E+00 -0.52257497340E+03  0.52257497340E+03  0.00000000000E+00 0.  1.
         35    2    1    2    0    0  0.00000000000E+00  0.00000000000E+00 -0.48645440678E+03  0.55869554002E+03  0.27477775849E+03 0.  0.
         25    1    3    3    0    0  0.56908574075E+00  0.23242675071E+02 -0.11567888599E+03  0.16829186097E+03  0.12000000000E+03 0.  0.
         25    1    3    3    0    0 -0.56908574075E+00 -0.23242675071E+02 -0.37077552078E+03  0.39040367905E+03  0.12000000000E+03 0.  0.
<mgrwt>
<rscale>  0 0.27477776E+03</rscale>
<asrwt>0</asrwt>
<pdfrwt beam="1">  1        1 0.55570105E-02 0.27477776E+03</pdfrwt>
<pdfrwt beam="2">  1       -1 0.80396146E-01 0.27477776E+03</pdfrwt>
<totfact> 0.23159971E+03</totfact>
</mgrwt>
</event>
<event>
 5    1  0.1132878E+001  0.2742528E+03  0.7818608E-02  0.1098870E+00
         -2   -1    0    0    0  501 -0.00000000000E+00  0.00000000000E+00  0.76745898135E+02  0.76745898135E+02  0.00000000000E+00 0.  1.
          2   -1    0    0  501    0  0.00000000000E+00 -0.00000000000E+00 -0.24501180472E+03  0.24501180472E+03  0.00000000000E+00 0.  1.
         35    2    1    2    0    0  0.00000000000E+00  0.00000000000E+00 -0.16826590659E+03  0.32175770286E+03  0.27425281043E+03 0.  0.
         25    1    3    3    0    0  0.65574320163E+02  0.10076361518E+02 -0.85843790183E+02  0.16177354802E+03  0.12000000000E+03 0.  0.
         25    1    3    3    0    0 -0.65574320163E+02 -0.10076361518E+02 -0.82422116404E+02  0.15998415484E+03  0.12000000000E+03 0.  0.
<mgrwt>
<rscale>  0 0.27425281E+03</rscale>
<asrwt>0</asrwt>
<pdfrwt beam="1">  1        2 0.37694124E-01 0.27425281E+03</pdfrwt>
<pdfrwt beam="2">  1       -2 0.11807061E-01 0.27425281E+03</pdfrwt>
<totfact> 0.68670052E+03</totfact>
</mgrwt>
</event>
<event>
 5    1  0.1132878E+001  0.2748860E+03  0.7818608E-02  0.1098515E+00
         -1   -1    0    0    0  501 -0.00000000000E+00  0.00000000000E+00  0.23695787556E+02  0.23695787556E+02  0.00000000000E+00 0.  1.
          1   -1    0    0  501    0  0.00000000000E+00 -0.00000000000E+00 -0.79721245936E+03  0.79721245936E+03  0.00000000000E+00 0.  1.
         35    2    1    2    0    0  0.00000000000E+00  0.00000000000E+00 -0.77351667181E+03  0.82090824692E+03  0.27488599145E+03 0.  0.
         25    1    3    3    0    0  0.17682229687E+02 -0.64437886127E+02 -0.37162640502E+03  0.39619576894E+03  0.12000000000E+03 0.  0.
         25    1    3    3    0    0 -0.17682229687E+02  0.64437886127E+02 -0.40189026679E+03  0.42471247798E+03  0.12000000000E+03 0.  0.
<mgrwt>
<rscale>  0 0.27488599E+03</rscale>
<asrwt>0</asrwt>
<pdfrwt beam="1">  1        1 0.12264808E+00 0.27488599E+03</pdfrwt>
<pdfrwt beam="2">  1       -1 0.36455056E-02 0.27488599E+03</pdfrwt>
<totfact> 0.65301045E+03</totfact>
</mgrwt>
</event>
<event>
 5    1  0.1132878E+001  0.2784026E+03  0.7818608E-02  0.1096565E+00
          2   -1    0    0  501    0  0.00000000000E+00  0.00000000000E+00  0.84869093493E+03  0.84869093493E+03  0.00000000000E+00 0.  1.
         -2   -1    0    0    0  501 -0.00000000000E+00 -0.00000000000E+00 -0.22831629496E+02  0.22831629496E+02  0.00000000000E+00 0.  1.
         35    2    1    2    0    0  0.00000000000E+00  0.00000000000E+00  0.82585930544E+03  0.87152256443E+03  0.27840256452E+03 0.  0.
         25    1    3    3    0    0 -0.53021939150E+02 -0.34132980885E+01  0.55821783997E+03  0.57343712253E+03  0.12000000000E+03 0.  0.
         25    1    3    3    0    0  0.53021939150E+02  0.34132980885E+01  0.26764146547E+03  0.29808544190E+03  0.12000000000E+03 0.  0.
<mgrwt>
<rscale>  0 0.27840256E+03</rscale>
<asrwt>0</asrwt>
<pdfrwt beam="1">  1        2 0.13056781E+00 0.27840256E+03</pdfrwt>
<pdfrwt beam="2">  1       -2 0.35125590E-02 0.27840256E+03</pdfrwt>
<totfact> 0.10955418E+04</totfact>
</mgrwt>
</event>
<event>
 5    1  0.1132878E+001  0.2736817E+03  0.7818608E-02  0.1099191E+00
         -1   -1    0    0    0  501 -0.00000000000E+00  0.00000000000E+00  0.55361322055E+02  0.55361322055E+02  0.00000000000E+00 0.  1.
          1   -1    0    0  501    0  0.00000000000E+00 -0.00000000000E+00 -0.33824006950E+03  0.33824006950E+03  0.00000000000E+00 0.  1.
         35    2    1    2    0    0  0.00000000000E+00  0.00000000000E+00 -0.28287874744E+03  0.39360139155E+03  0.27368169409E+03 0.  0.
         25    1    3    3    0    0  0.35199547023E+02  0.99830078735E+01 -0.62841602830E+02  0.14031299157E+03  0.12000000000E+03 0.  0.
         25    1    3    3    0    0 -0.35199547023E+02 -0.99830078735E+01 -0.22003714461E+03  0.25328839999E+03  0.12000000000E+03 0.  0.
<mgrwt>
<rscale>  0 0.27368169E+03</rscale>
<asrwt>0</asrwt>
<pdfrwt beam="1">  1        1 0.52036935E-01 0.27368169E+03</pdfrwt>
<pdfrwt beam="2">  1       -1 0.85171262E-02 0.27368169E+03</pdfrwt>
<totfact> 0.58394601E+03</totfact>
</mgrwt>
</event>
<event>
 5    1  0.1132878E+001  0.2764474E+03  0.7818608E-02  0.1097645E+00
         -2   -1    0    0    0  501 -0.00000000000E+00  0.00000000000E+00  0.24439365512E+02  0.24439365512E+02  0.00000000000E+00 0. -1.
          2   -1    0    0  501    0  0.00000000000E+00 -0.00000000000E+00 -0.78176294957E+03  0.78176294957E+03  0.00000000000E+00 0. -1.
         35    2    1    2    0    0  0.00000000000E+00  0.00000000000E+00 -0.75732358406E+03  0.80620231508E+03  0.27644739441E+03 0.  0.
         25    1    3    3    0    0  0.44928829946E+02  0.45005011115E+02 -0.45368145858E+03  0.47357250410E+03  0.12000000000E+03 0.  0.
         25    1    3    3    0    0 -0.44928829946E+02 -0.45005011115E+02 -0.30364212548E+03  0.33262981098E+03  0.12000000000E+03 0.  0.
<mgrwt>
<rscale>  0 0.27644739E+03</rscale>
<asrwt>0</asrwt>
<pdfrwt beam="1">  1        2 0.12027121E+00 0.27644739E+03</pdfrwt>
<pdfrwt beam="2">  1       -2 0.37599029E-02 0.27644739E+03</pdfrwt>
<totfact> 0.10989912E+04</totfact>
</mgrwt>
</event>
<event>
 5    1  0.1132878E+001  0.2746171E+03  0.7818608E-02  0.1098666E+00
         -2   -1    0    0    0  501 -0.00000000000E+00  0.00000000000E+00  0.10559946853E+03  0.10559946853E+03  0.00000000000E+00 0. -1.
          2   -1    0    0  501    0  0.00000000000E+00 -0.00000000000E+00 -0.17853912790E+03  0.17853912790E+03  0.00000000000E+00 0. -1.
         35    2    1    2    0    0  0.00000000000E+00  0.00000000000E+00 -0.72939659370E+02  0.28413859644E+03  0.27461709356E+03 0.  0.
         25    1    3    3    0    0 -0.62704003240E+02  0.16455855671E+02 -0.20075917145E+02  0.13786090692E+03  0.12000000000E+03 0.  0.
         25    1    3    3    0    0  0.62704003240E+02 -0.16455855671E+02 -0.52863742225E+02  0.14627768952E+03  0.12000000000E+03 0.  0.
<mgrwt>
<rscale>  0 0.27461709E+03</rscale>
<asrwt>0</asrwt>
<pdfrwt beam="1">  1        2 0.27467558E-01 0.27461709E+03</pdfrwt>
<pdfrwt beam="2">  1       -2 0.16246072E-01 0.27461709E+03</pdfrwt>
<totfact> 0.57521084E+03</totfact>
</mgrwt>
</event>
<event>
 5    1  0.1132878E+001  0.2744459E+03  0.7818608E-02  0.1098762E+00
          2   -1    0    0  501    0  0.00000000000E+00  0.00000000000E+00  0.96322043757E+03  0.96322043757E+03  0.00000000000E+00 0. -1.
         -2   -1    0    0    0  501 -0.00000000000E+00 -0.00000000000E+00 -0.19549140595E+02  0.19549140595E+02  0.00000000000E+00 0. -1.
         35    2    1    2    0    0  0.00000000000E+00  0.00000000000E+00  0.94367129697E+03  0.98276957816E+03  0.27444585446E+03 0.  0.
         25    1    3    3    0    0 -0.53435144883E+02 -0.96214054314E+01  0.33397030247E+03  0.35900424661E+03  0.12000000000E+03 0.  0.
         25    1    3    3    0    0  0.53435144883E+02  0.96214054314E+01  0.60970099450E+03  0.62376533155E+03  0.12000000000E+03 0.  0.
<mgrwt>
<rscale>  0 0.27444585E+03</rscale>
<asrwt>0</asrwt>
<pdfrwt beam="1">  1        2 0.14818772E+00 0.27444585E+03</pdfrwt>
<pdfrwt beam="2">  1       -2 0.30075608E-02 0.27444585E+03</pdfrwt>
<totfact> 0.11647435E+04</totfact>
</mgrwt>
</event>
<event>
 5    1  0.1132878E+001  0.2741976E+03  0.7818608E-02  0.1098901E+00
          2   -1    0    0  501    0  0.00000000000E+00  0.00000000000E+00  0.22660056048E+03  0.22660056048E+03  0.00000000000E+00 0.  1.
         -2   -1    0    0    0  501 -0.00000000000E+00 -0.00000000000E+00 -0.82948050293E+02  0.82948050293E+02  0.00000000000E+00 0.  1.
         35    2    1    2    0    0  0.00000000000E+00  0.00000000000E+00  0.14365251018E+03  0.30954861077E+03  0.27419755423E+03 0.  0.
         25    1    3    3    0    0 -0.56110688374E+02  0.30337057072E+02  0.51401490324E+02  0.14529576590E+03  0.12000000000E+03 0.  0.
         25    1    3    3    0    0  0.56110688374E+02 -0.30337057072E+02  0.92251019859E+02  0.16425284487E+03  0.12000000000E+03 0.  0.
<mgrwt>
<rscale>  0 0.27419755E+03</rscale>
<asrwt>0</asrwt>
<pdfrwt beam="1">  1        2 0.34861624E-01 0.27419755E+03</pdfrwt>
<pdfrwt beam="2">  1       -2 0.12761239E-01 0.27419755E+03</pdfrwt>
<totfact> 0.65905262E+03</totfact>
</mgrwt>
</event>
<event>
 5    1  0.1132878E+001  0.2760675E+03  0.7818608E-02  0.1097856E+00
         -1   -1    0    0    0  501 -0.00000000000E+00  0.00000000000E+00  0.10855221210E+03  0.10855221210E+03  0.00000000000E+00 0. -1.
          1   -1    0    0  501    0  0.00000000000E+00 -0.00000000000E+00 -0.17552210476E+03  0.17552210476E+03  0.00000000000E+00 0. -1.
         35    2    1    2    0    0  0.00000000000E+00  0.00000000000E+00 -0.66969892655E+02  0.28407431686E+03  0.27606747540E+03 0.  0.
         25    1    3    3    0    0  0.63608952372E+02 -0.24235555980E+02 -0.38069701081E+02  0.14311800423E+03  0.12000000000E+03 0.  0.
         25    1    3    3    0    0 -0.63608952372E+02  0.24235555980E+02 -0.28900191574E+02  0.14095631262E+03  0.12000000000E+03 0.  0.
<mgrwt>
<rscale>  0 0.27606748E+03</rscale>
<asrwt>0</asrwt>
<pdfrwt beam="1">  1        1 0.27003401E-01 0.27606748E+03</pdfrwt>
<pdfrwt beam="2">  1       -1 0.16700340E-01 0.27606748E+03</pdfrwt>
<totfact> 0.46558186E+03</totfact>
</mgrwt>
</event>
<event>
 5    1  0.1132878E+001  0.2754968E+03  0.7818608E-02  0.1098174E+00
         -2   -1    0    0    0  501 -0.00000000000E+00  0.00000000000E+00  0.24065411052E+03  0.24065411052E+03  0.00000000000E+00 0.  1.
          2   -1    0    0  501    0  0.00000000000E+00 -0.00000000000E+00 -0.78846027442E+02  0.78846027442E+02  0.00000000000E+00 0.  1.
         35    2    1    2    0    0  0.00000000000E+00  0.00000000000E+00  0.16180808308E+03  0.31950013796E+03  0.27549679201E+03 0.  0.
         25    1    3    3    0    0 -0.18012885953E+02 -0.64241569771E+02  0.93775263063E+02  0.16626858786E+03  0.12000000000E+03 0.  0.
         25    1    3    3    0    0  0.18012885953E+02  0.64241569771E+02  0.68032820017E+02  0.15323155010E+03  0.12000000000E+03 0.  0.
<mgrwt>
<rscale>  0 0.27549679E+03</rscale>
<asrwt>0</asrwt>
<pdfrwt beam="1">  1        2 0.12130158E-01 0.27549679E+03</pdfrwt>
<pdfrwt beam="2">  1       -2 0.37023709E-01 0.27549679E+03</pdfrwt>
<totfact> 0.34666951E+03</totfact>
</mgrwt>
</event>
<event>
 5    1  0.1132878E+001  0.2754059E+03  0.7818608E-02  0.1098225E+00
         -2   -1    0    0    0  501 -0.00000000000E+00  0.00000000000E+00  0.69228374261E+01  0.69228374261E+01  0.00000000000E+00 0. -1.
          2   -1    0    0  501    0  0.00000000000E+00 -0.00000000000E+00 -0.27390646009E+04  0.27390646009E+04  0.00000000000E+00 0. -1.
         35    2    1    2    0    0  0.00000000000E+00  0.00000000000E+00 -0.27321417634E+04  0.27459874383E+04  0.27540587453E+03 0.  0.
         25    1    3    3    0    0  0.63465446230E+02  0.15832252979E+02 -0.11981673026E+04  0.12059367347E+04  0.12000000000E+03 0.  0.
         25    1    3    3    0    0 -0.63465446230E+02 -0.15832252979E+02 -0.15339744609E+04  0.15400507036E+04  0.12000000000E+03 0.  0.
<mgrwt>
<rscale>  0 0.27540587E+03</rscale>
<asrwt>0</asrwt>
<pdfrwt beam="1">  1        2 0.42139514E+00 0.27540587E+03</pdfrwt>
<pdfrwt beam="2">  1       -2 0.10650504E-02 0.27540587E+03</pdfrwt>
<totfact> 0.57409596E+03</totfact>
</mgrwt>
</event>
<event>
 5    1  0.1132878E+001  0.2751196E+03  0.7818608E-02  0.1098385E+00
         -2   -1    0    0    0  501 -0.00000000000E+00  0.00000000000E+00  0.51817213928E+01  0.51817213928E+01  0.00000000000E+00 0. -1.
          2   -1    0    0  501    0  0.00000000000E+00 -0.00000000000E+00 -0.36518175831E+04  0.36518175831E+04  0.00000000000E+00 0. -1.
         35    2    1    2    0    0  0.00000000000E+00  0.00000000000E+00 -0.36466358618E+04  0.36569993045E+04  0.27511961975E+03 0.  0.
         25    1    3    3    0    0 -0.31801368673E+02 -0.54292344704E+00 -0.10356853995E+04  0.10430991653E+04  0.12000000000E+03 0.  0.
         25    1    3    3    0    0  0.31801368673E+02  0.54292344704E+00 -0.26109504623E+04  0.26139001393E+04  0.12000000000E+03 0.  0.
<mgrwt>
<rscale>  0 0.27511962E+03</rscale>
<asrwt>0</asrwt>
<pdfrwt beam="1">  1        2 0.56181950E+00 0.27511962E+03</pdfrwt>
<pdfrwt beam="2">  1       -2 0.79718591E-03 0.27511962E+03</pdfrwt>
<totfact> 0.23719867E+03</totfact>
</mgrwt>
</event>
<event>
 5    1  0.1132878E+001  0.2749408E+03  0.7818608E-02  0.1098485E+00
          1   -1    0    0  501    0  0.00000000000E+00  0.00000000000E+00  0.91485446527E+03  0.91485446527E+03  0.00000000000E+00 0.  1.
         -1   -1    0    0    0  501 -0.00000000000E+00 -0.00000000000E+00 -0.20656965305E+02  0.20656965305E+02  0.00000000000E+00 0.  1.
         35    2    1    2    0    0  0.00000000000E+00  0.00000000000E+00  0.89419749996E+03  0.93551143057E+03  0.27494084417E+03 0.  0.
         25    1    3    3    0    0 -0.52013545079E+02 -0.38159387880E+02  0.38467540782E+03  0.40808910440E+03  0.12000000000E+03 0.  0.
         25    1    3    3    0    0  0.52013545079E+02  0.38159387880E+02  0.50952209215E+03  0.52742232617E+03  0.12000000000E+03 0.  0.
<mgrwt>
<rscale>  0 0.27494084E+03</rscale>
<asrwt>0</asrwt>
<pdfrwt beam="1">  1        1 0.14074681E+00 0.27494084E+03</pdfrwt>
<pdfrwt beam="2">  1       -1 0.31779954E-02 0.27494084E+03</pdfrwt>
<totfact> 0.64306886E+03</totfact>
</mgrwt>
</event>
<event>
 5    1  0.1132878E+001  0.2740039E+03  0.7818608E-02  0.1099010E+00
         -1   -1    0    0    0  501 -0.00000000000E+00  0.00000000000E+00  0.64383616848E+02  0.64383616848E+02  0.00000000000E+00 0.  1.
          1   -1    0    0  501    0  0.00000000000E+00 -0.00000000000E+00 -0.29152657858E+03  0.29152657858E+03  0.00000000000E+00 0.  1.
         35    2    1    2    0    0  0.00000000000E+00  0.00000000000E+00 -0.22714296173E+03  0.35591019543E+03  0.27400390900E+03 0.  0.
         25    1    3    3    0    0  0.48622367247E+02  0.17423610010E+02 -0.59986840162E+02  0.14375721817E+03  0.12000000000E+03 0.  0.
         25    1    3    3    0    0 -0.48622367247E+02 -0.17423610010E+02 -0.16715612157E+03  0.21215297726E+03  0.12000000000E+03 0.  0.
<mgrwt>
<rscale>  0 0.27400391E+03</rscale>
<asrwt>0</asrwt>
<pdfrwt beam="1">  1        1 0.44850243E-01 0.27400391E+03</pdfrwt>
<pdfrwt beam="2">  1       -1 0.99051718E-02 0.27400391E+03</pdfrwt>
<totfact> 0.55830264E+03</totfact>
</mgrwt>
</event>
<event>
 5    1  0.1132878E+001  0.2755081E+03  0.7818608E-02  0.1098168E+00
         -2   -1    0    0    0  501 -0.00000000000E+00  0.00000000000E+00  0.10098856987E+02  0.10098856987E+02  0.00000000000E+00 0.  1.
          2   -1    0    0  501    0  0.00000000000E+00 -0.00000000000E+00 -0.18790417661E+04  0.18790417661E+04  0.00000000000E+00 0.  1.
         35    2    1    2    0    0  0.00000000000E+00  0.00000000000E+00 -0.18689429092E+04  0.18891406231E+04  0.27550806935E+03 0.  0.
         25    1    3    3    0    0  0.53299412736E+02 -0.95292629220E+01 -0.12125401891E+04  0.12196660790E+04  0.12000000000E+03 0.  0.
         25    1    3    3    0    0 -0.53299412736E+02  0.95292629220E+01 -0.65640272008E+03  0.66947454409E+03  0.12000000000E+03 0.  0.
<mgrwt>
<rscale>  0 0.27550807E+03</rscale>
<asrwt>0</asrwt>
<pdfrwt beam="1">  1        2 0.28908309E+00 0.27550807E+03</pdfrwt>
<pdfrwt beam="2">  1       -2 0.15536717E-02 0.27550807E+03</pdfrwt>
<totfact> 0.96382710E+03</totfact>
</mgrwt>
</event>
<event>
 5    1  0.1132878E+001  0.2756776E+03  0.7818608E-02  0.1098073E+00
         -2   -1    0    0    0  501 -0.00000000000E+00  0.00000000000E+00  0.32696628966E+03  0.32696628966E+03  0.00000000000E+00 0.  1.
          2   -1    0    0  501    0  0.00000000000E+00 -0.00000000000E+00 -0.58108542233E+02  0.58108542233E+02  0.00000000000E+00 0.  1.
         35    2    1    2    0    0  0.00000000000E+00  0.00000000000E+00  0.26885774743E+03  0.38507483190E+03  0.27567759758E+03 0.  0.
         25    1    3    3    0    0 -0.43436396608E+02  0.48874637813E+02  0.15957506646E+03  0.21009438975E+03  0.12000000000E+03 0.  0.
         25    1    3    3    0    0  0.43436396608E+02 -0.48874637813E+02  0.10928268097E+03  0.17498044214E+03  0.12000000000E+03 0.  0.
<mgrwt>
<rscale>  0 0.27567760E+03</rscale>
<asrwt>0</asrwt>
<pdfrwt beam="1">  1        2 0.89397759E-02 0.27567760E+03</pdfrwt>
<pdfrwt beam="2">  1       -2 0.50302505E-01 0.27567760E+03</pdfrwt>
<totfact> 0.27912290E+03</totfact>
</mgrwt>
</event>
<event>
 5    1  0.1132878E+001  0.2742981E+03  0.7818608E-02  0.1098845E+00
          4   -1    0    0  501    0  0.00000000000E+00  0.00000000000E+00  0.31603813334E+03  0.31603813334E+03  0.00000000000E+00 0. -1.
         -4   -1    0    0    0  501 -0.00000000000E+00 -0.00000000000E+00 -0.59517718497E+02  0.59517718497E+02  0.00000000000E+00 0. -1.
         35    2    1    2    0    0  0.00000000000E+00  0.00000000000E+00  0.25652041485E+03  0.37555585184E+03  0.27429814913E+03 0.  0.
         25    1    3    3    0    0 -0.11099001008E+01 -0.26340074847E+02  0.44811127783E+02  0.13077870084E+03  0.12000000000E+03 0.  0.
         25    1    3    3    0    0  0.11099001008E+01  0.26340074847E+02  0.21170928706E+03  0.24477715100E+03  0.12000000000E+03 0.  0.
<mgrwt>
<rscale>  0 0.27429815E+03</rscale>
<asrwt>0</asrwt>
<pdfrwt beam="1">  1        4 0.48621250E-01 0.27429815E+03</pdfrwt>
<pdfrwt beam="2">  1       -4 0.91565723E-02 0.27429815E+03</pdfrwt>
<totfact> 0.67779763E+02</totfact>
</mgrwt>
</event>
<event>
 5    1  0.1132878E+001  0.2849440E+03  0.7818608E-02  0.1093019E+00
         -2   -1    0    0    0  501 -0.00000000000E+00  0.00000000000E+00  0.24639342540E+03  0.24639342540E+03  0.00000000000E+00 0.  1.
          2   -1    0    0  501    0  0.00000000000E+00 -0.00000000000E+00 -0.82381516583E+02  0.82381516583E+02  0.00000000000E+00 0.  1.
         35    2    1    2    0    0  0.00000000000E+00  0.00000000000E+00  0.16401190881E+03  0.32877494198E+03  0.28494395281E+03 0.  0.
         25    1    3    3    0    0  0.33174418385E+00 -0.65852866843E+02  0.36410897757E+02  0.14164202625E+03  0.12000000000E+03 0.  0.
         25    1    3    3    0    0 -0.33174418385E+00  0.65852866843E+02  0.12760101105E+03  0.18713291573E+03  0.12000000000E+03 0.  0.
<mgrwt>
<rscale>  0 0.28494395E+03</rscale>
<asrwt>0</asrwt>
<pdfrwt beam="1">  1        2 0.12674080E-01 0.28494395E+03</pdfrwt>
<pdfrwt beam="2">  1       -2 0.37906681E-01 0.28494395E+03</pdfrwt>
<totfact> 0.31470416E+03</totfact>
</mgrwt>
</event>
<event>
 5    1  0.1132878E+001  0.2750802E+03  0.7818608E-02  0.1098407E+00
          1   -1    0    0  501    0  0.00000000000E+00  0.00000000000E+00  0.24723995580E+03  0.24723995580E+03  0.00000000000E+00 0.  1.
         -1   -1    0    0    0  501 -0.00000000000E+00 -0.00000000000E+00 -0.76513828498E+02  0.76513828498E+02  0.00000000000E+00 0.  1.
         35    2    1    2    0    0  0.00000000000E+00  0.00000000000E+00  0.17072612730E+03  0.32375378430E+03  0.27508017432E+03 0.  0.
         25    1    3    3    0    0  0.49070673985E+01  0.25359221848E-01  0.16425511090E+03  0.20347928988E+03  0.12000000000E+03 0.  0.
         25    1    3    3    0    0 -0.49070673985E+01 -0.25359221848E-01  0.64710164004E+01  0.12027449442E+03  0.12000000000E+03 0.  0.
<mgrwt>
<rscale>  0 0.27508017E+03</rscale>
<asrwt>0</asrwt>
<pdfrwt beam="1">  1        1 0.38036916E-01 0.27508017E+03</pdfrwt>
<pdfrwt beam="2">  1       -1 0.11771358E-01 0.27508017E+03</pdfrwt>
<totfact> 0.52526182E+03</totfact>
</mgrwt>
</event>
<event>
 5    1  0.1132878E+001  0.2750276E+03  0.7818608E-02  0.1098436E+00
         -2   -1    0    0    0  501 -0.00000000000E+00  0.00000000000E+00  0.28228546047E+02  0.28228546047E+02  0.00000000000E+00 0. -1.
          2   -1    0    0  501    0  0.00000000000E+00 -0.00000000000E+00 -0.66989074445E+03  0.66989074445E+03  0.00000000000E+00 0. -1.
         35    2    1    2    0    0  0.00000000000E+00  0.00000000000E+00 -0.64166219841E+03  0.69811929050E+03  0.27502757481E+03 0.  0.
         25    1    3    3    0    0 -0.20383853431E+02 -0.63971058380E+02 -0.31702869222E+03  0.34556473993E+03  0.12000000000E+03 0.  0.
         25    1    3    3    0    0  0.20383853431E+02  0.63971058380E+02 -0.32463350618E+03  0.35255455057E+03  0.12000000000E+03 0.  0.
<mgrwt>
<rscale>  0 0.27502757E+03</rscale>
<asrwt>0</asrwt>
<pdfrwt beam="1">  1        2 0.10306012E+00 0.27502757E+03</pdfrwt>
<pdfrwt beam="2">  1       -2 0.43428531E-02 0.27502757E+03</pdfrwt>
<totfact> 0.10691862E+04</totfact>
</mgrwt>
</event>
<event>
 5    1  0.1132878E+001  0.2754019E+03  0.7818608E-02  0.1098227E+00
         -1   -1    0    0    0  501 -0.00000000000E+00  0.00000000000E+00  0.16892255858E+02  0.16892255858E+02  0.00000000000E+00 0. -1.
          1   -1    0    0  501    0  0.00000000000E+00 -0.00000000000E+00 -0.11224999653E+04  0.11224999653E+04  0.00000000000E+00 0. -1.
         35    2    1    2    0    0  0.00000000000E+00  0.00000000000E+00 -0.11056077094E+04  0.11393922212E+04  0.27540193619E+03 0.  0.
         25    1    3    3    0    0 -0.73999377322E+01 -0.62234545420E+02 -0.65694780040E+03  0.67075204821E+03  0.12000000000E+03 0.  0.
         25    1    3    3    0    0  0.73999377322E+01  0.62234545420E+02 -0.44865990904E+03  0.46864017295E+03  0.12000000000E+03 0.  0.
<mgrwt>
<rscale>  0 0.27540194E+03</rscale>
<asrwt>0</asrwt>
<pdfrwt beam="1">  1        1 0.17269230E+00 0.27540194E+03</pdfrwt>
<pdfrwt beam="2">  1       -1 0.25988086E-02 0.27540194E+03</pdfrwt>
<totfact> 0.60603568E+03</totfact>
</mgrwt>
</event>
<event>
 5    1  0.1132878E+001  0.2705331E+03  0.7818608E-02  0.1100975E+00
          1   -1    0    0  501    0  0.00000000000E+00  0.00000000000E+00  0.19621313078E+03  0.19621313078E+03  0.00000000000E+00 0.  1.
         -1   -1    0    0    0  501 -0.00000000000E+00 -0.00000000000E+00 -0.93250812057E+02  0.93250812057E+02  0.00000000000E+00 0.  1.
         35    2    1    2    0    0  0.00000000000E+00  0.00000000000E+00  0.10296231872E+03  0.28946394284E+03  0.27053305736E+03 0.  0.
         25    1    3    3    0    0 -0.25677966288E+02 -0.18989932644E+02 -0.59104578915E+01  0.12431777430E+03  0.12000000000E+03 0.  0.
         25    1    3    3    0    0  0.25677966288E+02  0.18989932644E+02  0.10887277662E+03  0.16514616854E+03  0.12000000000E+03 0.  0.
<mgrwt>
<rscale>  0 0.27053306E+03</rscale>
<asrwt>0</asrwt>
<pdfrwt beam="1">  1        1 0.30186635E-01 0.27053306E+03</pdfrwt>
<pdfrwt beam="2">  1       -1 0.14346279E-01 0.27053306E+03</pdfrwt>
<totfact> 0.51460579E+03</totfact>
</mgrwt>
</event>
<event>
 5    1  0.1132878E+001  0.2873551E+03  0.7818608E-02  0.1091738E+00
         -2   -1    0    0    0  501 -0.00000000000E+00  0.00000000000E+00  0.28757239674E+02  0.28757239674E+02  0.00000000000E+00 0. -1.
          2   -1    0    0  501    0  0.00000000000E+00 -0.00000000000E+00 -0.71784494214E+03  0.71784494214E+03  0.00000000000E+00 0. -1.
         35    2    1    2    0    0  0.00000000000E+00  0.00000000000E+00 -0.68908770247E+03  0.74660218182E+03  0.28735510471E+03 0.  0.
         25    1    3    3    0    0 -0.92473403694E+01  0.73228970113E+02 -0.41781288293E+03  0.44092584468E+03  0.12000000000E+03 0.  0.
         25    1    3    3    0    0  0.92473403694E+01 -0.73228970113E+02 -0.27127481954E+03  0.30567633714E+03  0.12000000000E+03 0.  0.
<mgrwt>
<rscale>  0 0.28735510E+03</rscale>
<asrwt>0</asrwt>
<pdfrwt beam="1">  1        2 0.11043768E+00 0.28735510E+03</pdfrwt>
<pdfrwt beam="2">  1       -2 0.44241908E-02 0.28735510E+03</pdfrwt>
<totfact> 0.95754234E+03</totfact>
</mgrwt>
</event>
<event>
 5    1  0.1132878E+001  0.2725373E+03  0.7818608E-02  0.1099836E+00
          2   -1    0    0  501    0  0.00000000000E+00  0.00000000000E+00  0.14895313172E+03  0.14895313172E+03  0.00000000000E+00 0. -1.
         -2   -1    0    0    0  501 -0.00000000000E+00 -0.00000000000E+00 -0.12466430887E+03  0.12466430887E+03  0.00000000000E+00 0. -1.
         35    2    1    2    0    0  0.00000000000E+00  0.00000000000E+00  0.24288822858E+02  0.27361744059E+03  0.27253725778E+03 0.  0.
         25    1    3    3    0    0 -0.63220697405E+02 -0.11354453855E+02  0.55335567745E+01  0.13622187950E+03  0.12000000000E+03 0.  0.
         25    1    3    3    0    0  0.63220697405E+02  0.11354453855E+02  0.18755266083E+02  0.13739556110E+03  0.12000000000E+03 0.  0.
<mgrwt>
<rscale>  0 0.27253726E+03</rscale>
<asrwt>0</asrwt>
<pdfrwt beam="1">  1        2 0.22915866E-01 0.27253726E+03</pdfrwt>
<pdfrwt beam="2">  1       -2 0.19179124E-01 0.27253726E+03</pdfrwt>
<totfact> 0.53244248E+03</totfact>
</mgrwt>
</event>
<event>
 5    1  0.1132878E+001  0.2758599E+03  0.7818608E-02  0.1097972E+00
          2   -1    0    0  501    0  0.00000000000E+00  0.00000000000E+00  0.44520953619E+04  0.44520953619E+04  0.00000000000E+00 0. -1.
         -2   -1    0    0    0  501 -0.00000000000E+00 -0.00000000000E+00 -0.42731938477E+01  0.42731938477E+01  0.00000000000E+00 0. -1.
         35    2    1    2    0    0  0.00000000000E+00  0.00000000000E+00  0.44478221680E+04  0.44563685557E+04  0.27585986667E+03 0.  0.
         25    1    3    3    0    0  0.55806324900E+00  0.43491981477E+02  0.13794168045E+04  0.13853095627E+04  0.12000000000E+03 0.  0.
         25    1    3    3    0    0 -0.55806324900E+00 -0.43491981477E+02  0.30684053635E+04  0.30710589931E+04  0.12000000000E+03 0.  0.
<mgrwt>
<rscale>  0 0.27585987E+03</rscale>
<asrwt>0</asrwt>
<pdfrwt beam="1">  1        2 0.68493404E+00 0.27585987E+03</pdfrwt>
<pdfrwt beam="2">  1       -2 0.65741800E-03 0.27585987E+03</pdfrwt>
<totfact> 0.73550151E+02</totfact>
</mgrwt>
</event>
<event>
 5    1  0.1132878E+001  0.2753205E+03  0.7818608E-02  0.1098273E+00
         -1   -1    0    0    0  501 -0.00000000000E+00  0.00000000000E+00  0.66271108319E+02  0.66271108319E+02  0.00000000000E+00 0. -1.
          1   -1    0    0  501    0  0.00000000000E+00 -0.00000000000E+00 -0.28595176562E+03  0.28595176562E+03  0.00000000000E+00 0. -1.
         35    2    1    2    0    0  0.00000000000E+00  0.00000000000E+00 -0.21968065730E+03  0.35222287393E+03  0.27532047097E+03 0.  0.
         25    1    3    3    0    0 -0.94936030361E+01 -0.47531596392E+02 -0.16985881747E+03  0.21354484079E+03  0.12000000000E+03 0.  0.
         25    1    3    3    0    0  0.94936030361E+01  0.47531596392E+02 -0.49821839827E+02  0.13867803315E+03  0.12000000000E+03 0.  0.
<mgrwt>
<rscale>  0 0.27532047E+03</rscale>
<asrwt>0</asrwt>
<pdfrwt beam="1">  1        1 0.43992580E-01 0.27532047E+03</pdfrwt>
<pdfrwt beam="2">  1       -1 0.10195555E-01 0.27532047E+03</pdfrwt>
<totfact> 0.54710784E+03</totfact>
</mgrwt>
</event>
<event>
 5    1  0.1132878E+001  0.2744129E+03  0.7818608E-02  0.1098780E+00
          2   -1    0    0  501    0  0.00000000000E+00  0.00000000000E+00  0.91686961696E+02  0.91686961696E+02  0.00000000000E+00 0.  1.
         -2   -1    0    0    0  501 -0.00000000000E+00 -0.00000000000E+00 -0.20532485369E+03  0.20532485369E+03  0.00000000000E+00 0.  1.
         35    2    1    2    0    0  0.00000000000E+00  0.00000000000E+00 -0.11363789200E+03  0.29701181539E+03  0.27441291512E+03 0.  0.
         25    1    3    3    0    0 -0.51063119950E+02  0.24738504449E+02 -0.19228753332E+02  0.13412375172E+03  0.12000000000E+03 0.  0.
         25    1    3    3    0    0  0.51063119950E+02 -0.24738504449E+02 -0.94409138664E+02  0.16288806367E+03  0.12000000000E+03 0.  0.
<mgrwt>
<rscale>  0 0.27441292E+03</rscale>
<asrwt>0</asrwt>
<pdfrwt beam="1">  1        2 0.14105687E-01 0.27441292E+03</pdfrwt>
<pdfrwt beam="2">  1       -2 0.31588439E-01 0.27441292E+03</pdfrwt>
<totfact> 0.38809705E+03</totfact>
</mgrwt>
</event>
<event>
 5    1  0.1132878E+001  0.2749262E+03  0.7818608E-02  0.1098493E+00
          1   -1    0    0  501    0  0.00000000000E+00  0.00000000000E+00  0.13617482574E+04  0.13617482574E+04  0.00000000000E+00 0.  1.
         -1   -1    0    0    0  501 -0.00000000000E+00 -0.00000000000E+00 -0.13876355324E+02  0.13876355324E+02  0.00000000000E+00 0.  1.
         35    2    1    2    0    0  0.00000000000E+00  0.00000000000E+00  0.13478719021E+04  0.13756246128E+04  0.27492619141E+03 0.  0.
         25    1    3    3    0    0  0.48951088625E+02  0.13978317030E+02  0.45557532054E+03  0.47385701969E+03  0.12000000000E+03 0.  0.
         25    1    3    3    0    0 -0.48951088625E+02 -0.13978317030E+02  0.89229658157E+03  0.90176759307E+03  0.12000000000E+03 0.  0.
<mgrwt>
<rscale>  0 0.27492619E+03</rscale>
<asrwt>0</asrwt>
<pdfrwt beam="1">  1        1 0.20949963E+00 0.27492619E+03</pdfrwt>
<pdfrwt beam="2">  1       -1 0.21348250E-02 0.27492619E+03</pdfrwt>
<totfact> 0.55192263E+03</totfact>
</mgrwt>
</event>
<event>
 5    1  0.1132878E+001  0.2755872E+03  0.7818608E-02  0.1098124E+00
         -1   -1    0    0    0  501 -0.00000000000E+00  0.00000000000E+00  0.48942248302E+02  0.48942248302E+02  0.00000000000E+00 0. -1.
          1   -1    0    0  501    0  0.00000000000E+00 -0.00000000000E+00 -0.38794859585E+03  0.38794859585E+03  0.00000000000E+00 0. -1.
         35    2    1    2    0    0  0.00000000000E+00  0.00000000000E+00 -0.33900634754E+03  0.43689084415E+03  0.27558720222E+03 0.  0.
         25    1    3    3    0    0  0.17228974740E+02  0.56332301641E+02 -0.11652181054E+03  0.17733442449E+03  0.12000000000E+03 0.  0.
         25    1    3    3    0    0 -0.17228974740E+02 -0.56332301641E+02 -0.22248453700E+03  0.25955641965E+03  0.12000000000E+03 0.  0.
<mgrwt>
<rscale>  0 0.27558720E+03</rscale>
<asrwt>0</asrwt>
<pdfrwt beam="1">  1        1 0.59684398E-01 0.27558720E+03</pdfrwt>
<pdfrwt beam="2">  1       -1 0.75295768E-02 0.27558720E+03</pdfrwt>
<totfact> 0.59225913E+03</totfact>
</mgrwt>
</event>
<event>
 5    1  0.1132878E+001  0.2744995E+03  0.7818608E-02  0.1098732E+00
         -1   -1    0    0    0  501 -0.00000000000E+00  0.00000000000E+00  0.11897998103E+03  0.11897998103E+03  0.00000000000E+00 0.  1.
          1   -1    0    0  501    0  0.00000000000E+00 -0.00000000000E+00 -0.15832493583E+03  0.15832493583E+03  0.00000000000E+00 0.  1.
         35    2    1    2    0    0  0.00000000000E+00  0.00000000000E+00 -0.39344954799E+02  0.27730491685E+03  0.27449952904E+03 0.  0.
         25    1    3    3    0    0  0.51081767206E+02  0.33381935039E+02  0.73175563024E+01  0.13482302162E+03  0.12000000000E+03 0.  0.
         25    1    3    3    0    0 -0.51081767206E+02 -0.33381935039E+02 -0.46662511101E+02  0.14248189524E+03  0.12000000000E+03 0.  0.
<mgrwt>
<rscale>  0 0.27449953E+03</rscale>
<asrwt>0</asrwt>
<pdfrwt beam="1">  1        1 0.24357682E-01 0.27449953E+03</pdfrwt>
<pdfrwt beam="2">  1       -1 0.18304613E-01 0.27449953E+03</pdfrwt>
<totfact> 0.45800406E+03</totfact>
</mgrwt>
</event>
<event>
 5    1  0.1132878E+001  0.2750657E+03  0.7818608E-02  0.1098415E+00
         -1   -1    0    0    0  501 -0.00000000000E+00  0.00000000000E+00  0.13099983874E+03  0.13099983874E+03  0.00000000000E+00 0.  1.
          1   -1    0    0  501    0  0.00000000000E+00 -0.00000000000E+00 -0.14439164939E+03  0.14439164939E+03  0.00000000000E+00 0.  1.
         35    2    1    2    0    0  0.00000000000E+00  0.00000000000E+00 -0.13391810646E+02  0.27539148813E+03  0.27506568514E+03 0.  0.
         25    1    3    3    0    0 -0.46706768619E+02 -0.36380805456E+02  0.25125345906E+02  0.13614833178E+03  0.12000000000E+03 0.  0.
         25    1    3    3    0    0  0.46706768619E+02  0.36380805456E+02 -0.38517156552E+02  0.13924315635E+03  0.12000000000E+03 0.  0.
<mgrwt>
<rscale>  0 0.27506569E+03</rscale>
<asrwt>0</asrwt>
<pdfrwt beam="1">  1        1 0.22214100E-01 0.27506569E+03</pdfrwt>
<pdfrwt beam="2">  1       -1 0.20153821E-01 0.27506569E+03</pdfrwt>
<totfact> 0.44087225E+03</totfact>
</mgrwt>
</event>
<event>
 5    1  0.1132878E+001  0.2759816E+03  0.7818608E-02  0.1097904E+00
         -1   -1    0    0    0  501 -0.00000000000E+00  0.00000000000E+00  0.29542963452E+02  0.29542963452E+02  0.00000000000E+00 0.  1.
          1   -1    0    0  501    0  0.00000000000E+00 -0.00000000000E+00 -0.64453443578E+03  0.64453443578E+03  0.00000000000E+00 0.  1.
         35    2    1    2    0    0  0.00000000000E+00  0.00000000000E+00 -0.61499147233E+03  0.67407739924E+03  0.27598157388E+03 0.  0.
         25    1    3    3    0    0 -0.83099519310E+01 -0.44386096814E+02 -0.43209239307E+03  0.45071389710E+03  0.12000000000E+03 0.  0.
         25    1    3    3    0    0  0.83099519310E+01  0.44386096814E+02 -0.18289907927E+03  0.22336350214E+03  0.12000000000E+03 0.  0.
<mgrwt>
<rscale>  0 0.27598157E+03</rscale>
<asrwt>0</asrwt>
<pdfrwt beam="1">  1        1 0.99159145E-01 0.27598157E+03</pdfrwt>
<pdfrwt beam="2">  1       -1 0.45450712E-02 0.27598157E+03</pdfrwt>
<totfact> 0.64351121E+03</totfact>
</mgrwt>
</event>
<event>
 5    1  0.1132878E+001  0.2770003E+03  0.7818608E-02  0.1097339E+00
          1   -1    0    0  501    0  0.00000000000E+00  0.00000000000E+00  0.82972196970E+03  0.82972196970E+03  0.00000000000E+00 0. -1.
         -1   -1    0    0    0  501 -0.00000000000E+00 -0.00000000000E+00 -0.23118940691E+02  0.23118940691E+02  0.00000000000E+00 0. -1.
         35    2    1    2    0    0  0.00000000000E+00  0.00000000000E+00  0.80660302901E+03  0.85284091039E+03  0.27700031052E+03 0.  0.
         25    1    3    3    0    0 -0.43513180551E+02  0.35480457443E+02  0.27899725724E+03  0.30885551523E+03  0.12000000000E+03 0.  0.
         25    1    3    3    0    0  0.43513180551E+02 -0.35480457443E+02  0.52760577177E+03  0.54398539516E+03  0.12000000000E+03 0.  0.
<mgrwt>
<rscale>  0 0.27700031E+03</rscale>
<asrwt>0</asrwt>
<pdfrwt beam="1">  1        1 0.12764951E+00 0.27700031E+03</pdfrwt>
<pdfrwt beam="2">  1       -1 0.35567608E-02 0.27700031E+03</pdfrwt>
<totfact> 0.63670823E+03</totfact>
</mgrwt>
</event>
<event>
 5    1  0.1132878E+001  0.2739752E+03  0.7818608E-02  0.1099026E+00
          2   -1    0    0  501    0  0.00000000000E+00  0.00000000000E+00  0.55793053300E+03  0.55793053300E+03  0.00000000000E+00 0. -1.
         -2   -1    0    0    0  501 -0.00000000000E+00 -0.00000000000E+00 -0.33634305074E+02  0.33634305074E+02  0.00000000000E+00 0. -1.
         35    2    1    2    0    0  0.00000000000E+00  0.00000000000E+00  0.52429622793E+03  0.59156483808E+03  0.27397522339E+03 0.  0.
         25    1    3    3    0    0  0.22859118789E+02 -0.50011473034E+02  0.34124405823E+03  0.36588412650E+03  0.12000000000E+03 0.  0.
         25    1    3    3    0    0 -0.22859118789E+02  0.50011473034E+02  0.18305216970E+03  0.22568071157E+03  0.12000000000E+03 0.  0.
<mgrwt>
<rscale>  0 0.27397522E+03</rscale>
<asrwt>0</asrwt>
<pdfrwt beam="1">  1        2 0.85835460E-01 0.27397522E+03</pdfrwt>
<pdfrwt beam="2">  1       -2 0.51745089E-02 0.27397522E+03</pdfrwt>
<totfact> 0.10148499E+04</totfact>
</mgrwt>
</event>
<event>
 5    1  0.1132878E+001  0.2750414E+03  0.7818608E-02  0.1098428E+00
         -4   -1    0    0    0  501 -0.00000000000E+00  0.00000000000E+00  0.26475521302E+02  0.26475521302E+02  0.00000000000E+00 0. -1.
          4   -1    0    0  501    0  0.00000000000E+00 -0.00000000000E+00 -0.71431817392E+03  0.71431817392E+03  0.00000000000E+00 0. -1.
         35    2    1    2    0    0  0.00000000000E+00  0.00000000000E+00 -0.68784265261E+03  0.74079369522E+03  0.27504142255E+03 0.  0.
         25    1    3    3    0    0  0.19686672819E+01 -0.65390416660E+02 -0.30288236003E+03  0.33229129730E+03  0.12000000000E+03 0.  0.
         25    1    3    3    0    0 -0.19686672819E+01  0.65390416660E+02 -0.38496029258E+03  0.40850239792E+03  0.12000000000E+03 0.  0.
<mgrwt>
<rscale>  0 0.27504142E+03</rscale>
<asrwt>0</asrwt>
<pdfrwt beam="1">  1        4 0.10989509E+00 0.27504142E+03</pdfrwt>
<pdfrwt beam="2">  1       -4 0.40731578E-02 0.27504142E+03</pdfrwt>
<totfact> 0.42490182E+02</totfact>
</mgrwt>
</event>
<event>
 5    1  0.1132878E+001  0.2749251E+03  0.7818608E-02  0.1098493E+00
          2   -1    0    0  501    0  0.00000000000E+00  0.00000000000E+00  0.10548097957E+04  0.10548097957E+04  0.00000000000E+00 0. -1.
         -2   -1    0    0    0  501 -0.00000000000E+00 -0.00000000000E+00 -0.17914084795E+02  0.17914084795E+02  0.00000000000E+00 0. -1.
         35    2    1    2    0    0  0.00000000000E+00  0.00000000000E+00  0.10368957109E+04  0.10727238805E+04  0.27492509614E+03 0.  0.
         25    1    3    3    0    0 -0.14088813375E+02  0.61183383537E+02  0.42660435028E+03  0.44758593896E+03  0.12000000000E+03 0.  0.
         25    1    3    3    0    0  0.14088813375E+02 -0.61183383537E+02  0.61029136059E+03  0.62513794150E+03  0.12000000000E+03 0.  0.
<mgrwt>
<rscale>  0 0.27492510E+03</rscale>
<asrwt>0</asrwt>
<pdfrwt beam="1">  1        2 0.16227838E+00 0.27492510E+03</pdfrwt>
<pdfrwt beam="2">  1       -2 0.27560139E-02 0.27492510E+03</pdfrwt>
<totfact> 0.11661051E+04</totfact>
</mgrwt>
</event>
<event>
 5    1  0.1132878E+001  0.2768709E+03  0.7818608E-02  0.1097410E+00
          2   -1    0    0  501    0  0.00000000000E+00  0.00000000000E+00  0.19320866207E+03  0.19320866207E+03  0.00000000000E+00 0.  1.
         -2   -1    0    0    0  501 -0.00000000000E+00 -0.00000000000E+00 -0.99190012371E+02  0.99190012371E+02  0.00000000000E+00 0.  1.
         35    2    1    2    0    0  0.00000000000E+00  0.00000000000E+00  0.94018649695E+02  0.29239867444E+03  0.27687086940E+03 0.  0.
         25    1    3    3    0    0  0.34414844261E+02  0.44591231076E+02  0.48768965855E+01  0.13265196386E+03  0.12000000000E+03 0.  0.
         25    1    3    3    0    0 -0.34414844261E+02 -0.44591231076E+02  0.89141753110E+02  0.15974671058E+03  0.12000000000E+03 0.  0.
<mgrwt>
<rscale>  0 0.27687087E+03</rscale>
<asrwt>0</asrwt>
<pdfrwt beam="1">  1        2 0.29724409E-01 0.27687087E+03</pdfrwt>
<pdfrwt beam="2">  1       -2 0.15260002E-01 0.27687087E+03</pdfrwt>
<totfact> 0.58523155E+03</totfact>
</mgrwt>
</event>
<event>
 5    1  0.1132878E+001  0.2753628E+03  0.7818608E-02  0.1098249E+00
          1   -1    0    0  501    0  0.00000000000E+00  0.00000000000E+00  0.90667047621E+03  0.90667047621E+03  0.00000000000E+00 0. -1.
         -1   -1    0    0    0  501 -0.00000000000E+00 -0.00000000000E+00 -0.20907455137E+02  0.20907455137E+02  0.00000000000E+00 0. -1.
         35    2    1    2    0    0  0.00000000000E+00  0.00000000000E+00  0.88576302107E+03  0.92757793135E+03  0.27536283195E+03 0.  0.
         25    1    3    3    0    0 -0.11205355546E+02 -0.54075820410E+02  0.31213869589E+03  0.33893999442E+03  0.12000000000E+03 0.  0.
         25    1    3    3    0    0  0.11205355546E+02  0.54075820410E+02  0.57362432519E+03  0.58863793693E+03  0.12000000000E+03 0.  0.
<mgrwt>
<rscale>  0 0.27536283E+03</rscale>
<asrwt>0</asrwt>
<pdfrwt beam="1">  1        1 0.13948774E+00 0.27536283E+03</pdfrwt>
<pdfrwt beam="2">  1       -1 0.32165323E-02 0.27536283E+03</pdfrwt>
<totfact> 0.64110578E+03</totfact>
</mgrwt>
</event>
<event>
 5    1  0.1132878E+001  0.2764472E+03  0.7818608E-02  0.1097645E+00
          1   -1    0    0  501    0  0.00000000000E+00  0.00000000000E+00  0.47199639558E+03  0.47199639558E+03  0.00000000000E+00 0.  1.
         -1   -1    0    0    0  501 -0.00000000000E+00 -0.00000000000E+00 -0.40478634467E+02  0.40478634467E+02  0.00000000000E+00 0.  1.
         35    2    1    2    0    0  0.00000000000E+00  0.00000000000E+00  0.43151776111E+03  0.51247503005E+03  0.27644724319E+03 0.  0.
         25    1    3    3    0    0 -0.27484320423E+02 -0.62240236778E+02  0.23197658647E+03  0.26989325966E+03  0.12000000000E+03 0.  0.
         25    1    3    3    0    0  0.27484320423E+02  0.62240236778E+02  0.19954117465E+03  0.24258177039E+03  0.12000000000E+03 0.  0.
<mgrwt>
<rscale>  0 0.27644724E+03</rscale>
<asrwt>0</asrwt>
<pdfrwt beam="1">  1        1 0.72614826E-01 0.27644724E+03</pdfrwt>
<pdfrwt beam="2">  1       -1 0.62274826E-02 0.27644724E+03</pdfrwt>
<totfact> 0.61285794E+03</totfact>
</mgrwt>
</event>
<event>
 5    1  0.1132878E+001  0.2749358E+03  0.7818608E-02  0.1098487E+00
         -2   -1    0    0    0  501 -0.00000000000E+00  0.00000000000E+00  0.11368858980E+02  0.11368858980E+02  0.00000000000E+00 0. -1.
          2   -1    0    0  501    0  0.00000000000E+00 -0.00000000000E+00 -0.16622093023E+04  0.16622093023E+04  0.00000000000E+00 0. -1.
         35    2    1    2    0    0  0.00000000000E+00  0.00000000000E+00 -0.16508404433E+04  0.16735781613E+04  0.27493579726E+03 0.  0.
         25    1    3    3    0    0  0.63910955919E+02 -0.71870452445E+01 -0.94110176663E+03  0.95089894261E+03  0.12000000000E+03 0.  0.
         25    1    3    3    0    0 -0.63910955919E+02  0.71870452445E+01 -0.70973867671E+03  0.72267921869E+03  0.12000000000E+03 0.  0.
<mgrwt>
<rscale>  0 0.27493580E+03</rscale>
<asrwt>0</asrwt>
<pdfrwt beam="1">  1        2 0.25572439E+00 0.27493580E+03</pdfrwt>
<pdfrwt beam="2">  1       -2 0.17490560E-02 0.27493580E+03</pdfrwt>
<totfact> 0.10533749E+04</totfact>
</mgrwt>
</event>
<event>
 5    1  0.1132878E+001  0.2744246E+03  0.7818608E-02  0.1098774E+00
          1   -1    0    0  501    0  0.00000000000E+00  0.00000000000E+00  0.53569121024E+03  0.53569121024E+03  0.00000000000E+00 0. -1.
         -1   -1    0    0    0  501 -0.00000000000E+00 -0.00000000000E+00 -0.35145656609E+02  0.35145656609E+02  0.00000000000E+00 0. -1.
         35    2    1    2    0    0  0.00000000000E+00  0.00000000000E+00  0.50054555363E+03  0.57083686685E+03  0.27442462953E+03 0.  0.
         25    1    3    3    0    0 -0.19962344689E+02 -0.62379131767E+02  0.22587514354E+03  0.26402505895E+03  0.12000000000E+03 0.  0.
         25    1    3    3    0    0  0.19962344689E+02  0.62379131767E+02  0.27467041009E+03  0.30681180790E+03  0.12000000000E+03 0.  0.
<mgrwt>
<rscale>  0 0.27442463E+03</rscale>
<asrwt>0</asrwt>
<pdfrwt beam="1">  1        1 0.82414026E-01 0.27442463E+03</pdfrwt>
<pdfrwt beam="2">  1       -1 0.54070245E-02 0.27442463E+03</pdfrwt>
<totfact> 0.64052192E+03</totfact>
</mgrwt>
</event>
<event>
 5    1  0.1132878E+001  0.2764232E+03  0.7818608E-02  0.1097659E+00
          2   -1    0    0  501    0  0.00000000000E+00  0.00000000000E+00  0.86605682219E+03  0.86605682219E+03  0.00000000000E+00 0. -1.
         -2   -1    0    0    0  501 -0.00000000000E+00 -0.00000000000E+00 -0.22056810872E+02  0.22056810872E+02  0.00000000000E+00 0. -1.
         35    2    1    2    0    0  0.00000000000E+00  0.00000000000E+00  0.84400001132E+03  0.88811363306E+03  0.27642323731E+03 0.  0.
         25    1    3    3    0    0 -0.25896069119E+00  0.68297699813E+02  0.44175558146E+03  0.46283111024E+03  0.12000000000E+03 0.  0.
         25    1    3    3    0    0  0.25896069119E+00 -0.68297699813E+02  0.40224442986E+03  0.42528252282E+03  0.12000000000E+03 0.  0.
<mgrwt>
<rscale>  0 0.27642324E+03</rscale>
<asrwt>0</asrwt>
<pdfrwt beam="1">  1        2 0.13323949E+00 0.27642324E+03</pdfrwt>
<pdfrwt beam="2">  1       -2 0.33933562E-02 0.27642324E+03</pdfrwt>
<totfact> 0.11231268E+04</totfact>
</mgrwt>
</event>
<event>
 5    1  0.1132878E+001  0.2741543E+03  0.7818608E-02  0.1098925E+00
          1   -1    0    0  501    0  0.00000000000E+00  0.00000000000E+00  0.91690564429E+02  0.91690564429E+02  0.00000000000E+00 0. -1.
         -1   -1    0    0    0  501 -0.00000000000E+00 -0.00000000000E+00 -0.20492994904E+03  0.20492994904E+03  0.00000000000E+00 0. -1.
         35    2    1    2    0    0  0.00000000000E+00  0.00000000000E+00 -0.11323938461E+03  0.29662051347E+03  0.27415428281E+03 0.  0.
         25    1    3    3    0    0 -0.66208703884E+02 -0.12189774513E+01 -0.59054511474E+02  0.14923978592E+03  0.12000000000E+03 0.  0.
         25    1    3    3    0    0  0.66208703884E+02  0.12189774513E+01 -0.54184873135E+02  0.14738072755E+03  0.12000000000E+03 0.  0.
<mgrwt>
<rscale>  0 0.27415428E+03</rscale>
<asrwt>0</asrwt>
<pdfrwt beam="1">  1        1 0.14106241E-01 0.27415428E+03</pdfrwt>
<pdfrwt beam="2">  1       -1 0.31527684E-01 0.27415428E+03</pdfrwt>
<totfact> 0.37714928E+03</totfact>
</mgrwt>
</event>
<event>
 5    1  0.1132878E+001  0.2748179E+03  0.7818608E-02  0.1098553E+00
         -2   -1    0    0    0  501 -0.00000000000E+00  0.00000000000E+00  0.11623879991E+03  0.11623879991E+03  0.00000000000E+00 0.  1.
          2   -1    0    0  501    0  0.00000000000E+00 -0.00000000000E+00 -0.16243471026E+03  0.16243471026E+03  0.00000000000E+00 0.  1.
         35    2    1    2    0    0  0.00000000000E+00  0.00000000000E+00 -0.46195910356E+02  0.27867351017E+03  0.27481787267E+03 0.  0.
         25    1    3    3    0    0  0.51082061638E+02 -0.30352941754E+02 -0.54361296020E+02  0.14451930182E+03  0.12000000000E+03 0.  0.
         25    1    3    3    0    0 -0.51082061638E+02  0.30352941754E+02  0.81653856638E+01  0.13415420835E+03  0.12000000000E+03 0.  0.
<mgrwt>
<rscale>  0 0.27481787E+03</rscale>
<asrwt>0</asrwt>
<pdfrwt beam="1">  1        2 0.24989955E-01 0.27481787E+03</pdfrwt>
<pdfrwt beam="2">  1       -2 0.17882892E-01 0.27481787E+03</pdfrwt>
<totfact> 0.54402870E+03</totfact>
</mgrwt>
</event>
<event>
 5    1  0.1132878E+001  0.2762726E+03  0.7818608E-02  0.1097742E+00
          2   -1    0    0  501    0  0.00000000000E+00  0.00000000000E+00  0.47673960979E+03  0.47673960979E+03  0.00000000000E+00 0. -1.
         -2   -1    0    0    0  501 -0.00000000000E+00 -0.00000000000E+00 -0.40025271196E+02  0.40025271196E+02  0.00000000000E+00 0. -1.
         35    2    1    2    0    0  0.00000000000E+00  0.00000000000E+00  0.43671433859E+03  0.51676488098E+03  0.27627256231E+03 0.  0.
         25    1    3    3    0    0 -0.36701774210E+02 -0.18940056361E+02  0.32039551200E+03  0.34461432076E+03  0.12000000000E+03 0.  0.
         25    1    3    3    0    0  0.36701774210E+02  0.18940056361E+02  0.11631882660E+03  0.17215056022E+03  0.12000000000E+03 0.  0.
<mgrwt>
<rscale>  0 0.27627256E+03</rscale>
<asrwt>0</asrwt>
<pdfrwt beam="1">  1        2 0.73344551E-01 0.27627256E+03</pdfrwt>
<pdfrwt beam="2">  1       -2 0.61577344E-02 0.27627256E+03</pdfrwt>
<totfact> 0.92868825E+03</totfact>
</mgrwt>
</event>
<event>
 5    1  0.1132878E+001  0.2749160E+03  0.7818608E-02  0.1098499E+00
          2   -1    0    0  501    0  0.00000000000E+00  0.00000000000E+00  0.73838304471E+03  0.73838304471E+03  0.00000000000E+00 0. -1.
         -2   -1    0    0    0  501 -0.00000000000E+00 -0.00000000000E+00 -0.25589299945E+02  0.25589299945E+02  0.00000000000E+00 0. -1.
         35    2    1    2    0    0  0.00000000000E+00  0.00000000000E+00  0.71279374476E+03  0.76397234465E+03  0.27491602503E+03 0.  0.
         25    1    3    3    0    0 -0.56229982579E+02  0.29691385981E+02  0.41543300246E+03  0.43706746490E+03  0.12000000000E+03 0.  0.
         25    1    3    3    0    0  0.56229982579E+02 -0.29691385981E+02  0.29736074230E+03  0.32690487975E+03  0.12000000000E+03 0.  0.
<mgrwt>
<rscale>  0 0.27491603E+03</rscale>
<asrwt>0</asrwt>
<pdfrwt beam="1">  1        2 0.11359738E+00 0.27491603E+03</pdfrwt>
<pdfrwt beam="2">  1       -2 0.39368159E-02 0.27491603E+03</pdfrwt>
<totfact> 0.11012041E+04</totfact>
</mgrwt>
</event>
<event>
 5    1  0.1132878E+001  0.2745755E+03  0.7818608E-02  0.1098689E+00
         -2   -1    0    0    0  501 -0.00000000000E+00  0.00000000000E+00  0.11682443089E+02  0.11682443089E+02  0.00000000000E+00 0.  1.
          2   -1    0    0  501    0  0.00000000000E+00 -0.00000000000E+00 -0.16133549524E+04  0.16133549524E+04  0.00000000000E+00 0.  1.
         35    2    1    2    0    0  0.00000000000E+00  0.00000000000E+00 -0.16016725093E+04  0.16250373955E+04  0.27457550811E+03 0.  0.
         25    1    3    3    0    0  0.51078127555E+02  0.42031994399E+02 -0.75052538813E+03  0.76293120391E+03  0.12000000000E+03 0.  0.
         25    1    3    3    0    0 -0.51078127555E+02 -0.42031994399E+02 -0.85114712117E+03  0.86210619157E+03  0.12000000000E+03 0.  0.
<mgrwt>
<rscale>  0 0.27457551E+03</rscale>
<asrwt>0</asrwt>
<pdfrwt beam="1">  1        2 0.24820838E+00 0.27457551E+03</pdfrwt>
<pdfrwt beam="2">  1       -2 0.17972995E-02 0.27457551E+03</pdfrwt>
<totfact> 0.10741169E+04</totfact>
</mgrwt>
</event>
<event>
 5    1  0.1132878E+001  0.2760215E+03  0.7818608E-02  0.1097882E+00
         -2   -1    0    0    0  501 -0.00000000000E+00  0.00000000000E+00  0.25459625441E+02  0.25459625441E+02  0.00000000000E+00 0. -1.
          2   -1    0    0  501    0  0.00000000000E+00 -0.00000000000E+00 -0.74812434143E+03  0.74812434143E+03  0.00000000000E+00 0. -1.
         35    2    1    2    0    0  0.00000000000E+00  0.00000000000E+00 -0.72266471599E+03  0.77358396687E+03  0.27602148841E+03 0.  0.
         25    1    3    3    0    0  0.19644375496E+01  0.60386324789E+02 -0.27285653050E+03  0.30413985841E+03  0.12000000000E+03 0.  0.
         25    1    3    3    0    0 -0.19644375496E+01 -0.60386324789E+02 -0.44980818549E+03  0.46944410846E+03  0.12000000000E+03 0.  0.
<mgrwt>
<rscale>  0 0.27602149E+03</rscale>
<asrwt>0</asrwt>
<pdfrwt beam="1">  1        2 0.11509606E+00 0.27602149E+03</pdfrwt>
<pdfrwt beam="2">  1       -2 0.39168653E-02 0.27602149E+03</pdfrwt>
<totfact> 0.10919387E+04</totfact>
</mgrwt>
</event>
<event>
 5    1  0.1132878E+001  0.2769451E+03  0.7818608E-02  0.1097369E+00
         -2   -1    0    0    0  501 -0.00000000000E+00  0.00000000000E+00  0.10494512870E+02  0.10494512870E+02  0.00000000000E+00 0. -1.
          2   -1    0    0  501    0  0.00000000000E+00 -0.00000000000E+00 -0.18271122271E+04  0.18271122271E+04  0.00000000000E+00 0. -1.
         35    2    1    2    0    0  0.00000000000E+00  0.00000000000E+00 -0.18166177143E+04  0.18376067400E+04  0.27694514102E+03 0.  0.
         25    1    3    3    0    0 -0.24156402952E+02  0.61938586807E+02 -0.10332798674E+04  0.10423469694E+04  0.12000000000E+03 0.  0.
         25    1    3    3    0    0  0.24156402952E+02 -0.61938586807E+02 -0.78333784687E+03  0.79525977056E+03  0.12000000000E+03 0.  0.
<mgrwt>
<rscale>  0 0.27694514E+03</rscale>
<asrwt>0</asrwt>
<pdfrwt beam="1">  1        2 0.28109394E+00 0.27694514E+03</pdfrwt>
<pdfrwt beam="2">  1       -2 0.16145418E-02 0.27694514E+03</pdfrwt>
<totfact> 0.97016234E+03</totfact>
</mgrwt>
</event>
<event>
 5    1  0.1132878E+001  0.2778814E+03  0.7818608E-02  0.1096852E+00
         -2   -1    0    0    0  501 -0.00000000000E+00  0.00000000000E+00  0.88374616452E+02  0.88374616452E+02  0.00000000000E+00 0.  1.
          2   -1    0    0  501    0  0.00000000000E+00 -0.00000000000E+00 -0.21843969720E+03  0.21843969720E+03  0.00000000000E+00 0.  1.
         35    2    1    2    0    0  0.00000000000E+00  0.00000000000E+00 -0.13006508074E+03  0.30681431365E+03  0.27788144564E+03 0.  0.
         25    1    3    3    0    0 -0.26821669920E+02 -0.15791574586E+00  0.63955203948E+01  0.12312729022E+03  0.12000000000E+03 0.  0.
         25    1    3    3    0    0  0.26821669920E+02  0.15791574586E+00 -0.13646060114E+03  0.18368702343E+03  0.12000000000E+03 0.  0.
<mgrwt>
<rscale>  0 0.27788145E+03</rscale>
<asrwt>0</asrwt>
<pdfrwt beam="1">  1        2 0.33606107E-01 0.27788145E+03</pdfrwt>
<pdfrwt beam="2">  1       -2 0.13596095E-01 0.27788145E+03</pdfrwt>
<totfact> 0.61886444E+03</totfact>
</mgrwt>
</event>
<event>
 5    1  0.1132878E+001  0.2758479E+03  0.7818608E-02  0.1097979E+00
          2   -1    0    0  501    0  0.00000000000E+00  0.00000000000E+00  0.12448438356E+02  0.12448438356E+02  0.00000000000E+00 0.  1.
         -2   -1    0    0    0  501 -0.00000000000E+00 -0.00000000000E+00 -0.15281447942E+04  0.15281447942E+04  0.00000000000E+00 0.  1.
         35    2    1    2    0    0  0.00000000000E+00  0.00000000000E+00 -0.15156963559E+04  0.15405932326E+04  0.27584790207E+03 0.  0.
         25    1    3    3    0    0  0.87640781204E+01  0.67215052015E+02 -0.72811449075E+03  0.74104344267E+03  0.12000000000E+03 0.  0.
         25    1    3    3    0    0 -0.87640781204E+01 -0.67215052015E+02 -0.78758186512E+03  0.79954978992E+03  0.12000000000E+03 0.  0.
<mgrwt>
<rscale>  0 0.27584790E+03</rscale>
<asrwt>0</asrwt>
<pdfrwt beam="1">  1        2 0.19151445E-02 0.27584790E+03</pdfrwt>
<pdfrwt beam="2">  1       -2 0.23509918E+00 0.27584790E+03</pdfrwt>
<totfact> 0.51119230E+02</totfact>
</mgrwt>
</event>
<event>
 5    1  0.1132878E+001  0.2745325E+03  0.7818608E-02  0.1098713E+00
          2   -1    0    0  501    0  0.00000000000E+00  0.00000000000E+00  0.58171004970E+03  0.58171004970E+03  0.00000000000E+00 0. -1.
         -2   -1    0    0    0  501 -0.00000000000E+00 -0.00000000000E+00 -0.32390750459E+02  0.32390750459E+02  0.00000000000E+00 0. -1.
         35    2    1    2    0    0  0.00000000000E+00  0.00000000000E+00  0.54931929924E+03  0.61410080015E+03  0.27453251217E+03 0.  0.
         25    1    3    3    0    0 -0.65116378027E+02  0.66861288710E+01  0.24661552872E+03  0.28196465384E+03  0.12000000000E+03 0.  0.
         25    1    3    3    0    0  0.65116378027E+02 -0.66861288710E+01  0.30270377052E+03  0.33213614632E+03  0.12000000000E+03 0.  0.
<mgrwt>
<rscale>  0 0.27453251E+03</rscale>
<asrwt>0</asrwt>
<pdfrwt beam="1">  1        2 0.89493846E-01 0.27453251E+03</pdfrwt>
<pdfrwt beam="2">  1       -2 0.49831928E-02 0.27453251E+03</pdfrwt>
<totfact> 0.10245208E+04</totfact>
</mgrwt>
</event>
<event>
 5    1  0.1132878E+001  0.2747890E+03  0.7818608E-02  0.1098570E+00
          2   -1    0    0  501    0  0.00000000000E+00  0.00000000000E+00  0.85749833174E+03  0.85749833174E+03  0.00000000000E+00 0. -1.
         -2   -1    0    0    0  501 -0.00000000000E+00 -0.00000000000E+00 -0.22014323858E+02  0.22014323858E+02  0.00000000000E+00 0. -1.
         35    2    1    2    0    0  0.00000000000E+00  0.00000000000E+00  0.83548400789E+03  0.87951265560E+03  0.27478898073E+03 0.  0.
         25    1    3    3    0    0  0.49432142935E+02  0.21496515026E+01  0.56191809455E+03  0.57671492329E+03  0.12000000000E+03 0.  0.
         25    1    3    3    0    0 -0.49432142935E+02 -0.21496515026E+01  0.27356591334E+03  0.30279773232E+03  0.12000000000E+03 0.  0.
<mgrwt>
<rscale>  0 0.27478898E+03</rscale>
<asrwt>0</asrwt>
<pdfrwt beam="1">  1        2 0.13192279E+00 0.27478898E+03</pdfrwt>
<pdfrwt beam="2">  1       -2 0.33868197E-02 0.27478898E+03</pdfrwt>
<totfact> 0.11409224E+04</totfact>
</mgrwt>
</event>
<event>
 5    1  0.1132878E+001  0.2762684E+03  0.7818608E-02  0.1097745E+00
         -1   -1    0    0    0  501 -0.00000000000E+00  0.00000000000E+00  0.23706553722E+03  0.23706553722E+03  0.00000000000E+00 0.  1.
          1   -1    0    0  501    0  0.00000000000E+00 -0.00000000000E+00 -0.80488521043E+02  0.80488521043E+02  0.00000000000E+00 0.  1.
         35    2    1    2    0    0  0.00000000000E+00  0.00000000000E+00  0.15657701617E+03  0.31755405826E+03  0.27626838024E+03 0.  0.
         25    1    3    3    0    0 -0.54896012278E+02 -0.86927618487E+01  0.32427155318E+02  0.13616407997E+03  0.12000000000E+03 0.  0.
         25    1    3    3    0    0  0.54896012278E+02  0.86927618487E+01  0.12414986086E+03  0.18138997829E+03  0.12000000000E+03 0.  0.
<mgrwt>
<rscale>  0 0.27626838E+03</rscale>
<asrwt>0</asrwt>
<pdfrwt beam="1">  1        1 0.12382849E-01 0.27626838E+03</pdfrwt>
<pdfrwt beam="2">  1       -1 0.36471621E-01 0.27626838E+03</pdfrwt>
<totfact> 0.34833338E+03</totfact>
</mgrwt>
</event>
<event>
 5    1  0.1132878E+001  0.2744799E+03  0.7818608E-02  0.1098743E+00
         -2   -1    0    0    0  501 -0.00000000000E+00  0.00000000000E+00  0.15842878839E+03  0.15842878839E+03  0.00000000000E+00 0. -1.
          2   -1    0    0  501    0  0.00000000000E+00 -0.00000000000E+00 -0.11888497449E+03  0.11888497449E+03  0.00000000000E+00 0. -1.
         35    2    1    2    0    0  0.00000000000E+00  0.00000000000E+00  0.39543813902E+02  0.27731376289E+03  0.27447988974E+03 0.  0.
         25    1    3    3    0    0 -0.19445591849E+02 -0.62094448975E+01 -0.44271146811E+02  0.12952460264E+03  0.12000000000E+03 0.  0.
         25    1    3    3    0    0  0.19445591849E+02  0.62094448975E+01  0.83814960713E+02  0.14778916025E+03  0.12000000000E+03 0.  0.
<mgrwt>
<rscale>  0 0.27447989E+03</rscale>
<asrwt>0</asrwt>
<pdfrwt beam="1">  1        2 0.18289996E-01 0.27447989E+03</pdfrwt>
<pdfrwt beam="2">  1       -2 0.24373660E-01 0.27447989E+03</pdfrwt>
<totfact> 0.45527283E+03</totfact>
</mgrwt>
</event>
<event>
 5    1  0.1132878E+001  0.2604852E+03  0.7818608E-02  0.1106852E+00
          1   -1    0    0  501    0  0.00000000000E+00  0.00000000000E+00  0.99248817912E+03  0.99248817912E+03  0.00000000000E+00 0.  1.
         -1   -1    0    0    0  501 -0.00000000000E+00 -0.00000000000E+00 -0.17091517455E+02  0.17091517455E+02  0.00000000000E+00 0.  1.
         35    2    1    2    0    0  0.00000000000E+00  0.00000000000E+00  0.97539666166E+03  0.10095796966E+04  0.26048515533E+03 0.  0.
         25    1    3    3    0    0 -0.15584521380E+02 -0.21075868073E+02  0.65557136317E+03  0.66697892150E+03  0.12000000000E+03 0.  0.
         25    1    3    3    0    0  0.15584521380E+02  0.21075868073E+02  0.31982529849E+03  0.34260077507E+03  0.12000000000E+03 0.  0.
<mgrwt>
<rscale>  0 0.26048516E+03</rscale>
<asrwt>0</asrwt>
<pdfrwt beam="1">  1        1 0.15269044E+00 0.26048516E+03</pdfrwt>
<pdfrwt beam="2">  1       -1 0.26294650E-02 0.26048516E+03</pdfrwt>
<totfact> 0.74062858E+03</totfact>
</mgrwt>
</event>
<event>
 5    1  0.1132878E+001  0.2745945E+03  0.7818608E-02  0.1098678E+00
          1   -1    0    0  501    0  0.00000000000E+00  0.00000000000E+00  0.10226172718E+04  0.10226172718E+04  0.00000000000E+00 0.  1.
         -1   -1    0    0    0  501 -0.00000000000E+00 -0.00000000000E+00 -0.18433613030E+02  0.18433613030E+02  0.00000000000E+00 0.  1.
         35    2    1    2    0    0  0.00000000000E+00  0.00000000000E+00  0.10041836588E+04  0.10410508849E+04  0.27459447239E+03 0.  0.
         25    1    3    3    0    0  0.36559145721E+01  0.41742883124E+02  0.30528727633E+03  0.33069042183E+03  0.12000000000E+03 0.  0.
         25    1    3    3    0    0 -0.36559145721E+01 -0.41742883124E+02  0.69889638248E+03  0.71036046304E+03  0.12000000000E+03 0.  0.
<mgrwt>
<rscale>  0 0.27459447E+03</rscale>
<asrwt>0</asrwt>
<pdfrwt beam="1">  1        1 0.15732569E+00 0.27459447E+03</pdfrwt>
<pdfrwt beam="2">  1       -1 0.28359413E-02 0.27459447E+03</pdfrwt>
<totfact> 0.63004507E+03</totfact>
</mgrwt>
</event>
<event>
 5    1  0.1132878E+001  0.2747742E+03  0.7818608E-02  0.1098578E+00
          1   -1    0    0  501    0  0.00000000000E+00  0.00000000000E+00  0.37662894427E+03  0.37662894427E+03  0.00000000000E+00 0.  1.
         -1   -1    0    0    0  501 -0.00000000000E+00 -0.00000000000E+00 -0.50116203057E+02  0.50116203057E+02  0.00000000000E+00 0.  1.
         35    2    1    2    0    0  0.00000000000E+00  0.00000000000E+00  0.32651274121E+03  0.42674514732E+03  0.27477418109E+03 0.  0.
         25    1    3    3    0    0 -0.65969315906E+02 -0.11569010859E+01  0.14610746009E+03  0.20025153921E+03  0.12000000000E+03 0.  0.
         25    1    3    3    0    0  0.65969315906E+02  0.11569010859E+01  0.18040528112E+03  0.22649360811E+03  0.12000000000E+03 0.  0.
<mgrwt>
<rscale>  0 0.27477418E+03</rscale>
<asrwt>0</asrwt>
<pdfrwt beam="1">  1        1 0.57942913E-01 0.27477418E+03</pdfrwt>
<pdfrwt beam="2">  1       -1 0.77101853E-02 0.27477418E+03</pdfrwt>
<totfact> 0.59319947E+03</totfact>
</mgrwt>
</event>
<event>
 5    1  0.1132878E+001  0.2712817E+03  0.7818608E-02  0.1100548E+00
          2   -1    0    0  501    0  0.00000000000E+00  0.00000000000E+00  0.17609048890E+03  0.17609048890E+03  0.00000000000E+00 0.  1.
         -2   -1    0    0    0  501 -0.00000000000E+00 -0.00000000000E+00 -0.10448288004E+03  0.10448288004E+03  0.00000000000E+00 0.  1.
         35    2    1    2    0    0  0.00000000000E+00  0.00000000000E+00  0.71607608861E+02  0.28057336894E+03  0.27128170913E+03 0.  0.
         25    1    3    3    0    0  0.45725511944E+02 -0.89126579194E+00 -0.93590424771E+01  0.12876027521E+03  0.12000000000E+03 0.  0.
         25    1    3    3    0    0 -0.45725511944E+02  0.89126579194E+00  0.80966651338E+02  0.15181309372E+03  0.12000000000E+03 0.  0.
<mgrwt>
<rscale>  0 0.27128171E+03</rscale>
<asrwt>0</asrwt>
<pdfrwt beam="1">  1        2 0.27090844E-01 0.27128171E+03</pdfrwt>
<pdfrwt beam="2">  1       -2 0.16074289E-01 0.27128171E+03</pdfrwt>
<totfact> 0.59423848E+03</totfact>
</mgrwt>
</event>
<event>
 5    1  0.1132878E+001  0.2731113E+03  0.7818608E-02  0.1099512E+00
         -2   -1    0    0    0  501 -0.00000000000E+00  0.00000000000E+00  0.15935369596E+02  0.15935369596E+02  0.00000000000E+00 0.  1.
          2   -1    0    0  501    0  0.00000000000E+00 -0.00000000000E+00 -0.11701923846E+04  0.11701923846E+04  0.00000000000E+00 0.  1.
         35    2    1    2    0    0  0.00000000000E+00  0.00000000000E+00 -0.11542570150E+04  0.11861277542E+04  0.27311131904E+03 0.  0.
         25    1    3    3    0    0 -0.39137439403E+02  0.48760391647E+02 -0.65698967762E+03  0.67077921215E+03  0.12000000000E+03 0.  0.
         25    1    3    3    0    0  0.39137439403E+02 -0.48760391647E+02 -0.49726733734E+03  0.51534854201E+03  0.12000000000E+03 0.  0.
<mgrwt>
<rscale>  0 0.27311132E+03</rscale>
<asrwt>0</asrwt>
<pdfrwt beam="1">  1        2 0.18002965E+00 0.27311132E+03</pdfrwt>
<pdfrwt beam="2">  1       -2 0.24515946E-02 0.27311132E+03</pdfrwt>
<totfact> 0.11870439E+04</totfact>
</mgrwt>
</event>
<event>
 4    1  0.1132878E+001  0.4060039E+03  0.7818608E-02  0.1041720E+00
         -2   -1    0    0    0  501 -0.00000000000E+00  0.00000000000E+00  0.40790746618E+02  0.40790746618E+02  0.00000000000E+00 0.  1.
          2   -1    0    0  501    0  0.00000000000E+00 -0.00000000000E+00 -0.10102730189E+04  0.10102730189E+04  0.00000000000E+00 0.  1.
         25    1    1    2    0    0  0.88021098260E+02  0.12698848158E+03 -0.34446716973E+03  0.39614570453E+03  0.12000000000E+03 0.  0.
         25    1    1    2    0    0 -0.88021098260E+02 -0.12698848158E+03 -0.62501510257E+03  0.65491806101E+03  0.12000000000E+03 0.  0.
<mgrwt>
<rscale>  0 0.40600390E+03</rscale>
<asrwt>0</asrwt>
<pdfrwt beam="1">  1        2 0.15542659E+00 0.40600390E+03</pdfrwt>
<pdfrwt beam="2">  1       -2 0.62755004E-02 0.40600390E+03</pdfrwt>
<totfact> 0.35874632E+03</totfact>
</mgrwt>
</event>
<event>
 5    1  0.1132878E+001  0.2754836E+03  0.7818608E-02  0.1098182E+00
          2   -1    0    0  501    0  0.00000000000E+00  0.00000000000E+00  0.67921194268E+02  0.67921194268E+02  0.00000000000E+00 0. -1.
         -2   -1    0    0    0  501 -0.00000000000E+00 -0.00000000000E+00 -0.27933558523E+03  0.27933558523E+03  0.00000000000E+00 0. -1.
         35    2    1    2    0    0  0.00000000000E+00  0.00000000000E+00 -0.21141439096E+03  0.34725677950E+03  0.27548362238E+03 0.  0.
         25    1    3    3    0    0 -0.34160891865E+02 -0.29623451134E+02 -0.16908956797E+03  0.21221639283E+03  0.12000000000E+03 0.  0.
         25    1    3    3    0    0  0.34160891865E+02  0.29623451134E+02 -0.42324822995E+02  0.13504038667E+03  0.12000000000E+03 0.  0.
<mgrwt>
<rscale>  0 0.27548362E+03</rscale>
<asrwt>0</asrwt>
<pdfrwt beam="1">  1        2 0.10449414E-01 0.27548362E+03</pdfrwt>
<pdfrwt beam="2">  1       -2 0.42974707E-01 0.27548362E+03</pdfrwt>
<totfact> 0.31314880E+03</totfact>
</mgrwt>
</event>
<event>
 5    1  0.1132878E+001  0.2750711E+03  0.7818608E-02  0.1098412E+00
          2   -1    0    0  501    0  0.00000000000E+00  0.00000000000E+00  0.13808236115E+04  0.13808236115E+04  0.00000000000E+00 0. -1.
         -2   -1    0    0    0  501 -0.00000000000E+00 -0.00000000000E+00 -0.13699091195E+02  0.13699091195E+02  0.00000000000E+00 0. -1.
         35    2    1    2    0    0  0.00000000000E+00  0.00000000000E+00  0.13671245203E+04  0.13945227027E+04  0.27507110773E+03 0.  0.
         25    1    3    3    0    0 -0.83372200083E+01 -0.58467736686E+02  0.84611199867E+03  0.85661747576E+03  0.12000000000E+03 0.  0.
         25    1    3    3    0    0  0.83372200083E+01  0.58467736686E+02  0.52101252160E+03  0.53790522691E+03  0.12000000000E+03 0.  0.
<mgrwt>
<rscale>  0 0.27507111E+03</rscale>
<asrwt>0</asrwt>
<pdfrwt beam="1">  1        2 0.21243429E+00 0.27507111E+03</pdfrwt>
<pdfrwt beam="2">  1       -2 0.21075536E-02 0.27507111E+03</pdfrwt>
<totfact> 0.11324585E+04</totfact>
</mgrwt>
</event>
<event>
 5    1  0.1132878E+001  0.2754383E+03  0.7818608E-02  0.1098207E+00
          1   -1    0    0  501    0  0.00000000000E+00  0.00000000000E+00  0.15549767400E+03  0.15549767400E+03  0.00000000000E+00 0. -1.
         -1   -1    0    0    0  501 -0.00000000000E+00 -0.00000000000E+00 -0.12197331922E+03  0.12197331922E+03  0.00000000000E+00 0. -1.
         35    2    1    2    0    0  0.00000000000E+00  0.00000000000E+00  0.33524354777E+02  0.27747099322E+03  0.27543832289E+03 0.  0.
         25    1    3    3    0    0 -0.35280802722E+02 -0.38761471177E+02  0.59731154958E+02  0.14392705639E+03  0.12000000000E+03 0.  0.
         25    1    3    3    0    0  0.35280802722E+02  0.38761471177E+02 -0.26206800180E+02  0.13354393683E+03  0.12000000000E+03 0.  0.
<mgrwt>
<rscale>  0 0.27543832E+03</rscale>
<asrwt>0</asrwt>
<pdfrwt beam="1">  1        1 0.23922719E-01 0.27543832E+03</pdfrwt>
<pdfrwt beam="2">  1       -1 0.18765126E-01 0.27543832E+03</pdfrwt>
<totfact> 0.45027284E+03</totfact>
</mgrwt>
</event>
<event>
 5    1  0.1132878E+001  0.2751484E+03  0.7818608E-02  0.1098369E+00
          1   -1    0    0  501    0  0.00000000000E+00  0.00000000000E+00  0.18335057667E+04  0.18335057667E+04  0.00000000000E+00 0.  1.
         -1   -1    0    0    0  501 -0.00000000000E+00 -0.00000000000E+00 -0.10322659610E+02  0.10322659610E+02  0.00000000000E+00 0.  1.
         35    2    1    2    0    0  0.00000000000E+00  0.00000000000E+00  0.18231831070E+04  0.18438284263E+04  0.27514836668E+03 0.  0.
         25    1    3    3    0    0  0.58169882816E+02  0.19532396028E+02  0.72668097372E+03  0.73907407432E+03  0.12000000000E+03 0.  0.
         25    1    3    3    0    0 -0.58169882816E+02 -0.19532396028E+02  0.10965021333E+04  0.11047543520E+04  0.12000000000E+03 0.  0.
<mgrwt>
<rscale>  0 0.27514837E+03</rscale>
<asrwt>0</asrwt>
<pdfrwt beam="1">  1        1 0.28207755E+00 0.27514837E+03</pdfrwt>
<pdfrwt beam="2">  1       -1 0.15881029E-02 0.27514837E+03</pdfrwt>
<totfact> 0.41563444E+03</totfact>
</mgrwt>
</event>
<event>
 5    1  0.1132878E+001  0.2696273E+03  0.7818608E-02  0.1101493E+00
         -1   -1    0    0    0  501 -0.00000000000E+00  0.00000000000E+00  0.67748677997E+02  0.67748677997E+02  0.00000000000E+00 0.  1.
          1   -1    0    0  501    0  0.00000000000E+00 -0.00000000000E+00 -0.26826671773E+03  0.26826671773E+03  0.00000000000E+00 0.  1.
         35    2    1    2    0    0  0.00000000000E+00  0.00000000000E+00 -0.20051803973E+03  0.33601539573E+03  0.26962726477E+03 0.  0.
         25    1    3    3    0    0 -0.57851133416E+02 -0.14520543502E+02 -0.81896133745E+02  0.15704959899E+03  0.12000000000E+03 0.  0.
         25    1    3    3    0    0  0.57851133416E+02  0.14520543502E+02 -0.11862190599E+03  0.17896579674E+03  0.12000000000E+03 0.  0.
<mgrwt>
<rscale>  0 0.26962726E+03</rscale>
<asrwt>0</asrwt>
<pdfrwt beam="1">  1        1 0.41271803E-01 0.26962726E+03</pdfrwt>
<pdfrwt beam="2">  1       -1 0.10422873E-01 0.26962726E+03</pdfrwt>
<totfact> 0.57245081E+03</totfact>
</mgrwt>
</event>
<event>
 5    1  0.1132878E+001  0.2749345E+03  0.7818608E-02  0.1098488E+00
          1   -1    0    0  501    0  0.00000000000E+00  0.00000000000E+00  0.21298186720E+04  0.21298186720E+04  0.00000000000E+00 0.  1.
         -1   -1    0    0    0  501 -0.00000000000E+00 -0.00000000000E+00 -0.88727038154E+01  0.88727038154E+01  0.00000000000E+00 0.  1.
         35    2    1    2    0    0  0.00000000000E+00  0.00000000000E+00  0.21209459682E+04  0.21386913758E+04  0.27493453953E+03 0.  0.
         25    1    3    3    0    0 -0.86564952223E+01 -0.41054340769E+02  0.14674265187E+04  0.14729225986E+04  0.12000000000E+03 0.  0.
         25    1    3    3    0    0  0.86564952223E+01  0.41054340769E+02  0.65351944952E+03  0.66576877721E+03  0.12000000000E+03 0.  0.
<mgrwt>
<rscale>  0 0.27493454E+03</rscale>
<asrwt>0</asrwt>
<pdfrwt beam="1">  1        1 0.32766400E+00 0.27493454E+03</pdfrwt>
<pdfrwt beam="2">  1       -1 0.13650330E-02 0.27493454E+03</pdfrwt>
<totfact> 0.33256355E+03</totfact>
</mgrwt>
</event>
<event>
 5    1  0.1132878E+001  0.2753292E+03  0.7818608E-02  0.1098268E+00
         -2   -1    0    0    0  501 -0.00000000000E+00  0.00000000000E+00  0.93867737318E+02  0.93867737318E+02  0.00000000000E+00 0.  1.
          2   -1    0    0  501    0  0.00000000000E+00 -0.00000000000E+00 -0.20189627175E+03  0.20189627175E+03  0.00000000000E+00 0.  1.
         35    2    1    2    0    0  0.00000000000E+00  0.00000000000E+00 -0.10802853443E+03  0.29576400907E+03  0.27532922985E+03 0.  0.
         25    1    3    3    0    0  0.66378499348E+02  0.10397895455E+02 -0.47451428545E+02  0.14548491151E+03  0.12000000000E+03 0.  0.
         25    1    3    3    0    0 -0.66378499348E+02 -0.10397895455E+02 -0.60577105887E+02  0.15027909756E+03  0.12000000000E+03 0.  0.
<mgrwt>
<rscale>  0 0.27532923E+03</rscale>
<asrwt>0</asrwt>
<pdfrwt beam="1">  1        2 0.31060965E-01 0.27532923E+03</pdfrwt>
<pdfrwt beam="2">  1       -2 0.14441190E-01 0.27532923E+03</pdfrwt>
<totfact> 0.61069529E+03</totfact>
</mgrwt>
</event>
<event>
 5    1  0.1132878E+001  0.2754253E+03  0.7818608E-02  0.1098214E+00
          4   -1    0    0  501    0  0.00000000000E+00  0.00000000000E+00  0.27128214354E+03  0.27128214354E+03  0.00000000000E+00 0.  1.
         -4   -1    0    0    0  501 -0.00000000000E+00 -0.00000000000E+00 -0.69907950212E+02  0.69907950212E+02  0.00000000000E+00 0.  1.
         35    2    1    2    0    0  0.00000000000E+00  0.00000000000E+00  0.20137419333E+03  0.34119009375E+03  0.27542533350E+03 0.  0.
         25    1    3    3    0    0  0.49799188570E+02  0.20449250260E+02  0.50114597565E+02  0.14074659466E+03  0.12000000000E+03 0.  0.
         25    1    3    3    0    0 -0.49799188570E+02 -0.20449250260E+02  0.15125959576E+03  0.20044349909E+03  0.12000000000E+03 0.  0.
<mgrwt>
<rscale>  0 0.27542533E+03</rscale>
<asrwt>0</asrwt>
<pdfrwt beam="1">  1        4 0.41735714E-01 0.27542533E+03</pdfrwt>
<pdfrwt beam="2">  1       -4 0.10755069E-01 0.27542533E+03</pdfrwt>
<totfact> 0.70276745E+02</totfact>
</mgrwt>
</event>
<event>
 5    1  0.1132878E+001  0.2752045E+03  0.7818608E-02  0.1098337E+00
          1   -1    0    0  501    0  0.00000000000E+00  0.00000000000E+00  0.61963488697E+03  0.61963488697E+03  0.00000000000E+00 0.  1.
         -1   -1    0    0    0  501 -0.00000000000E+00 -0.00000000000E+00 -0.30557318825E+02  0.30557318825E+02  0.00000000000E+00 0.  1.
         35    2    1    2    0    0  0.00000000000E+00  0.00000000000E+00  0.58907756815E+03  0.65019220580E+03  0.27520451157E+03 0.  0.
         25    1    3    3    0    0 -0.34347460658E+02 -0.21944546437E+02  0.42117539669E+03  0.43982954193E+03  0.12000000000E+03 0.  0.
         25    1    3    3    0    0  0.34347460658E+02  0.21944546437E+02  0.16790217146E+03  0.21036266387E+03  0.12000000000E+03 0.  0.
<mgrwt>
<rscale>  0 0.27520451E+03</rscale>
<asrwt>0</asrwt>
<pdfrwt beam="1">  1        1 0.95328434E-01 0.27520451E+03</pdfrwt>
<pdfrwt beam="2">  1       -1 0.47011265E-02 0.27520451E+03</pdfrwt>
<totfact> 0.64676337E+03</totfact>
</mgrwt>
</event>
<event>
 5    1  0.1132878E+001  0.2744705E+03  0.7818608E-02  0.1098748E+00
          2   -1    0    0  501    0  0.00000000000E+00  0.00000000000E+00  0.14250364266E+04  0.14250364266E+04  0.00000000000E+00 0.  1.
         -2   -1    0    0    0  501 -0.00000000000E+00 -0.00000000000E+00 -0.13216161800E+02  0.13216161800E+02  0.00000000000E+00 0.  1.
         35    2    1    2    0    0  0.00000000000E+00  0.00000000000E+00  0.14118202648E+04  0.14382525884E+04  0.27447048646E+03 0.  0.
         25    1    3    3    0    0  0.14606947552E+02 -0.44400064388E+02  0.45741761215E+03  0.47520058980E+03  0.12000000000E+03 0.  0.
         25    1    3    3    0    0 -0.14606947552E+02  0.44400064388E+02  0.95440265262E+03  0.96305199858E+03  0.12000000000E+03 0.  0.
<mgrwt>
<rscale>  0 0.27447049E+03</rscale>
<asrwt>0</asrwt>
<pdfrwt beam="1">  1        2 0.21923625E+00 0.27447049E+03</pdfrwt>
<pdfrwt beam="2">  1       -2 0.20332568E-02 0.27447049E+03</pdfrwt>
<totfact> 0.11296769E+04</totfact>
</mgrwt>
</event>
<event>
 5    1  0.1132878E+001  0.2751871E+03  0.7818608E-02  0.1098347E+00
          1   -1    0    0  501    0  0.00000000000E+00  0.00000000000E+00  0.87685741966E+02  0.87685741966E+02  0.00000000000E+00 0.  1.
         -1   -1    0    0    0  501 -0.00000000000E+00 -0.00000000000E+00 -0.21590724374E+03  0.21590724374E+03  0.00000000000E+00 0.  1.
         35    2    1    2    0    0  0.00000000000E+00  0.00000000000E+00 -0.12822150177E+03  0.30359298571E+03  0.27518711353E+03 0.  0.
         25    1    3    3    0    0 -0.48216591685E+02  0.28296401237E+01 -0.12375077328E+02  0.12994610081E+03  0.12000000000E+03 0.  0.
         25    1    3    3    0    0  0.48216591685E+02 -0.28296401237E+01 -0.11584642445E+03  0.17364688490E+03  0.12000000000E+03 0.  0.
<mgrwt>
<rscale>  0 0.27518711E+03</rscale>
<asrwt>0</asrwt>
<pdfrwt beam="1">  1        1 0.13490114E-01 0.27518711E+03</pdfrwt>
<pdfrwt beam="2">  1       -1 0.33216499E-01 0.27518711E+03</pdfrwt>
<totfact> 0.36576064E+03</totfact>
</mgrwt>
</event>
<event>
 5    1  0.1132878E+001  0.2766787E+03  0.7818608E-02  0.1097517E+00
         -1   -1    0    0    0  501 -0.00000000000E+00  0.00000000000E+00  0.16718224559E+03  0.16718224559E+03  0.00000000000E+00 0.  1.
          1   -1    0    0  501    0  0.00000000000E+00 -0.00000000000E+00 -0.11447253206E+03  0.11447253206E+03  0.00000000000E+00 0.  1.
         35    2    1    2    0    0  0.00000000000E+00  0.00000000000E+00  0.52709713522E+02  0.28165477765E+03  0.27667869429E+03 0.  0.
         25    1    3    3    0    0  0.20189696046E+02 -0.45295376454E+02 -0.22237058445E+02  0.13173375316E+03  0.12000000000E+03 0.  0.
         25    1    3    3    0    0 -0.20189696046E+02  0.45295376454E+02  0.74946771967E+02  0.14992102449E+03  0.12000000000E+03 0.  0.
<mgrwt>
<rscale>  0 0.27667869E+03</rscale>
<asrwt>0</asrwt>
<pdfrwt beam="1">  1        1 0.17611159E-01 0.27667869E+03</pdfrwt>
<pdfrwt beam="2">  1       -1 0.25720345E-01 0.27667869E+03</pdfrwt>
<totfact> 0.39809184E+03</totfact>
</mgrwt>
</event>
<event>
 4    1  0.1132878E+001  0.2524724E+03  0.7818608E-02  0.1111752E+00
         -2   -1    0    0    0  501 -0.00000000000E+00  0.00000000000E+00  0.95131922336E+01  0.95131922336E+01  0.00000000000E+00 0.  1.
          2   -1    0    0  501    0  0.00000000000E+00 -0.00000000000E+00 -0.16751029729E+04  0.16751029729E+04  0.00000000000E+00 0.  1.
         25    1    1    2    0    0 -0.21183364553E+02  0.31013591428E+02 -0.75819468745E+03  0.76855042896E+03  0.12000000000E+03 0.  0.
         25    1    1    2    0    0  0.21183364553E+02 -0.31013591428E+02 -0.90739509326E+03  0.91606573621E+03  0.12000000000E+03 0.  0.
<mgrwt>
<rscale>  0 0.25247239E+03</rscale>
<asrwt>0</asrwt>
<pdfrwt beam="1">  1        2 0.25770818E+00 0.25247239E+03</pdfrwt>
<pdfrwt beam="2">  1       -2 0.14635679E-02 0.25247239E+03</pdfrwt>
<totfact> 0.13434384E+04</totfact>
</mgrwt>
</event>
<event>
 5    1  0.1132878E+001  0.2748081E+03  0.7818608E-02  0.1098559E+00
         -2   -1    0    0    0  501 -0.00000000000E+00  0.00000000000E+00  0.21483224629E+02  0.21483224629E+02  0.00000000000E+00 0. -1.
          2   -1    0    0  501    0  0.00000000000E+00 -0.00000000000E+00 -0.87881900767E+03  0.87881900767E+03  0.00000000000E+00 0. -1.
         35    2    1    2    0    0  0.00000000000E+00  0.00000000000E+00 -0.85733578305E+03  0.90030223230E+03  0.27480805047E+03 0.  0.
         25    1    3    3    0    0 -0.63495017614E+02 -0.20478684749E+02 -0.41106435138E+03  0.43338769568E+03  0.12000000000E+03 0.  0.
         25    1    3    3    0    0  0.63495017614E+02  0.20478684749E+02 -0.44627143167E+03  0.46691453663E+03  0.12000000000E+03 0.  0.
<mgrwt>
<rscale>  0 0.27480805E+03</rscale>
<asrwt>0</asrwt>
<pdfrwt beam="1">  1        2 0.13520294E+00 0.27480805E+03</pdfrwt>
<pdfrwt beam="2">  1       -2 0.33051111E-02 0.27480805E+03</pdfrwt>
<totfact> 0.11456541E+04</totfact>
</mgrwt>
</event>
<event>
 5    1  0.1132878E+001  0.2749139E+03  0.7818608E-02  0.1098500E+00
         -2   -1    0    0    0  501 -0.00000000000E+00  0.00000000000E+00  0.28441298913E+02  0.28441298913E+02  0.00000000000E+00 0.  1.
          2   -1    0    0  501    0  0.00000000000E+00 -0.00000000000E+00 -0.66433009252E+03  0.66433009252E+03  0.00000000000E+00 0.  1.
         35    2    1    2    0    0  0.00000000000E+00  0.00000000000E+00 -0.63588879360E+03  0.69277139143E+03  0.27491388279E+03 0.  0.
         25    1    3    3    0    0  0.18725300524E+02  0.33092711066E+02 -0.45708272984E+03  0.47409955318E+03  0.12000000000E+03 0.  0.
         25    1    3    3    0    0 -0.18725300524E+02 -0.33092711066E+02 -0.17880606376E+03  0.21867183825E+03  0.12000000000E+03 0.  0.
<mgrwt>
<rscale>  0 0.27491388E+03</rscale>
<asrwt>0</asrwt>
<pdfrwt beam="1">  1        2 0.10220462E+00 0.27491388E+03</pdfrwt>
<pdfrwt beam="2">  1       -2 0.43755849E-02 0.27491388E+03</pdfrwt>
<totfact> 0.10677043E+04</totfact>
</mgrwt>
</event>
<event>
 5    1  0.1132878E+001  0.2751525E+03  0.7818608E-02  0.1098366E+00
         -2   -1    0    0    0  501 -0.00000000000E+00  0.00000000000E+00  0.11045515579E+04  0.11045515579E+04  0.00000000000E+00 0.  1.
          2   -1    0    0  501    0  0.00000000000E+00 -0.00000000000E+00 -0.17135667606E+02  0.17135667606E+02  0.00000000000E+00 0.  1.
         35    2    1    2    0    0  0.00000000000E+00  0.00000000000E+00  0.10874158903E+04  0.11216872255E+04  0.27515252753E+03 0.  0.
         25    1    3    3    0    0  0.17434012329E+02  0.64015735803E+02  0.58933477621E+03  0.60507638995E+03  0.12000000000E+03 0.  0.
         25    1    3    3    0    0 -0.17434012329E+02 -0.64015735803E+02  0.49808111412E+03  0.51661083560E+03  0.12000000000E+03 0.  0.
<mgrwt>
<rscale>  0 0.27515253E+03</rscale>
<asrwt>0</asrwt>
<pdfrwt beam="1">  1        2 0.26362574E-02 0.27515253E+03</pdfrwt>
<pdfrwt beam="2">  1       -2 0.16993095E+00 0.27515253E+03</pdfrwt>
<totfact> 0.85245951E+02</totfact>
</mgrwt>
</event>
<event>
 5    1  0.1132878E+001  0.2749534E+03  0.7818608E-02  0.1098478E+00
         -2   -1    0    0    0  501 -0.00000000000E+00  0.00000000000E+00  0.16750544600E+02  0.16750544600E+02  0.00000000000E+00 0. -1.
          2   -1    0    0  501    0  0.00000000000E+00 -0.00000000000E+00 -0.11283120246E+04  0.11283120246E+04  0.00000000000E+00 0. -1.
         35    2    1    2    0    0  0.00000000000E+00  0.00000000000E+00 -0.11115614800E+04  0.11450625692E+04  0.27495338435E+03 0.  0.
         25    1    3    3    0    0 -0.49704377454E+02  0.44521962276E+02 -0.52719630609E+03  0.54478314531E+03  0.12000000000E+03 0.  0.
         25    1    3    3    0    0  0.49704377454E+02 -0.44521962276E+02 -0.58436517394E+03  0.60027942391E+03  0.12000000000E+03 0.  0.
<mgrwt>
<rscale>  0 0.27495338E+03</rscale>
<asrwt>0</asrwt>
<pdfrwt beam="1">  1        2 0.17358646E+00 0.27495338E+03</pdfrwt>
<pdfrwt beam="2">  1       -2 0.25770070E-02 0.27495338E+03</pdfrwt>
<totfact> 0.11658955E+04</totfact>
</mgrwt>
</event>
<event>
 5    1  0.1132878E+001  0.2748064E+03  0.7818608E-02  0.1098560E+00
          2   -1    0    0  501    0  0.00000000000E+00  0.00000000000E+00  0.26292291086E+03  0.26292291086E+03  0.00000000000E+00 0.  1.
         -2   -1    0    0    0  501 -0.00000000000E+00 -0.00000000000E+00 -0.71806733406E+02  0.71806733406E+02  0.00000000000E+00 0.  1.
         35    2    1    2    0    0  0.00000000000E+00  0.00000000000E+00  0.19111617746E+03  0.33472964427E+03  0.27480637086E+03 0.  0.
         25    1    3    3    0    0 -0.26599214452E+02  0.45557657987E+02  0.14572984233E+03  0.19601072765E+03  0.12000000000E+03 0.  0.
         25    1    3    3    0    0  0.26599214452E+02 -0.45557657987E+02  0.45386335131E+02  0.13871891662E+03  0.12000000000E+03 0.  0.
<mgrwt>
<rscale>  0 0.27480637E+03</rscale>
<asrwt>0</asrwt>
<pdfrwt beam="1">  1        2 0.40449678E-01 0.27480637E+03</pdfrwt>
<pdfrwt beam="2">  1       -2 0.11047190E-01 0.27480637E+03</pdfrwt>
<totfact> 0.70820425E+03</totfact>
</mgrwt>
</event>
<event>
 5    1  0.1132878E+001  0.2727993E+03  0.7818608E-02  0.1099688E+00
          1   -1    0    0  501    0  0.00000000000E+00  0.00000000000E+00  0.18501556759E+03  0.18501556759E+03  0.00000000000E+00 0. -1.
         -1   -1    0    0    0  501 -0.00000000000E+00 -0.00000000000E+00 -0.10055839322E+03  0.10055839322E+03  0.00000000000E+00 0. -1.
         35    2    1    2    0    0  0.00000000000E+00  0.00000000000E+00  0.84457174370E+02  0.28557396081E+03  0.27279932696E+03 0.  0.
         25    1    3    3    0    0 -0.64047859021E+02 -0.32464624076E+00  0.31623307748E+02  0.13965051820E+03  0.12000000000E+03 0.  0.
         25    1    3    3    0    0  0.64047859021E+02  0.32464624076E+00  0.52833866623E+02  0.14592344261E+03  0.12000000000E+03 0.  0.
<mgrwt>
<rscale>  0 0.27279933E+03</rscale>
<asrwt>0</asrwt>
<pdfrwt beam="1">  1        1 0.28463933E-01 0.27279933E+03</pdfrwt>
<pdfrwt beam="2">  1       -1 0.15470522E-01 0.27279933E+03</pdfrwt>
<totfact> 0.49188394E+03</totfact>
</mgrwt>
</event>
<event>
 4    1  0.1132878E+001  0.2467579E+03  0.7818608E-02  0.1115371E+00
         -2   -1    0    0    0  501 -0.00000000000E+00  0.00000000000E+00  0.11187719567E+02  0.11187719567E+02  0.00000000000E+00 0. -1.
          2   -1    0    0  501    0  0.00000000000E+00 -0.00000000000E+00 -0.13606318576E+04  0.13606318576E+04  0.00000000000E+00 0. -1.
         25    1    1    2    0    0 -0.17685511677E+02 -0.14891683252E+02 -0.58040452241E+03  0.59313063417E+03  0.12000000000E+03 0.  0.
         25    1    1    2    0    0  0.17685511677E+02  0.14891683252E+02 -0.76903961565E+03  0.77868894302E+03  0.12000000000E+03 0.  0.
<mgrwt>
<rscale>  0 0.24675792E+03</rscale>
<asrwt>0</asrwt>
<pdfrwt beam="1">  1        2 0.20932803E+00 0.24675792E+03</pdfrwt>
<pdfrwt beam="2">  1       -2 0.17211872E-02 0.24675792E+03</pdfrwt>
<totfact> 0.15586555E+04</totfact>
</mgrwt>
</event>
<event>
 5    1  0.1132878E+001  0.2749417E+03  0.7818608E-02  0.1098484E+00
         -2   -1    0    0    0  501 -0.00000000000E+00  0.00000000000E+00  0.13258558146E+02  0.13258558146E+02  0.00000000000E+00 0.  1.
          2   -1    0    0  501    0  0.00000000000E+00 -0.00000000000E+00 -0.14253615135E+04  0.14253615135E+04  0.00000000000E+00 0.  1.
         35    2    1    2    0    0  0.00000000000E+00  0.00000000000E+00 -0.14121029553E+04  0.14386200716E+04  0.27494172841E+03 0.  0.
         25    1    3    3    0    0 -0.34829234243E+02  0.51327552239E+02 -0.83951961969E+03  0.85031804933E+03  0.12000000000E+03 0.  0.
         25    1    3    3    0    0  0.34829234243E+02 -0.51327552239E+02 -0.57258333563E+03  0.58830202228E+03  0.12000000000E+03 0.  0.
<mgrwt>
<rscale>  0 0.27494173E+03</rscale>
<asrwt>0</asrwt>
<pdfrwt beam="1">  1        2 0.21928636E+00 0.27494173E+03</pdfrwt>
<pdfrwt beam="2">  1       -2 0.20397784E-02 0.27494173E+03</pdfrwt>
<totfact> 0.11239521E+04</totfact>
</mgrwt>
</event>
<event>
 5    1  0.1132878E+001  0.2747987E+03  0.7818608E-02  0.1098564E+00
          2   -1    0    0  501    0  0.00000000000E+00  0.00000000000E+00  0.71061676249E+03  0.71061676249E+03  0.00000000000E+00 0.  1.
         -2   -1    0    0    0  501 -0.00000000000E+00 -0.00000000000E+00 -0.26566464779E+02  0.26566464779E+02  0.00000000000E+00 0.  1.
         35    2    1    2    0    0  0.00000000000E+00  0.00000000000E+00  0.68405029771E+03  0.73718322726E+03  0.27479865496E+03 0.  0.
         25    1    3    3    0    0 -0.41606551480E+02  0.48597325771E+02  0.39471476864E+03  0.41748359702E+03  0.12000000000E+03 0.  0.
         25    1    3    3    0    0  0.41606551480E+02 -0.48597325771E+02  0.28933552907E+03  0.31969963025E+03  0.12000000000E+03 0.  0.
<mgrwt>
<rscale>  0 0.27479865E+03</rscale>
<asrwt>0</asrwt>
<pdfrwt beam="1">  1        2 0.10932564E+00 0.27479865E+03</pdfrwt>
<pdfrwt beam="2">  1       -2 0.40871490E-02 0.27479865E+03</pdfrwt>
<totfact> 0.10909563E+04</totfact>
</mgrwt>
</event>
<event>
 5    1  0.1132878E+001  0.2747546E+03  0.7818608E-02  0.1098589E+00
          1   -1    0    0  501    0  0.00000000000E+00  0.00000000000E+00  0.13896128691E+03  0.13896128691E+03  0.00000000000E+00 0.  1.
         -1   -1    0    0    0  501 -0.00000000000E+00 -0.00000000000E+00 -0.13581135919E+03  0.13581135919E+03  0.00000000000E+00 0.  1.
         35    2    1    2    0    0  0.00000000000E+00  0.00000000000E+00  0.31499277215E+01  0.27477264611E+03  0.27475459050E+03 0.  0.
         25    1    3    3    0    0 -0.48102940495E+02 -0.39532809508E+01  0.47870553300E+02  0.13791704459E+03  0.12000000000E+03 0.  0.
         25    1    3    3    0    0  0.48102940495E+02  0.39532809508E+01 -0.44720625579E+02  0.13685560152E+03  0.12000000000E+03 0.  0.
<mgrwt>
<rscale>  0 0.27475459E+03</rscale>
<asrwt>0</asrwt>
<pdfrwt beam="1">  1        1 0.21378660E-01 0.27475459E+03</pdfrwt>
<pdfrwt beam="2">  1       -1 0.20894055E-01 0.27475459E+03</pdfrwt>
<totfact> 0.43662916E+03</totfact>
</mgrwt>
</event>
<event>
 5    1  0.1132878E+001  0.2759066E+03  0.7818608E-02  0.1097946E+00
         -2   -1    0    0    0  501 -0.00000000000E+00  0.00000000000E+00  0.27516862995E+02  0.27516862995E+02  0.00000000000E+00 0. -1.
          2   -1    0    0  501    0  0.00000000000E+00 -0.00000000000E+00 -0.69161659591E+03  0.69161659591E+03  0.00000000000E+00 0. -1.
         35    2    1    2    0    0  0.00000000000E+00  0.00000000000E+00 -0.66409973292E+03  0.71913345891E+03  0.27590664447E+03 0.  0.
         25    1    3    3    0    0 -0.19168853219E+02  0.46754159192E+02 -0.45085662220E+03  0.46928146151E+03  0.12000000000E+03 0.  0.
         25    1    3    3    0    0  0.19168853219E+02 -0.46754159192E+02 -0.21324311072E+03  0.24985199740E+03  0.12000000000E+03 0.  0.
<mgrwt>
<rscale>  0 0.27590664E+03</rscale>
<asrwt>0</asrwt>
<pdfrwt beam="1">  1        2 0.10640255E+00 0.27590664E+03</pdfrwt>
<pdfrwt beam="2">  1       -2 0.42333638E-02 0.27590664E+03</pdfrwt>
<totfact> 0.10694545E+04</totfact>
</mgrwt>
</event>
<event>
 5    1  0.1132878E+001  0.2759486E+03  0.7818608E-02  0.1097923E+00
         -3   -1    0    0    0  501 -0.00000000000E+00  0.00000000000E+00  0.14769156086E+03  0.14769156086E+03  0.00000000000E+00 0.  1.
          3   -1    0    0  501    0  0.00000000000E+00 -0.00000000000E+00 -0.12889635325E+03  0.12889635325E+03  0.00000000000E+00 0.  1.
         35    2    1    2    0    0  0.00000000000E+00  0.00000000000E+00  0.18795207605E+02  0.27658791411E+03  0.27594857203E+03 0.  0.
         25    1    3    3    0    0 -0.19226664281E+02 -0.50716017846E+00 -0.56075878749E+02  0.13384478327E+03  0.12000000000E+03 0.  0.
         25    1    3    3    0    0  0.19226664281E+02  0.50716017846E+00  0.74871086354E+02  0.14274313084E+03  0.12000000000E+03 0.  0.
<mgrwt>
<rscale>  0 0.27594857E+03</rscale>
<asrwt>0</asrwt>
<pdfrwt beam="1">  1        3 0.19830208E-01 0.27594857E+03</pdfrwt>
<pdfrwt beam="2">  1       -3 0.22721779E-01 0.27594857E+03</pdfrwt>
<totfact> 0.10354553E+03</totfact>
</mgrwt>
</event>
<event>
 5    1  0.1132878E+001  0.2748191E+03  0.7818608E-02  0.1098553E+00
         -1   -1    0    0    0  501 -0.00000000000E+00  0.00000000000E+00  0.42545620178E+03  0.42545620178E+03  0.00000000000E+00 0.  1.
          1   -1    0    0  501    0  0.00000000000E+00 -0.00000000000E+00 -0.44379147115E+02  0.44379147115E+02  0.00000000000E+00 0.  1.
         35    2    1    2    0    0  0.00000000000E+00  0.00000000000E+00  0.38107705467E+03  0.46983534890E+03  0.27481909228E+03 0.  0.
         25    1    3    3    0    0 -0.39273662545E+02 -0.48307073678E+02  0.23260307332E+03  0.26903565499E+03  0.12000000000E+03 0.  0.
         25    1    3    3    0    0  0.39273662545E+02  0.48307073678E+02  0.14847398135E+03  0.20079969391E+03  0.12000000000E+03 0.  0.
<mgrwt>
<rscale>  0 0.27481909E+03</rscale>
<asrwt>0</asrwt>
<pdfrwt beam="1">  1        1 0.68275614E-02 0.27481909E+03</pdfrwt>
<pdfrwt beam="2">  1       -1 0.65454798E-01 0.27481909E+03</pdfrwt>
<totfact> 0.26424061E+03</totfact>
</mgrwt>
</event>
<event>
 5    1  0.1132878E+001  0.2750434E+03  0.7818608E-02  0.1098427E+00
         -1   -1    0    0    0  501 -0.00000000000E+00  0.00000000000E+00  0.11293122342E+02  0.11293122342E+02  0.00000000000E+00 0. -1.
          1   -1    0    0  501    0  0.00000000000E+00 -0.00000000000E+00 -0.16746662787E+04  0.16746662787E+04  0.00000000000E+00 0. -1.
         35    2    1    2    0    0  0.00000000000E+00  0.00000000000E+00 -0.16633731563E+04  0.16859594010E+04  0.27504335052E+03 0.  0.
         25    1    3    3    0    0 -0.62142850236E+02  0.80121136956E+01 -0.68326407617E+03  0.69654556605E+03  0.12000000000E+03 0.  0.
         25    1    3    3    0    0  0.62142850236E+02 -0.80121136956E+01 -0.98010908015E+03  0.98941383495E+03  0.12000000000E+03 0.  0.
<mgrwt>
<rscale>  0 0.27504335E+03</rscale>
<asrwt>0</asrwt>
<pdfrwt beam="1">  1        1 0.25764081E+00 0.27504335E+03</pdfrwt>
<pdfrwt beam="2">  1       -1 0.17374045E-02 0.27504335E+03</pdfrwt>
<totfact> 0.46265825E+03</totfact>
</mgrwt>
</event>
<event>
 5    1  0.1132878E+001  0.2762662E+03  0.7818608E-02  0.1097746E+00
         -3   -1    0    0    0  501 -0.00000000000E+00  0.00000000000E+00  0.28820416666E+03  0.28820416666E+03  0.00000000000E+00 0. -1.
          3   -1    0    0  501    0  0.00000000000E+00 -0.00000000000E+00 -0.66205666239E+02  0.66205666239E+02  0.00000000000E+00 0. -1.
         35    2    1    2    0    0  0.00000000000E+00  0.00000000000E+00  0.22199850042E+03  0.35440983290E+03  0.27626616779E+03 0.  0.
         25    1    3    3    0    0  0.15580807412E+01  0.43060948982E+02  0.17917285260E+03  0.21990812639E+03  0.12000000000E+03 0.  0.
         25    1    3    3    0    0 -0.15580807412E+01 -0.43060948982E+02  0.42825647821E+02  0.13450170651E+03  0.12000000000E+03 0.  0.
<mgrwt>
<rscale>  0 0.27626617E+03</rscale>
<asrwt>0</asrwt>
<pdfrwt beam="1">  1        3 0.10185487E-01 0.27626617E+03</pdfrwt>
<pdfrwt beam="2">  1       -3 0.44339102E-01 0.27626617E+03</pdfrwt>
<totfact> 0.92385753E+02</totfact>
</mgrwt>
</event>
<event>
 5    1  0.1132878E+001  0.2743406E+03  0.7818608E-02  0.1098821E+00
         -2   -1    0    0    0  501 -0.00000000000E+00  0.00000000000E+00  0.13174787652E+02  0.13174787652E+02  0.00000000000E+00 0.  1.
          2   -1    0    0  501    0  0.00000000000E+00 -0.00000000000E+00 -0.14281587700E+04  0.14281587700E+04  0.00000000000E+00 0.  1.
         35    2    1    2    0    0  0.00000000000E+00  0.00000000000E+00 -0.14149839823E+04  0.14413335576E+04  0.27434058051E+03 0.  0.
         25    1    3    3    0    0 -0.22860310301E+02  0.60817275981E+02 -0.63424819715E+03  0.64876198288E+03  0.12000000000E+03 0.  0.
         25    1    3    3    0    0  0.22860310301E+02 -0.60817275981E+02 -0.78073578519E+03  0.79257157476E+03  0.12000000000E+03 0.  0.
<mgrwt>
<rscale>  0 0.27434058E+03</rscale>
<asrwt>0</asrwt>
<pdfrwt beam="1">  1        2 0.21971674E+00 0.27434058E+03</pdfrwt>
<pdfrwt beam="2">  1       -2 0.20268904E-02 0.27434058E+03</pdfrwt>
<totfact> 0.11304869E+04</totfact>
</mgrwt>
</event>
<event>
 5    1  0.1132878E+001  0.2737264E+03  0.7818608E-02  0.1099166E+00
         -2   -1    0    0    0  501 -0.00000000000E+00  0.00000000000E+00  0.10881147779E+03  0.10881147779E+03  0.00000000000E+00 0.  1.
          2   -1    0    0  501    0  0.00000000000E+00 -0.00000000000E+00 -0.17214670147E+03  0.17214670147E+03  0.00000000000E+00 0.  1.
         35    2    1    2    0    0  0.00000000000E+00  0.00000000000E+00 -0.63335223679E+02  0.28095817925E+03  0.27372641073E+03 0.  0.
         25    1    3    3    0    0  0.59509659602E+02  0.27107341501E+02 -0.39302507184E+02  0.14220019205E+03  0.12000000000E+03 0.  0.
         25    1    3    3    0    0 -0.59509659602E+02 -0.27107341501E+02 -0.24032716494E+02  0.13875798720E+03  0.12000000000E+03 0.  0.
<mgrwt>
<rscale>  0 0.27372641E+03</rscale>
<asrwt>0</asrwt>
<pdfrwt beam="1">  1        2 0.26484108E-01 0.27372641E+03</pdfrwt>
<pdfrwt beam="2">  1       -2 0.16740227E-01 0.27372641E+03</pdfrwt>
<totfact> 0.56964805E+03</totfact>
</mgrwt>
</event>
<event>
 5    1  0.1132878E+001  0.2747551E+03  0.7818608E-02  0.1098589E+00
          1   -1    0    0  501    0  0.00000000000E+00  0.00000000000E+00  0.25037927926E+03  0.25037927926E+03  0.00000000000E+00 0.  1.
         -1   -1    0    0    0  501 -0.00000000000E+00 -0.00000000000E+00 -0.75376035558E+02  0.75376035558E+02  0.00000000000E+00 0.  1.
         35    2    1    2    0    0  0.00000000000E+00  0.00000000000E+00  0.17500324370E+03  0.32575531482E+03  0.27475514522E+03 0.  0.
         25    1    3    3    0    0 -0.21423377984E+02 -0.29205981572E+02  0.15415676588E+03  0.19868633307E+03  0.12000000000E+03 0.  0.
         25    1    3    3    0    0  0.21423377984E+02  0.29205981572E+02  0.20846477823E+02  0.12706898174E+03  0.12000000000E+03 0.  0.
<mgrwt>
<rscale>  0 0.27475515E+03</rscale>
<asrwt>0</asrwt>
<pdfrwt beam="1">  1        1 0.38519889E-01 0.27475515E+03</pdfrwt>
<pdfrwt beam="2">  1       -1 0.11596313E-01 0.27475515E+03</pdfrwt>
<totfact> 0.52920761E+03</totfact>
</mgrwt>
</event>
<event>
 5    1  0.1132878E+001  0.2749392E+03  0.7818608E-02  0.1098486E+00
          1   -1    0    0  501    0  0.00000000000E+00  0.00000000000E+00  0.76901743932E+03  0.76901743932E+03  0.00000000000E+00 0. -1.
         -1   -1    0    0    0  501 -0.00000000000E+00 -0.00000000000E+00 -0.24574077518E+02  0.24574077518E+02  0.00000000000E+00 0. -1.
         35    2    1    2    0    0  0.00000000000E+00  0.00000000000E+00  0.74444336181E+03  0.79359151684E+03  0.27493922359E+03 0.  0.
         25    1    3    3    0    0  0.40504065436E+02  0.39336418498E+02  0.47669117770E+03  0.49479532337E+03  0.12000000000E+03 0.  0.
         25    1    3    3    0    0 -0.40504065436E+02 -0.39336418498E+02  0.26775218411E+03  0.29879619347E+03  0.12000000000E+03 0.  0.
<mgrwt>
<rscale>  0 0.27493922E+03</rscale>
<asrwt>0</asrwt>
<pdfrwt beam="1">  1        1 0.11831036E+00 0.27493922E+03</pdfrwt>
<pdfrwt beam="2">  1       -1 0.37806279E-02 0.27493922E+03</pdfrwt>
<totfact> 0.65362688E+03</totfact>
</mgrwt>
</event>
<event>
 5    1  0.1132878E+001  0.2744976E+03  0.7818608E-02  0.1098733E+00
          1   -1    0    0  501    0  0.00000000000E+00  0.00000000000E+00  0.21765738538E+02  0.21765738538E+02  0.00000000000E+00 0.  1.
         -1   -1    0    0    0  501 -0.00000000000E+00 -0.00000000000E+00 -0.86545339573E+03  0.86545339573E+03  0.00000000000E+00 0.  1.
         35    2    1    2    0    0  0.00000000000E+00  0.00000000000E+00 -0.84368765719E+03  0.88721913426E+03  0.27449759437E+03 0.  0.
         25    1    3    3    0    0  0.61058437967E+02  0.11962523495E+02 -0.34494856001E+03  0.37048717099E+03  0.12000000000E+03 0.  0.
         25    1    3    3    0    0 -0.61058437967E+02 -0.11962523495E+02 -0.49873909718E+03  0.51673196328E+03  0.12000000000E+03 0.  0.
<mgrwt>
<rscale>  0 0.27449759E+03</rscale>
<asrwt>0</asrwt>
<pdfrwt beam="1">  1        1 0.33485749E-02 0.27449759E+03</pdfrwt>
<pdfrwt beam="2">  1       -1 0.13314669E+00 0.27449759E+03</pdfrwt>
<totfact> 0.14969212E+03</totfact>
</mgrwt>
</event>
<event>
 5    1  0.1132878E+001  0.2746393E+03  0.7818608E-02  0.1098653E+00
          1   -1    0    0  501    0  0.00000000000E+00  0.00000000000E+00  0.45757825781E+03  0.45757825781E+03  0.00000000000E+00 0.  1.
         -1   -1    0    0    0  501 -0.00000000000E+00 -0.00000000000E+00 -0.41209741585E+02  0.41209741585E+02  0.00000000000E+00 0.  1.
         35    2    1    2    0    0  0.00000000000E+00  0.00000000000E+00  0.41636851622E+03  0.49878799939E+03  0.27463926711E+03 0.  0.
         25    1    3    3    0    0 -0.20437755456E+02  0.39580302247E+02  0.11787943651E+03  0.17401110231E+03  0.12000000000E+03 0.  0.
         25    1    3    3    0    0  0.20437755456E+02 -0.39580302247E+02  0.29848907971E+03  0.32477689708E+03  0.12000000000E+03 0.  0.
<mgrwt>
<rscale>  0 0.27463927E+03</rscale>
<asrwt>0</asrwt>
<pdfrwt beam="1">  1        1 0.70396651E-01 0.27463927E+03</pdfrwt>
<pdfrwt beam="2">  1       -1 0.63399606E-02 0.27463927E+03</pdfrwt>
<totfact> 0.62112932E+03</totfact>
</mgrwt>
</event>
<event>
 5    1  0.1132878E+001  0.2752824E+03  0.7818608E-02  0.1098294E+00
         -2   -1    0    0    0  501 -0.00000000000E+00  0.00000000000E+00  0.49796641083E+02  0.49796641083E+02  0.00000000000E+00 0.  1.
          2   -1    0    0  501    0  0.00000000000E+00 -0.00000000000E+00 -0.38044931498E+03  0.38044931498E+03  0.00000000000E+00 0.  1.
         35    2    1    2    0    0  0.00000000000E+00  0.00000000000E+00 -0.33065267390E+03  0.43024595606E+03  0.27528238584E+03 0.  0.
         25    1    3    3    0    0  0.51758788828E+02  0.29031173383E+02 -0.21532327555E+03  0.25354663130E+03  0.12000000000E+03 0.  0.
         25    1    3    3    0    0 -0.51758788828E+02 -0.29031173383E+02 -0.11532939835E+03  0.17669932476E+03  0.12000000000E+03 0.  0.
<mgrwt>
<rscale>  0 0.27528239E+03</rscale>
<asrwt>0</asrwt>
<pdfrwt beam="1">  1        2 0.58530661E-01 0.27528239E+03</pdfrwt>
<pdfrwt beam="2">  1       -2 0.76610220E-02 0.27528239E+03</pdfrwt>
<totfact> 0.84785722E+03</totfact>
</mgrwt>
</event>
<event>
 5    1  0.1132878E+001  0.2727085E+03  0.7818608E-02  0.1099739E+00
         -3   -1    0    0    0  501 -0.00000000000E+00  0.00000000000E+00  0.17575798327E+03  0.17575798327E+03  0.00000000000E+00 0. -1.
          3   -1    0    0  501    0  0.00000000000E+00 -0.00000000000E+00 -0.10578458993E+03  0.10578458993E+03  0.00000000000E+00 0. -1.
         35    2    1    2    0    0  0.00000000000E+00  0.00000000000E+00  0.69973393343E+02  0.28154257320E+03  0.27270853443E+03 0.  0.
         25    1    3    3    0    0 -0.18037932673E+02 -0.19033661647E+02 -0.26132744704E+02  0.12558092067E+03  0.12000000000E+03 0.  0.
         25    1    3    3    0    0  0.18037932673E+02  0.19033661647E+02  0.96106138047E+02  0.15596165253E+03  0.12000000000E+03 0.  0.
<mgrwt>
<rscale>  0 0.27270853E+03</rscale>
<asrwt>0</asrwt>
<pdfrwt beam="1">  1        3 0.16274552E-01 0.27270853E+03</pdfrwt>
<pdfrwt beam="2">  1       -3 0.27039690E-01 0.27270853E+03</pdfrwt>
<totfact> 0.10659093E+03</totfact>
</mgrwt>
</event>
<event>
 5    1  0.1132878E+001  0.2764192E+03  0.7818608E-02  0.1097661E+00
          1   -1    0    0  501    0  0.00000000000E+00  0.00000000000E+00  0.26678027403E+04  0.26678027403E+04  0.00000000000E+00 0.  1.
         -1   -1    0    0    0  501 -0.00000000000E+00 -0.00000000000E+00 -0.71601593995E+01  0.71601593995E+01  0.00000000000E+00 0.  1.
         35    2    1    2    0    0  0.00000000000E+00  0.00000000000E+00  0.26606425809E+04  0.26749628997E+04  0.27641919519E+03 0.  0.
         25    1    3    3    0    0  0.64869190385E+02 -0.19719441411E+02  0.12311479006E+04  0.12388389812E+04  0.12000000000E+03 0.  0.
         25    1    3    3    0    0 -0.64869190385E+02  0.19719441411E+02  0.14294946803E+04  0.14361239185E+04  0.12000000000E+03 0.  0.
<mgrwt>
<rscale>  0 0.27641920E+03</rscale>
<asrwt>0</asrwt>
<pdfrwt beam="1">  1        1 0.41043040E+00 0.27641920E+03</pdfrwt>
<pdfrwt beam="2">  1       -1 0.11015651E-02 0.27641920E+03</pdfrwt>
<totfact> 0.20010723E+03</totfact>
</mgrwt>
</event>
<event>
 5    1  0.1132878E+001  0.2895889E+03  0.7818608E-02  0.1090564E+00
          1   -1    0    0  501    0  0.00000000000E+00  0.00000000000E+00  0.76237797179E+02  0.76237797179E+02  0.00000000000E+00 0.  1.
         -1   -1    0    0    0  501 -0.00000000000E+00 -0.00000000000E+00 -0.27500046054E+03  0.27500046054E+03  0.00000000000E+00 0.  1.
         35    2    1    2    0    0  0.00000000000E+00  0.00000000000E+00 -0.19876266336E+03  0.35123825772E+03  0.28958887641E+03 0.  0.
         25    1    3    3    0    0  0.74208027363E+01  0.57401313165E+02 -0.16815795295E+03  0.21453921834E+03  0.12000000000E+03 0.  0.
         25    1    3    3    0    0 -0.74208027363E+01 -0.57401313165E+02 -0.30604710405E+02  0.13669903937E+03  0.12000000000E+03 0.  0.
<mgrwt>
<rscale>  0 0.28958888E+03</rscale>
<asrwt>0</asrwt>
<pdfrwt beam="1">  1        1 0.11728892E-01 0.28958888E+03</pdfrwt>
<pdfrwt beam="2">  1       -1 0.42307762E-01 0.28958888E+03</pdfrwt>
<totfact> 0.28818461E+03</totfact>
</mgrwt>
</event>
<event>
 5    1  0.1132878E+001  0.2737973E+03  0.7818608E-02  0.1099126E+00
          2   -1    0    0  501    0  0.00000000000E+00  0.00000000000E+00  0.56199554944E+02  0.56199554944E+02  0.00000000000E+00 0.  1.
         -2   -1    0    0    0  501 -0.00000000000E+00 -0.00000000000E+00 -0.33347670725E+03  0.33347670725E+03  0.00000000000E+00 0.  1.
         35    2    1    2    0    0  0.00000000000E+00  0.00000000000E+00 -0.27727715230E+03  0.38967626219E+03  0.27379731578E+03 0.  0.
         25    1    3    3    0    0  0.25980295424E+02 -0.54725195679E+02 -0.17551695463E+03  0.22107922597E+03  0.12000000000E+03 0.  0.
         25    1    3    3    0    0 -0.25980295424E+02  0.54725195679E+02 -0.10176019767E+03  0.16859703622E+03  0.12000000000E+03 0.  0.
<mgrwt>
<rscale>  0 0.27379732E+03</rscale>
<asrwt>0</asrwt>
<pdfrwt beam="1">  1        2 0.86460854E-02 0.27379732E+03</pdfrwt>
<pdfrwt beam="2">  1       -2 0.51304109E-01 0.27379732E+03</pdfrwt>
<totfact> 0.27979405E+03</totfact>
</mgrwt>
</event>
<event>
 5    1  0.1132878E+001  0.2741518E+03  0.7818608E-02  0.1098927E+00
          2   -1    0    0  501    0  0.00000000000E+00  0.00000000000E+00  0.70457509968E+03  0.70457509968E+03  0.00000000000E+00 0.  1.
         -2   -1    0    0    0  501 -0.00000000000E+00 -0.00000000000E+00 -0.26668283536E+02  0.26668283536E+02  0.00000000000E+00 0.  1.
         35    2    1    2    0    0  0.00000000000E+00  0.00000000000E+00  0.67790681614E+03  0.73124338322E+03  0.27415184501E+03 0.  0.
         25    1    3    3    0    0 -0.54970951170E+02  0.26815562402E+02  0.40690024711E+03  0.42861251843E+03  0.12000000000E+03 0.  0.
         25    1    3    3    0    0  0.54970951170E+02 -0.26815562402E+02  0.27100656904E+03  0.30263086478E+03  0.12000000000E+03 0.  0.
<mgrwt>
<rscale>  0 0.27415185E+03</rscale>
<asrwt>0</asrwt>
<pdfrwt beam="1">  1        2 0.10839616E+00 0.27415185E+03</pdfrwt>
<pdfrwt beam="2">  1       -2 0.41028134E-02 0.27415185E+03</pdfrwt>
<totfact> 0.10959331E+04</totfact>
</mgrwt>
</event>
<event>
 5    1  0.1132878E+001  0.2756949E+03  0.7818608E-02  0.1098064E+00
          2   -1    0    0  501    0  0.00000000000E+00  0.00000000000E+00  0.43984234134E+02  0.43984234134E+02  0.00000000000E+00 0.  1.
         -2   -1    0    0    0  501 -0.00000000000E+00 -0.00000000000E+00 -0.43201673462E+03  0.43201673462E+03  0.00000000000E+00 0.  1.
         35    2    1    2    0    0  0.00000000000E+00  0.00000000000E+00 -0.38803250048E+03  0.47600096875E+03  0.27569494159E+03 0.  0.
         25    1    3    3    0    0  0.66926628680E+02 -0.24082508259E+01 -0.17534460049E+03  0.22277949237E+03  0.12000000000E+03 0.  0.
         25    1    3    3    0    0 -0.66926628680E+02  0.24082508259E+01 -0.21268789999E+03  0.25322147638E+03  0.12000000000E+03 0.  0.
<mgrwt>
<rscale>  0 0.27569494E+03</rscale>
<asrwt>0</asrwt>
<pdfrwt beam="1">  1        2 0.67668052E-02 0.27569494E+03</pdfrwt>
<pdfrwt beam="2">  1       -2 0.66464114E-01 0.27569494E+03</pdfrwt>
<totfact> 0.22447193E+03</totfact>
</mgrwt>
</event>
<event>
 5    1  0.1132878E+001  0.2754087E+03  0.7818608E-02  0.1098223E+00
         -1   -1    0    0    0  501 -0.00000000000E+00  0.00000000000E+00  0.10035611650E+02  0.10035611650E+02  0.00000000000E+00 0.  1.
          1   -1    0    0  501    0  0.00000000000E+00 -0.00000000000E+00 -0.18895195770E+04  0.18895195770E+04  0.00000000000E+00 0.  1.
         35    2    1    2    0    0  0.00000000000E+00  0.00000000000E+00 -0.18794839654E+04  0.18995551887E+04  0.27540867583E+03 0.  0.
         25    1    3    3    0    0 -0.19482198459E+02  0.41180684844E+02 -0.12837108692E+04  0.12901120109E+04  0.12000000000E+03 0.  0.
         25    1    3    3    0    0  0.19482198459E+02 -0.41180684844E+02 -0.59577309616E+03  0.60944317780E+03  0.12000000000E+03 0.  0.
<mgrwt>
<rscale>  0 0.27540868E+03</rscale>
<asrwt>0</asrwt>
<pdfrwt beam="1">  1        1 0.29069535E+00 0.27540868E+03</pdfrwt>
<pdfrwt beam="2">  1       -1 0.15439401E-02 0.27540868E+03</pdfrwt>
<totfact> 0.39826999E+03</totfact>
</mgrwt>
</event>
<event>
 5    1  0.1132878E+001  0.2753783E+03  0.7818608E-02  0.1098240E+00
         -2   -1    0    0    0  501 -0.00000000000E+00  0.00000000000E+00  0.11799435825E+02  0.11799435825E+02  0.00000000000E+00 0. -1.
          2   -1    0    0  501    0  0.00000000000E+00 -0.00000000000E+00 -0.16067128501E+04  0.16067128501E+04  0.00000000000E+00 0. -1.
         35    2    1    2    0    0  0.00000000000E+00  0.00000000000E+00 -0.15949134143E+04  0.16185122859E+04  0.27537832278E+03 0.  0.
         25    1    3    3    0    0 -0.40550969158E+01 -0.62829413198E+02 -0.65417238135E+03  0.66806098786E+03  0.12000000000E+03 0.  0.
         25    1    3    3    0    0  0.40550969158E+01  0.62829413198E+02 -0.94074103291E+03  0.95045129806E+03  0.12000000000E+03 0.  0.
<mgrwt>
<rscale>  0 0.27537832E+03</rscale>
<asrwt>0</asrwt>
<pdfrwt beam="1">  1        2 0.24718661E+00 0.27537832E+03</pdfrwt>
<pdfrwt beam="2">  1       -2 0.18152977E-02 0.27537832E+03</pdfrwt>
<totfact> 0.10671843E+04</totfact>
</mgrwt>
</event>
<event>
 5    1  0.1132878E+001  0.2756791E+03  0.7818608E-02  0.1098073E+00
          2   -1    0    0  501    0  0.00000000000E+00  0.00000000000E+00  0.90557396178E+03  0.90557396178E+03  0.00000000000E+00 0.  1.
         -2   -1    0    0    0  501 -0.00000000000E+00 -0.00000000000E+00 -0.20980882980E+02  0.20980882980E+02  0.00000000000E+00 0.  1.
         35    2    1    2    0    0  0.00000000000E+00  0.00000000000E+00  0.88459307880E+03  0.92655484476E+03  0.27567909839E+03 0.  0.
         25    1    3    3    0    0  0.81900242350E+01  0.67144419834E+02  0.42573135269E+03  0.44746243895E+03  0.12000000000E+03 0.  0.
         25    1    3    3    0    0 -0.81900242350E+01 -0.67144419834E+02  0.45886172611E+03  0.47909240581E+03  0.12000000000E+03 0.  0.
<mgrwt>
<rscale>  0 0.27567910E+03</rscale>
<asrwt>0</asrwt>
<pdfrwt beam="1">  1        2 0.13931904E+00 0.27567910E+03</pdfrwt>
<pdfrwt beam="2">  1       -2 0.32278289E-02 0.27567910E+03</pdfrwt>
<totfact> 0.11404361E+04</totfact>
</mgrwt>
</event>
<event>
 5    1  0.1132878E+001  0.2747460E+03  0.7818608E-02  0.1098594E+00
          3   -1    0    0  501    0  0.00000000000E+00  0.00000000000E+00  0.22893649568E+03  0.22893649568E+03  0.00000000000E+00 0.  1.
         -3   -1    0    0    0  501 -0.00000000000E+00 -0.00000000000E+00 -0.82430473916E+02  0.82430473916E+02  0.00000000000E+00 0.  1.
         35    2    1    2    0    0  0.00000000000E+00  0.00000000000E+00  0.14650602176E+03  0.31136696959E+03  0.27474601970E+03 0.  0.
         25    1    3    3    0    0  0.60036907324E+02 -0.12325991203E+02  0.42949764919E+02  0.14142504236E+03  0.12000000000E+03 0.  0.
         25    1    3    3    0    0 -0.60036907324E+02  0.12325991203E+02  0.10355625684E+03  0.16994192723E+03  0.12000000000E+03 0.  0.
<mgrwt>
<rscale>  0 0.27474602E+03</rscale>
<asrwt>0</asrwt>
<pdfrwt beam="1">  1        3 0.35220999E-01 0.27474602E+03</pdfrwt>
<pdfrwt beam="2">  1       -3 0.12681612E-01 0.27474602E+03</pdfrwt>
<totfact> 0.99826807E+02</totfact>
</mgrwt>
</event>
<event>
 5    1  0.1132878E+001  0.2747444E+03  0.7818608E-02  0.1098595E+00
          2   -1    0    0  501    0  0.00000000000E+00  0.00000000000E+00  0.77420138186E+03  0.77420138186E+03  0.00000000000E+00 0.  1.
         -2   -1    0    0    0  501 -0.00000000000E+00 -0.00000000000E+00 -0.24374959573E+02  0.24374959573E+02  0.00000000000E+00 0.  1.
         35    2    1    2    0    0  0.00000000000E+00  0.00000000000E+00  0.74982642228E+03  0.79857634143E+03  0.27474444405E+03 0.  0.
         25    1    3    3    0    0  0.11901695153E+02 -0.30399391588E+01  0.18386576044E+03  0.21990340934E+03  0.12000000000E+03 0.  0.
         25    1    3    3    0    0 -0.11901695153E+02  0.30399391588E+01  0.56596066184E+03  0.57867293209E+03  0.12000000000E+03 0.  0.
<mgrwt>
<rscale>  0 0.27474444E+03</rscale>
<asrwt>0</asrwt>
<pdfrwt beam="1">  1        2 0.11910789E+00 0.27474444E+03</pdfrwt>
<pdfrwt beam="2">  1       -2 0.37499944E-02 0.27474444E+03</pdfrwt>
<totfact> 0.11166970E+04</totfact>
</mgrwt>
</event>
<event>
 5    1  0.1132878E+001  0.2752855E+03  0.7818608E-02  0.1098292E+00
          2   -1    0    0  501    0  0.00000000000E+00  0.00000000000E+00  0.59636335211E+03  0.59636335211E+03  0.00000000000E+00 0. -1.
         -2   -1    0    0    0  501 -0.00000000000E+00 -0.00000000000E+00 -0.31768421499E+02  0.31768421499E+02  0.00000000000E+00 0. -1.
         35    2    1    2    0    0  0.00000000000E+00  0.00000000000E+00  0.56459493061E+03  0.62813177361E+03  0.27528546883E+03 0.  0.
         25    1    3    3    0    0 -0.43857663543E+02  0.25839659951E+02  0.38316873736E+03  0.40473381866E+03  0.12000000000E+03 0.  0.
         25    1    3    3    0    0  0.43857663543E+02 -0.25839659951E+02  0.18142619325E+03  0.22339795495E+03  0.12000000000E+03 0.  0.
<mgrwt>
<rscale>  0 0.27528547E+03</rscale>
<asrwt>0</asrwt>
<pdfrwt beam="1">  1        2 0.91748200E-01 0.27528547E+03</pdfrwt>
<pdfrwt beam="2">  1       -2 0.48874499E-02 0.27528547E+03</pdfrwt>
<totfact> 0.10253411E+04</totfact>
</mgrwt>
</event>
<event>
 5    1  0.1132878E+001  0.2755595E+03  0.7818608E-02  0.1098139E+00
          2   -1    0    0  501    0  0.00000000000E+00  0.00000000000E+00  0.14492726424E+03  0.14492726424E+03  0.00000000000E+00 0.  1.
         -2   -1    0    0    0  501 -0.00000000000E+00 -0.00000000000E+00 -0.13098470779E+03  0.13098470779E+03  0.00000000000E+00 0.  1.
         35    2    1    2    0    0  0.00000000000E+00  0.00000000000E+00  0.13942556448E+02  0.27591197203E+03  0.27555946986E+03 0.  0.
         25    1    3    3    0    0 -0.27704386047E+02  0.31405264085E+02  0.60231726217E+02  0.14064737631E+03  0.12000000000E+03 0.  0.
         25    1    3    3    0    0  0.27704386047E+02 -0.31405264085E+02 -0.46289169769E+02  0.13526459572E+03  0.12000000000E+03 0.  0.
<mgrwt>
<rscale>  0 0.27555947E+03</rscale>
<asrwt>0</asrwt>
<pdfrwt beam="1">  1        2 0.22296502E-01 0.27555947E+03</pdfrwt>
<pdfrwt beam="2">  1       -2 0.20151494E-01 0.27555947E+03</pdfrwt>
<totfact> 0.50492047E+03</totfact>
</mgrwt>
</event>
<event>
 5    1  0.1132878E+001  0.2748352E+03  0.7818608E-02  0.1098544E+00
          2   -1    0    0  501    0  0.00000000000E+00  0.00000000000E+00  0.31474779381E+04  0.31474779381E+04  0.00000000000E+00 0. -1.
         -2   -1    0    0    0  501 -0.00000000000E+00 -0.00000000000E+00 -0.59995947339E+01  0.59995947339E+01  0.00000000000E+00 0. -1.
         35    2    1    2    0    0  0.00000000000E+00  0.00000000000E+00  0.31414783433E+04  0.31534775328E+04  0.27483516560E+03 0.  0.
         25    1    3    3    0    0  0.10161098586E+02  0.64442672418E+02  0.17437984475E+04  0.17491395403E+04  0.12000000000E+03 0.  0.
         25    1    3    3    0    0 -0.10161098586E+02 -0.64442672418E+02  0.13976798959E+04  0.14043379925E+04  0.12000000000E+03 0.  0.
<mgrwt>
<rscale>  0 0.27483517E+03</rscale>
<asrwt>0</asrwt>
<pdfrwt beam="1">  1        2 0.48422605E+00 0.27483517E+03</pdfrwt>
<pdfrwt beam="2">  1       -2 0.92301709E-03 0.27483517E+03</pdfrwt>
<totfact> 0.40685912E+03</totfact>
</mgrwt>
</event>
<event>
 5    1  0.1132878E+001  0.2745982E+03  0.7818608E-02  0.1098676E+00
         -2   -1    0    0    0  501 -0.00000000000E+00  0.00000000000E+00  0.15645899136E+02  0.15645899136E+02  0.00000000000E+00 0. -1.
          2   -1    0    0  501    0  0.00000000000E+00 -0.00000000000E+00 -0.12048556150E+04  0.12048556150E+04  0.00000000000E+00 0. -1.
         35    2    1    2    0    0  0.00000000000E+00  0.00000000000E+00 -0.11892097159E+04  0.12205015141E+04  0.27459824782E+03 0.  0.
         25    1    3    3    0    0 -0.15082248648E+02  0.63302395503E+02 -0.52922393437E+03  0.54654610072E+03  0.12000000000E+03 0.  0.
         25    1    3    3    0    0  0.15082248648E+02 -0.63302395503E+02 -0.65998578149E+03  0.67395541341E+03  0.12000000000E+03 0.  0.
<mgrwt>
<rscale>  0 0.27459825E+03</rscale>
<asrwt>0</asrwt>
<pdfrwt beam="1">  1        2 0.18536248E+00 0.27459825E+03</pdfrwt>
<pdfrwt beam="2">  1       -2 0.24070604E-02 0.27459825E+03</pdfrwt>
<totfact> 0.11655654E+04</totfact>
</mgrwt>
</event>
<event>
 4    1  0.1132878E+001  0.2576894E+03  0.7818608E-02  0.1108539E+00
         -2   -1    0    0    0  501 -0.00000000000E+00  0.00000000000E+00  0.66179257676E+01  0.66179257676E+01  0.00000000000E+00 0.  1.
          2   -1    0    0  501    0  0.00000000000E+00 -0.00000000000E+00 -0.25084834432E+04  0.25084834432E+04  0.00000000000E+00 0.  1.
         25    1    1    2    0    0  0.23817216942E+02 -0.39874374507E+02 -0.11863886111E+04  0.11933462038E+04  0.12000000000E+03 0.  0.
         25    1    1    2    0    0 -0.23817216942E+02  0.39874374507E+02 -0.13154769063E+04  0.13217551651E+04  0.12000000000E+03 0.  0.
<mgrwt>
<rscale>  0 0.25768940E+03</rscale>
<asrwt>0</asrwt>
<pdfrwt beam="1">  1        2 0.38592105E+00 0.25768940E+03</pdfrwt>
<pdfrwt beam="2">  1       -2 0.10181411E-02 0.25768940E+03</pdfrwt>
<totfact> 0.82399070E+03</totfact>
</mgrwt>
</event>
<event>
 5    1  0.1132878E+001  0.2754212E+03  0.7818608E-02  0.1098216E+00
          2   -1    0    0  501    0  0.00000000000E+00  0.00000000000E+00  0.25881553181E+04  0.25881553181E+04  0.00000000000E+00 0. -1.
         -2   -1    0    0    0  501 -0.00000000000E+00 -0.00000000000E+00 -0.73273080755E+01  0.73273080755E+01  0.00000000000E+00 0. -1.
         35    2    1    2    0    0  0.00000000000E+00  0.00000000000E+00  0.25808280100E+04  0.25954826262E+04  0.27542121460E+03 0.  0.
         25    1    3    3    0    0 -0.23474022670E+02 -0.56713749939E+02  0.10244168944E+04  0.10332460756E+04  0.12000000000E+03 0.  0.
         25    1    3    3    0    0  0.23474022670E+02  0.56713749939E+02  0.15564111157E+04  0.15622365506E+04  0.12000000000E+03 0.  0.
<mgrwt>
<rscale>  0 0.27542121E+03</rscale>
<asrwt>0</asrwt>
<pdfrwt beam="1">  1        2 0.39817701E+00 0.27542121E+03</pdfrwt>
<pdfrwt beam="2">  1       -2 0.11272802E-02 0.27542121E+03</pdfrwt>
<totfact> 0.64220561E+03</totfact>
</mgrwt>
</event>
<event>
 5    1  0.1132878E+001  0.2746402E+03  0.7818608E-02  0.1098653E+00
         -2   -1    0    0    0  501 -0.00000000000E+00  0.00000000000E+00  0.37964106188E+02  0.37964106188E+02  0.00000000000E+00 0. -1.
          2   -1    0    0  501    0  0.00000000000E+00 -0.00000000000E+00 -0.49670093673E+03  0.49670093673E+03  0.00000000000E+00 0. -1.
         35    2    1    2    0    0  0.00000000000E+00  0.00000000000E+00 -0.45873683054E+03  0.53466504292E+03  0.27464017991E+03 0.  0.
         25    1    3    3    0    0  0.46878299198E+02  0.12152292387E+02 -0.13991049294E+03  0.19057859056E+03  0.12000000000E+03 0.  0.
         25    1    3    3    0    0 -0.46878299198E+02 -0.12152292387E+02 -0.31882633760E+03  0.34408645236E+03  0.12000000000E+03 0.  0.
<mgrwt>
<rscale>  0 0.27464018E+03</rscale>
<asrwt>0</asrwt>
<pdfrwt beam="1">  1        2 0.76415530E-01 0.27464018E+03</pdfrwt>
<pdfrwt beam="2">  1       -2 0.58406316E-02 0.27464018E+03</pdfrwt>
<totfact> 0.96195468E+03</totfact>
</mgrwt>
</event>
<event>
 5    1  0.1132878E+001  0.2747877E+03  0.7818608E-02  0.1098570E+00
         -2   -1    0    0    0  501 -0.00000000000E+00  0.00000000000E+00  0.10668349686E+04  0.10668349686E+04  0.00000000000E+00 0.  1.
          2   -1    0    0  501    0  0.00000000000E+00 -0.00000000000E+00 -0.17694456587E+02  0.17694456587E+02  0.00000000000E+00 0.  1.
         35    2    1    2    0    0  0.00000000000E+00  0.00000000000E+00  0.10491405120E+04  0.10845294251E+04  0.27478766375E+03 0.  0.
         25    1    3    3    0    0  0.50998026907E+02  0.12391207040E+02  0.36075588639E+03  0.38379571431E+03  0.12000000000E+03 0.  0.
         25    1    3    3    0    0 -0.50998026907E+02 -0.12391207040E+02  0.68838462557E+03  0.70073371082E+03  0.12000000000E+03 0.  0.
<mgrwt>
<rscale>  0 0.27478766E+03</rscale>
<asrwt>0</asrwt>
<pdfrwt beam="1">  1        2 0.27222249E-02 0.27478766E+03</pdfrwt>
<pdfrwt beam="2">  1       -2 0.16412841E+00 0.27478766E+03</pdfrwt>
<totfact> 0.89562108E+02</totfact>
</mgrwt>
</event>
<event>
 5    1  0.1132878E+001  0.2805012E+03  0.7818608E-02  0.1095415E+00
         -2   -1    0    0    0  501 -0.00000000000E+00  0.00000000000E+00  0.17163134874E+02  0.17163134874E+02  0.00000000000E+00 0.  1.
          2   -1    0    0  501    0  0.00000000000E+00 -0.00000000000E+00 -0.11460747861E+04  0.11460747861E+04  0.00000000000E+00 0.  1.
         35    2    1    2    0    0  0.00000000000E+00  0.00000000000E+00 -0.11289116512E+04  0.11632379210E+04  0.28050123800E+03 0.  0.
         25    1    3    3    0    0  0.14733368718E+01 -0.33879838986E+02 -0.83064725800E+03  0.83995528538E+03  0.12000000000E+03 0.  0.
         25    1    3    3    0    0 -0.14733368718E+01  0.33879838986E+02 -0.29826439322E+03  0.32328263559E+03  0.12000000000E+03 0.  0.
<mgrwt>
<rscale>  0 0.28050124E+03</rscale>
<asrwt>0</asrwt>
<pdfrwt beam="1">  1        2 0.17631925E+00 0.28050124E+03</pdfrwt>
<pdfrwt beam="2">  1       -2 0.26404815E-02 0.28050124E+03</pdfrwt>
<totfact> 0.10988586E+04</totfact>
</mgrwt>
</event>
<event>
 5    1  0.1132878E+001  0.2736129E+03  0.7818608E-02  0.1099229E+00
         -2   -1    0    0    0  501 -0.00000000000E+00  0.00000000000E+00  0.56958894865E+02  0.56958894865E+02  0.00000000000E+00 0.  1.
          2   -1    0    0  501    0  0.00000000000E+00 -0.00000000000E+00 -0.32858792224E+03  0.32858792224E+03  0.00000000000E+00 0.  1.
         35    2    1    2    0    0  0.00000000000E+00  0.00000000000E+00 -0.27162902738E+03  0.38554681711E+03  0.27361290114E+03 0.  0.
         25    1    3    3    0    0  0.39760340903E+02  0.44200874513E+02 -0.17520379535E+03  0.22052431140E+03  0.12000000000E+03 0.  0.
         25    1    3    3    0    0 -0.39760340903E+02 -0.44200874513E+02 -0.96425232031E+02  0.16502250570E+03  0.12000000000E+03 0.  0.
<mgrwt>
<rscale>  0 0.27361290E+03</rscale>
<asrwt>0</asrwt>
<pdfrwt beam="1">  1        2 0.50551989E-01 0.27361290E+03</pdfrwt>
<pdfrwt beam="2">  1       -2 0.87629068E-02 0.27361290E+03</pdfrwt>
<totfact> 0.80466883E+03</totfact>
</mgrwt>
</event>
<event>
 5    1  0.1132878E+001  0.2741933E+03  0.7818608E-02  0.1098903E+00
         -2   -1    0    0    0  501 -0.00000000000E+00  0.00000000000E+00  0.98012795120E+01  0.98012795120E+01  0.00000000000E+00 0. -1.
          2   -1    0    0  501    0  0.00000000000E+00 -0.00000000000E+00 -0.19176575537E+04  0.19176575537E+04  0.00000000000E+00 0. -1.
         35    2    1    2    0    0  0.00000000000E+00  0.00000000000E+00 -0.19078562741E+04  0.19274588332E+04  0.27419334559E+03 0.  0.
         25    1    3    3    0    0  0.12530138586E+02  0.52150115621E+01 -0.49774824877E+03  0.51218894938E+03  0.12000000000E+03 0.  0.
         25    1    3    3    0    0 -0.12530138586E+02 -0.52150115621E+01 -0.14101080254E+04  0.14152698838E+04  0.12000000000E+03 0.  0.
<mgrwt>
<rscale>  0 0.27419335E+03</rscale>
<asrwt>0</asrwt>
<pdfrwt beam="1">  1        2 0.29502386E+00 0.27419335E+03</pdfrwt>
<pdfrwt beam="2">  1       -2 0.15078911E-02 0.27419335E+03</pdfrwt>
<totfact> 0.96097540E+03</totfact>
</mgrwt>
</event>
<event>
 5    1  0.1132878E+001  0.2770803E+03  0.7818608E-02  0.1097294E+00
         -2   -1    0    0    0  501 -0.00000000000E+00  0.00000000000E+00  0.33151673434E+04  0.33151673434E+04  0.00000000000E+00 0.  1.
          2   -1    0    0  501    0  0.00000000000E+00 -0.00000000000E+00 -0.57895655501E+01  0.57895655501E+01  0.00000000000E+00 0.  1.
         35    2    1    2    0    0  0.00000000000E+00  0.00000000000E+00  0.33093777778E+04  0.33209569089E+04  0.27708033957E+03 0.  0.
         25    1    3    3    0    0 -0.39147086226E+02  0.52092446326E+02  0.19350739727E+04  0.19398859238E+04  0.12000000000E+03 0.  0.
         25    1    3    3    0    0  0.39147086226E+02 -0.52092446326E+02  0.13743038051E+04  0.13810709851E+04  0.12000000000E+03 0.  0.
<mgrwt>
<rscale>  0 0.27708034E+03</rscale>
<asrwt>0</asrwt>
<pdfrwt beam="1">  1        2 0.89070504E-03 0.27708034E+03</pdfrwt>
<pdfrwt beam="2">  1       -2 0.51002423E+00 0.27708034E+03</pdfrwt>
<totfact> 0.29562289E+01</totfact>
</mgrwt>
</event>
<event>
 5    1  0.1132878E+001  0.2755801E+03  0.7818608E-02  0.1098128E+00
         -2   -1    0    0    0  501 -0.00000000000E+00  0.00000000000E+00  0.31005625818E+02  0.31005625818E+02  0.00000000000E+00 0.  1.
          2   -1    0    0  501    0  0.00000000000E+00 -0.00000000000E+00 -0.61234349332E+03  0.61234349332E+03  0.00000000000E+00 0.  1.
         35    2    1    2    0    0  0.00000000000E+00  0.00000000000E+00 -0.58133786751E+03  0.64334911914E+03  0.27558006623E+03 0.  0.
         25    1    3    3    0    0 -0.49695476716E+02 -0.15613981875E+02 -0.39169372435E+03  0.41296175432E+03  0.12000000000E+03 0.  0.
         25    1    3    3    0    0  0.49695476716E+02  0.15613981875E+02 -0.18964414315E+03  0.23038736482E+03  0.12000000000E+03 0.  0.
<mgrwt>
<rscale>  0 0.27558007E+03</rscale>
<asrwt>0</asrwt>
<pdfrwt beam="1">  1        2 0.94206685E-01 0.27558007E+03</pdfrwt>
<pdfrwt beam="2">  1       -2 0.47700966E-02 0.27558007E+03</pdfrwt>
<totfact> 0.10316574E+04</totfact>
</mgrwt>
</event>
<event>
 5    1  0.1132878E+001  0.2750325E+03  0.7818608E-02  0.1098433E+00
          1   -1    0    0  501    0  0.00000000000E+00  0.00000000000E+00  0.45058073412E+03  0.45058073412E+03  0.00000000000E+00 0. -1.
         -1   -1    0    0    0  501 -0.00000000000E+00 -0.00000000000E+00 -0.41969670092E+02  0.41969670092E+02  0.00000000000E+00 0. -1.
         35    2    1    2    0    0  0.00000000000E+00  0.00000000000E+00  0.40861106403E+03  0.49255040422E+03  0.27503254179E+03 0.  0.
         25    1    3    3    0    0 -0.13813021776E+02  0.62966322182E+02  0.17055480108E+03  0.21827619538E+03  0.12000000000E+03 0.  0.
         25    1    3    3    0    0  0.13813021776E+02 -0.62966322182E+02  0.23805626295E+03  0.27427420883E+03  0.12000000000E+03 0.  0.
<mgrwt>
<rscale>  0 0.27503254E+03</rscale>
<asrwt>0</asrwt>
<pdfrwt beam="1">  1        1 0.69320109E-01 0.27503254E+03</pdfrwt>
<pdfrwt beam="2">  1       -1 0.64568727E-02 0.27503254E+03</pdfrwt>
<totfact> 0.61650586E+03</totfact>
</mgrwt>
</event>
<event>
 5    1  0.1132878E+001  0.2765288E+03  0.7818608E-02  0.1097600E+00
         -1   -1    0    0    0  501 -0.00000000000E+00  0.00000000000E+00  0.20265389943E+03  0.20265389943E+03  0.00000000000E+00 0. -1.
          1   -1    0    0  501    0  0.00000000000E+00 -0.00000000000E+00 -0.94333447365E+02  0.94333447365E+02  0.00000000000E+00 0. -1.
         35    2    1    2    0    0  0.00000000000E+00  0.00000000000E+00  0.10832045206E+03  0.29698734679E+03  0.27652877576E+03 0.  0.
         25    1    3    3    0    0 -0.86054044451E+01 -0.58142486033E+02  0.16000709273E+02  0.13457571982E+03  0.12000000000E+03 0.  0.
         25    1    3    3    0    0  0.86054044451E+01  0.58142486033E+02  0.92319742791E+02  0.16241162698E+03  0.12000000000E+03 0.  0.
<mgrwt>
<rscale>  0 0.27652878E+03</rscale>
<asrwt>0</asrwt>
<pdfrwt beam="1">  1        1 0.14512838E-01 0.27652878E+03</pdfrwt>
<pdfrwt beam="2">  1       -1 0.31177523E-01 0.27652878E+03</pdfrwt>
<totfact> 0.37040837E+03</totfact>
</mgrwt>
</event>
<event>
 5    1  0.1132878E+001  0.2751405E+03  0.7818608E-02  0.1098373E+00
         -1   -1    0    0    0  501 -0.00000000000E+00  0.00000000000E+00  0.84609689826E+03  0.84609689826E+03  0.00000000000E+00 0. -1.
          1   -1    0    0  501    0  0.00000000000E+00 -0.00000000000E+00 -0.22368088456E+02  0.22368088456E+02  0.00000000000E+00 0. -1.
         35    2    1    2    0    0  0.00000000000E+00  0.00000000000E+00  0.82372880980E+03  0.86846498672E+03  0.27514047512E+03 0.  0.
         25    1    3    3    0    0  0.31934144589E+01 -0.54261781972E+02  0.53697389716E+03  0.55289737303E+03  0.12000000000E+03 0.  0.
         25    1    3    3    0    0 -0.31934144589E+01  0.54261781972E+02  0.28675491265E+03  0.31556761369E+03  0.12000000000E+03 0.  0.
<mgrwt>
<rscale>  0 0.27514048E+03</rscale>
<asrwt>0</asrwt>
<pdfrwt beam="1">  1        1 0.34412450E-02 0.27514048E+03</pdfrwt>
<pdfrwt beam="2">  1       -1 0.13016873E+00 0.27514048E+03</pdfrwt>
<totfact> 0.15236573E+03</totfact>
</mgrwt>
</event>
<event>
 5    1  0.1132878E+001  0.2723513E+03  0.7818608E-02  0.1099941E+00
          2   -1    0    0  501    0  0.00000000000E+00  0.00000000000E+00  0.33434374110E+03  0.33434374110E+03  0.00000000000E+00 0. -1.
         -2   -1    0    0    0  501 -0.00000000000E+00 -0.00000000000E+00 -0.55463309559E+02  0.55463309559E+02  0.00000000000E+00 0. -1.
         35    2    1    2    0    0  0.00000000000E+00  0.00000000000E+00  0.27888043154E+03  0.38980705065E+03  0.27235132026E+03 0.  0.
         25    1    3    3    0    0  0.48466790794E+02 -0.40580488921E+02  0.15685257808E+03  0.20736088624E+03  0.12000000000E+03 0.  0.
         25    1    3    3    0    0 -0.48466790794E+02  0.40580488921E+02  0.12202785346E+03  0.18244616442E+03  0.12000000000E+03 0.  0.
<mgrwt>
<rscale>  0 0.27235132E+03</rscale>
<asrwt>0</asrwt>
<pdfrwt beam="1">  1        2 0.51437498E-01 0.27235132E+03</pdfrwt>
<pdfrwt beam="2">  1       -2 0.85328170E-02 0.27235132E+03</pdfrwt>
<totfact> 0.82331869E+03</totfact>
</mgrwt>
</event>
<event>
 5    1  0.1132878E+001  0.2747514E+03  0.7818608E-02  0.1098591E+00
         -2   -1    0    0    0  501 -0.00000000000E+00  0.00000000000E+00  0.60386932226E+02  0.60386932226E+02  0.00000000000E+00 0.  1.
          2   -1    0    0  501    0  0.00000000000E+00 -0.00000000000E+00 -0.31251921313E+03  0.31251921313E+03  0.00000000000E+00 0.  1.
         35    2    1    2    0    0  0.00000000000E+00  0.00000000000E+00 -0.25213228091E+03  0.37290614536E+03  0.27475135336E+03 0.  0.
         25    1    3    3    0    0 -0.34358667497E+02 -0.35494596239E+01 -0.20378523806E+03  0.23900112959E+03  0.12000000000E+03 0.  0.
         25    1    3    3    0    0  0.34358667497E+02  0.35494596239E+01 -0.48347042853E+02  0.13390501577E+03  0.12000000000E+03 0.  0.
<mgrwt>
<rscale>  0 0.27475135E+03</rscale>
<asrwt>0</asrwt>
<pdfrwt beam="1">  1        2 0.48079879E-01 0.27475135E+03</pdfrwt>
<pdfrwt beam="2">  1       -2 0.92902973E-02 0.27475135E+03</pdfrwt>
<totfact> 0.77466093E+03</totfact>
</mgrwt>
</event>
<event>
 4    1  0.1132878E+001  0.2916436E+03  0.7818608E-02  0.1089494E+00
         -2   -1    0    0    0  501 -0.00000000000E+00  0.00000000000E+00  0.21090659538E+02  0.21090659538E+02  0.00000000000E+00 0. -1.
          2   -1    0    0  501    0  0.00000000000E+00 -0.00000000000E+00 -0.10082188418E+04  0.10082188418E+04  0.00000000000E+00 0. -1.
         25    1    1    2    0    0 -0.31294720563E+02 -0.12281643772E+02 -0.22631585494E+03  0.25835840321E+03  0.12000000000E+03 0.  0.
         25    1    1    2    0    0  0.31294720563E+02  0.12281643772E+02 -0.76081232729E+03  0.77095109810E+03  0.12000000000E+03 0.  0.
<mgrwt>
<rscale>  0 0.29164362E+03</rscale>
<asrwt>0</asrwt>
<pdfrwt beam="1">  1        2 0.15511057E+00 0.29164362E+03</pdfrwt>
<pdfrwt beam="2">  1       -2 0.32447173E-02 0.29164362E+03</pdfrwt>
<totfact> 0.97732549E+03</totfact>
</mgrwt>
</event>
<event>
 5    1  0.1132878E+001  0.2742997E+03  0.7818608E-02  0.1098844E+00
         -2   -1    0    0    0  501 -0.00000000000E+00  0.00000000000E+00  0.17985007074E+02  0.17985007074E+02  0.00000000000E+00 0.  1.
          2   -1    0    0  501    0  0.00000000000E+00 -0.00000000000E+00 -0.10458759184E+04  0.10458759184E+04  0.00000000000E+00 0.  1.
         35    2    1    2    0    0  0.00000000000E+00  0.00000000000E+00 -0.10278909113E+04  0.10638609254E+04  0.27429973234E+03 0.  0.
         25    1    3    3    0    0 -0.45835440713E+02  0.25117104642E+02 -0.67283599965E+03  0.68544878656E+03  0.12000000000E+03 0.  0.
         25    1    3    3    0    0  0.45835440713E+02 -0.25117104642E+02 -0.35505491164E+03  0.37841213888E+03  0.12000000000E+03 0.  0.
<mgrwt>
<rscale>  0 0.27429973E+03</rscale>
<asrwt>0</asrwt>
<pdfrwt beam="1">  1        2 0.16090405E+00 0.27429973E+03</pdfrwt>
<pdfrwt beam="2">  1       -2 0.27669231E-02 0.27429973E+03</pdfrwt>
<totfact> 0.11735773E+04</totfact>
</mgrwt>
</event>
<event>
 5    1  0.1132878E+001  0.2751287E+03  0.7818608E-02  0.1098380E+00
          2   -1    0    0  501    0  0.00000000000E+00  0.00000000000E+00  0.54840049620E+03  0.54840049620E+03  0.00000000000E+00 0. -1.
         -2   -1    0    0    0  501 -0.00000000000E+00 -0.00000000000E+00 -0.34507547452E+02  0.34507547452E+02  0.00000000000E+00 0. -1.
         35    2    1    2    0    0  0.00000000000E+00  0.00000000000E+00  0.51389294875E+03  0.58290804365E+03  0.27512874183E+03 0.  0.
         25    1    3    3    0    0 -0.53183727620E+02 -0.22413523511E+02  0.18376534762E+03  0.22693738763E+03  0.12000000000E+03 0.  0.
         25    1    3    3    0    0  0.53183727620E+02  0.22413523511E+02  0.33012760113E+03  0.35597065602E+03  0.12000000000E+03 0.  0.
<mgrwt>
<rscale>  0 0.27512874E+03</rscale>
<asrwt>0</asrwt>
<pdfrwt beam="1">  1        2 0.84369301E-01 0.27512874E+03</pdfrwt>
<pdfrwt beam="2">  1       -2 0.53088539E-02 0.27512874E+03</pdfrwt>
<totfact> 0.99551001E+03</totfact>
</mgrwt>
</event>
<event>
 5    1  0.1132878E+001  0.2754354E+03  0.7818608E-02  0.1098208E+00
         -1   -1    0    0    0  501 -0.00000000000E+00  0.00000000000E+00  0.43899357444E+02  0.43899357444E+02  0.00000000000E+00 0.  1.
          1   -1    0    0  501    0  0.00000000000E+00 -0.00000000000E+00 -0.43203726542E+03  0.43203726542E+03  0.00000000000E+00 0.  1.
         35    2    1    2    0    0  0.00000000000E+00  0.00000000000E+00 -0.38813790798E+03  0.47593662286E+03  0.27543535244E+03 0.  0.
         25    1    3    3    0    0 -0.65393507262E+02 -0.10959690431E+02 -0.21658085916E+03  0.25632731841E+03  0.12000000000E+03 0.  0.
         25    1    3    3    0    0  0.65393507262E+02  0.10959690431E+02 -0.17155704881E+03  0.21960930446E+03  0.12000000000E+03 0.  0.
<mgrwt>
<rscale>  0 0.27543535E+03</rscale>
<asrwt>0</asrwt>
<pdfrwt beam="1">  1        1 0.66467276E-01 0.27543535E+03</pdfrwt>
<pdfrwt beam="2">  1       -1 0.67537469E-02 0.27543535E+03</pdfrwt>
<totfact> 0.60829441E+03</totfact>
</mgrwt>
</event>
<event>
 5    1  0.1132878E+001  0.2747288E+03  0.7818608E-02  0.1098603E+00
          2   -1    0    0  501    0  0.00000000000E+00  0.00000000000E+00  0.96263699491E+03  0.96263699491E+03  0.00000000000E+00 0.  1.
         -2   -1    0    0    0  501 -0.00000000000E+00 -0.00000000000E+00 -0.19601340306E+02  0.19601340306E+02  0.00000000000E+00 0.  1.
         35    2    1    2    0    0  0.00000000000E+00  0.00000000000E+00  0.94303565461E+03  0.98223833522E+03  0.27472877773E+03 0.  0.
         25    1    3    3    0    0  0.49542696305E+02 -0.23000451423E+02  0.33371900138E+03  0.35882011009E+03  0.12000000000E+03 0.  0.
         25    1    3    3    0    0 -0.49542696305E+02  0.23000451423E+02  0.60931665322E+03  0.62341822512E+03  0.12000000000E+03 0.  0.
<mgrwt>
<rscale>  0 0.27472878E+03</rscale>
<asrwt>0</asrwt>
<pdfrwt beam="1">  1        2 0.14809796E+00 0.27472878E+03</pdfrwt>
<pdfrwt beam="2">  1       -2 0.30155916E-02 0.27472878E+03</pdfrwt>
<totfact> 0.11611409E+04</totfact>
</mgrwt>
</event>
<event>
 5    1  0.1132878E+001  0.2749248E+03  0.7818608E-02  0.1098494E+00
         -2   -1    0    0    0  501 -0.00000000000E+00  0.00000000000E+00  0.12939475954E+02  0.12939475954E+02  0.00000000000E+00 0. -1.
          2   -1    0    0  501    0  0.00000000000E+00 -0.00000000000E+00 -0.14603307220E+04  0.14603307220E+04  0.00000000000E+00 0. -1.
         35    2    1    2    0    0  0.00000000000E+00  0.00000000000E+00 -0.14473912461E+04  0.14732701980E+04  0.27492482072E+03 0.  0.
         25    1    3    3    0    0 -0.48206260455E+02  0.45197545956E+02 -0.66277167748E+03  0.67678132227E+03  0.12000000000E+03 0.  0.
         25    1    3    3    0    0  0.48206260455E+02 -0.45197545956E+02 -0.78461956857E+03  0.79648887569E+03  0.12000000000E+03 0.  0.
<mgrwt>
<rscale>  0 0.27492482E+03</rscale>
<asrwt>0</asrwt>
<pdfrwt beam="1">  1        2 0.22466607E+00 0.27492482E+03</pdfrwt>
<pdfrwt beam="2">  1       -2 0.19906904E-02 0.27492482E+03</pdfrwt>
<totfact> 0.11154572E+04</totfact>
</mgrwt>
</event>
<event>
 5    1  0.1132878E+001  0.2724620E+03  0.7818608E-02  0.1099879E+00
          2   -1    0    0  501    0  0.00000000000E+00  0.00000000000E+00  0.14620111556E+03  0.14620111556E+03  0.00000000000E+00 0.  1.
         -2   -1    0    0    0  501 -0.00000000000E+00 -0.00000000000E+00 -0.12694081435E+03  0.12694081435E+03  0.00000000000E+00 0.  1.
         35    2    1    2    0    0  0.00000000000E+00  0.00000000000E+00  0.19260301207E+02  0.27314192991E+03  0.27246202428E+03 0.  0.
         25    1    3    3    0    0 -0.43123320350E+02  0.40533237736E+02  0.35312912122E+02  0.13838195649E+03  0.12000000000E+03 0.  0.
         25    1    3    3    0    0  0.43123320350E+02 -0.40533237736E+02 -0.16052610915E+02  0.13475997342E+03  0.12000000000E+03 0.  0.
<mgrwt>
<rscale>  0 0.27246202E+03</rscale>
<asrwt>0</asrwt>
<pdfrwt beam="1">  1        2 0.22492479E-01 0.27246202E+03</pdfrwt>
<pdfrwt beam="2">  1       -2 0.19529356E-01 0.27246202E+03</pdfrwt>
<totfact> 0.52725973E+03</totfact>
</mgrwt>
</event>
<event>
 5    1  0.1132878E+001  0.2748247E+03  0.7818608E-02  0.1098550E+00
          1   -1    0    0  501    0  0.00000000000E+00  0.00000000000E+00  0.21241805295E+03  0.21241805295E+03  0.00000000000E+00 0.  1.
         -1   -1    0    0    0  501 -0.00000000000E+00 -0.00000000000E+00 -0.88891465263E+02  0.88891465263E+02  0.00000000000E+00 0.  1.
         35    2    1    2    0    0  0.00000000000E+00  0.00000000000E+00  0.12352658768E+03  0.30130951821E+03  0.27482468575E+03 0.  0.
         25    1    3    3    0    0 -0.36081554183E+02  0.72725132830E+01  0.12307560881E+03  0.17579070933E+03  0.12000000000E+03 0.  0.
         25    1    3    3    0    0  0.36081554183E+02 -0.72725132830E+01  0.45097887638E+00  0.12551880888E+03  0.12000000000E+03 0.  0.
<mgrwt>
<rscale>  0 0.27482469E+03</rscale>
<asrwt>0</asrwt>
<pdfrwt beam="1">  1        1 0.32679700E-01 0.27482469E+03</pdfrwt>
<pdfrwt beam="2">  1       -1 0.13675610E-01 0.27482469E+03</pdfrwt>
<totfact> 0.50246781E+03</totfact>
</mgrwt>
</event>
<event>
 5    1  0.1132878E+001  0.2754932E+03  0.7818608E-02  0.1098176E+00
          4   -1    0    0  501    0  0.00000000000E+00  0.00000000000E+00  0.18061984865E+04  0.18061984865E+04  0.00000000000E+00 0.  1.
         -4   -1    0    0    0  501 -0.00000000000E+00 -0.00000000000E+00 -0.10505005194E+02  0.10505005194E+02  0.00000000000E+00 0.  1.
         35    2    1    2    0    0  0.00000000000E+00  0.00000000000E+00  0.17956934813E+04  0.18167034917E+04  0.27549319035E+03 0.  0.
         25    1    3    3    0    0 -0.16081908159E+02  0.26218674563E+01  0.46499177288E+03  0.48050270634E+03  0.12000000000E+03 0.  0.
         25    1    3    3    0    0  0.16081908159E+02 -0.26218674563E+01  0.13307017084E+04  0.13362007853E+04  0.12000000000E+03 0.  0.
<mgrwt>
<rscale>  0 0.27549319E+03</rscale>
<asrwt>0</asrwt>
<pdfrwt beam="1">  1        4 0.27787644E+00 0.27549319E+03</pdfrwt>
<pdfrwt beam="2">  1       -4 0.16161561E-02 0.27549319E+03</pdfrwt>
<totfact> 0.12934636E+02</totfact>
</mgrwt>
</event>
<event>
 5    1  0.1132878E+001  0.2780723E+03  0.7818608E-02  0.1096746E+00
         -1   -1    0    0    0  501 -0.00000000000E+00  0.00000000000E+00  0.12912672903E+02  0.12912672903E+02  0.00000000000E+00 0.  1.
          1   -1    0    0  501    0  0.00000000000E+00 -0.00000000000E+00 -0.14970604610E+04  0.14970604610E+04  0.00000000000E+00 0.  1.
         35    2    1    2    0    0  0.00000000000E+00  0.00000000000E+00 -0.14841477881E+04  0.15099731339E+04  0.27807230749E+03 0.  0.
         25    1    3    3    0    0  0.17384635358E+02  0.46154971607E+02 -0.10135021623E+04  0.10217725480E+04  0.12000000000E+03 0.  0.
         25    1    3    3    0    0 -0.17384635358E+02 -0.46154971607E+02 -0.47064562580E+03  0.48820058586E+03  0.12000000000E+03 0.  0.
<mgrwt>
<rscale>  0 0.27807231E+03</rscale>
<asrwt>0</asrwt>
<pdfrwt beam="1">  1        1 0.23031701E+00 0.27807231E+03</pdfrwt>
<pdfrwt beam="2">  1       -1 0.19865649E-02 0.27807231E+03</pdfrwt>
<totfact> 0.49787253E+03</totfact>
</mgrwt>
</event>
<event>
 5    1  0.1132878E+001  0.2748940E+03  0.7818608E-02  0.1098511E+00
          2   -1    0    0  501    0  0.00000000000E+00  0.00000000000E+00  0.12260168617E+04  0.12260168617E+04  0.00000000000E+00 0. -1.
         -2   -1    0    0    0  501 -0.00000000000E+00 -0.00000000000E+00 -0.15408985650E+02  0.15408985650E+02  0.00000000000E+00 0. -1.
         35    2    1    2    0    0  0.00000000000E+00  0.00000000000E+00  0.12106078760E+04  0.12414258473E+04  0.27489398850E+03 0.  0.
         25    1    3    3    0    0 -0.21864966494E+02  0.58061962303E+02  0.49084202192E+03  0.50909248542E+03  0.12000000000E+03 0.  0.
         25    1    3    3    0    0  0.21864966494E+02 -0.58061962303E+02  0.71976585411E+03  0.73233336191E+03  0.12000000000E+03 0.  0.
<mgrwt>
<rscale>  0 0.27489399E+03</rscale>
<asrwt>0</asrwt>
<pdfrwt beam="1">  1        2 0.18861790E+00 0.27489399E+03</pdfrwt>
<pdfrwt beam="2">  1       -2 0.23706142E-02 0.27489399E+03</pdfrwt>
<totfact> 0.11597683E+04</totfact>
</mgrwt>
</event>
<event>
 5    1  0.1132878E+001  0.2746163E+03  0.7818608E-02  0.1098666E+00
          2   -1    0    0  501    0  0.00000000000E+00  0.00000000000E+00  0.13212516310E+04  0.13212516310E+04  0.00000000000E+00 0. -1.
         -2   -1    0    0    0  501 -0.00000000000E+00 -0.00000000000E+00 -0.14269450257E+02  0.14269450257E+02  0.00000000000E+00 0. -1.
         35    2    1    2    0    0  0.00000000000E+00  0.00000000000E+00  0.13069821807E+04  0.13355210812E+04  0.27461634638E+03 0.  0.
         25    1    3    3    0    0 -0.68497802138E+01  0.13309401073E+02  0.33721411072E+03  0.35824211940E+03  0.12000000000E+03 0.  0.
         25    1    3    3    0    0  0.68497802138E+01 -0.13309401073E+02  0.96976806997E+03  0.97727896181E+03  0.12000000000E+03 0.  0.
<mgrwt>
<rscale>  0 0.27461635E+03</rscale>
<asrwt>0</asrwt>
<pdfrwt beam="1">  1        2 0.20326939E+00 0.27461635E+03</pdfrwt>
<pdfrwt beam="2">  1       -2 0.21953011E-02 0.27461635E+03</pdfrwt>
<totfact> 0.11495710E+04</totfact>
</mgrwt>
</event>
<event>
 5    1  0.1132878E+001  0.2738098E+03  0.7818608E-02  0.1099119E+00
         -2   -1    0    0    0  501 -0.00000000000E+00  0.00000000000E+00  0.17285635563E+02  0.17285635563E+02  0.00000000000E+00 0. -1.
          2   -1    0    0  501    0  0.00000000000E+00 -0.00000000000E+00 -0.10843077686E+04  0.10843077686E+04  0.00000000000E+00 0. -1.
         35    2    1    2    0    0  0.00000000000E+00  0.00000000000E+00 -0.10670221330E+04  0.11015934041E+04  0.27380978014E+03 0.  0.
         25    1    3    3    0    0  0.13996300743E+02 -0.63019547163E+02 -0.48019952649E+03  0.49915823643E+03  0.12000000000E+03 0.  0.
         25    1    3    3    0    0 -0.13996300743E+02  0.63019547163E+02 -0.58682260651E+03  0.60243516769E+03  0.12000000000E+03 0.  0.
<mgrwt>
<rscale>  0 0.27380978E+03</rscale>
<asrwt>0</asrwt>
<pdfrwt beam="1">  1        2 0.16681653E+00 0.27380978E+03</pdfrwt>
<pdfrwt beam="2">  1       -2 0.26593293E-02 0.27380978E+03</pdfrwt>
<totfact> 0.11807486E+04</totfact>
</mgrwt>
</event>
<event>
 5    1  0.1132878E+001  0.2755067E+03  0.7818608E-02  0.1098169E+00
         -2   -1    0    0    0  501 -0.00000000000E+00  0.00000000000E+00  0.17221294231E+03  0.17221294231E+03  0.00000000000E+00 0. -1.
          2   -1    0    0  501    0  0.00000000000E+00 -0.00000000000E+00 -0.11018908699E+03  0.11018908699E+03  0.00000000000E+00 0. -1.
         35    2    1    2    0    0  0.00000000000E+00  0.00000000000E+00  0.62023855318E+02  0.28240202931E+03  0.27550671050E+03 0.  0.
         25    1    3    3    0    0  0.19762022934E+02 -0.61459415644E+02  0.10302572394E+02  0.13665262646E+03  0.12000000000E+03 0.  0.
         25    1    3    3    0    0 -0.19762022934E+02  0.61459415644E+02  0.51721282924E+02  0.14574940284E+03  0.12000000000E+03 0.  0.
<mgrwt>
<rscale>  0 0.27550671E+03</rscale>
<asrwt>0</asrwt>
<pdfrwt beam="1">  1        2 0.16952167E-01 0.27550671E+03</pdfrwt>
<pdfrwt beam="2">  1       -2 0.26494299E-01 0.27550671E+03</pdfrwt>
<totfact> 0.42914941E+03</totfact>
</mgrwt>
</event>
<event>
 5    1  0.1132878E+001  0.2868930E+03  0.7818608E-02  0.1091983E+00
         -4   -1    0    0    0  501 -0.00000000000E+00  0.00000000000E+00  0.66219346972E+02  0.66219346972E+02  0.00000000000E+00 0. -1.
          4   -1    0    0  501    0  0.00000000000E+00 -0.00000000000E+00 -0.31073855569E+03  0.31073855569E+03  0.00000000000E+00 0. -1.
         35    2    1    2    0    0  0.00000000000E+00  0.00000000000E+00 -0.24451920872E+03  0.37695790266E+03  0.28689304095E+03 0.  0.
         25    1    3    3    0    0 -0.52521817111E+01  0.77582466920E+02 -0.13725683710E+03  0.19820712378E+03  0.12000000000E+03 0.  0.
         25    1    3    3    0    0  0.52521817111E+01 -0.77582466920E+02 -0.10726237162E+03  0.17875077888E+03  0.12000000000E+03 0.  0.
<mgrwt>
<rscale>  0 0.28689304E+03</rscale>
<asrwt>0</asrwt>
<pdfrwt beam="1">  1        4 0.47805932E-01 0.28689304E+03</pdfrwt>
<pdfrwt beam="2">  1       -4 0.10187592E-01 0.28689304E+03</pdfrwt>
<totfact> 0.58902470E+02</totfact>
</mgrwt>
</event>
<event>
 5    1  0.1132878E+001  0.2752404E+03  0.7818608E-02  0.1098317E+00
          2   -1    0    0  501    0  0.00000000000E+00  0.00000000000E+00  0.10754571366E+03  0.10754571366E+03  0.00000000000E+00 0. -1.
         -2   -1    0    0    0  501 -0.00000000000E+00 -0.00000000000E+00 -0.17610480934E+03  0.17610480934E+03  0.00000000000E+00 0. -1.
         35    2    1    2    0    0  0.00000000000E+00  0.00000000000E+00 -0.68559095681E+02  0.28365052299E+03  0.27524038511E+03 0.  0.
         25    1    3    3    0    0  0.41849902708E+02  0.33256389144E+02 -0.76543833606E+02  0.15204065324E+03  0.12000000000E+03 0.  0.
         25    1    3    3    0    0 -0.41849902708E+02 -0.33256389144E+02  0.79847379241E+01  0.13160986975E+03  0.12000000000E+03 0.  0.
<mgrwt>
<rscale>  0 0.27524039E+03</rscale>
<asrwt>0</asrwt>
<pdfrwt beam="1">  1        2 0.16545495E-01 0.27524039E+03</pdfrwt>
<pdfrwt beam="2">  1       -2 0.27093047E-01 0.27524039E+03</pdfrwt>
<totfact> 0.42425672E+03</totfact>
</mgrwt>
</event>
<event>
 5    1  0.1132878E+001  0.2742997E+03  0.7818608E-02  0.1098844E+00
         -1   -1    0    0    0  501 -0.00000000000E+00  0.00000000000E+00  0.76650252329E+03  0.76650252329E+03  0.00000000000E+00 0. -1.
          1   -1    0    0  501    0  0.00000000000E+00 -0.00000000000E+00 -0.24540147679E+02  0.24540147679E+02  0.00000000000E+00 0. -1.
         35    2    1    2    0    0  0.00000000000E+00  0.00000000000E+00  0.74196237561E+03  0.79104267097E+03  0.27429972744E+03 0.  0.
         25    1    3    3    0    0 -0.27863800130E+02 -0.39602757737E+02  0.50204045051E+03  0.51844901748E+03  0.12000000000E+03 0.  0.
         25    1    3    3    0    0  0.27863800130E+02  0.39602757737E+02  0.23992192510E+03  0.27259365349E+03  0.12000000000E+03 0.  0.
<mgrwt>
<rscale>  0 0.27429973E+03</rscale>
<asrwt>0</asrwt>
<pdfrwt beam="1">  1        1 0.37754079E-02 0.27429973E+03</pdfrwt>
<pdfrwt beam="2">  1       -1 0.11792345E+00 0.27429973E+03</pdfrwt>
<totfact> 0.16989021E+03</totfact>
</mgrwt>
</event>
<event>
 5    1  0.1132878E+001  0.2749842E+03  0.7818608E-02  0.1098460E+00
         -1   -1    0    0    0  501 -0.00000000000E+00  0.00000000000E+00  0.14839059086E+02  0.14839059086E+02  0.00000000000E+00 0. -1.
          1   -1    0    0  501    0  0.00000000000E+00 -0.00000000000E+00 -0.12739406009E+04  0.12739406009E+04  0.00000000000E+00 0. -1.
         35    2    1    2    0    0  0.00000000000E+00  0.00000000000E+00 -0.12591015418E+04  0.12887796599E+04  0.27498421662E+03 0.  0.
         25    1    3    3    0    0  0.52855328408E+01  0.25214167595E+02 -0.33910938521E+03  0.36063675110E+03  0.12000000000E+03 0.  0.
         25    1    3    3    0    0 -0.52855328408E+01 -0.25214167595E+02 -0.91999215656E+03  0.92814290884E+03  0.12000000000E+03 0.  0.
<mgrwt>
<rscale>  0 0.27498422E+03</rscale>
<asrwt>0</asrwt>
<pdfrwt beam="1">  1        1 0.19599088E+00 0.27498422E+03</pdfrwt>
<pdfrwt beam="2">  1       -1 0.22829319E-02 0.27498422E+03</pdfrwt>
<totfact> 0.57416011E+03</totfact>
</mgrwt>
</event>
<event>
 5    1  0.1132878E+001  0.2746153E+03  0.7818608E-02  0.1098667E+00
         -2   -1    0    0    0  501 -0.00000000000E+00  0.00000000000E+00  0.31646616312E+02  0.31646616312E+02  0.00000000000E+00 0.  1.
          2   -1    0    0  501    0  0.00000000000E+00 -0.00000000000E+00 -0.59574756649E+03  0.59574756649E+03  0.00000000000E+00 0.  1.
         35    2    1    2    0    0  0.00000000000E+00  0.00000000000E+00 -0.56410095018E+03  0.62739418280E+03  0.27461532846E+03 0.  0.
         25    1    3    3    0    0  0.45446178598E+02  0.47628128245E+02 -0.30703568187E+03  0.33616172252E+03  0.12000000000E+03 0.  0.
         25    1    3    3    0    0 -0.45446178598E+02 -0.47628128245E+02 -0.25706526831E+03  0.29123246028E+03  0.12000000000E+03 0.  0.
<mgrwt>
<rscale>  0 0.27461533E+03</rscale>
<asrwt>0</asrwt>
<pdfrwt beam="1">  1        2 0.91653466E-01 0.27461533E+03</pdfrwt>
<pdfrwt beam="2">  1       -2 0.48687105E-02 0.27461533E+03</pdfrwt>
<totfact> 0.10324782E+04</totfact>
</mgrwt>
</event>
<event>
 5    1  0.1132878E+001  0.2734708E+03  0.7818608E-02  0.1099309E+00
         -3   -1    0    0    0  501 -0.00000000000E+00  0.00000000000E+00  0.56213346949E+03  0.56213346949E+03  0.00000000000E+00 0.  1.
          3   -1    0    0  501    0  0.00000000000E+00 -0.00000000000E+00 -0.33260009388E+02  0.33260009388E+02  0.00000000000E+00 0.  1.
         35    2    1    2    0    0  0.00000000000E+00  0.00000000000E+00  0.52887346010E+03  0.59539347887E+03  0.27347076240E+03 0.  0.
         25    1    3    3    0    0 -0.92785235858E+01  0.64425245884E+02  0.24759193405E+03  0.28273391928E+03  0.12000000000E+03 0.  0.
         25    1    3    3    0    0  0.92785235858E+01 -0.64425245884E+02  0.28128152605E+03  0.31265955959E+03  0.12000000000E+03 0.  0.
<mgrwt>
<rscale>  0 0.27347076E+03</rscale>
<asrwt>0</asrwt>
<pdfrwt beam="1">  1        3 0.51169249E-02 0.27347076E+03</pdfrwt>
<pdfrwt beam="2">  1       -3 0.86482065E-01 0.27347076E+03</pdfrwt>
<totfact> 0.70007710E+02</totfact>
</mgrwt>
</event>
<event>
 5    1  0.1132878E+001  0.2752518E+03  0.7818608E-02  0.1098311E+00
         -2   -1    0    0    0  501 -0.00000000000E+00  0.00000000000E+00  0.96155862720E+01  0.96155862720E+01  0.00000000000E+00 0. -1.
          2   -1    0    0  501    0  0.00000000000E+00 -0.00000000000E+00 -0.19698116291E+04  0.19698116291E+04  0.00000000000E+00 0. -1.
         35    2    1    2    0    0  0.00000000000E+00  0.00000000000E+00 -0.19601960429E+04  0.19794272154E+04  0.27525183857E+03 0.  0.
         25    1    3    3    0    0 -0.28712757577E+02  0.58666888166E+02 -0.10992806342E+04  0.11077382990E+04  0.12000000000E+03 0.  0.
         25    1    3    3    0    0  0.28712757577E+02 -0.58666888166E+02 -0.86091540861E+03  0.87168891641E+03  0.12000000000E+03 0.  0.
<mgrwt>
<rscale>  0 0.27525184E+03</rscale>
<asrwt>0</asrwt>
<pdfrwt beam="1">  1        2 0.30304788E+00 0.27525184E+03</pdfrwt>
<pdfrwt beam="2">  1       -2 0.14793213E-02 0.27525184E+03</pdfrwt>
<totfact> 0.92786112E+03</totfact>
</mgrwt>
</event>
<event>
 5    1  0.1132878E+001  0.2773332E+03  0.7818608E-02  0.1097154E+00
         -1   -1    0    0    0  501 -0.00000000000E+00  0.00000000000E+00  0.93976498362E+01  0.93976498362E+01  0.00000000000E+00 0. -1.
          1   -1    0    0  501    0  0.00000000000E+00 -0.00000000000E+00 -0.20460881864E+04  0.20460881864E+04  0.00000000000E+00 0. -1.
         35    2    1    2    0    0  0.00000000000E+00  0.00000000000E+00 -0.20366905366E+04  0.20554858363E+04  0.27733315929E+03 0.  0.
         25    1    3    3    0    0 -0.17894439130E+02 -0.62915529903E+02 -0.84455197642E+03  0.85553878680E+03  0.12000000000E+03 0.  0.
         25    1    3    3    0    0  0.17894439130E+02  0.62915529903E+02 -0.11921385602E+04  0.11999470495E+04  0.12000000000E+03 0.  0.
<mgrwt>
<rscale>  0 0.27733316E+03</rscale>
<asrwt>0</asrwt>
<pdfrwt beam="1">  1        1 0.31478327E+00 0.27733316E+03</pdfrwt>
<pdfrwt beam="2">  1       -1 0.14457901E-02 0.27733316E+03</pdfrwt>
<totfact> 0.34675210E+03</totfact>
</mgrwt>
</event>
<event>
 5    1  0.1132878E+001  0.2780814E+03  0.7818608E-02  0.1096741E+00
         -1   -1    0    0    0  501 -0.00000000000E+00  0.00000000000E+00  0.10109586418E+02  0.10109586418E+02  0.00000000000E+00 0.  1.
          1   -1    0    0  501    0  0.00000000000E+00 -0.00000000000E+00 -0.19122760690E+04  0.19122760690E+04  0.00000000000E+00 0.  1.
         35    2    1    2    0    0  0.00000000000E+00  0.00000000000E+00 -0.19021664826E+04  0.19223856554E+04  0.27808142819E+03 0.  0.
         25    1    3    3    0    0 -0.67410271362E+02  0.14115477664E+01 -0.10869349549E+04  0.10956156869E+04  0.12000000000E+03 0.  0.
         25    1    3    3    0    0  0.67410271362E+02 -0.14115477664E+01 -0.81523152766E+03  0.82676996852E+03  0.12000000000E+03 0.  0.
<mgrwt>
<rscale>  0 0.27808143E+03</rscale>
<asrwt>0</asrwt>
<pdfrwt beam="1">  1        1 0.29419639E+00 0.27808143E+03</pdfrwt>
<pdfrwt beam="2">  1       -1 0.15553206E-02 0.27808143E+03</pdfrwt>
<totfact> 0.38084605E+03</totfact>
</mgrwt>
</event>
<event>
 5    1  0.1132878E+001  0.2754111E+03  0.7818608E-02  0.1098222E+00
          2   -1    0    0  501    0  0.00000000000E+00  0.00000000000E+00  0.16143110949E+04  0.16143110949E+04  0.00000000000E+00 0.  1.
         -2   -1    0    0    0  501 -0.00000000000E+00 -0.00000000000E+00 -0.11746691403E+02  0.11746691403E+02  0.00000000000E+00 0.  1.
         35    2    1    2    0    0  0.00000000000E+00  0.00000000000E+00  0.16025644035E+04  0.16260577863E+04  0.27541106920E+03 0.  0.
         25    1    3    3    0    0 -0.46512763232E+02  0.30853591971E+02  0.10259049910E+04  0.10344063185E+04  0.12000000000E+03 0.  0.
         25    1    3    3    0    0  0.46512763232E+02 -0.30853591971E+02  0.57665941250E+03  0.59165146777E+03  0.12000000000E+03 0.  0.
<mgrwt>
<rscale>  0 0.27541107E+03</rscale>
<asrwt>0</asrwt>
<pdfrwt beam="1">  1        2 0.24835538E+00 0.27541107E+03</pdfrwt>
<pdfrwt beam="2">  1       -2 0.18071846E-02 0.27541107E+03</pdfrwt>
<totfact> 0.10643231E+04</totfact>
</mgrwt>
</event>
<event>
 5    1  0.1132878E+001  0.2749836E+03  0.7818608E-02  0.1098461E+00
          4   -1    0    0  501    0  0.00000000000E+00  0.00000000000E+00  0.13546845720E+02  0.13546845720E+02  0.00000000000E+00 0.  1.
         -4   -1    0    0    0  501 -0.00000000000E+00 -0.00000000000E+00 -0.13954533860E+04  0.13954533860E+04  0.00000000000E+00 0.  1.
         35    2    1    2    0    0  0.00000000000E+00  0.00000000000E+00 -0.13819065403E+04  0.14090002317E+04  0.27498357572E+03 0.  0.
         25    1    3    3    0    0  0.41377181207E+02 -0.46401880246E+02 -0.56144961000E+03  0.57748668399E+03  0.12000000000E+03 0.  0.
         25    1    3    3    0    0 -0.41377181207E+02  0.46401880246E+02 -0.82045693026E+03  0.83151354772E+03  0.12000000000E+03 0.  0.
<mgrwt>
<rscale>  0 0.27498358E+03</rscale>
<asrwt>0</asrwt>
<pdfrwt beam="1">  1        4 0.20841308E-02 0.27498358E+03</pdfrwt>
<pdfrwt beam="2">  1       -4 0.21468506E+00 0.27498358E+03</pdfrwt>
<totfact> 0.20781653E+02</totfact>
</mgrwt>
</event>
<event>
 5    1  0.1132878E+001  0.2746683E+03  0.7818608E-02  0.1098637E+00
          2   -1    0    0  501    0  0.00000000000E+00  0.00000000000E+00  0.16567041533E+04  0.16567041533E+04  0.00000000000E+00 0. -1.
         -2   -1    0    0    0  501 -0.00000000000E+00 -0.00000000000E+00 -0.11384453269E+02  0.11384453269E+02  0.00000000000E+00 0. -1.
         35    2    1    2    0    0  0.00000000000E+00  0.00000000000E+00  0.16453197000E+04  0.16680886065E+04  0.27466831644E+03 0.  0.
         25    1    3    3    0    0 -0.13238739248E+02 -0.35675167685E+02  0.11560000689E+04  0.11628345287E+04  0.12000000000E+03 0.  0.
         25    1    3    3    0    0  0.13238739248E+02  0.35675167685E+02  0.48931963105E+03  0.50525407780E+03  0.12000000000E+03 0.  0.
<mgrwt>
<rscale>  0 0.27466832E+03</rscale>
<asrwt>0</asrwt>
<pdfrwt beam="1">  1        2 0.25487737E+00 0.27466832E+03</pdfrwt>
<pdfrwt beam="2">  1       -2 0.17514557E-02 0.27466832E+03</pdfrwt>
<totfact> 0.10582973E+04</totfact>
</mgrwt>
</event>
<event>
 5    1  0.1132878E+001  0.2734153E+03  0.7818608E-02  0.1099341E+00
          1   -1    0    0  501    0  0.00000000000E+00  0.00000000000E+00  0.72139774359E+02  0.72139774359E+02  0.00000000000E+00 0. -1.
         -1   -1    0    0    0  501 -0.00000000000E+00 -0.00000000000E+00 -0.25906628756E+03  0.25906628756E+03  0.00000000000E+00 0. -1.
         35    2    1    2    0    0  0.00000000000E+00  0.00000000000E+00 -0.18692651320E+03  0.33120606192E+03  0.27341531434E+03 0.  0.
         25    1    3    3    0    0  0.47099195235E+02 -0.30526998024E+02 -0.52585225926E+02  0.14253223420E+03  0.12000000000E+03 0.  0.
         25    1    3    3    0    0 -0.47099195235E+02  0.30526998024E+02 -0.13434128728E+03  0.18867382772E+03  0.12000000000E+03 0.  0.
<mgrwt>
<rscale>  0 0.27341531E+03</rscale>
<asrwt>0</asrwt>
<pdfrwt beam="1">  1        1 0.11098427E-01 0.27341531E+03</pdfrwt>
<pdfrwt beam="2">  1       -1 0.39856353E-01 0.27341531E+03</pdfrwt>
<totfact> 0.34462520E+03</totfact>
</mgrwt>
</event>
<event>
 5    1  0.1132878E+001  0.2740880E+03  0.7818608E-02  0.1098962E+00
          2   -1    0    0  501    0  0.00000000000E+00  0.00000000000E+00  0.64877705529E+03  0.64877705529E+03  0.00000000000E+00 0.  1.
         -2   -1    0    0    0  501 -0.00000000000E+00 -0.00000000000E+00 -0.28948395113E+02  0.28948395113E+02  0.00000000000E+00 0.  1.
         35    2    1    2    0    0  0.00000000000E+00  0.00000000000E+00  0.61982866017E+03  0.67772545040E+03  0.27408797520E+03 0.  0.
         25    1    3    3    0    0  0.44837676844E+02 -0.48436732545E+02  0.29767025664E+03  0.32766463955E+03  0.12000000000E+03 0.  0.
         25    1    3    3    0    0 -0.44837676844E+02  0.48436732545E+02  0.32215840353E+03  0.35006081085E+03  0.12000000000E+03 0.  0.
<mgrwt>
<rscale>  0 0.27408798E+03</rscale>
<asrwt>0</asrwt>
<pdfrwt beam="1">  1        2 0.99811844E-01 0.27408798E+03</pdfrwt>
<pdfrwt beam="2">  1       -2 0.44535997E-02 0.27408798E+03</pdfrwt>
<totfact> 0.10691785E+04</totfact>
</mgrwt>
</event>
<event>
 5    1  0.1132878E+001  0.2744786E+03  0.7818608E-02  0.1098743E+00
          2   -1    0    0  501    0  0.00000000000E+00  0.00000000000E+00  0.44725946757E+03  0.44725946757E+03  0.00000000000E+00 0. -1.
         -2   -1    0    0    0  501 -0.00000000000E+00 -0.00000000000E+00 -0.42111190026E+02  0.42111190026E+02  0.00000000000E+00 0. -1.
         35    2    1    2    0    0  0.00000000000E+00  0.00000000000E+00  0.40514827755E+03  0.48937065760E+03  0.27447862161E+03 0.  0.
         25    1    3    3    0    0 -0.18401460349E+02 -0.61743275927E+02  0.17253951084E+03  0.21981976405E+03  0.12000000000E+03 0.  0.
         25    1    3    3    0    0  0.18401460349E+02  0.61743275927E+02  0.23260876671E+03  0.26955089355E+03  0.12000000000E+03 0.  0.
<mgrwt>
<rscale>  0 0.27447862E+03</rscale>
<asrwt>0</asrwt>
<pdfrwt beam="1">  1        2 0.68809145E-01 0.27447862E+03</pdfrwt>
<pdfrwt beam="2">  1       -2 0.64786449E-02 0.27447862E+03</pdfrwt>
<totfact> 0.92138349E+03</totfact>
</mgrwt>
</event>
<event>
 5    1  0.1132878E+001  0.2745424E+03  0.7818608E-02  0.1098708E+00
          4   -1    0    0  501    0  0.00000000000E+00  0.00000000000E+00  0.64787023059E+03  0.64787023059E+03  0.00000000000E+00 0. -1.
         -4   -1    0    0    0  501 -0.00000000000E+00 -0.00000000000E+00 -0.29085116518E+02  0.29085116518E+02  0.00000000000E+00 0. -1.
         35    2    1    2    0    0  0.00000000000E+00  0.00000000000E+00  0.61878511407E+03  0.67695534710E+03  0.27454239123E+03 0.  0.
         25    1    3    3    0    0  0.82034495115E+01 -0.65364655554E+02  0.28430155294E+03  0.31554271943E+03  0.12000000000E+03 0.  0.
         25    1    3    3    0    0 -0.82034495115E+01  0.65364655554E+02  0.33448356113E+03  0.36141262768E+03  0.12000000000E+03 0.  0.
<mgrwt>
<rscale>  0 0.27454239E+03</rscale>
<asrwt>0</asrwt>
<pdfrwt beam="1">  1        4 0.99672332E-01 0.27454239E+03</pdfrwt>
<pdfrwt beam="2">  1       -4 0.44746338E-02 0.27454239E+03</pdfrwt>
<totfact> 0.46022738E+02</totfact>
</mgrwt>
</event>
<event>
 5    1  0.1132878E+001  0.2751169E+03  0.7818608E-02  0.1098386E+00
         -1   -1    0    0    0  501 -0.00000000000E+00  0.00000000000E+00  0.25834992466E+02  0.25834992466E+02  0.00000000000E+00 0.  1.
          1   -1    0    0  501    0  0.00000000000E+00 -0.00000000000E+00 -0.73243030524E+03  0.73243030524E+03  0.00000000000E+00 0.  1.
         35    2    1    2    0    0  0.00000000000E+00  0.00000000000E+00 -0.70659531278E+03  0.75826529771E+03  0.27511693090E+03 0.  0.
         25    1    3    3    0    0 -0.23404491803E+02 -0.63013796702E+02 -0.34790896087E+03  0.37411115175E+03  0.12000000000E+03 0.  0.
         25    1    3    3    0    0  0.23404491803E+02  0.63013796702E+02 -0.35868635191E+03  0.38415414596E+03  0.12000000000E+03 0.  0.
<mgrwt>
<rscale>  0 0.27511693E+03</rscale>
<asrwt>0</asrwt>
<pdfrwt beam="1">  1        1 0.11268158E+00 0.27511693E+03</pdfrwt>
<pdfrwt beam="2">  1       -1 0.39746144E-02 0.27511693E+03</pdfrwt>
<totfact> 0.65278276E+03</totfact>
</mgrwt>
</event>
<event>
 5    1  0.1132878E+001  0.2754063E+03  0.7818608E-02  0.1098225E+00
          2   -1    0    0  501    0  0.00000000000E+00  0.00000000000E+00  0.41131098300E+03  0.41131098300E+03  0.00000000000E+00 0.  1.
         -2   -1    0    0    0  501 -0.00000000000E+00 -0.00000000000E+00 -0.46101749006E+02  0.46101749006E+02  0.00000000000E+00 0.  1.
         35    2    1    2    0    0  0.00000000000E+00  0.00000000000E+00  0.36520923399E+03  0.45741273200E+03  0.27540628679E+03 0.  0.
         25    1    3    3    0    0  0.75716837762E+01 -0.27864378836E+01  0.71226776836E+02  0.13977964219E+03  0.12000000000E+03 0.  0.
         25    1    3    3    0    0 -0.75716837762E+01  0.27864378836E+01  0.29398245716E+03  0.31763308982E+03  0.12000000000E+03 0.  0.
<mgrwt>
<rscale>  0 0.27540629E+03</rscale>
<asrwt>0</asrwt>
<pdfrwt beam="1">  1        2 0.63278610E-01 0.27540629E+03</pdfrwt>
<pdfrwt beam="2">  1       -2 0.70925770E-02 0.27540629E+03</pdfrwt>
<totfact> 0.87814322E+03</totfact>
</mgrwt>
</event>
<event>
 5    1  0.1132878E+001  0.2783923E+03  0.7818608E-02  0.1096570E+00
         -2   -1    0    0    0  501 -0.00000000000E+00  0.00000000000E+00  0.11848337892E+04  0.11848337892E+04  0.00000000000E+00 0.  1.
          2   -1    0    0  501    0  0.00000000000E+00 -0.00000000000E+00 -0.16352981793E+02  0.16352981793E+02  0.00000000000E+00 0.  1.
         35    2    1    2    0    0  0.00000000000E+00  0.00000000000E+00  0.11684808074E+04  0.12011867710E+04  0.27839227994E+03 0.  0.
         25    1    3    3    0    0  0.67994871062E+02  0.16440062664E+02  0.62330887918E+03  0.63859810289E+03  0.12000000000E+03 0.  0.
         25    1    3    3    0    0 -0.67994871062E+02 -0.16440062664E+02  0.54517192823E+03  0.56258866810E+03  0.12000000000E+03 0.  0.
<mgrwt>
<rscale>  0 0.27839228E+03</rscale>
<asrwt>0</asrwt>
<pdfrwt beam="1">  1        2 0.25158443E-02 0.27839228E+03</pdfrwt>
<pdfrwt beam="2">  1       -2 0.18228205E+00 0.27839228E+03</pdfrwt>
<totfact> 0.74975637E+02</totfact>
</mgrwt>
</event>
<event>
 5    1  0.1132878E+001  0.2758571E+03  0.7818608E-02  0.1097973E+00
          1   -1    0    0  501    0  0.00000000000E+00  0.00000000000E+00  0.11573034961E+02  0.11573034961E+02  0.00000000000E+00 0. -1.
         -1   -1    0    0    0  501 -0.00000000000E+00 -0.00000000000E+00 -0.16438453452E+04  0.16438453452E+04  0.00000000000E+00 0. -1.
         35    2    1    2    0    0  0.00000000000E+00  0.00000000000E+00 -0.16322723103E+04  0.16554183802E+04  0.27585706191E+03 0.  0.
         25    1    3    3    0    0 -0.48539123319E+02  0.30193558265E+02 -0.59510844554E+03  0.60977189129E+03  0.12000000000E+03 0.  0.
         25    1    3    3    0    0  0.48539123319E+02 -0.30193558265E+02 -0.10371638647E+04  0.10456464889E+04  0.12000000000E+03 0.  0.
<mgrwt>
<rscale>  0 0.27585706E+03</rscale>
<asrwt>0</asrwt>
<pdfrwt beam="1">  1        1 0.17804666E-02 0.27585706E+03</pdfrwt>
<pdfrwt beam="2">  1       -1 0.25289933E+00 0.27585706E+03</pdfrwt>
<totfact> 0.54273619E+02</totfact>
</mgrwt>
</event>
<event>
 5    1  0.1132878E+001  0.2750808E+03  0.7818608E-02  0.1098406E+00
          1   -1    0    0  501    0  0.00000000000E+00  0.00000000000E+00  0.62403614632E+02  0.62403614632E+02  0.00000000000E+00 0. -1.
         -1   -1    0    0    0  501 -0.00000000000E+00 -0.00000000000E+00 -0.30314531015E+03  0.30314531015E+03  0.00000000000E+00 0. -1.
         35    2    1    2    0    0  0.00000000000E+00  0.00000000000E+00 -0.24074169551E+03  0.36554892478E+03  0.27508081076E+03 0.  0.
         25    1    3    3    0    0  0.59282669810E+02 -0.25126115399E+02 -0.14598776494E+03  0.19964514551E+03  0.12000000000E+03 0.  0.
         25    1    3    3    0    0 -0.59282669810E+02  0.25126115399E+02 -0.94753930575E+02  0.16590377926E+03  0.12000000000E+03 0.  0.
<mgrwt>
<rscale>  0 0.27508081E+03</rscale>
<asrwt>0</asrwt>
<pdfrwt beam="1">  1        1 0.96005558E-02 0.27508081E+03</pdfrwt>
<pdfrwt beam="2">  1       -1 0.46637742E-01 0.27508081E+03</pdfrwt>
<totfact> 0.31560751E+03</totfact>
</mgrwt>
</event>
<event>
 5    1  0.1132878E+001  0.2752528E+03  0.7818608E-02  0.1098310E+00
          2   -1    0    0  501    0  0.00000000000E+00  0.00000000000E+00  0.26093844590E+03  0.26093844590E+03  0.00000000000E+00 0. -1.
         -2   -1    0    0    0  501 -0.00000000000E+00 -0.00000000000E+00 -0.72588075787E+02  0.72588075787E+02  0.00000000000E+00 0. -1.
         35    2    1    2    0    0  0.00000000000E+00  0.00000000000E+00  0.18835037012E+03  0.33352652169E+03  0.27525275430E+03 0.  0.
         25    1    3    3    0    0  0.17378206879E+02  0.12154228539E+02  0.16670321274E+02  0.12299441840E+03  0.12000000000E+03 0.  0.
         25    1    3    3    0    0 -0.17378206879E+02 -0.12154228539E+02  0.17168004884E+03  0.21053210329E+03  0.12000000000E+03 0.  0.
<mgrwt>
<rscale>  0 0.27525275E+03</rscale>
<asrwt>0</asrwt>
<pdfrwt beam="1">  1        2 0.40144376E-01 0.27525275E+03</pdfrwt>
<pdfrwt beam="2">  1       -2 0.11167396E-01 0.27525275E+03</pdfrwt>
<totfact> 0.70176735E+03</totfact>
</mgrwt>
</event>
<event>
 5    1  0.1132878E+001  0.2729688E+03  0.7818608E-02  0.1099592E+00
         -2   -1    0    0    0  501 -0.00000000000E+00  0.00000000000E+00  0.63531911244E+03  0.63531911244E+03  0.00000000000E+00 0.  1.
          2   -1    0    0  501    0  0.00000000000E+00 -0.00000000000E+00 -0.29320674533E+02  0.29320674533E+02  0.00000000000E+00 0.  1.
         35    2    1    2    0    0  0.00000000000E+00  0.00000000000E+00  0.60599843791E+03  0.66463978697E+03  0.27296875221E+03 0.  0.
         25    1    3    3    0    0  0.25911988514E+02  0.20269801171E+02  0.43956166539E+03  0.45683339815E+03  0.12000000000E+03 0.  0.
         25    1    3    3    0    0 -0.25911988514E+02 -0.20269801171E+02  0.16643677252E+03  0.20780638882E+03  0.12000000000E+03 0.  0.
<mgrwt>
<rscale>  0 0.27296875E+03</rscale>
<asrwt>0</asrwt>
<pdfrwt beam="1">  1        2 0.45108735E-02 0.27296875E+03</pdfrwt>
<pdfrwt beam="2">  1       -2 0.97741392E-01 0.27296875E+03</pdfrwt>
<totfact> 0.16291640E+03</totfact>
</mgrwt>
</event>
<event>
 4    1  0.1132878E+001  0.2947462E+03  0.7818608E-02  0.1087897E+00
          1   -1    0    0  501    0  0.00000000000E+00  0.00000000000E+00  0.83640964785E+03  0.83640964785E+03  0.00000000000E+00 0. -1.
         -1   -1    0    0    0  501 -0.00000000000E+00 -0.00000000000E+00 -0.25966730176E+02  0.25966730176E+02  0.00000000000E+00 0. -1.
         25    1    1    2    0    0  0.12563200560E+02  0.50956088898E+02  0.20755011015E+03  0.24542087366E+03  0.12000000000E+03 0.  0.
         25    1    1    2    0    0 -0.12563200560E+02 -0.50956088898E+02  0.60289280753E+03  0.61695550437E+03  0.12000000000E+03 0.  0.
<mgrwt>
<rscale>  0 0.29474615E+03</rscale>
<asrwt>0</asrwt>
<pdfrwt beam="1">  1        1 0.12867839E+00 0.29474615E+03</pdfrwt>
<pdfrwt beam="2">  1       -1 0.39948822E-02 0.29474615E+03</pdfrwt>
<totfact> 0.52972927E+03</totfact>
</mgrwt>
</event>
<event>
 5    1  0.1132878E+001  0.2749083E+03  0.7818608E-02  0.1098503E+00
         -4   -1    0    0    0  501 -0.00000000000E+00  0.00000000000E+00  0.19365290956E+03  0.19365290956E+03  0.00000000000E+00 0.  1.
          4   -1    0    0  501    0  0.00000000000E+00 -0.00000000000E+00 -0.97564493029E+02  0.97564493029E+02  0.00000000000E+00 0.  1.
         35    2    1    2    0    0  0.00000000000E+00  0.00000000000E+00  0.96088416534E+02  0.29121740259E+03  0.27490833341E+03 0.  0.
         25    1    3    3    0    0  0.54088767143E+02 -0.39495936730E+02  0.45024815471E+02  0.14461243984E+03  0.12000000000E+03 0.  0.
         25    1    3    3    0    0 -0.54088767143E+02  0.39495936730E+02  0.51063601063E+02  0.14660496275E+03  0.12000000000E+03 0.  0.
<mgrwt>
<rscale>  0 0.27490833E+03</rscale>
<asrwt>0</asrwt>
<pdfrwt beam="1">  1        4 0.15009922E-01 0.27490833E+03</pdfrwt>
<pdfrwt beam="2">  1       -4 0.29792755E-01 0.27490833E+03</pdfrwt>
<totfact> 0.76061623E+02</totfact>
</mgrwt>
</event>
<event>
 5    1  0.1132878E+001  0.2754498E+03  0.7818608E-02  0.1098200E+00
         -2   -1    0    0    0  501 -0.00000000000E+00  0.00000000000E+00  0.30886361718E+02  0.30886361718E+02  0.00000000000E+00 0.  1.
          2   -1    0    0  501    0  0.00000000000E+00 -0.00000000000E+00 -0.61412693531E+03  0.61412693531E+03  0.00000000000E+00 0.  1.
         35    2    1    2    0    0  0.00000000000E+00  0.00000000000E+00 -0.58324057359E+03  0.64501329703E+03  0.27544978973E+03 0.  0.
         25    1    3    3    0    0  0.52875769228E+02 -0.39847805731E+02 -0.32342327964E+03  0.35126387860E+03  0.12000000000E+03 0.  0.
         25    1    3    3    0    0 -0.52875769228E+02  0.39847805731E+02 -0.25981729394E+03  0.29374941843E+03  0.12000000000E+03 0.  0.
<mgrwt>
<rscale>  0 0.27544979E+03</rscale>
<asrwt>0</asrwt>
<pdfrwt beam="1">  1        2 0.94481068E-01 0.27544979E+03</pdfrwt>
<pdfrwt beam="2">  1       -2 0.47517479E-02 0.27544979E+03</pdfrwt>
<totfact> 0.10341658E+04</totfact>
</mgrwt>
</event>
<event>
 5    1  0.1132878E+001  0.2750390E+03  0.7818608E-02  0.1098430E+00
          2   -1    0    0  501    0  0.00000000000E+00  0.00000000000E+00  0.10329126809E+03  0.10329126809E+03  0.00000000000E+00 0.  1.
         -2   -1    0    0    0  501 -0.00000000000E+00 -0.00000000000E+00 -0.18309007574E+03  0.18309007574E+03  0.00000000000E+00 0.  1.
         35    2    1    2    0    0  0.00000000000E+00  0.00000000000E+00 -0.79798807649E+02  0.28638134383E+03  0.27503895068E+03 0.  0.
         25    1    3    3    0    0 -0.31257006199E+02  0.32478281190E+02  0.11951454576E+02  0.12874267533E+03  0.12000000000E+03 0.  0.
         25    1    3    3    0    0  0.31257006199E+02 -0.32478281190E+02 -0.91750262225E+02  0.15763866849E+03  0.12000000000E+03 0.  0.
<mgrwt>
<rscale>  0 0.27503895E+03</rscale>
<asrwt>0</asrwt>
<pdfrwt beam="1">  1        2 0.15890965E-01 0.27503895E+03</pdfrwt>
<pdfrwt beam="2">  1       -2 0.28167704E-01 0.27503895E+03</pdfrwt>
<totfact> 0.41488593E+03</totfact>
</mgrwt>
</event>
<event>
 5    1  0.1132878E+001  0.2742320E+03  0.7818608E-02  0.1098882E+00
         -4   -1    0    0    0  501 -0.00000000000E+00  0.00000000000E+00  0.11936964590E+03  0.11936964590E+03  0.00000000000E+00 0.  1.
          4   -1    0    0  501    0  0.00000000000E+00 -0.00000000000E+00 -0.15750066961E+03  0.15750066961E+03  0.00000000000E+00 0.  1.
         35    2    1    2    0    0  0.00000000000E+00  0.00000000000E+00 -0.38131023706E+02  0.27687031551E+03  0.27423201243E+03 0.  0.
         25    1    3    3    0    0 -0.23322938540E+02  0.16409078764E+02  0.41407159381E+02  0.13010676453E+03  0.12000000000E+03 0.  0.
         25    1    3    3    0    0  0.23322938540E+02 -0.16409078764E+02 -0.79538183087E+02  0.14676355098E+03  0.12000000000E+03 0.  0.
<mgrwt>
<rscale>  0 0.27423201E+03</rscale>
<asrwt>0</asrwt>
<pdfrwt beam="1">  1        4 0.24230872E-01 0.27423201E+03</pdfrwt>
<pdfrwt beam="2">  1       -4 0.18364561E-01 0.27423201E+03</pdfrwt>
<totfact> 0.78319137E+02</totfact>
</mgrwt>
</event>
<event>
 5    1  0.1132878E+001  0.2771214E+03  0.7818608E-02  0.1097272E+00
         -3   -1    0    0    0  501 -0.00000000000E+00  0.00000000000E+00  0.55846050072E+03  0.55846050072E+03  0.00000000000E+00 0.  1.
          3   -1    0    0  501    0  0.00000000000E+00 -0.00000000000E+00 -0.34378555989E+02  0.34378555989E+02  0.00000000000E+00 0.  1.
         35    2    1    2    0    0  0.00000000000E+00  0.00000000000E+00  0.52408194473E+03  0.59283905671E+03  0.27712138562E+03 0.  0.
         25    1    3    3    0    0 -0.67206045791E+02  0.11613449542E+02  0.23605596652E+03  0.27344824763E+03  0.12000000000E+03 0.  0.
         25    1    3    3    0    0  0.67206045791E+02 -0.11613449542E+02  0.28802597821E+03  0.31939080908E+03  0.12000000000E+03 0.  0.
<mgrwt>
<rscale>  0 0.27712139E+03</rscale>
<asrwt>0</asrwt>
<pdfrwt beam="1">  1        3 0.52890090E-02 0.27712139E+03</pdfrwt>
<pdfrwt beam="2">  1       -3 0.85916993E-01 0.27712139E+03</pdfrwt>
<totfact> 0.67463402E+02</totfact>
</mgrwt>
</event>
<event>
 5    1  0.1132878E+001  0.2741569E+03  0.7818608E-02  0.1098924E+00
         -1   -1    0    0    0  501 -0.00000000000E+00  0.00000000000E+00  0.26581052699E+03  0.26581052699E+03  0.00000000000E+00 0. -1.
          1   -1    0    0  501    0  0.00000000000E+00 -0.00000000000E+00 -0.70691343211E+02  0.70691343211E+02  0.00000000000E+00 0. -1.
         35    2    1    2    0    0  0.00000000000E+00  0.00000000000E+00  0.19511918378E+03  0.33650187020E+03  0.27415691268E+03 0.  0.
         25    1    3    3    0    0 -0.48044726978E+02  0.37421597586E+02  0.65509683550E+02  0.14966693154E+03  0.12000000000E+03 0.  0.
         25    1    3    3    0    0  0.48044726978E+02 -0.37421597586E+02  0.12960950022E+03  0.18683493866E+03  0.12000000000E+03 0.  0.
<mgrwt>
<rscale>  0 0.27415691E+03</rscale>
<asrwt>0</asrwt>
<pdfrwt beam="1">  1        1 0.10875591E-01 0.27415691E+03</pdfrwt>
<pdfrwt beam="2">  1       -1 0.40893927E-01 0.27415691E+03</pdfrwt>
<totfact> 0.33830517E+03</totfact>
</mgrwt>
</event>
<event>
 5    1  0.1132878E+001  0.2751474E+03  0.7818608E-02  0.1098369E+00
         -2   -1    0    0    0  501 -0.00000000000E+00  0.00000000000E+00  0.62704443492E+01  0.62704443492E+01  0.00000000000E+00 0. -1.
          2   -1    0    0  501    0  0.00000000000E+00 -0.00000000000E+00 -0.30183711258E+04  0.30183711258E+04  0.00000000000E+00 0. -1.
         35    2    1    2    0    0  0.00000000000E+00  0.00000000000E+00 -0.30121006814E+04  0.30246415701E+04  0.27514743807E+03 0.  0.
         25    1    3    3    0    0 -0.21912843969E+02  0.35638888866E+02 -0.92684070688E+03  0.93551269316E+03  0.12000000000E+03 0.  0.
         25    1    3    3    0    0  0.21912843969E+02 -0.35638888866E+02 -0.20852599746E+04  0.20891288770E+04  0.12000000000E+03 0.  0.
<mgrwt>
<rscale>  0 0.27514744E+03</rscale>
<asrwt>0</asrwt>
<pdfrwt beam="1">  1        2 0.46436495E+00 0.27514744E+03</pdfrwt>
<pdfrwt beam="2">  1       -2 0.96468342E-03 0.27514744E+03</pdfrwt>
<totfact> 0.45645170E+03</totfact>
</mgrwt>
</event>
<event>
 5    1  0.1132878E+001  0.2756043E+03  0.7818608E-02  0.1098114E+00
          2   -1    0    0  501    0  0.00000000000E+00  0.00000000000E+00  0.18620802575E+04  0.18620802575E+04  0.00000000000E+00 0.  1.
         -2   -1    0    0    0  501 -0.00000000000E+00 -0.00000000000E+00 -0.10197968927E+02  0.10197968927E+02  0.00000000000E+00 0.  1.
         35    2    1    2    0    0  0.00000000000E+00  0.00000000000E+00  0.18518822885E+04  0.18722782264E+04  0.27560432946E+03 0.  0.
         25    1    3    3    0    0  0.32220457852E+02  0.22009312136E+01  0.13304987114E+04  0.13362895730E+04  0.12000000000E+03 0.  0.
         25    1    3    3    0    0 -0.32220457852E+02 -0.22009312136E+01  0.52138357713E+03  0.53598865333E+03  0.12000000000E+03 0.  0.
<mgrwt>
<rscale>  0 0.27560433E+03</rscale>
<asrwt>0</asrwt>
<pdfrwt beam="1">  1        2 0.28647361E+00 0.27560433E+03</pdfrwt>
<pdfrwt beam="2">  1       -2 0.15689198E-02 0.27560433E+03</pdfrwt>
<totfact> 0.96982638E+03</totfact>
</mgrwt>
</event>
<event>
 5    1  0.1132878E+001  0.2748878E+03  0.7818608E-02  0.1098514E+00
          1   -1    0    0  501    0  0.00000000000E+00  0.00000000000E+00  0.38789808183E+02  0.38789808183E+02  0.00000000000E+00 0. -1.
         -1   -1    0    0    0  501 -0.00000000000E+00 -0.00000000000E+00 -0.48700480846E+03  0.48700480846E+03  0.00000000000E+00 0. -1.
         35    2    1    2    0    0  0.00000000000E+00  0.00000000000E+00 -0.44821500028E+03  0.52579461664E+03  0.27488778150E+03 0.  0.
         25    1    3    3    0    0 -0.31429939127E+02  0.59185591771E+02 -0.22452550526E+03  0.26325363789E+03  0.12000000000E+03 0.  0.
         25    1    3    3    0    0  0.31429939127E+02 -0.59185591771E+02 -0.22368949502E+03  0.26254097876E+03  0.12000000000E+03 0.  0.
<mgrwt>
<rscale>  0 0.27488778E+03</rscale>
<asrwt>0</asrwt>
<pdfrwt beam="1">  1        1 0.59676630E-02 0.27488778E+03</pdfrwt>
<pdfrwt beam="2">  1       -1 0.74923814E-01 0.27488778E+03</pdfrwt>
<totfact> 0.24264839E+03</totfact>
</mgrwt>
</event>
<event>
 5    1  0.1132878E+001  0.2745424E+03  0.7818608E-02  0.1098708E+00
          2   -1    0    0  501    0  0.00000000000E+00  0.00000000000E+00  0.10759864034E+04  0.10759864034E+04  0.00000000000E+00 0. -1.
         -2   -1    0    0    0  501 -0.00000000000E+00 -0.00000000000E+00 -0.17512664102E+02  0.17512664102E+02  0.00000000000E+00 0. -1.
         35    2    1    2    0    0  0.00000000000E+00  0.00000000000E+00  0.10584737393E+04  0.10934990675E+04  0.27454244453E+03 0.  0.
         25    1    3    3    0    0  0.62398900202E+01 -0.34570061719E+02  0.75487804123E+03  0.76516330448E+03  0.12000000000E+03 0.  0.
         25    1    3    3    0    0 -0.62398900202E+01  0.34570061719E+02  0.30359569811E+03  0.32833576306E+03  0.12000000000E+03 0.  0.
<mgrwt>
<rscale>  0 0.27454244E+03</rscale>
<asrwt>0</asrwt>
<pdfrwt beam="1">  1        2 0.16553632E+00 0.27454244E+03</pdfrwt>
<pdfrwt beam="2">  1       -2 0.26942569E-02 0.27454244E+03</pdfrwt>
<totfact> 0.11714255E+04</totfact>
</mgrwt>
</event>
<event>
 5    1  0.1132878E+001  0.2749391E+03  0.7818608E-02  0.1098486E+00
         -1   -1    0    0    0  501 -0.00000000000E+00  0.00000000000E+00  0.49215721470E+02  0.49215721470E+02  0.00000000000E+00 0.  1.
          1   -1    0    0  501    0  0.00000000000E+00 -0.00000000000E+00 -0.38398036730E+03  0.38398036730E+03  0.00000000000E+00 0.  1.
         35    2    1    2    0    0  0.00000000000E+00  0.00000000000E+00 -0.33476464583E+03  0.43319608877E+03  0.27493905366E+03 0.  0.
         25    1    3    3    0    0  0.61058431799E+02 -0.15158463437E+02 -0.13076987500E+03  0.18830472993E+03  0.12000000000E+03 0.  0.
         25    1    3    3    0    0 -0.61058431799E+02  0.15158463437E+02 -0.20399477083E+03  0.24489135884E+03  0.12000000000E+03 0.  0.
<mgrwt>
<rscale>  0 0.27493905E+03</rscale>
<asrwt>0</asrwt>
<pdfrwt beam="1">  1        1 0.59073902E-01 0.27493905E+03</pdfrwt>
<pdfrwt beam="2">  1       -1 0.75716496E-02 0.27493905E+03</pdfrwt>
<totfact> 0.59497492E+03</totfact>
</mgrwt>
</event>
<event>
 5    1  0.1132878E+001  0.2750170E+03  0.7818608E-02  0.1098442E+00
         -2   -1    0    0    0  501 -0.00000000000E+00  0.00000000000E+00  0.40496871834E+03  0.40496871834E+03  0.00000000000E+00 0. -1.
          2   -1    0    0  501    0  0.00000000000E+00 -0.00000000000E+00 -0.46691466838E+02  0.46691466838E+02  0.00000000000E+00 0. -1.
         35    2    1    2    0    0  0.00000000000E+00  0.00000000000E+00  0.35827725150E+03  0.45166018518E+03  0.27501697026E+03 0.  0.
         25    1    3    3    0    0  0.43068553304E+02  0.42321626995E+02  0.22737201162E+03  0.26409099202E+03  0.12000000000E+03 0.  0.
         25    1    3    3    0    0 -0.43068553304E+02 -0.42321626995E+02  0.13090523988E+03  0.18756919316E+03  0.12000000000E+03 0.  0.
<mgrwt>
<rscale>  0 0.27501697E+03</rscale>
<asrwt>0</asrwt>
<pdfrwt beam="1">  1        2 0.71833029E-02 0.27501697E+03</pdfrwt>
<pdfrwt beam="2">  1       -2 0.62302877E-01 0.27501697E+03</pdfrwt>
<totfact> 0.23810318E+03</totfact>
</mgrwt>
</event>
<event>
 5    1  0.1132878E+001  0.2671555E+03  0.7818608E-02  0.1102919E+00
         -3   -1    0    0    0  501 -0.00000000000E+00  0.00000000000E+00  0.14995515279E+02  0.14995515279E+02  0.00000000000E+00 0.  1.
          3   -1    0    0  501    0  0.00000000000E+00 -0.00000000000E+00 -0.11898903313E+04  0.11898903313E+04  0.00000000000E+00 0.  1.
         35    2    1    2    0    0  0.00000000000E+00  0.00000000000E+00 -0.11748948161E+04  0.12048858466E+04  0.26715552507E+03 0.  0.
         25    1    3    3    0    0 -0.57140784530E+02 -0.99343987452E+01 -0.54729599293E+03  0.56329092431E+03  0.12000000000E+03 0.  0.
         25    1    3    3    0    0  0.57140784530E+02  0.99343987452E+01 -0.62759882313E+03  0.64159492230E+03  0.12000000000E+03 0.  0.
<mgrwt>
<rscale>  0 0.26715553E+03</rscale>
<asrwt>0</asrwt>
<pdfrwt beam="1">  1        3 0.18306009E+00 0.26715553E+03</pdfrwt>
<pdfrwt beam="2">  1       -3 0.23070018E-02 0.26715553E+03</pdfrwt>
<totfact> 0.39558208E+02</totfact>
</mgrwt>
</event>
<event>
 5    1  0.1132878E+001  0.2736210E+03  0.7818608E-02  0.1099225E+00
          2   -1    0    0  501    0  0.00000000000E+00  0.00000000000E+00  0.12217152336E+04  0.12217152336E+04  0.00000000000E+00 0. -1.
         -2   -1    0    0    0  501 -0.00000000000E+00 -0.00000000000E+00 -0.15320359077E+02  0.15320359077E+02  0.00000000000E+00 0. -1.
         35    2    1    2    0    0  0.00000000000E+00  0.00000000000E+00  0.12063948745E+04  0.12370355927E+04  0.27362102309E+03 0.  0.
         25    1    3    3    0    0  0.64392943776E+02  0.41965840066E+01  0.54726619992E+03  0.56397194620E+03  0.12000000000E+03 0.  0.
         25    1    3    3    0    0 -0.64392943776E+02 -0.41965840066E+01  0.65912867461E+03  0.67306364648E+03  0.12000000000E+03 0.  0.
<mgrwt>
<rscale>  0 0.27362102E+03</rscale>
<asrwt>0</asrwt>
<pdfrwt beam="1">  1        2 0.18795611E+00 0.27362102E+03</pdfrwt>
<pdfrwt beam="2">  1       -2 0.23569793E-02 0.27362102E+03</pdfrwt>
<totfact> 0.11761029E+04</totfact>
</mgrwt>
</event>
<event>
 5    1  0.1132878E+001  0.2752636E+03  0.7818608E-02  0.1098304E+00
         -2   -1    0    0    0  501 -0.00000000000E+00  0.00000000000E+00  0.80508551153E+02  0.80508551153E+02  0.00000000000E+00 0. -1.
          2   -1    0    0  501    0  0.00000000000E+00 -0.00000000000E+00 -0.23528572433E+03  0.23528572433E+03  0.00000000000E+00 0. -1.
         35    2    1    2    0    0  0.00000000000E+00  0.00000000000E+00 -0.15477717318E+03  0.31579427549E+03  0.27526360292E+03 0.  0.
         25    1    3    3    0    0 -0.18978661473E+02  0.95154737243E+01 -0.40028691223E+01  0.12192931064E+03  0.12000000000E+03 0.  0.
         25    1    3    3    0    0  0.18978661473E+02 -0.95154737243E+01 -0.15077430406E+03  0.19386496485E+03  0.12000000000E+03 0.  0.
<mgrwt>
<rscale>  0 0.27526360E+03</rscale>
<asrwt>0</asrwt>
<pdfrwt beam="1">  1        2 0.36197803E-01 0.27526360E+03</pdfrwt>
<pdfrwt beam="2">  1       -2 0.12385931E-01 0.27526360E+03</pdfrwt>
<totfact> 0.66418061E+03</totfact>
</mgrwt>
</event>
<event>
 5    1  0.1132878E+001  0.2750423E+03  0.7818608E-02  0.1098428E+00
          2   -1    0    0  501    0  0.00000000000E+00  0.00000000000E+00  0.14118192948E+04  0.14118192948E+04  0.00000000000E+00 0. -1.
         -2   -1    0    0    0  501 -0.00000000000E+00 -0.00000000000E+00 -0.13395529929E+02  0.13395529929E+02  0.00000000000E+00 0. -1.
         35    2    1    2    0    0  0.00000000000E+00  0.00000000000E+00  0.13984237649E+04  0.14252148248E+04  0.27504230670E+03 0.  0.
         25    1    3    3    0    0  0.61621440845E+02 -0.21395425485E+02  0.61612488546E+03  0.63108227727E+03  0.12000000000E+03 0.  0.
         25    1    3    3    0    0 -0.61621440845E+02  0.21395425485E+02  0.78229887944E+03  0.79413254748E+03  0.12000000000E+03 0.  0.
<mgrwt>
<rscale>  0 0.27504231E+03</rscale>
<asrwt>0</asrwt>
<pdfrwt beam="1">  1        2 0.21720285E+00 0.27504231E+03</pdfrwt>
<pdfrwt beam="2">  1       -2 0.20608519E-02 0.27504231E+03</pdfrwt>
<totfact> 0.11259308E+04</totfact>
</mgrwt>
</event>
<event>
 5    1  0.1132878E+001  0.2729502E+03  0.7818608E-02  0.1099603E+00
          2   -1    0    0  501    0  0.00000000000E+00  0.00000000000E+00  0.98432146299E+02  0.98432146299E+02  0.00000000000E+00 0. -1.
         -2   -1    0    0    0  501 -0.00000000000E+00 -0.00000000000E+00 -0.18922120816E+03  0.18922120816E+03  0.00000000000E+00 0. -1.
         35    2    1    2    0    0  0.00000000000E+00  0.00000000000E+00 -0.90789061858E+02  0.28765335446E+03  0.27295017600E+03 0.  0.
         25    1    3    3    0    0 -0.13097704751E+02 -0.16960854078E+02 -0.11006997771E+03  0.16423952153E+03  0.12000000000E+03 0.  0.
         25    1    3    3    0    0  0.13097704751E+02  0.16960854078E+02  0.19280915849E+02  0.12341383292E+03  0.12000000000E+03 0.  0.
<mgrwt>
<rscale>  0 0.27295018E+03</rscale>
<asrwt>0</asrwt>
<pdfrwt beam="1">  1        2 0.15143407E-01 0.27295018E+03</pdfrwt>
<pdfrwt beam="2">  1       -2 0.29110955E-01 0.27295018E+03</pdfrwt>
<totfact> 0.41375354E+03</totfact>
</mgrwt>
</event>
<event>
 5    1  0.1132878E+001  0.2743574E+03  0.7818608E-02  0.1098811E+00
         -1   -1    0    0    0  501 -0.00000000000E+00  0.00000000000E+00  0.20506138273E+02  0.20506138273E+02  0.00000000000E+00 0.  1.
          1   -1    0    0  501    0  0.00000000000E+00 -0.00000000000E+00 -0.91767614519E+03  0.91767614519E+03  0.00000000000E+00 0.  1.
         35    2    1    2    0    0  0.00000000000E+00  0.00000000000E+00 -0.89717000692E+03  0.93818228346E+03  0.27435738680E+03 0.  0.
         25    1    3    3    0    0 -0.35625025909E+02 -0.50248686952E+02 -0.53400023859E+03  0.55077248282E+03  0.12000000000E+03 0.  0.
         25    1    3    3    0    0  0.35625025909E+02  0.50248686952E+02 -0.36316976832E+03  0.38740980064E+03  0.12000000000E+03 0.  0.
<mgrwt>
<rscale>  0 0.27435739E+03</rscale>
<asrwt>0</asrwt>
<pdfrwt beam="1">  1        1 0.14118095E+00 0.27435739E+03</pdfrwt>
<pdfrwt beam="2">  1       -1 0.31547903E-02 0.27435739E+03</pdfrwt>
<totfact> 0.64675683E+03</totfact>
</mgrwt>
</event>
<event>
 5    1  0.1132878E+001  0.2754047E+03  0.7818608E-02  0.1098226E+00
         -2   -1    0    0    0  501 -0.00000000000E+00  0.00000000000E+00  0.16053752017E+02  0.16053752017E+02  0.00000000000E+00 0.  1.
          2   -1    0    0  501    0  0.00000000000E+00 -0.00000000000E+00 -0.11811530362E+04  0.11811530362E+04  0.00000000000E+00 0.  1.
         35    2    1    2    0    0  0.00000000000E+00  0.00000000000E+00 -0.11650992841E+04  0.11972067882E+04  0.27540470538E+03 0.  0.
         25    1    3    3    0    0 -0.28244873441E+02 -0.61186019451E+02 -0.60220118500E+03  0.61772790861E+03  0.12000000000E+03 0.  0.
         25    1    3    3    0    0  0.28244873441E+02  0.61186019451E+02 -0.56289809913E+03  0.57947887956E+03  0.12000000000E+03 0.  0.
<mgrwt>
<rscale>  0 0.27540471E+03</rscale>
<asrwt>0</asrwt>
<pdfrwt beam="1">  1        2 0.18171592E+00 0.27540471E+03</pdfrwt>
<pdfrwt beam="2">  1       -2 0.24698070E-02 0.27540471E+03</pdfrwt>
<totfact> 0.11575547E+04</totfact>
</mgrwt>
</event>
<event>
 5    1  0.1132878E+001  0.2755362E+03  0.7818608E-02  0.1098152E+00
         -1   -1    0    0    0  501 -0.00000000000E+00  0.00000000000E+00  0.55354255345E+02  0.55354255345E+02  0.00000000000E+00 0.  1.
          1   -1    0    0  501    0  0.00000000000E+00 -0.00000000000E+00 -0.34288323544E+03  0.34288323544E+03  0.00000000000E+00 0.  1.
         35    2    1    2    0    0  0.00000000000E+00  0.00000000000E+00 -0.28752898009E+03  0.39823749078E+03  0.27553617670E+03 0.  0.
         25    1    3    3    0    0  0.62488605738E+02 -0.25567755595E+02 -0.15046774418E+03  0.20395852032E+03  0.12000000000E+03 0.  0.
         25    1    3    3    0    0 -0.62488605738E+02  0.25567755595E+02 -0.13706123591E+03  0.19427897046E+03  0.12000000000E+03 0.  0.
<mgrwt>
<rscale>  0 0.27553618E+03</rscale>
<asrwt>0</asrwt>
<pdfrwt beam="1">  1        1 0.52751268E-01 0.27553618E+03</pdfrwt>
<pdfrwt beam="2">  1       -1 0.85160392E-02 0.27553618E+03</pdfrwt>
<totfact> 0.57419416E+03</totfact>
</mgrwt>
</event>
<event>
 5    1  0.1132878E+001  0.2750265E+03  0.7818608E-02  0.1098437E+00
          1   -1    0    0  501    0  0.00000000000E+00  0.00000000000E+00  0.50696751545E+03  0.50696751545E+03  0.00000000000E+00 0.  1.
         -1   -1    0    0    0  501 -0.00000000000E+00 -0.00000000000E+00 -0.37300015131E+02  0.37300015131E+02  0.00000000000E+00 0.  1.
         35    2    1    2    0    0  0.00000000000E+00  0.00000000000E+00  0.46966750032E+03  0.54426753058E+03  0.27502651506E+03 0.  0.
         25    1    3    3    0    0  0.63435614903E+00  0.66895979186E+02  0.22322319131E+03  0.26211460772E+03  0.12000000000E+03 0.  0.
         25    1    3    3    0    0 -0.63435614903E+00 -0.66895979186E+02  0.24644430900E+03  0.28215292286E+03  0.12000000000E+03 0.  0.
<mgrwt>
<rscale>  0 0.27502652E+03</rscale>
<asrwt>0</asrwt>
<pdfrwt beam="1">  1        1 0.77994997E-01 0.27502652E+03</pdfrwt>
<pdfrwt beam="2">  1       -1 0.57384642E-02 0.27502652E+03</pdfrwt>
<totfact> 0.63064466E+03</totfact>
</mgrwt>
</event>
<event>
 5    1  0.1132878E+001  0.2750738E+03  0.7818608E-02  0.1098410E+00
         -2   -1    0    0    0  501 -0.00000000000E+00  0.00000000000E+00  0.92705733421E+02  0.92705733421E+02  0.00000000000E+00 0. -1.
          2   -1    0    0  501    0  0.00000000000E+00 -0.00000000000E+00 -0.20404778121E+03  0.20404778121E+03  0.00000000000E+00 0. -1.
         35    2    1    2    0    0  0.00000000000E+00  0.00000000000E+00 -0.11134204779E+03  0.29675351463E+03  0.27507380253E+03 0.  0.
         25    1    3    3    0    0 -0.39474030262E+02 -0.54387214517E+02 -0.55152472045E+02  0.14818219644E+03  0.12000000000E+03 0.  0.
         25    1    3    3    0    0  0.39474030262E+02  0.54387214517E+02 -0.56189575747E+02  0.14857131820E+03  0.12000000000E+03 0.  0.
<mgrwt>
<rscale>  0 0.27507380E+03</rscale>
<asrwt>0</asrwt>
<pdfrwt beam="1">  1        2 0.31391966E-01 0.27507380E+03</pdfrwt>
<pdfrwt beam="2">  1       -2 0.14262421E-01 0.27507380E+03</pdfrwt>
<totfact> 0.61612478E+03</totfact>
</mgrwt>
</event>
<event>
 5    1  0.1132878E+001  0.2753621E+03  0.7818608E-02  0.1098249E+00
         -2   -1    0    0    0  501 -0.00000000000E+00  0.00000000000E+00  0.35373206673E+02  0.35373206673E+02  0.00000000000E+00 0.  1.
          2   -1    0    0  501    0  0.00000000000E+00 -0.00000000000E+00 -0.53588782109E+03  0.53588782109E+03  0.00000000000E+00 0.  1.
         35    2    1    2    0    0  0.00000000000E+00  0.00000000000E+00 -0.50051461442E+03  0.57126102777E+03  0.27536209361E+03 0.  0.
         25    1    3    3    0    0 -0.31923972126E+02 -0.39681449983E+02 -0.15835749957E+03  0.20511181131E+03  0.12000000000E+03 0.  0.
         25    1    3    3    0    0  0.31923972126E+02  0.39681449983E+02 -0.34215711485E+03  0.36614921646E+03  0.12000000000E+03 0.  0.
<mgrwt>
<rscale>  0 0.27536209E+03</rscale>
<asrwt>0</asrwt>
<pdfrwt beam="1">  1        2 0.82444275E-01 0.27536209E+03</pdfrwt>
<pdfrwt beam="2">  1       -2 0.54420321E-02 0.27536209E+03</pdfrwt>
<totfact> 0.98407767E+03</totfact>
</mgrwt>
</event>
<event>
 5    1  0.1132878E+001  0.2755642E+03  0.7818608E-02  0.1098137E+00
          2   -1    0    0  501    0  0.00000000000E+00  0.00000000000E+00  0.10595666634E+03  0.10595666634E+03  0.00000000000E+00 0.  1.
         -2   -1    0    0    0  501 -0.00000000000E+00 -0.00000000000E+00 -0.17916664312E+03  0.17916664312E+03  0.00000000000E+00 0.  1.
         35    2    1    2    0    0  0.00000000000E+00  0.00000000000E+00 -0.73209976784E+02  0.28512330946E+03  0.27556415023E+03 0.  0.
         25    1    3    3    0    0  0.52865035781E+02  0.28259750793E+02 -0.40397979528E+01  0.13420002046E+03  0.12000000000E+03 0.  0.
         25    1    3    3    0    0 -0.52865035781E+02 -0.28259750793E+02 -0.69170178831E+02  0.15092328900E+03  0.12000000000E+03 0.  0.
<mgrwt>
<rscale>  0 0.27556415E+03</rscale>
<asrwt>0</asrwt>
<pdfrwt beam="1">  1        2 0.16301026E-01 0.27556415E+03</pdfrwt>
<pdfrwt beam="2">  1       -2 0.27564098E-01 0.27556415E+03</pdfrwt>
<totfact> 0.41863312E+03</totfact>
</mgrwt>
</event>
<event>
 5    1  0.1132878E+001  0.2748458E+03  0.7818608E-02  0.1098538E+00
          4   -1    0    0  501    0  0.00000000000E+00  0.00000000000E+00  0.28717753986E+03  0.28717753986E+03  0.00000000000E+00 0. -1.
         -4   -1    0    0    0  501 -0.00000000000E+00 -0.00000000000E+00 -0.65760885209E+02  0.65760885209E+02  0.00000000000E+00 0. -1.
         35    2    1    2    0    0  0.00000000000E+00  0.00000000000E+00  0.22141665465E+03  0.35293842507E+03  0.27484576936E+03 0.  0.
         25    1    3    3    0    0 -0.51058003160E+02  0.14366177220E+01  0.55087953178E+02  0.14157565519E+03  0.12000000000E+03 0.  0.
         25    1    3    3    0    0  0.51058003160E+02 -0.14366177220E+01  0.16632870147E+03  0.21136276988E+03  0.12000000000E+03 0.  0.
<mgrwt>
<rscale>  0 0.27484577E+03</rscale>
<asrwt>0</asrwt>
<pdfrwt beam="1">  1        4 0.44181159E-01 0.27484577E+03</pdfrwt>
<pdfrwt beam="2">  1       -4 0.10117059E-01 0.27484577E+03</pdfrwt>
<totfact> 0.69553837E+02</totfact>
</mgrwt>
</event>
<event>
 5    1  0.1132878E+001  0.2770654E+03  0.7818608E-02  0.1097303E+00
         -2   -1    0    0    0  501 -0.00000000000E+00  0.00000000000E+00  0.13105702196E+03  0.13105702196E+03  0.00000000000E+00 0. -1.
          2   -1    0    0  501    0  0.00000000000E+00 -0.00000000000E+00 -0.14643483174E+03  0.14643483174E+03  0.00000000000E+00 0. -1.
         35    2    1    2    0    0  0.00000000000E+00  0.00000000000E+00 -0.15377809774E+02  0.27749185370E+03  0.27706542880E+03 0.  0.
         25    1    3    3    0    0  0.68885348870E+02  0.46974183476E+01 -0.12601138218E+02  0.13901814886E+03  0.12000000000E+03 0.  0.
         25    1    3    3    0    0 -0.68885348870E+02 -0.46974183476E+01 -0.27766715567E+01  0.13847370484E+03  0.12000000000E+03 0.  0.
<mgrwt>
<rscale>  0 0.27706543E+03</rscale>
<asrwt>0</asrwt>
<pdfrwt beam="1">  1        2 0.22528436E-01 0.27706543E+03</pdfrwt>
<pdfrwt beam="2">  1       -2 0.20162619E-01 0.27706543E+03</pdfrwt>
<totfact> 0.49866995E+03</totfact>
</mgrwt>
</event>
<event>
 5    1  0.1132878E+001  0.2755598E+03  0.7818608E-02  0.1098139E+00
          2   -1    0    0  501    0  0.00000000000E+00  0.00000000000E+00  0.11879302154E+03  0.11879302154E+03  0.00000000000E+00 0.  1.
         -2   -1    0    0    0  501 -0.00000000000E+00 -0.00000000000E+00 -0.15980149544E+03  0.15980149544E+03  0.00000000000E+00 0.  1.
         35    2    1    2    0    0  0.00000000000E+00  0.00000000000E+00 -0.41008473898E+02  0.27859451698E+03  0.27555981195E+03 0.  0.
         25    1    3    3    0    0  0.18533103206E+01  0.42537088846E+02 -0.73719097125E+02  0.14713036385E+03  0.12000000000E+03 0.  0.
         25    1    3    3    0    0 -0.18533103206E+01 -0.42537088846E+02  0.32710623227E+02  0.13146415313E+03  0.12000000000E+03 0.  0.
<mgrwt>
<rscale>  0 0.27555981E+03</rscale>
<asrwt>0</asrwt>
<pdfrwt beam="1">  1        2 0.18275849E-01 0.27555981E+03</pdfrwt>
<pdfrwt beam="2">  1       -2 0.24584845E-01 0.27555981E+03</pdfrwt>
<totfact> 0.44887765E+03</totfact>
</mgrwt>
</event>
<event>
 5    1  0.1132878E+001  0.2749250E+03  0.7818608E-02  0.1098494E+00
          1   -1    0    0  501    0  0.00000000000E+00  0.00000000000E+00  0.81899990377E+02  0.81899990377E+02  0.00000000000E+00 0.  1.
         -1   -1    0    0    0  501 -0.00000000000E+00 -0.00000000000E+00 -0.23071963574E+03  0.23071963574E+03  0.00000000000E+00 0.  1.
         35    2    1    2    0    0  0.00000000000E+00  0.00000000000E+00 -0.14881964536E+03  0.31261962611E+03  0.27492497847E+03 0.  0.
         25    1    3    3    0    0 -0.48258642317E+01 -0.16173994080E+02 -0.61987851066E+00  0.12118280117E+03  0.12000000000E+03 0.  0.
         25    1    3    3    0    0  0.48258642317E+01  0.16173994080E+02 -0.14819976685E+03  0.19143682494E+03  0.12000000000E+03 0.  0.
<mgrwt>
<rscale>  0 0.27492498E+03</rscale>
<asrwt>0</asrwt>
<pdfrwt beam="1">  1        1 0.12599998E-01 0.27492498E+03</pdfrwt>
<pdfrwt beam="2">  1       -1 0.35495329E-01 0.27492498E+03</pdfrwt>
<totfact> 0.35684512E+03</totfact>
</mgrwt>
</event>
<event>
 5    1  0.1132878E+001  0.2756067E+03  0.7818608E-02  0.1098113E+00
          1   -1    0    0  501    0  0.00000000000E+00  0.00000000000E+00  0.14503169645E+03  0.14503169645E+03  0.00000000000E+00 0. -1.
         -1   -1    0    0    0  501 -0.00000000000E+00 -0.00000000000E+00 -0.13093525982E+03  0.13093525982E+03  0.00000000000E+00 0. -1.
         35    2    1    2    0    0  0.00000000000E+00  0.00000000000E+00  0.14096436637E+02  0.27596695627E+03  0.27560669699E+03 0.  0.
         25    1    3    3    0    0  0.66942779981E+02 -0.10333885809E+02  0.83296837692E+01  0.13804893560E+03  0.12000000000E+03 0.  0.
         25    1    3    3    0    0 -0.66942779981E+02  0.10333885809E+02  0.57667528681E+01  0.13791802067E+03  0.12000000000E+03 0.  0.
<mgrwt>
<rscale>  0 0.27560670E+03</rscale>
<asrwt>0</asrwt>
<pdfrwt beam="1">  1        1 0.22312569E-01 0.27560670E+03</pdfrwt>
<pdfrwt beam="2">  1       -1 0.20143886E-01 0.27560670E+03</pdfrwt>
<totfact> 0.43876050E+03</totfact>
</mgrwt>
</event>
<event>
 5    1  0.1132878E+001  0.2752540E+03  0.7818608E-02  0.1098310E+00
         -4   -1    0    0    0  501 -0.00000000000E+00  0.00000000000E+00  0.46818728253E+02  0.46818728253E+02  0.00000000000E+00 0.  1.
          4   -1    0    0  501    0  0.00000000000E+00 -0.00000000000E+00 -0.40456427012E+03  0.40456427012E+03  0.00000000000E+00 0.  1.
         35    2    1    2    0    0  0.00000000000E+00  0.00000000000E+00 -0.35774554187E+03  0.45138299838E+03  0.27525395273E+03 0.  0.
         25    1    3    3    0    0  0.56868228751E+02  0.33852048816E+02 -0.15805032080E+03  0.20918857654E+03  0.12000000000E+03 0.  0.
         25    1    3    3    0    0 -0.56868228751E+02 -0.33852048816E+02 -0.19969522107E+03  0.24219442183E+03  0.12000000000E+03 0.  0.
<mgrwt>
<rscale>  0 0.27525395E+03</rscale>
<asrwt>0</asrwt>
<pdfrwt beam="1">  1        4 0.62240657E-01 0.27525395E+03</pdfrwt>
<pdfrwt beam="2">  1       -4 0.72028813E-02 0.27525395E+03</pdfrwt>
<totfact> 0.60463435E+02</totfact>
</mgrwt>
</event>
<event>
 5    1  0.1132878E+001  0.2650391E+03  0.7818608E-02  0.1104153E+00
          2   -1    0    0  501    0  0.00000000000E+00  0.00000000000E+00  0.16151344355E+04  0.16151344355E+04  0.00000000000E+00 0.  1.
         -2   -1    0    0    0  501 -0.00000000000E+00 -0.00000000000E+00 -0.10873046911E+02  0.10873046911E+02  0.00000000000E+00 0.  1.
         35    2    1    2    0    0  0.00000000000E+00  0.00000000000E+00  0.16042613886E+04  0.16260074824E+04  0.26503911020E+03 0.  0.
         25    1    3    3    0    0 -0.32387867191E+00  0.51495451740E+02  0.94061618972E+03  0.94963714271E+03  0.12000000000E+03 0.  0.
         25    1    3    3    0    0  0.32387867191E+00 -0.51495451740E+02  0.66364519888E+03  0.67637033971E+03  0.12000000000E+03 0.  0.
<mgrwt>
<rscale>  0 0.26503911E+03</rscale>
<asrwt>0</asrwt>
<pdfrwt beam="1">  1        2 0.24848203E+00 0.26503911E+03</pdfrwt>
<pdfrwt beam="2">  1       -2 0.16727777E-02 0.26503911E+03</pdfrwt>
<totfact> 0.11899084E+04</totfact>
</mgrwt>
</event>
<event>
 5    1  0.1132878E+001  0.2763422E+03  0.7818608E-02  0.1097704E+00
          1   -1    0    0  501    0  0.00000000000E+00  0.00000000000E+00  0.30970290087E+03  0.30970290087E+03  0.00000000000E+00 0. -1.
         -1   -1    0    0    0  501 -0.00000000000E+00 -0.00000000000E+00 -0.61643755378E+02  0.61643755378E+02  0.00000000000E+00 0. -1.
         35    2    1    2    0    0  0.00000000000E+00  0.00000000000E+00  0.24805914549E+03  0.37134665624E+03  0.27634217818E+03 0.  0.
         25    1    3    3    0    0  0.27364695363E+02  0.12881831937E+02  0.20660979252E+03  0.24083682133E+03  0.12000000000E+03 0.  0.
         25    1    3    3    0    0 -0.27364695363E+02 -0.12881831937E+02  0.41449352971E+02  0.13050983491E+03  0.12000000000E+03 0.  0.
<mgrwt>
<rscale>  0 0.27634218E+03</rscale>
<asrwt>0</asrwt>
<pdfrwt beam="1">  1        1 0.47646599E-01 0.27634218E+03</pdfrwt>
<pdfrwt beam="2">  1       -1 0.94836549E-02 0.27634218E+03</pdfrwt>
<totfact> 0.55346396E+03</totfact>
</mgrwt>
</event>
<event>
 5    1  0.1132878E+001  0.2747760E+03  0.7818608E-02  0.1098577E+00
          3   -1    0    0  501    0  0.00000000000E+00  0.00000000000E+00  0.20617348122E+03  0.20617348122E+03  0.00000000000E+00 0. -1.
         -3   -1    0    0    0  501 -0.00000000000E+00 -0.00000000000E+00 -0.91551358110E+02  0.91551358110E+02  0.00000000000E+00 0. -1.
         35    2    1    2    0    0  0.00000000000E+00  0.00000000000E+00  0.11462212311E+03  0.29772483933E+03  0.27477599758E+03 0.  0.
         25    1    3    3    0    0 -0.61135347406E+02 -0.18124737036E+02  0.35386865546E+02  0.14042174706E+03  0.12000000000E+03 0.  0.
         25    1    3    3    0    0  0.61135347406E+02  0.18124737036E+02  0.79235257560E+02  0.15730309226E+03  0.12000000000E+03 0.  0.
<mgrwt>
<rscale>  0 0.27477600E+03</rscale>
<asrwt>0</asrwt>
<pdfrwt beam="1">  1        3 0.31718997E-01 0.27477600E+03</pdfrwt>
<pdfrwt beam="2">  1       -3 0.14084824E-01 0.27477600E+03</pdfrwt>
<totfact> 0.10175406E+03</totfact>
</mgrwt>
</event>
<event>
 5    1  0.1132878E+001  0.2756790E+03  0.7818608E-02  0.1098073E+00
         -2   -1    0    0    0  501 -0.00000000000E+00  0.00000000000E+00  0.16701518872E+03  0.16701518872E+03  0.00000000000E+00 0.  1.
          2   -1    0    0  501    0  0.00000000000E+00 -0.00000000000E+00 -0.11376051121E+03  0.11376051121E+03  0.00000000000E+00 0.  1.
         35    2    1    2    0    0  0.00000000000E+00  0.00000000000E+00  0.53254677518E+02  0.28077569993E+03  0.27567903982E+03 0.  0.
         25    1    3    3    0    0  0.51320301979E+02  0.12162089557E+02 -0.16799468179E+02  0.13215109515E+03  0.12000000000E+03 0.  0.
         25    1    3    3    0    0 -0.51320301979E+02 -0.12162089557E+02  0.70054145697E+02  0.14862460478E+03  0.12000000000E+03 0.  0.
<mgrwt>
<rscale>  0 0.27567904E+03</rscale>
<asrwt>0</asrwt>
<pdfrwt beam="1">  1        2 0.17501617E-01 0.27567904E+03</pdfrwt>
<pdfrwt beam="2">  1       -2 0.25694644E-01 0.27567904E+03</pdfrwt>
<totfact> 0.43661482E+03</totfact>
</mgrwt>
</event>
<event>
 5    1  0.1132878E+001  0.2752886E+03  0.7818608E-02  0.1098290E+00
          2   -1    0    0  501    0  0.00000000000E+00  0.00000000000E+00  0.10753607541E+04  0.10753607541E+04  0.00000000000E+00 0.  1.
         -2   -1    0    0    0  501 -0.00000000000E+00 -0.00000000000E+00 -0.17618227014E+02  0.17618227014E+02  0.00000000000E+00 0.  1.
         35    2    1    2    0    0  0.00000000000E+00  0.00000000000E+00  0.10577425271E+04  0.10929789811E+04  0.27528857505E+03 0.  0.
         25    1    3    3    0    0  0.26074680115E+02 -0.56450440832E+02  0.42538346079E+03  0.44633802205E+03  0.12000000000E+03 0.  0.
         25    1    3    3    0    0 -0.26074680115E+02  0.56450440832E+02  0.63235906633E+03  0.64664095910E+03  0.12000000000E+03 0.  0.
<mgrwt>
<rscale>  0 0.27528858E+03</rscale>
<asrwt>0</asrwt>
<pdfrwt beam="1">  1        2 0.16544006E+00 0.27528858E+03</pdfrwt>
<pdfrwt beam="2">  1       -2 0.27104973E-02 0.27528858E+03</pdfrwt>
<totfact> 0.11621174E+04</totfact>
</mgrwt>
</event>
<event>
 4    1  0.1132878E+001  0.2589969E+03  0.7818608E-02  0.1107747E+00
          2   -1    0    0  501    0  0.00000000000E+00  0.00000000000E+00  0.16817079249E+04  0.16817079249E+04  0.00000000000E+00 0.  1.
         -2   -1    0    0    0  501 -0.00000000000E+00 -0.00000000000E+00 -0.99719136098E+01  0.99719136098E+01  0.00000000000E+00 0.  1.
         25    1    1    2    0    0 -0.35169766911E+02  0.11288513381E+02  0.62875119651E+03  0.64116488531E+03  0.12000000000E+03 0.  0.
         25    1    1    2    0    0  0.35169766911E+02 -0.11288513381E+02  0.10429848148E+04  0.10505149532E+04  0.12000000000E+03 0.  0.
<mgrwt>
<rscale>  0 0.25899688E+03</rscale>
<asrwt>0</asrwt>
<pdfrwt beam="1">  1        2 0.25872407E+00 0.25899688E+03</pdfrwt>
<pdfrwt beam="2">  1       -2 0.15341419E-02 0.25899688E+03</pdfrwt>
<totfact> 0.12449468E+04</totfact>
</mgrwt>
</event>
<event>
 5    1  0.1132878E+001  0.2741073E+03  0.7818608E-02  0.1098952E+00
          1   -1    0    0  501    0  0.00000000000E+00  0.00000000000E+00  0.28185562485E+02  0.28185562485E+02  0.00000000000E+00 0.  1.
         -1   -1    0    0    0  501 -0.00000000000E+00 -0.00000000000E+00 -0.66642995556E+03  0.66642995556E+03  0.00000000000E+00 0.  1.
         35    2    1    2    0    0  0.00000000000E+00  0.00000000000E+00 -0.63824439307E+03  0.69461551804E+03  0.27410730128E+03 0.  0.
         25    1    3    3    0    0  0.27490134098E+02  0.48790514185E+02 -0.40862588196E+03  0.42954782406E+03  0.12000000000E+03 0.  0.
         25    1    3    3    0    0 -0.27490134098E+02 -0.48790514185E+02 -0.22961851111E+03  0.26506769398E+03  0.12000000000E+03 0.  0.
<mgrwt>
<rscale>  0 0.27410730E+03</rscale>
<asrwt>0</asrwt>
<pdfrwt beam="1">  1        1 0.43362407E-02 0.27410730E+03</pdfrwt>
<pdfrwt beam="2">  1       -1 0.10252768E+00 0.27410730E+03</pdfrwt>
<totfact> 0.19329903E+03</totfact>
</mgrwt>
</event>
<event>
 5    1  0.1132878E+001  0.2752019E+03  0.7818608E-02  0.1098339E+00
          1   -1    0    0  501    0  0.00000000000E+00  0.00000000000E+00  0.46524274061E+02  0.46524274061E+02  0.00000000000E+00 0.  1.
         -1   -1    0    0    0  501 -0.00000000000E+00 -0.00000000000E+00 -0.40697086609E+03  0.40697086609E+03  0.00000000000E+00 0.  1.
         35    2    1    2    0    0  0.00000000000E+00  0.00000000000E+00 -0.36044659203E+03  0.45349514015E+03  0.27520191939E+03 0.  0.
         25    1    3    3    0    0  0.60644204974E+02  0.96610582397E+01 -0.13470620768E+03  0.19056971961E+03  0.12000000000E+03 0.  0.
         25    1    3    3    0    0 -0.60644204974E+02 -0.96610582397E+01 -0.22574038435E+03  0.26292542054E+03  0.12000000000E+03 0.  0.
<mgrwt>
<rscale>  0 0.27520192E+03</rscale>
<asrwt>0</asrwt>
<pdfrwt beam="1">  1        1 0.71575810E-02 0.27520192E+03</pdfrwt>
<pdfrwt beam="2">  1       -1 0.62610899E-01 0.27520192E+03</pdfrwt>
<totfact> 0.27018941E+03</totfact>
</mgrwt>
</event>
<event>
 5    1  0.1132878E+001  0.2757344E+03  0.7818608E-02  0.1098042E+00
         -2   -1    0    0    0  501 -0.00000000000E+00  0.00000000000E+00  0.19883544535E+03  0.19883544535E+03  0.00000000000E+00 0.  1.
          2   -1    0    0  501    0  0.00000000000E+00 -0.00000000000E+00 -0.95593421797E+02  0.95593421797E+02  0.00000000000E+00 0.  1.
         35    2    1    2    0    0  0.00000000000E+00  0.00000000000E+00  0.10324202355E+03  0.29442886714E+03  0.27573436924E+03 0.  0.
         25    1    3    3    0    0 -0.26467849941E+02 -0.46767814054E+02  0.73416533239E+01  0.13168779513E+03  0.12000000000E+03 0.  0.
         25    1    3    3    0    0  0.26467849941E+02  0.46767814054E+02  0.95900370226E+02  0.16274107202E+03  0.12000000000E+03 0.  0.
<mgrwt>
<rscale>  0 0.27573437E+03</rscale>
<asrwt>0</asrwt>
<pdfrwt beam="1">  1        2 0.14706680E-01 0.27573437E+03</pdfrwt>
<pdfrwt beam="2">  1       -2 0.30590068E-01 0.27573437E+03</pdfrwt>
<totfact> 0.39165452E+03</totfact>
</mgrwt>
</event>
<event>
 5    1  0.1132878E+001  0.2746224E+03  0.7818608E-02  0.1098663E+00
         -2   -1    0    0    0  501 -0.00000000000E+00  0.00000000000E+00  0.68111811734E+01  0.68111811734E+01  0.00000000000E+00 0.  1.
          2   -1    0    0  501    0  0.00000000000E+00 -0.00000000000E+00 -0.27681499058E+04  0.27681499058E+04  0.00000000000E+00 0.  1.
         35    2    1    2    0    0  0.00000000000E+00  0.00000000000E+00 -0.27613387246E+04  0.27749610870E+04  0.27462243553E+03 0.  0.
         25    1    3    3    0    0 -0.56877738506E+02  0.20770580312E+02 -0.16642978983E+04  0.16697167390E+04  0.12000000000E+03 0.  0.
         25    1    3    3    0    0  0.56877738506E+02 -0.20770580312E+02 -0.10970408263E+04  0.11052443480E+04  0.12000000000E+03 0.  0.
<mgrwt>
<rscale>  0 0.27462244E+03</rscale>
<asrwt>0</asrwt>
<pdfrwt beam="1">  1        2 0.42586882E+00 0.27462244E+03</pdfrwt>
<pdfrwt beam="2">  1       -2 0.10478750E-02 0.27462244E+03</pdfrwt>
<totfact> 0.56591444E+03</totfact>
</mgrwt>
</event>
<event>
 5    1  0.1132878E+001  0.2761101E+03  0.7818608E-02  0.1097833E+00
         -1   -1    0    0    0  501 -0.00000000000E+00  0.00000000000E+00  0.46897080384E+02  0.46897080384E+02  0.00000000000E+00 0.  1.
          1   -1    0    0  501    0  0.00000000000E+00 -0.00000000000E+00 -0.40640483566E+03  0.40640483566E+03  0.00000000000E+00 0.  1.
         35    2    1    2    0    0  0.00000000000E+00  0.00000000000E+00 -0.35950775527E+03  0.45330191604E+03  0.27611012474E+03 0.  0.
         25    1    3    3    0    0 -0.38735267594E+02 -0.29366786023E+02 -0.25842697803E+03  0.28904555359E+03  0.12000000000E+03 0.  0.
         25    1    3    3    0    0  0.38735267594E+02  0.29366786023E+02 -0.10108077724E+03  0.16425636245E+03  0.12000000000E+03 0.  0.
<mgrwt>
<rscale>  0 0.27611012E+03</rscale>
<asrwt>0</asrwt>
<pdfrwt beam="1">  1        1 0.62523817E-01 0.27611012E+03</pdfrwt>
<pdfrwt beam="2">  1       -1 0.72149359E-02 0.27611012E+03</pdfrwt>
<totfact> 0.59548804E+03</totfact>
</mgrwt>
</event>
<event>
 5    1  0.1132878E+001  0.2747554E+03  0.7818608E-02  0.1098588E+00
          2   -1    0    0  501    0  0.00000000000E+00  0.00000000000E+00  0.19060994267E+04  0.19060994267E+04  0.00000000000E+00 0.  1.
         -2   -1    0    0    0  501 -0.00000000000E+00 -0.00000000000E+00 -0.99011794237E+01  0.99011794237E+01  0.00000000000E+00 0.  1.
         35    2    1    2    0    0  0.00000000000E+00  0.00000000000E+00  0.18961982472E+04  0.19160006061E+04  0.27475539975E+03 0.  0.
         25    1    3    3    0    0 -0.57688303023E+02  0.31725057828E+02  0.10300820798E+04  0.10391359443E+04  0.12000000000E+03 0.  0.
         25    1    3    3    0    0  0.57688303023E+02 -0.31725057828E+02  0.86611616744E+03  0.87686466180E+03  0.12000000000E+03 0.  0.
<mgrwt>
<rscale>  0 0.27475540E+03</rscale>
<asrwt>0</asrwt>
<pdfrwt beam="1">  1        2 0.29324577E+00 0.27475540E+03</pdfrwt>
<pdfrwt beam="2">  1       -2 0.15232599E-02 0.27475540E+03</pdfrwt>
<totfact> 0.96016737E+03</totfact>
</mgrwt>
</event>
<event>
 5    1  0.1132878E+001  0.2751821E+03  0.7818608E-02  0.1098350E+00
         -2   -1    0    0    0  501 -0.00000000000E+00  0.00000000000E+00  0.93603009107E+02  0.93603009107E+02  0.00000000000E+00 0. -1.
          2   -1    0    0  501    0  0.00000000000E+00 -0.00000000000E+00 -0.20225094000E+03  0.20225094000E+03  0.00000000000E+00 0. -1.
         35    2    1    2    0    0  0.00000000000E+00  0.00000000000E+00 -0.10864793090E+03  0.29585394911E+03  0.27518209665E+03 0.  0.
         25    1    3    3    0    0  0.20490953663E+02 -0.55528509400E+02 -0.88794989375E+02  0.16058594171E+03  0.12000000000E+03 0.  0.
         25    1    3    3    0    0 -0.20490953663E+02  0.55528509400E+02 -0.19852941522E+02  0.13526800740E+03  0.12000000000E+03 0.  0.
<mgrwt>
<rscale>  0 0.27518210E+03</rscale>
<asrwt>0</asrwt>
<pdfrwt beam="1">  1        2 0.31115529E-01 0.27518210E+03</pdfrwt>
<pdfrwt beam="2">  1       -2 0.14400463E-01 0.27518210E+03</pdfrwt>
<totfact> 0.61235003E+03</totfact>
</mgrwt>
</event>
<event>
 5    1  0.1132878E+001  0.2740417E+03  0.7818608E-02  0.1098988E+00
          2   -1    0    0  501    0  0.00000000000E+00  0.00000000000E+00  0.81089553724E+03  0.81089553724E+03  0.00000000000E+00 0. -1.
         -2   -1    0    0    0  501 -0.00000000000E+00 -0.00000000000E+00 -0.23153055507E+02  0.23153055507E+02  0.00000000000E+00 0. -1.
         35    2    1    2    0    0  0.00000000000E+00  0.00000000000E+00  0.78774248173E+03  0.83404859274E+03  0.27404167116E+03 0.  0.
         25    1    3    3    0    0 -0.43651467711E+02 -0.48688533848E+02  0.36363684828E+03  0.38846850759E+03  0.12000000000E+03 0.  0.
         25    1    3    3    0    0  0.43651467711E+02  0.48688533848E+02  0.42410563345E+03  0.44558008516E+03  0.12000000000E+03 0.  0.
<mgrwt>
<rscale>  0 0.27404167E+03</rscale>
<asrwt>0</asrwt>
<pdfrwt beam="1">  1        2 0.12475314E+00 0.27404167E+03</pdfrwt>
<pdfrwt beam="2">  1       -2 0.35620092E-02 0.27404167E+03</pdfrwt>
<totfact> 0.11372802E+04</totfact>
</mgrwt>
</event>
<event>
 5    1  0.1132878E+001  0.2765334E+03  0.7818608E-02  0.1097598E+00
          2   -1    0    0  501    0  0.00000000000E+00  0.00000000000E+00  0.25949471425E+03  0.25949471425E+03  0.00000000000E+00 0.  1.
         -2   -1    0    0    0  501 -0.00000000000E+00 -0.00000000000E+00 -0.73672735062E+02  0.73672735062E+02  0.00000000000E+00 0.  1.
         35    2    1    2    0    0  0.00000000000E+00  0.00000000000E+00  0.18582197919E+03  0.33316744931E+03  0.27653343619E+03 0.  0.
         25    1    3    3    0    0 -0.33674107734E+02 -0.21174109405E+01  0.16499041520E+03  0.20678555576E+03  0.12000000000E+03 0.  0.
         25    1    3    3    0    0  0.33674107734E+02  0.21174109405E+01  0.20831563986E+02  0.12638189356E+03  0.12000000000E+03 0.  0.
<mgrwt>
<rscale>  0 0.27653344E+03</rscale>
<asrwt>0</asrwt>
<pdfrwt beam="1">  1        2 0.39922263E-01 0.27653344E+03</pdfrwt>
<pdfrwt beam="2">  1       -2 0.11334267E-01 0.27653344E+03</pdfrwt>
<totfact> 0.68948347E+03</totfact>
</mgrwt>
</event>
<event>
 5    1  0.1132878E+001  0.2779393E+03  0.7818608E-02  0.1096820E+00
          3   -1    0    0  501    0  0.00000000000E+00  0.00000000000E+00  0.92906574323E+02  0.92906574323E+02  0.00000000000E+00 0.  1.
         -3   -1    0    0    0  501 -0.00000000000E+00 -0.00000000000E+00 -0.20787078740E+03  0.20787078740E+03  0.00000000000E+00 0.  1.
         35    2    1    2    0    0  0.00000000000E+00  0.00000000000E+00 -0.11496421308E+03  0.30077736172E+03  0.27793929380E+03 0.  0.
         25    1    3    3    0    0 -0.63603204147E+02 -0.29105023813E+02 -0.52631287136E+02  0.14853458309E+03  0.12000000000E+03 0.  0.
         25    1    3    3    0    0  0.63603204147E+02  0.29105023813E+02 -0.62332925941E+02  0.15224277863E+03  0.12000000000E+03 0.  0.
<mgrwt>
<rscale>  0 0.27793929E+03</rscale>
<asrwt>0</asrwt>
<pdfrwt beam="1">  1        3 0.14293319E-01 0.27793929E+03</pdfrwt>
<pdfrwt beam="2">  1       -3 0.31980121E-01 0.27793929E+03</pdfrwt>
<totfact> 0.97798011E+02</totfact>
</mgrwt>
</event>
<event>
 5    1  0.1132878E+001  0.2720521E+03  0.7818608E-02  0.1100111E+00
         -3   -1    0    0    0  501 -0.00000000000E+00  0.00000000000E+00  0.79137930093E+03  0.79137930093E+03  0.00000000000E+00 0.  1.
          3   -1    0    0  501    0  0.00000000000E+00 -0.00000000000E+00 -0.23380802559E+02  0.23380802559E+02  0.00000000000E+00 0.  1.
         35    2    1    2    0    0  0.00000000000E+00  0.00000000000E+00  0.76799849837E+03  0.81476010349E+03  0.27205207725E+03 0.  0.
         25    1    3    3    0    0  0.46892447185E+02  0.41499320865E+02  0.42440089188E+03  0.44546291907E+03  0.12000000000E+03 0.  0.
         25    1    3    3    0    0 -0.46892447185E+02 -0.41499320865E+02  0.34359760649E+03  0.36929718442E+03  0.12000000000E+03 0.  0.
<mgrwt>
<rscale>  0 0.27205208E+03</rscale>
<asrwt>0</asrwt>
<pdfrwt beam="1">  1        3 0.35970472E-02 0.27205208E+03</pdfrwt>
<pdfrwt beam="2">  1       -3 0.12175064E+00 0.27205208E+03</pdfrwt>
<totfact> 0.55507641E+02</totfact>
</mgrwt>
</event>
<event>
 5    1  0.1132878E+001  0.2754462E+03  0.7818608E-02  0.1098202E+00
         -3   -1    0    0    0  501 -0.00000000000E+00  0.00000000000E+00  0.14184081817E+03  0.14184081817E+03  0.00000000000E+00 0.  1.
          3   -1    0    0  501    0  0.00000000000E+00 -0.00000000000E+00 -0.13372488195E+03  0.13372488195E+03  0.00000000000E+00 0.  1.
         35    2    1    2    0    0  0.00000000000E+00  0.00000000000E+00  0.81159362249E+01  0.27556570012E+03  0.27544615928E+03 0.  0.
         25    1    3    3    0    0  0.11909424360E+02 -0.61518164538E+02 -0.21277471275E+02  0.13703667298E+03  0.12000000000E+03 0.  0.
         25    1    3    3    0    0 -0.11909424360E+02  0.61518164538E+02  0.29393407500E+02  0.13852902714E+03  0.12000000000E+03 0.  0.
<mgrwt>
<rscale>  0 0.27544616E+03</rscale>
<asrwt>0</asrwt>
<pdfrwt beam="1">  1        3 0.20573059E-01 0.27544616E+03</pdfrwt>
<pdfrwt beam="2">  1       -3 0.21821664E-01 0.27544616E+03</pdfrwt>
<totfact> 0.10428214E+03</totfact>
</mgrwt>
</event>
<event>
 5    1  0.1132878E+001  0.2764877E+03  0.7818608E-02  0.1097623E+00
          2   -1    0    0  501    0  0.00000000000E+00  0.00000000000E+00  0.86604207891E+03  0.86604207891E+03  0.00000000000E+00 0.  1.
         -2   -1    0    0    0  501 -0.00000000000E+00 -0.00000000000E+00 -0.22067477047E+02  0.22067477047E+02  0.00000000000E+00 0.  1.
         35    2    1    2    0    0  0.00000000000E+00  0.00000000000E+00  0.84397460186E+03  0.88810955596E+03  0.27648771183E+03 0.  0.
         25    1    3    3    0    0  0.60015236503E+02  0.13826985971E+02  0.32464654463E+03  0.35155140889E+03  0.12000000000E+03 0.  0.
         25    1    3    3    0    0 -0.60015236503E+02 -0.13826985971E+02  0.51932805723E+03  0.53655814706E+03  0.12000000000E+03 0.  0.
<mgrwt>
<rscale>  0 0.27648771E+03</rscale>
<asrwt>0</asrwt>
<pdfrwt beam="1">  1        2 0.13323722E+00 0.27648771E+03</pdfrwt>
<pdfrwt beam="2">  1       -2 0.33949971E-02 0.27648771E+03</pdfrwt>
<totfact> 0.11223493E+04</totfact>
</mgrwt>
</event>
<event>
 5    1  0.1132878E+001  0.2756758E+03  0.7818608E-02  0.1098074E+00
         -4   -1    0    0    0  501 -0.00000000000E+00  0.00000000000E+00  0.67952595691E+03  0.67952595691E+03  0.00000000000E+00 0.  1.
          4   -1    0    0  501    0  0.00000000000E+00 -0.00000000000E+00 -0.27959614507E+02  0.27959614507E+02  0.00000000000E+00 0.  1.
         35    2    1    2    0    0  0.00000000000E+00  0.00000000000E+00  0.65156634240E+03  0.70748557141E+03  0.27567577915E+03 0.  0.
         25    1    3    3    0    0  0.60633286131E+02  0.27118355203E+02  0.36092304408E+03  0.38610522442E+03  0.12000000000E+03 0.  0.
         25    1    3    3    0    0 -0.60633286131E+02 -0.27118355203E+02  0.29064329832E+03  0.32138034700E+03  0.12000000000E+03 0.  0.
<mgrwt>
<rscale>  0 0.27567578E+03</rscale>
<asrwt>0</asrwt>
<pdfrwt beam="1">  1        4 0.43014796E-02 0.27567578E+03</pdfrwt>
<pdfrwt beam="2">  1       -4 0.10454244E+00 0.27567578E+03</pdfrwt>
<totfact> 0.43848885E+02</totfact>
</mgrwt>
</event>
<event>
 5    1  0.1132878E+001  0.2751879E+03  0.7818608E-02  0.1098347E+00
         -1   -1    0    0    0  501 -0.00000000000E+00  0.00000000000E+00  0.11464910339E+02  0.11464910339E+02  0.00000000000E+00 0.  1.
          1   -1    0    0  501    0  0.00000000000E+00 -0.00000000000E+00 -0.16513080635E+04  0.16513080635E+04  0.00000000000E+00 0.  1.
         35    2    1    2    0    0  0.00000000000E+00  0.00000000000E+00 -0.16398431531E+04  0.16627729738E+04  0.27518792771E+03 0.  0.
         25    1    3    3    0    0 -0.52677916271E+02 -0.37868760098E+02 -0.71131218575E+03  0.72427483144E+03  0.12000000000E+03 0.  0.
         25    1    3    3    0    0  0.52677916271E+02  0.37868760098E+02 -0.92853096737E+03  0.93849814236E+03  0.12000000000E+03 0.  0.
<mgrwt>
<rscale>  0 0.27518793E+03</rscale>
<asrwt>0</asrwt>
<pdfrwt beam="1">  1        1 0.25404726E+00 0.27518793E+03</pdfrwt>
<pdfrwt beam="2">  1       -1 0.17638333E-02 0.27518793E+03</pdfrwt>
<totfact> 0.46877981E+03</totfact>
</mgrwt>
</event>
<event>
 5    1  0.1132878E+001  0.2753277E+03  0.7818608E-02  0.1098269E+00
         -2   -1    0    0    0  501 -0.00000000000E+00  0.00000000000E+00  0.46018303767E+02  0.46018303767E+02  0.00000000000E+00 0. -1.
          2   -1    0    0  501    0  0.00000000000E+00 -0.00000000000E+00 -0.41182155934E+03  0.41182155934E+03  0.00000000000E+00 0. -1.
         35    2    1    2    0    0  0.00000000000E+00  0.00000000000E+00 -0.36580325557E+03  0.45783986310E+03  0.27532765655E+03 0.  0.
         25    1    3    3    0    0  0.41992100099E+02 -0.35907130092E+02 -0.11852667275E+03  0.17748586032E+03  0.12000000000E+03 0.  0.
         25    1    3    3    0    0 -0.41992100099E+02  0.35907130092E+02 -0.24727658282E+03  0.28035400278E+03  0.12000000000E+03 0.  0.
<mgrwt>
<rscale>  0 0.27532766E+03</rscale>
<asrwt>0</asrwt>
<pdfrwt beam="1">  1        2 0.63357165E-01 0.27532766E+03</pdfrwt>
<pdfrwt beam="2">  1       -2 0.70797388E-02 0.27532766E+03</pdfrwt>
<totfact> 0.87941275E+03</totfact>
</mgrwt>
</event>
<event>
 5    1  0.1132878E+001  0.2713895E+03  0.7818608E-02  0.1100487E+00
         -2   -1    0    0    0  501 -0.00000000000E+00  0.00000000000E+00  0.13319836566E+02  0.13319836566E+02  0.00000000000E+00 0.  1.
          2   -1    0    0  501    0  0.00000000000E+00 -0.00000000000E+00 -0.13823793438E+04  0.13823793438E+04  0.00000000000E+00 0.  1.
         35    2    1    2    0    0  0.00000000000E+00  0.00000000000E+00 -0.13690595072E+04  0.13956991804E+04  0.27138951293E+03 0.  0.
         25    1    3    3    0    0 -0.46145438140E+02  0.18286984769E+02 -0.88695270228E+03  0.89640889741E+03  0.12000000000E+03 0.  0.
         25    1    3    3    0    0  0.46145438140E+02 -0.18286984769E+02 -0.48210680497E+03  0.49929028297E+03  0.12000000000E+03 0.  0.
<mgrwt>
<rscale>  0 0.27138951E+03</rscale>
<asrwt>0</asrwt>
<pdfrwt beam="1">  1        2 0.21267364E+00 0.27138951E+03</pdfrwt>
<pdfrwt beam="2">  1       -2 0.20492066E-02 0.27138951E+03</pdfrwt>
<totfact> 0.11775730E+04</totfact>
</mgrwt>
</event>
<event>
 5    1  0.1132878E+001  0.2763321E+03  0.7818608E-02  0.1097709E+00
         -2   -1    0    0    0  501 -0.00000000000E+00  0.00000000000E+00  0.40541171367E+03  0.40541171367E+03  0.00000000000E+00 0. -1.
          2   -1    0    0  501    0  0.00000000000E+00 -0.00000000000E+00 -0.47087571048E+02  0.47087571048E+02  0.00000000000E+00 0. -1.
         35    2    1    2    0    0  0.00000000000E+00  0.00000000000E+00  0.35832414262E+03  0.45249928472E+03  0.27633206742E+03 0.  0.
         25    1    3    3    0    0  0.58942288886E+02 -0.17692416188E+02  0.22835961090E+03  0.26520808226E+03  0.12000000000E+03 0.  0.
         25    1    3    3    0    0 -0.58942288886E+02  0.17692416188E+02  0.12996453173E+03  0.18729120245E+03  0.12000000000E+03 0.  0.
<mgrwt>
<rscale>  0 0.27633207E+03</rscale>
<asrwt>0</asrwt>
<pdfrwt beam="1">  1        2 0.72442420E-02 0.27633207E+03</pdfrwt>
<pdfrwt beam="2">  1       -2 0.62371030E-01 0.27633207E+03</pdfrwt>
<totfact> 0.23503016E+03</totfact>
</mgrwt>
</event>
<event>
 5    1  0.1132878E+001  0.2739700E+03  0.7818608E-02  0.1099029E+00
         -3   -1    0    0    0  501 -0.00000000000E+00  0.00000000000E+00  0.14386692128E+04  0.14386692128E+04  0.00000000000E+00 0.  1.
          3   -1    0    0  501    0  0.00000000000E+00 -0.00000000000E+00 -0.13043224709E+02  0.13043224709E+02  0.00000000000E+00 0.  1.
         35    2    1    2    0    0  0.00000000000E+00  0.00000000000E+00  0.14256259881E+04  0.14517124376E+04  0.27396996788E+03 0.  0.
         25    1    3    3    0    0  0.41164773689E+02 -0.51124079242E+02  0.75270411993E+03  0.76503052372E+03  0.12000000000E+03 0.  0.
         25    1    3    3    0    0 -0.41164773689E+02  0.51124079242E+02  0.67292186821E+03  0.68668191384E+03  0.12000000000E+03 0.  0.
<mgrwt>
<rscale>  0 0.27396997E+03</rscale>
<asrwt>0</asrwt>
<pdfrwt beam="1">  1        3 0.20066511E-02 0.27396997E+03</pdfrwt>
<pdfrwt beam="2">  1       -3 0.22133360E+00 0.27396997E+03</pdfrwt>
<totfact> 0.28574961E+02</totfact>
</mgrwt>
</event>
<event>
 5    1  0.1132878E+001  0.2758324E+03  0.7818608E-02  0.1097987E+00
         -1   -1    0    0    0  501 -0.00000000000E+00  0.00000000000E+00  0.12309274223E+03  0.12309274223E+03  0.00000000000E+00 0.  1.
          1   -1    0    0  501    0  0.00000000000E+00 -0.00000000000E+00 -0.15452474219E+03  0.15452474219E+03  0.00000000000E+00 0.  1.
         35    2    1    2    0    0  0.00000000000E+00  0.00000000000E+00 -0.31431999963E+02  0.27761748442E+03  0.27583237126E+03 0.  0.
         25    1    3    3    0    0 -0.55575816600E+02  0.29606880883E+02 -0.41487090897E+02  0.14172655890E+03  0.12000000000E+03 0.  0.
         25    1    3    3    0    0  0.55575816600E+02 -0.29606880883E+02  0.10055090934E+02  0.13589092553E+03  0.12000000000E+03 0.  0.
<mgrwt>
<rscale>  0 0.27583237E+03</rscale>
<asrwt>0</asrwt>
<pdfrwt beam="1">  1        1 0.23773037E-01 0.27583237E+03</pdfrwt>
<pdfrwt beam="2">  1       -1 0.18937345E-01 0.27583237E+03</pdfrwt>
<totfact> 0.44725696E+03</totfact>
</mgrwt>
</event>
<event>
 5    1  0.1132878E+001  0.2748539E+03  0.7818608E-02  0.1098533E+00
          1   -1    0    0  501    0  0.00000000000E+00  0.00000000000E+00  0.12675355969E+04  0.12675355969E+04  0.00000000000E+00 0. -1.
         -1   -1    0    0    0  501 -0.00000000000E+00 -0.00000000000E+00 -0.14899908493E+02  0.14899908493E+02  0.00000000000E+00 0. -1.
         35    2    1    2    0    0  0.00000000000E+00  0.00000000000E+00  0.12526356884E+04  0.12824355054E+04  0.27485388413E+03 0.  0.
         25    1    3    3    0    0  0.94209828886E+00 -0.65912281226E+02  0.57094344102E+03  0.58713007861E+03  0.12000000000E+03 0.  0.
         25    1    3    3    0    0 -0.94209828886E+00  0.65912281226E+02  0.68169224737E+03  0.69530542676E+03  0.12000000000E+03 0.  0.
<mgrwt>
<rscale>  0 0.27485388E+03</rscale>
<asrwt>0</asrwt>
<pdfrwt beam="1">  1        1 0.19500539E+00 0.27485388E+03</pdfrwt>
<pdfrwt beam="2">  1       -1 0.22922946E-02 0.27485388E+03</pdfrwt>
<totfact> 0.57654149E+03</totfact>
</mgrwt>
</event>
<event>
 5    1  0.1132878E+001  0.2749292E+03  0.7818608E-02  0.1098491E+00
          2   -1    0    0  501    0  0.00000000000E+00  0.00000000000E+00  0.34581664599E+04  0.34581664599E+04  0.00000000000E+00 0. -1.
         -2   -1    0    0    0  501 -0.00000000000E+00 -0.00000000000E+00 -0.54643182635E+01  0.54643182635E+01  0.00000000000E+00 0. -1.
         35    2    1    2    0    0  0.00000000000E+00  0.00000000000E+00  0.34527021416E+04  0.34636307782E+04  0.27492924286E+03 0.  0.
         25    1    3    3    0    0 -0.36315512290E+02  0.33208881770E+02  0.11524900645E+04  0.11597650603E+04  0.12000000000E+03 0.  0.
         25    1    3    3    0    0  0.36315512290E+02 -0.33208881770E+02  0.23002120771E+04  0.23038657179E+04  0.12000000000E+03 0.  0.
<mgrwt>
<rscale>  0 0.27492924E+03</rscale>
<asrwt>0</asrwt>
<pdfrwt beam="1">  1        2 0.53202386E+00 0.27492924E+03</pdfrwt>
<pdfrwt beam="2">  1       -2 0.84066711E-03 0.27492924E+03</pdfrwt>
<totfact> 0.29641989E+03</totfact>
</mgrwt>
</event>
<event>
 5    1  0.1132878E+001  0.2736693E+03  0.7818608E-02  0.1099198E+00
          2   -1    0    0  501    0  0.00000000000E+00  0.00000000000E+00  0.32944415305E+03  0.32944415305E+03  0.00000000000E+00 0. -1.
         -2   -1    0    0    0  501 -0.00000000000E+00 -0.00000000000E+00 -0.56834290274E+02  0.56834290274E+02  0.00000000000E+00 0. -1.
         35    2    1    2    0    0  0.00000000000E+00  0.00000000000E+00  0.27260986277E+03  0.38627844332E+03  0.27366932326E+03 0.  0.
         25    1    3    3    0    0  0.17224044084E+00  0.54797379040E+02  0.85005061592E+02  0.15693515512E+03  0.12000000000E+03 0.  0.
         25    1    3    3    0    0 -0.17224044084E+00 -0.54797379040E+02  0.18760480118E+03  0.22934328820E+03  0.12000000000E+03 0.  0.
<mgrwt>
<rscale>  0 0.27366932E+03</rscale>
<asrwt>0</asrwt>
<pdfrwt beam="1">  1        2 0.50683715E-01 0.27366932E+03</pdfrwt>
<pdfrwt beam="2">  1       -2 0.87437372E-02 0.27366932E+03</pdfrwt>
<totfact> 0.80519122E+03</totfact>
</mgrwt>
</event>
<event>
 5    1  0.1132878E+001  0.2702240E+03  0.7818608E-02  0.1101151E+00
          2   -1    0    0  501    0  0.00000000000E+00  0.00000000000E+00  0.17457191694E+03  0.17457191694E+03  0.00000000000E+00 0.  1.
         -2   -1    0    0    0  501 -0.00000000000E+00 -0.00000000000E+00 -0.10457153269E+03  0.10457153269E+03  0.00000000000E+00 0.  1.
         35    2    1    2    0    0  0.00000000000E+00  0.00000000000E+00  0.70000384255E+02  0.27914344963E+03  0.27022400277E+03 0.  0.
         25    1    3    3    0    0 -0.40949524003E+00 -0.16865902475E+02 -0.26726888032E+02  0.12409251749E+03  0.12000000000E+03 0.  0.
         25    1    3    3    0    0  0.40949524003E+00  0.16865902475E+02  0.96727272287E+02  0.15505093214E+03  0.12000000000E+03 0.  0.
<mgrwt>
<rscale>  0 0.27022400E+03</rscale>
<asrwt>0</asrwt>
<pdfrwt beam="1">  1        2 0.26857218E-01 0.27022400E+03</pdfrwt>
<pdfrwt beam="2">  1       -2 0.16087928E-01 0.27022400E+03</pdfrwt>
<totfact> 0.59903931E+03</totfact>
</mgrwt>
</event>
<event>
 5    1  0.1132878E+001  0.2770139E+03  0.7818608E-02  0.1097331E+00
          1   -1    0    0  501    0  0.00000000000E+00  0.00000000000E+00  0.23993602654E+03  0.23993602654E+03  0.00000000000E+00 0.  1.
         -1   -1    0    0    0  501 -0.00000000000E+00 -0.00000000000E+00 -0.79955370649E+02  0.79955370649E+02  0.00000000000E+00 0.  1.
         35    2    1    2    0    0  0.00000000000E+00  0.00000000000E+00  0.15998065589E+03  0.31989139719E+03  0.27701389087E+03 0.  0.
         25    1    3    3    0    0 -0.65549129531E+02 -0.95697266523E+01  0.10296752196E+03  0.17143680652E+03  0.12000000000E+03 0.  0.
         25    1    3    3    0    0  0.65549129531E+02  0.95697266523E+01  0.57013133931E+02  0.14845459067E+03  0.12000000000E+03 0.  0.
<mgrwt>
<rscale>  0 0.27701389E+03</rscale>
<asrwt>0</asrwt>
<pdfrwt beam="1">  1        1 0.36913235E-01 0.27701389E+03</pdfrwt>
<pdfrwt beam="2">  1       -1 0.12300826E-01 0.27701389E+03</pdfrwt>
<totfact> 0.50929857E+03</totfact>
</mgrwt>
</event>
<event>
 5    1  0.1132878E+001  0.2777393E+03  0.7818608E-02  0.1096930E+00
         -1   -1    0    0    0  501 -0.00000000000E+00  0.00000000000E+00  0.16634764572E+02  0.16634764572E+02  0.00000000000E+00 0. -1.
          1   -1    0    0  501    0  0.00000000000E+00 -0.00000000000E+00 -0.11593057718E+04  0.11593057718E+04  0.00000000000E+00 0. -1.
         35    2    1    2    0    0  0.00000000000E+00  0.00000000000E+00 -0.11426710072E+04  0.11759405364E+04  0.27773929201E+03 0.  0.
         25    1    3    3    0    0  0.20628696140E+01 -0.28119979119E+02 -0.30056675512E+03  0.32486206756E+03  0.12000000000E+03 0.  0.
         25    1    3    3    0    0 -0.20628696140E+01  0.28119979119E+02 -0.84210425210E+03  0.85107846880E+03  0.12000000000E+03 0.  0.
<mgrwt>
<rscale>  0 0.27773929E+03</rscale>
<asrwt>0</asrwt>
<pdfrwt beam="1">  1        1 0.17835480E+00 0.27773929E+03</pdfrwt>
<pdfrwt beam="2">  1       -1 0.25591936E-02 0.27773929E+03</pdfrwt>
<totfact> 0.58368196E+03</totfact>
</mgrwt>
</event>
<event>
 5    1  0.1132878E+001  0.2750513E+03  0.7818608E-02  0.1098423E+00
          2   -1    0    0  501    0  0.00000000000E+00  0.00000000000E+00  0.94481558150E+03  0.94481558150E+03  0.00000000000E+00 0.  1.
         -2   -1    0    0    0  501 -0.00000000000E+00 -0.00000000000E+00 -0.20017980645E+02  0.20017980645E+02  0.00000000000E+00 0.  1.
         35    2    1    2    0    0  0.00000000000E+00  0.00000000000E+00  0.92479760086E+03  0.96483356215E+03  0.27505126812E+03 0.  0.
         25    1    3    3    0    0 -0.46838200410E+02 -0.43775306004E+02  0.39196161025E+03  0.41490239617E+03  0.12000000000E+03 0.  0.
         25    1    3    3    0    0  0.46838200410E+02  0.43775306004E+02  0.53283599060E+03  0.54993116598E+03  0.12000000000E+03 0.  0.
<mgrwt>
<rscale>  0 0.27505127E+03</rscale>
<asrwt>0</asrwt>
<pdfrwt beam="1">  1        2 0.14535621E+00 0.27505127E+03</pdfrwt>
<pdfrwt beam="2">  1       -2 0.30796900E-02 0.27505127E+03</pdfrwt>
<totfact> 0.11547036E+04</totfact>
</mgrwt>
</event>
<event>
 5    1  0.1132878E+001  0.2750432E+03  0.7818608E-02  0.1098427E+00
         -1   -1    0    0    0  501 -0.00000000000E+00  0.00000000000E+00  0.63464472116E+02  0.63464472116E+02  0.00000000000E+00 0. -1.
          1   -1    0    0  501    0  0.00000000000E+00 -0.00000000000E+00 -0.29799649793E+03  0.29799649793E+03  0.00000000000E+00 0. -1.
         35    2    1    2    0    0  0.00000000000E+00  0.00000000000E+00 -0.23453202581E+03  0.36146097004E+03  0.27504319976E+03 0.  0.
         25    1    3    3    0    0 -0.49665175540E+00  0.66058374394E+02 -0.13326659539E+03  0.19111237777E+03  0.12000000000E+03 0.  0.
         25    1    3    3    0    0  0.49665175540E+00 -0.66058374394E+02 -0.10126543042E+03  0.17034859227E+03  0.12000000000E+03 0.  0.
<mgrwt>
<rscale>  0 0.27504320E+03</rscale>
<asrwt>0</asrwt>
<pdfrwt beam="1">  1        1 0.45845615E-01 0.27504320E+03</pdfrwt>
<pdfrwt beam="2">  1       -1 0.97637649E-02 0.27504320E+03</pdfrwt>
<totfact> 0.55537124E+03</totfact>
</mgrwt>
</event>
<event>
 5    1  0.1132878E+001  0.2758126E+03  0.7818608E-02  0.1097998E+00
         -2   -1    0    0    0  501 -0.00000000000E+00  0.00000000000E+00  0.16285114594E+02  0.16285114594E+02  0.00000000000E+00 0. -1.
          2   -1    0    0  501    0  0.00000000000E+00 -0.00000000000E+00 -0.11678238843E+04  0.11678238843E+04  0.00000000000E+00 0. -1.
         35    2    1    2    0    0  0.00000000000E+00  0.00000000000E+00 -0.11515387697E+04  0.11841089989E+04  0.27581258696E+03 0.  0.
         25    1    3    3    0    0 -0.29893223847E+02 -0.43265500987E+00 -0.31376831611E+03  0.33726006022E+03  0.12000000000E+03 0.  0.
         25    1    3    3    0    0  0.29893223847E+02  0.43265500987E+00 -0.83777045356E+03  0.84684893865E+03  0.12000000000E+03 0.  0.
<mgrwt>
<rscale>  0 0.27581259E+03</rscale>
<asrwt>0</asrwt>
<pdfrwt beam="1">  1        2 0.17966520E+00 0.27581259E+03</pdfrwt>
<pdfrwt beam="2">  1       -2 0.25054025E-02 0.27581259E+03</pdfrwt>
<totfact> 0.11534462E+04</totfact>
</mgrwt>
</event>
<event>
 5    1  0.1132878E+001  0.2745676E+03  0.7818608E-02  0.1098694E+00
          2   -1    0    0  501    0  0.00000000000E+00  0.00000000000E+00  0.30708299516E+03  0.30708299516E+03  0.00000000000E+00 0.  1.
         -2   -1    0    0    0  501 -0.00000000000E+00 -0.00000000000E+00 -0.61373770539E+02  0.61373770539E+02  0.00000000000E+00 0.  1.
         35    2    1    2    0    0  0.00000000000E+00  0.00000000000E+00  0.24570922462E+03  0.36845676569E+03  0.27456759664E+03 0.  0.
         25    1    3    3    0    0 -0.19362399899E+02 -0.44740933485E+02  0.61796678028E+02  0.14351126462E+03  0.12000000000E+03 0.  0.
         25    1    3    3    0    0  0.19362399899E+02  0.44740933485E+02  0.18391254659E+03  0.22494550107E+03  0.12000000000E+03 0.  0.
<mgrwt>
<rscale>  0 0.27456760E+03</rscale>
<asrwt>0</asrwt>
<pdfrwt beam="1">  1        2 0.47243537E-01 0.27456760E+03</pdfrwt>
<pdfrwt beam="2">  1       -2 0.94421188E-02 0.27456760E+03</pdfrwt>
<totfact> 0.76942659E+03</totfact>
</mgrwt>
</event>
<event>
 5    1  0.1132878E+001  0.2750991E+03  0.7818608E-02  0.1098396E+00
         -2   -1    0    0    0  501 -0.00000000000E+00  0.00000000000E+00  0.14145082530E+02  0.14145082530E+02  0.00000000000E+00 0. -1.
          2   -1    0    0  501    0  0.00000000000E+00 -0.00000000000E+00 -0.13375584636E+04  0.13375584636E+04  0.00000000000E+00 0. -1.
         35    2    1    2    0    0  0.00000000000E+00  0.00000000000E+00 -0.13234133811E+04  0.13517035462E+04  0.27509907202E+03 0.  0.
         25    1    3    3    0    0  0.29580182875E+02 -0.12722735846E+02 -0.37172519266E+03  0.39193937552E+03  0.12000000000E+03 0.  0.
         25    1    3    3    0    0 -0.29580182875E+02  0.12722735846E+02 -0.95168818843E+03  0.95976417063E+03  0.12000000000E+03 0.  0.
<mgrwt>
<rscale>  0 0.27509907E+03</rscale>
<asrwt>0</asrwt>
<pdfrwt beam="1">  1        2 0.20577815E+00 0.27509907E+03</pdfrwt>
<pdfrwt beam="2">  1       -2 0.21761674E-02 0.27509907E+03</pdfrwt>
<totfact> 0.11407403E+04</totfact>
</mgrwt>
</event>
<event>
 5    1  0.1132878E+001  0.2754975E+03  0.7818608E-02  0.1098174E+00
         -2   -1    0    0    0  501 -0.00000000000E+00  0.00000000000E+00  0.12499717320E+02  0.12499717320E+02  0.00000000000E+00 0.  1.
          2   -1    0    0  501    0  0.00000000000E+00 -0.00000000000E+00 -0.15180115517E+04  0.15180115517E+04  0.00000000000E+00 0.  1.
         35    2    1    2    0    0  0.00000000000E+00  0.00000000000E+00 -0.15055118344E+04  0.15305112691E+04  0.27549747937E+03 0.  0.
         25    1    3    3    0    0 -0.12701422669E+02 -0.62162647253E+02 -0.62256461665E+03  0.63719088409E+03  0.12000000000E+03 0.  0.
         25    1    3    3    0    0  0.12701422669E+02  0.62162647253E+02 -0.88294721777E+03  0.89332038498E+03  0.12000000000E+03 0.  0.
<mgrwt>
<rscale>  0 0.27549748E+03</rscale>
<asrwt>0</asrwt>
<pdfrwt beam="1">  1        2 0.23354009E+00 0.27549748E+03</pdfrwt>
<pdfrwt beam="2">  1       -2 0.19230347E-02 0.27549748E+03</pdfrwt>
<totfact> 0.10930326E+04</totfact>
</mgrwt>
</event>
<event>
 5    1  0.1132878E+001  0.2741161E+03  0.7818608E-02  0.1098947E+00
         -2   -1    0    0    0  501 -0.00000000000E+00  0.00000000000E+00  0.27430718605E+03  0.27430718605E+03  0.00000000000E+00 0. -1.
          2   -1    0    0  501    0  0.00000000000E+00 -0.00000000000E+00 -0.68481274391E+02  0.68481274391E+02  0.00000000000E+00 0. -1.
         35    2    1    2    0    0  0.00000000000E+00  0.00000000000E+00  0.20582591166E+03  0.34278846044E+03  0.27411607523E+03 0.  0.
         25    1    3    3    0    0 -0.65620852315E+02 -0.73985463577E+00  0.11397581152E+03  0.17803687611E+03  0.12000000000E+03 0.  0.
         25    1    3    3    0    0  0.65620852315E+02  0.73985463577E+00  0.91850100132E+02  0.16475158433E+03  0.12000000000E+03 0.  0.
<mgrwt>
<rscale>  0 0.27411608E+03</rscale>
<asrwt>0</asrwt>
<pdfrwt beam="1">  1        2 0.10535581E-01 0.27411608E+03</pdfrwt>
<pdfrwt beam="2">  1       -2 0.42201105E-01 0.27411608E+03</pdfrwt>
<totfact> 0.32101511E+03</totfact>
</mgrwt>
</event>
<event>
 5    1  0.1132878E+001  0.2746017E+03  0.7818608E-02  0.1098674E+00
          1   -1    0    0  501    0  0.00000000000E+00  0.00000000000E+00  0.27731287088E+03  0.27731287088E+03  0.00000000000E+00 0.  1.
         -1   -1    0    0    0  501 -0.00000000000E+00 -0.00000000000E+00 -0.67979265021E+02  0.67979265021E+02  0.00000000000E+00 0.  1.
         35    2    1    2    0    0  0.00000000000E+00  0.00000000000E+00  0.20933360586E+03  0.34529213590E+03  0.27460171262E+03 0.  0.
         25    1    3    3    0    0  0.65564410678E+02  0.75996398165E+01  0.11692777763E+03  0.18007929268E+03  0.12000000000E+03 0.  0.
         25    1    3    3    0    0 -0.65564410678E+02 -0.75996398165E+01  0.92405828235E+02  0.16521284322E+03  0.12000000000E+03 0.  0.
<mgrwt>
<rscale>  0 0.27460171E+03</rscale>
<asrwt>0</asrwt>
<pdfrwt beam="1">  1        1 0.42663518E-01 0.27460171E+03</pdfrwt>
<pdfrwt beam="2">  1       -1 0.10458349E-01 0.27460171E+03</pdfrwt>
<totfact> 0.54657626E+03</totfact>
</mgrwt>
</event>
<event>
 5    1  0.1132878E+001  0.2762285E+03  0.7818608E-02  0.1097767E+00
          1   -1    0    0  501    0  0.00000000000E+00  0.00000000000E+00  0.42430077936E+02  0.42430077936E+02  0.00000000000E+00 0. -1.
         -1   -1    0    0    0  501 -0.00000000000E+00 -0.00000000000E+00 -0.44957612568E+03  0.44957612568E+03  0.00000000000E+00 0. -1.
         35    2    1    2    0    0  0.00000000000E+00  0.00000000000E+00 -0.40714604774E+03  0.49200620362E+03  0.27622852894E+03 0.  0.
         25    1    3    3    0    0  0.15449202742E+02  0.15646801968E+02 -0.88250201292E+02  0.15057090790E+03  0.12000000000E+03 0.  0.
         25    1    3    3    0    0 -0.15449202742E+02 -0.15646801968E+02 -0.31889584645E+03  0.34143529572E+03  0.12000000000E+03 0.  0.
<mgrwt>
<rscale>  0 0.27622853E+03</rscale>
<asrwt>0</asrwt>
<pdfrwt beam="1">  1        1 0.65277043E-02 0.27622853E+03</pdfrwt>
<pdfrwt beam="2">  1       -1 0.69165558E-01 0.27622853E+03</pdfrwt>
<totfact> 0.25200424E+03</totfact>
</mgrwt>
</event>
<event>
 5    1  0.1132878E+001  0.2735005E+03  0.7818608E-02  0.1099293E+00
          2   -1    0    0  501    0  0.00000000000E+00  0.00000000000E+00  0.16334405222E+03  0.16334405222E+03  0.00000000000E+00 0. -1.
         -2   -1    0    0    0  501 -0.00000000000E+00 -0.00000000000E+00 -0.11448617977E+03  0.11448617977E+03  0.00000000000E+00 0. -1.
         35    2    1    2    0    0  0.00000000000E+00  0.00000000000E+00  0.48857872449E+02  0.27783023199E+03  0.27350054133E+03 0.  0.
         25    1    3    3    0    0  0.27199924444E+02 -0.45194830101E+02  0.64010213557E+02  0.14587568679E+03  0.12000000000E+03 0.  0.
         25    1    3    3    0    0 -0.27199924444E+02  0.45194830101E+02 -0.15152341107E+02  0.13195454520E+03  0.12000000000E+03 0.  0.
<mgrwt>
<rscale>  0 0.27350054E+03</rscale>
<asrwt>0</asrwt>
<pdfrwt beam="1">  1        2 0.25129854E-01 0.27350054E+03</pdfrwt>
<pdfrwt beam="2">  1       -2 0.17613258E-01 0.27350054E+03</pdfrwt>
<totfact> 0.55456218E+03</totfact>
</mgrwt>
</event>
<event>
 5    1  0.1132878E+001  0.2749463E+03  0.7818608E-02  0.1098482E+00
         -2   -1    0    0    0  501 -0.00000000000E+00  0.00000000000E+00  0.14656248060E+03  0.14656248060E+03  0.00000000000E+00 0.  1.
          2   -1    0    0  501    0  0.00000000000E+00 -0.00000000000E+00 -0.12894752645E+03  0.12894752645E+03  0.00000000000E+00 0.  1.
         35    2    1    2    0    0  0.00000000000E+00  0.00000000000E+00  0.17614954152E+02  0.27551000704E+03  0.27494631725E+03 0.  0.
         25    1    3    3    0    0  0.37305663094E+01  0.41279864173E+02  0.61650069003E+02  0.14113353719E+03  0.12000000000E+03 0.  0.
         25    1    3    3    0    0 -0.37305663094E+01 -0.41279864173E+02 -0.44035114851E+02  0.13437646986E+03  0.12000000000E+03 0.  0.
<mgrwt>
<rscale>  0 0.27494632E+03</rscale>
<asrwt>0</asrwt>
<pdfrwt beam="1">  1        2 0.19838081E-01 0.27494632E+03</pdfrwt>
<pdfrwt beam="2">  1       -2 0.22548074E-01 0.27494632E+03</pdfrwt>
<totfact> 0.47507225E+03</totfact>
</mgrwt>
</event>
<event>
 5    1  0.1132878E+001  0.2812215E+03  0.7818608E-02  0.1095024E+00
          1   -1    0    0  501    0  0.00000000000E+00  0.00000000000E+00  0.30506944160E+03  0.30506944160E+03  0.00000000000E+00 0.  1.
         -1   -1    0    0    0  501 -0.00000000000E+00 -0.00000000000E+00 -0.64809464614E+02  0.64809464614E+02  0.00000000000E+00 0.  1.
         35    2    1    2    0    0  0.00000000000E+00  0.00000000000E+00  0.24025997699E+03  0.36987890622E+03  0.28122152962E+03 0.  0.
         25    1    3    3    0    0  0.11223348036E+01 -0.73140411332E+02  0.12610070642E+03  0.18881781580E+03  0.12000000000E+03 0.  0.
         25    1    3    3    0    0 -0.11223348036E+01  0.73140411332E+02  0.11415927057E+03  0.18106109042E+03  0.12000000000E+03 0.  0.
<mgrwt>
<rscale>  0 0.28122153E+03</rscale>
<asrwt>0</asrwt>
<pdfrwt beam="1">  1        1 0.46933760E-01 0.28122153E+03</pdfrwt>
<pdfrwt beam="2">  1       -1 0.99706870E-02 0.28122153E+03</pdfrwt>
<totfact> 0.52239964E+03</totfact>
</mgrwt>
</event>
<event>
 5    1  0.1132878E+001  0.2751642E+03  0.7818608E-02  0.1098360E+00
          2   -1    0    0  501    0  0.00000000000E+00  0.00000000000E+00  0.36338749408E+03  0.36338749408E+03  0.00000000000E+00 0.  1.
         -2   -1    0    0    0  501 -0.00000000000E+00 -0.00000000000E+00 -0.52089938831E+02  0.52089938831E+02  0.00000000000E+00 0.  1.
         35    2    1    2    0    0  0.00000000000E+00  0.00000000000E+00  0.31129755525E+03  0.41547743291E+03  0.27516418618E+03 0.  0.
         25    1    3    3    0    0  0.70423935628E+01  0.12012970144E+01  0.54610116500E+02  0.13203523486E+03  0.12000000000E+03 0.  0.
         25    1    3    3    0    0 -0.70423935628E+01 -0.12012970144E+01  0.25668743875E+03  0.28344219805E+03  0.12000000000E+03 0.  0.
<mgrwt>
<rscale>  0 0.27516419E+03</rscale>
<asrwt>0</asrwt>
<pdfrwt beam="1">  1        2 0.55905767E-01 0.27516419E+03</pdfrwt>
<pdfrwt beam="2">  1       -2 0.80138370E-02 0.27516419E+03</pdfrwt>
<totfact> 0.83056154E+03</totfact>
</mgrwt>
</event>
<event>
 5    1  0.1132878E+001  0.2768325E+03  0.7818608E-02  0.1097432E+00
         -2   -1    0    0    0  501 -0.00000000000E+00  0.00000000000E+00  0.18646903784E+02  0.18646903784E+02  0.00000000000E+00 0.  1.
          2   -1    0    0  501    0  0.00000000000E+00 -0.00000000000E+00 -0.10274661624E+04  0.10274661624E+04  0.00000000000E+00 0.  1.
         35    2    1    2    0    0  0.00000000000E+00  0.00000000000E+00 -0.10088192586E+04  0.10461130662E+04  0.27683253184E+03 0.  0.
         25    1    3    3    0    0  0.13897629811E+02 -0.26530152521E+02 -0.73924934608E+03  0.74952424163E+03  0.12000000000E+03 0.  0.
         25    1    3    3    0    0 -0.13897629811E+02  0.26530152521E+02 -0.26956991253E+03  0.29658882455E+03  0.12000000000E+03 0.  0.
<mgrwt>
<rscale>  0 0.27683253E+03</rscale>
<asrwt>0</asrwt>
<pdfrwt beam="1">  1        2 0.15807174E+00 0.27683253E+03</pdfrwt>
<pdfrwt beam="2">  1       -2 0.28687539E-02 0.27683253E+03</pdfrwt>
<totfact> 0.11413414E+04</totfact>
</mgrwt>
</event>
<event>
 5    1  0.1132878E+001  0.2743759E+03  0.7818608E-02  0.1098801E+00
          1   -1    0    0  501    0  0.00000000000E+00  0.00000000000E+00  0.19137568391E+04  0.19137568391E+04  0.00000000000E+00 0.  1.
         -1   -1    0    0    0  501 -0.00000000000E+00 -0.00000000000E+00 -0.98343424688E+01  0.98343424688E+01  0.00000000000E+00 0.  1.
         35    2    1    2    0    0  0.00000000000E+00  0.00000000000E+00  0.19039224966E+04  0.19235911815E+04  0.27437594761E+03 0.  0.
         25    1    3    3    0    0  0.64216727289E+02 -0.16795581167E+02  0.92511758238E+03  0.93522640085E+03  0.12000000000E+03 0.  0.
         25    1    3    3    0    0 -0.64216727289E+02  0.16795581167E+02  0.97880491421E+03  0.98836478068E+03  0.12000000000E+03 0.  0.
<mgrwt>
<rscale>  0 0.27437595E+03</rscale>
<asrwt>0</asrwt>
<pdfrwt beam="1">  1        1 0.29442383E+00 0.27437595E+03</pdfrwt>
<pdfrwt beam="2">  1       -1 0.15129773E-02 0.27437595E+03</pdfrwt>
<totfact> 0.39560237E+03</totfact>
</mgrwt>
</event>
<event>
 5    1  0.1132878E+001  0.2764949E+03  0.7818608E-02  0.1097619E+00
          1   -1    0    0  501    0  0.00000000000E+00  0.00000000000E+00  0.15307674569E+04  0.15307674569E+04  0.00000000000E+00 0.  1.
         -1   -1    0    0    0  501 -0.00000000000E+00 -0.00000000000E+00 -0.12485474450E+02  0.12485474450E+02  0.00000000000E+00 0.  1.
         35    2    1    2    0    0  0.00000000000E+00  0.00000000000E+00  0.15182819825E+04  0.15432529314E+04  0.27649490391E+03 0.  0.
         25    1    3    3    0    0  0.64994571269E+02 -0.19657963128E+02  0.70287356928E+03  0.71626949132E+03  0.12000000000E+03 0.  0.
         25    1    3    3    0    0 -0.64994571269E+02  0.19657963128E+02  0.81540841320E+03  0.82698344006E+03  0.12000000000E+03 0.  0.
<mgrwt>
<rscale>  0 0.27649490E+03</rscale>
<asrwt>0</asrwt>
<pdfrwt beam="1">  1        1 0.23550254E+00 0.27649490E+03</pdfrwt>
<pdfrwt beam="2">  1       -1 0.19208434E-02 0.27649490E+03</pdfrwt>
<totfact> 0.49675496E+03</totfact>
</mgrwt>
</event>
<event>
 5    1  0.1132878E+001  0.2748517E+03  0.7818608E-02  0.1098535E+00
          2   -1    0    0  501    0  0.00000000000E+00  0.00000000000E+00  0.20820702604E+03  0.20820702604E+03  0.00000000000E+00 0.  1.
         -2   -1    0    0    0  501 -0.00000000000E+00 -0.00000000000E+00 -0.90707131478E+02  0.90707131478E+02  0.00000000000E+00 0.  1.
         35    2    1    2    0    0  0.00000000000E+00  0.00000000000E+00  0.11749989456E+03  0.29891415752E+03  0.27485168426E+03 0.  0.
         25    1    3    3    0    0  0.23089616072E+02  0.57877720467E+02  0.85453629582E+02  0.15995400497E+03  0.12000000000E+03 0.  0.
         25    1    3    3    0    0 -0.23089616072E+02 -0.57877720467E+02  0.32046264978E+02  0.13896015255E+03  0.12000000000E+03 0.  0.
<mgrwt>
<rscale>  0 0.27485168E+03</rscale>
<asrwt>0</asrwt>
<pdfrwt beam="1">  1        2 0.32031850E-01 0.27485168E+03</pdfrwt>
<pdfrwt beam="2">  1       -2 0.13954943E-01 0.27485168E+03</pdfrwt>
<totfact> 0.62461847E+03</totfact>
</mgrwt>
</event>
<event>
 5    1  0.1132878E+001  0.2756518E+03  0.7818608E-02  0.1098088E+00
         -2   -1    0    0    0  501 -0.00000000000E+00  0.00000000000E+00  0.15708483048E+03  0.15708483048E+03  0.00000000000E+00 0. -1.
          2   -1    0    0  501    0  0.00000000000E+00 -0.00000000000E+00 -0.12092811541E+03  0.12092811541E+03  0.00000000000E+00 0. -1.
         35    2    1    2    0    0  0.00000000000E+00  0.00000000000E+00  0.36156715064E+02  0.27801294589E+03  0.27565175501E+03 0.  0.
         25    1    3    3    0    0  0.67320019574E+02 -0.77174521918E+01  0.15955953951E+02  0.13873044572E+03  0.12000000000E+03 0.  0.
         25    1    3    3    0    0 -0.67320019574E+02  0.77174521918E+01  0.20200761113E+02  0.13928250017E+03  0.12000000000E+03 0.  0.
<mgrwt>
<rscale>  0 0.27565176E+03</rscale>
<asrwt>0</asrwt>
<pdfrwt beam="1">  1        2 0.18604325E-01 0.27565176E+03</pdfrwt>
<pdfrwt beam="2">  1       -2 0.24166897E-01 0.27565176E+03</pdfrwt>
<totfact> 0.45318381E+03</totfact>
</mgrwt>
</event>
<event>
 5    1  0.1132878E+001  0.2740451E+03  0.7818608E-02  0.1098987E+00
         -1   -1    0    0    0  501 -0.00000000000E+00  0.00000000000E+00  0.14938398568E+03  0.14938398568E+03  0.00000000000E+00 0.  1.
          1   -1    0    0  501    0  0.00000000000E+00 -0.00000000000E+00 -0.12568403575E+03  0.12568403575E+03  0.00000000000E+00 0.  1.
         35    2    1    2    0    0  0.00000000000E+00  0.00000000000E+00  0.23699949932E+02  0.27506802143E+03  0.27404512181E+03 0.  0.
         25    1    3    3    0    0 -0.27245350924E+02 -0.59540982959E+02  0.24478130242E+01  0.13672391739E+03  0.12000000000E+03 0.  0.
         25    1    3    3    0    0  0.27245350924E+02  0.59540982959E+02  0.21252136908E+02  0.13834410404E+03  0.12000000000E+03 0.  0.
<mgrwt>
<rscale>  0 0.27404512E+03</rscale>
<asrwt>0</asrwt>
<pdfrwt beam="1">  1        1 0.19336006E-01 0.27404512E+03</pdfrwt>
<pdfrwt beam="2">  1       -1 0.22982152E-01 0.27404512E+03</pdfrwt>
<totfact> 0.42497933E+03</totfact>
</mgrwt>
</event>
<event>
 5    1  0.1132878E+001  0.2749060E+03  0.7818608E-02  0.1098504E+00
         -2   -1    0    0    0  501 -0.00000000000E+00  0.00000000000E+00  0.10571100527E+02  0.10571100527E+02  0.00000000000E+00 0.  1.
          2   -1    0    0  501    0  0.00000000000E+00 -0.00000000000E+00 -0.17872624530E+04  0.17872624530E+04  0.00000000000E+00 0.  1.
         35    2    1    2    0    0  0.00000000000E+00  0.00000000000E+00 -0.17766913525E+04  0.17978335535E+04  0.27490602801E+03 0.  0.
         25    1    3    3    0    0  0.12942855271E+02  0.64640515103E+02 -0.80894219586E+03  0.82044706712E+03  0.12000000000E+03 0.  0.
         25    1    3    3    0    0 -0.12942855271E+02 -0.64640515103E+02 -0.96774915663E+03  0.97738648643E+03  0.12000000000E+03 0.  0.
<mgrwt>
<rscale>  0 0.27490603E+03</rscale>
<asrwt>0</asrwt>
<pdfrwt beam="1">  1        2 0.27496297E+00 0.27490603E+03</pdfrwt>
<pdfrwt beam="2">  1       -2 0.16263260E-02 0.27490603E+03</pdfrwt>
<totfact> 0.10071607E+04</totfact>
</mgrwt>
</event>
<event>
 5    1  0.1132878E+001  0.2753044E+03  0.7818608E-02  0.1098282E+00
         -4   -1    0    0    0  501 -0.00000000000E+00  0.00000000000E+00  0.13158655823E+03  0.13158655823E+03  0.00000000000E+00 0. -1.
          4   -1    0    0  501    0  0.00000000000E+00 -0.00000000000E+00 -0.14399744346E+03  0.14399744346E+03  0.00000000000E+00 0. -1.
         35    2    1    2    0    0  0.00000000000E+00  0.00000000000E+00 -0.12410885229E+02  0.27558400169E+03  0.27530439865E+03 0.  0.
         25    1    3    3    0    0 -0.17694393785E+01 -0.56821538567E+02 -0.42523274348E+02  0.13942756909E+03  0.12000000000E+03 0.  0.
         25    1    3    3    0    0  0.17694393785E+01  0.56821538567E+02  0.30112389119E+02  0.13615643260E+03  0.12000000000E+03 0.  0.
<mgrwt>
<rscale>  0 0.27530440E+03</rscale>
<asrwt>0</asrwt>
<pdfrwt beam="1">  1        4 0.22153453E-01 0.27530440E+03</pdfrwt>
<pdfrwt beam="2">  1       -4 0.20244086E-01 0.27530440E+03</pdfrwt>
<totfact> 0.77528601E+02</totfact>
</mgrwt>
</event>
<event>
 5    1  0.1132878E+001  0.2662976E+03  0.7818608E-02  0.1103417E+00
          2   -1    0    0  501    0  0.00000000000E+00  0.00000000000E+00  0.27348122767E+04  0.27348122767E+04  0.00000000000E+00 0. -1.
         -2   -1    0    0    0  501 -0.00000000000E+00 -0.00000000000E+00 -0.64825680245E+01  0.64825680245E+01  0.00000000000E+00 0. -1.
         35    2    1    2    0    0  0.00000000000E+00  0.00000000000E+00  0.27283297086E+04  0.27412948447E+04  0.26629762761E+03 0.  0.
         25    1    3    3    0    0  0.34077751684E+02 -0.43585938176E+02  0.15325542860E+04  0.15382404450E+04  0.12000000000E+03 0.  0.
         25    1    3    3    0    0 -0.34077751684E+02  0.43585938176E+02  0.11957754226E+04  0.12030543997E+04  0.12000000000E+03 0.  0.
<mgrwt>
<rscale>  0 0.26629763E+03</rscale>
<asrwt>0</asrwt>
<pdfrwt beam="1">  1        2 0.42073943E+00 0.26629763E+03</pdfrwt>
<pdfrwt beam="2">  1       -2 0.99732034E-03 0.26629763E+03</pdfrwt>
<totfact> 0.63535931E+03</totfact>
</mgrwt>
</event>
<event>
 5    1  0.1132878E+001  0.2750006E+03  0.7818608E-02  0.1098451E+00
         -2   -1    0    0    0  501 -0.00000000000E+00  0.00000000000E+00  0.16479731152E+02  0.16479731152E+02  0.00000000000E+00 0.  1.
          2   -1    0    0  501    0  0.00000000000E+00 -0.00000000000E+00 -0.11472476835E+04  0.11472476835E+04  0.00000000000E+00 0.  1.
         35    2    1    2    0    0  0.00000000000E+00  0.00000000000E+00 -0.11307679523E+04  0.11637274146E+04  0.27500060646E+03 0.  0.
         25    1    3    3    0    0 -0.31293034758E+02 -0.33004590031E+02 -0.35644736420E+03  0.37884466531E+03  0.12000000000E+03 0.  0.
         25    1    3    3    0    0  0.31293034758E+02  0.33004590031E+02 -0.77432058812E+03  0.78488274932E+03  0.12000000000E+03 0.  0.
<mgrwt>
<rscale>  0 0.27500061E+03</rscale>
<asrwt>0</asrwt>
<pdfrwt beam="1">  1        2 0.17649963E+00 0.27500061E+03</pdfrwt>
<pdfrwt beam="2">  1       -2 0.25353434E-02 0.27500061E+03</pdfrwt>
<totfact> 0.11645840E+04</totfact>
</mgrwt>
</event>
<event>
 5    1  0.1132878E+001  0.2754418E+03  0.7818608E-02  0.1098205E+00
         -1   -1    0    0    0  501 -0.00000000000E+00  0.00000000000E+00  0.13459357894E+03  0.13459357894E+03  0.00000000000E+00 0.  1.
          1   -1    0    0  501    0  0.00000000000E+00 -0.00000000000E+00 -0.14092087209E+03  0.14092087209E+03  0.00000000000E+00 0.  1.
         35    2    1    2    0    0  0.00000000000E+00  0.00000000000E+00 -0.63272931521E+01  0.27551445103E+03  0.27544178711E+03 0.  0.
         25    1    3    3    0    0 -0.66147664837E+02  0.13805730446E+02 -0.41296992947E+01  0.13777941128E+03  0.12000000000E+03 0.  0.
         25    1    3    3    0    0  0.66147664837E+02 -0.13805730446E+02 -0.21975938573E+01  0.13773503975E+03  0.12000000000E+03 0.  0.
<mgrwt>
<rscale>  0 0.27544179E+03</rscale>
<asrwt>0</asrwt>
<pdfrwt beam="1">  1        1 0.21680134E-01 0.27544179E+03</pdfrwt>
<pdfrwt beam="2">  1       -1 0.20706704E-01 0.27544179E+03</pdfrwt>
<totfact> 0.43523790E+03</totfact>
</mgrwt>
</event>
<event>
 5    1  0.1132878E+001  0.2756529E+03  0.7818608E-02  0.1098087E+00
          2   -1    0    0  501    0  0.00000000000E+00  0.00000000000E+00  0.81949862100E+03  0.81949862100E+03  0.00000000000E+00 0. -1.
         -2   -1    0    0    0  501 -0.00000000000E+00 -0.00000000000E+00 -0.23180185818E+02  0.23180185818E+02  0.00000000000E+00 0. -1.
         35    2    1    2    0    0  0.00000000000E+00  0.00000000000E+00  0.79631843518E+03  0.84267880682E+03  0.27565289995E+03 0.  0.
         25    1    3    3    0    0  0.40686575493E+02  0.45688891979E+02  0.30886163550E+03  0.33695456987E+03  0.12000000000E+03 0.  0.
         25    1    3    3    0    0 -0.40686575493E+02 -0.45688891979E+02  0.48745679968E+03  0.50572423694E+03  0.12000000000E+03 0.  0.
<mgrwt>
<rscale>  0 0.27565290E+03</rscale>
<asrwt>0</asrwt>
<pdfrwt beam="1">  1        2 0.12607669E+00 0.27565290E+03</pdfrwt>
<pdfrwt beam="2">  1       -2 0.35661831E-02 0.27565290E+03</pdfrwt>
<totfact> 0.11202540E+04</totfact>
</mgrwt>
</event>
<event>
 5    1  0.1132878E+001  0.2757768E+03  0.7818608E-02  0.1098018E+00
          1   -1    0    0  501    0  0.00000000000E+00  0.00000000000E+00  0.11615362475E+03  0.11615362475E+03  0.00000000000E+00 0. -1.
         -1   -1    0    0    0  501 -0.00000000000E+00 -0.00000000000E+00 -0.16369019363E+03  0.16369019363E+03  0.00000000000E+00 0. -1.
         35    2    1    2    0    0  0.00000000000E+00  0.00000000000E+00 -0.47536568874E+02  0.27984381838E+03  0.27577678891E+03 0.  0.
         25    1    3    3    0    0  0.38637576116E+02  0.44492526368E+02 -0.58041555538E+02  0.14574384845E+03  0.12000000000E+03 0.  0.
         25    1    3    3    0    0 -0.38637576116E+02 -0.44492526368E+02  0.10504986664E+02  0.13409996993E+03  0.12000000000E+03 0.  0.
<mgrwt>
<rscale>  0 0.27577679E+03</rscale>
<asrwt>0</asrwt>
<pdfrwt beam="1">  1        1 0.17869788E-01 0.27577679E+03</pdfrwt>
<pdfrwt beam="2">  1       -1 0.25183107E-01 0.27577679E+03</pdfrwt>
<totfact> 0.40457531E+03</totfact>
</mgrwt>
</event>
<event>
 5    1  0.1132878E+001  0.2750101E+03  0.7818608E-02  0.1098446E+00
         -2   -1    0    0    0  501 -0.00000000000E+00  0.00000000000E+00  0.14349905077E+02  0.14349905077E+02  0.00000000000E+00 0. -1.
          2   -1    0    0  501    0  0.00000000000E+00 -0.00000000000E+00 -0.13176146409E+04  0.13176146409E+04  0.00000000000E+00 0. -1.
         35    2    1    2    0    0  0.00000000000E+00  0.00000000000E+00 -0.13032647358E+04  0.13319645460E+04  0.27501014545E+03 0.  0.
         25    1    3    3    0    0 -0.47052750304E+01  0.64587180899E+02 -0.73745657377E+03  0.74995722661E+03  0.12000000000E+03 0.  0.
         25    1    3    3    0    0  0.47052750304E+01 -0.64587180899E+02 -0.56580816204E+03  0.58200731935E+03  0.12000000000E+03 0.  0.
<mgrwt>
<rscale>  0 0.27501015E+03</rscale>
<asrwt>0</asrwt>
<pdfrwt beam="1">  1        2 0.20271003E+00 0.27501015E+03</pdfrwt>
<pdfrwt beam="2">  1       -2 0.22076768E-02 0.27501015E+03</pdfrwt>
<totfact> 0.11453961E+04</totfact>
</mgrwt>
</event>
<event>
 4    1  0.1132878E+001  0.3013781E+03  0.7818608E-02  0.1084554E+00
          2   -1    0    0  501    0  0.00000000000E+00  0.00000000000E+00  0.86284516350E+03  0.86284516350E+03  0.00000000000E+00 0. -1.
         -2   -1    0    0    0  501 -0.00000000000E+00 -0.00000000000E+00 -0.26316652006E+02  0.26316652006E+02  0.00000000000E+00 0. -1.
         25    1    1    2    0    0 -0.68454371475E+02  0.40863553648E+02  0.54859242680E+03  0.56719439501E+03  0.12000000000E+03 0.  0.
         25    1    1    2    0    0  0.68454371475E+02 -0.40863553648E+02  0.28793608470E+03  0.32196742050E+03  0.12000000000E+03 0.  0.
<mgrwt>
<rscale>  0 0.30137814E+03</rscale>
<asrwt>0</asrwt>
<pdfrwt beam="1">  1        2 0.13274539E+00 0.30137814E+03</pdfrwt>
<pdfrwt beam="2">  1       -2 0.40487164E-02 0.30137814E+03</pdfrwt>
<totfact> 0.86795773E+03</totfact>
</mgrwt>
</event>
<event>
 5    1  0.1132878E+001  0.2787707E+03  0.7818608E-02  0.1096362E+00
         -2   -1    0    0    0  501 -0.00000000000E+00  0.00000000000E+00  0.27311939895E+02  0.27311939895E+02  0.00000000000E+00 0. -1.
          2   -1    0    0  501    0  0.00000000000E+00 -0.00000000000E+00 -0.71134749354E+03  0.71134749354E+03  0.00000000000E+00 0. -1.
         35    2    1    2    0    0  0.00000000000E+00  0.00000000000E+00 -0.68403555365E+03  0.73865943344E+03  0.27877073008E+03 0.  0.
         25    1    3    3    0    0  0.10989305814E+02  0.42017987554E+01 -0.52730492209E+03  0.54091487391E+03  0.12000000000E+03 0.  0.
         25    1    3    3    0    0 -0.10989305814E+02 -0.42017987554E+01 -0.15673063156E+03  0.19774455953E+03  0.12000000000E+03 0.  0.
<mgrwt>
<rscale>  0 0.27877073E+03</rscale>
<asrwt>0</asrwt>
<pdfrwt beam="1">  1        2 0.10943806E+00 0.27877073E+03</pdfrwt>
<pdfrwt beam="2">  1       -2 0.42018373E-02 0.27877073E+03</pdfrwt>
<totfact> 0.10456321E+04</totfact>
</mgrwt>
</event>
<event>
 5    1  0.1132878E+001  0.2747719E+03  0.7818608E-02  0.1098579E+00
          2   -1    0    0  501    0  0.00000000000E+00  0.00000000000E+00  0.12778030291E+04  0.12778030291E+04  0.00000000000E+00 0.  1.
         -2   -1    0    0    0  501 -0.00000000000E+00 -0.00000000000E+00 -0.14771366027E+02  0.14771366027E+02  0.00000000000E+00 0.  1.
         35    2    1    2    0    0  0.00000000000E+00  0.00000000000E+00  0.12630316631E+04  0.12925743952E+04  0.27477187814E+03 0.  0.
         25    1    3    3    0    0  0.10998156952E+02 -0.36152064605E+02  0.37184868786E+03  0.39255493615E+03  0.12000000000E+03 0.  0.
         25    1    3    3    0    0 -0.10998156952E+02  0.36152064605E+02  0.89118297524E+03  0.90001945901E+03  0.12000000000E+03 0.  0.
<mgrwt>
<rscale>  0 0.27477188E+03</rscale>
<asrwt>0</asrwt>
<pdfrwt beam="1">  1        2 0.19658499E+00 0.27477188E+03</pdfrwt>
<pdfrwt beam="2">  1       -2 0.22725189E-02 0.27477188E+03</pdfrwt>
<totfact> 0.11546675E+04</totfact>
</mgrwt>
</event>
<event>
 5    1  0.1132878E+001  0.2757271E+03  0.7818608E-02  0.1098046E+00
         -2   -1    0    0    0  501 -0.00000000000E+00  0.00000000000E+00  0.15389529757E+02  0.15389529757E+02  0.00000000000E+00 0.  1.
          2   -1    0    0  501    0  0.00000000000E+00 -0.00000000000E+00 -0.12350185024E+04  0.12350185024E+04  0.00000000000E+00 0.  1.
         35    2    1    2    0    0  0.00000000000E+00  0.00000000000E+00 -0.12196289727E+04  0.12504080322E+04  0.27572706790E+03 0.  0.
         25    1    3    3    0    0  0.29164212524E+02 -0.60130595136E+02 -0.66349460581E+03  0.67756278802E+03  0.12000000000E+03 0.  0.
         25    1    3    3    0    0 -0.29164212524E+02  0.60130595136E+02 -0.55613436685E+03  0.57284524416E+03  0.12000000000E+03 0.  0.
<mgrwt>
<rscale>  0 0.27572707E+03</rscale>
<asrwt>0</asrwt>
<pdfrwt beam="1">  1        2 0.19000288E+00 0.27572707E+03</pdfrwt>
<pdfrwt beam="2">  1       -2 0.23676195E-02 0.27572707E+03</pdfrwt>
<totfact> 0.11485376E+04</totfact>
</mgrwt>
</event>
<event>
 5    1  0.1132878E+001  0.2734745E+03  0.7818608E-02  0.1099307E+00
         -1   -1    0    0    0  501 -0.00000000000E+00  0.00000000000E+00  0.86576019255E+02  0.86576019255E+02  0.00000000000E+00 0. -1.
          1   -1    0    0  501    0  0.00000000000E+00 -0.00000000000E+00 -0.21596138185E+03  0.21596138185E+03  0.00000000000E+00 0. -1.
         35    2    1    2    0    0  0.00000000000E+00  0.00000000000E+00 -0.12938536260E+03  0.30253740111E+03  0.27347450889E+03 0.  0.
         25    1    3    3    0    0 -0.48823813201E+02 -0.26745247825E+02 -0.10298320508E+03  0.16764430663E+03  0.12000000000E+03 0.  0.
         25    1    3    3    0    0  0.48823813201E+02  0.26745247825E+02 -0.26402157519E+02  0.13489309448E+03  0.12000000000E+03 0.  0.
<mgrwt>
<rscale>  0 0.27347451E+03</rscale>
<asrwt>0</asrwt>
<pdfrwt beam="1">  1        1 0.33224828E-01 0.27347451E+03</pdfrwt>
<pdfrwt beam="2">  1       -1 0.13319388E-01 0.27347451E+03</pdfrwt>
<totfact> 0.51291804E+03</totfact>
</mgrwt>
</event>
<event>
 5    1  0.1132878E+001  0.2760872E+03  0.7818608E-02  0.1097845E+00
         -1   -1    0    0    0  501 -0.00000000000E+00  0.00000000000E+00  0.11064362388E+03  0.11064362388E+03  0.00000000000E+00 0.  1.
          1   -1    0    0  501    0  0.00000000000E+00 -0.00000000000E+00 -0.17222900931E+03  0.17222900931E+03  0.00000000000E+00 0.  1.
         35    2    1    2    0    0  0.00000000000E+00  0.00000000000E+00 -0.61585385436E+02  0.28287263319E+03  0.27608724510E+03 0.  0.
         25    1    3    3    0    0  0.27393932529E+01  0.53075218503E+02 -0.74641219136E+02  0.15098276289E+03  0.12000000000E+03 0.  0.
         25    1    3    3    0    0 -0.27393932529E+01 -0.53075218503E+02  0.13055833700E+02  0.13188987030E+03  0.12000000000E+03 0.  0.
<mgrwt>
<rscale>  0 0.27608725E+03</rscale>
<asrwt>0</asrwt>
<pdfrwt beam="1">  1        1 0.26496771E-01 0.27608725E+03</pdfrwt>
<pdfrwt beam="2">  1       -1 0.17022096E-01 0.27608725E+03</pdfrwt>
<totfact> 0.46255358E+03</totfact>
</mgrwt>
</event>
<event>
 5    1  0.1132878E+001  0.2749019E+03  0.7818608E-02  0.1098506E+00
         -2   -1    0    0    0  501 -0.00000000000E+00  0.00000000000E+00  0.68137332300E+01  0.68137332300E+01  0.00000000000E+00 0.  1.
          2   -1    0    0  501    0  0.00000000000E+00 -0.00000000000E+00 -0.27727480579E+04  0.27727480579E+04  0.00000000000E+00 0.  1.
         35    2    1    2    0    0  0.00000000000E+00  0.00000000000E+00 -0.27659343247E+04  0.27795617912E+04  0.27490191401E+03 0.  0.
         25    1    3    3    0    0 -0.32335738066E+02  0.52509546784E+02 -0.16485474102E+04  0.16540590727E+04  0.12000000000E+03 0.  0.
         25    1    3    3    0    0  0.32335738066E+02 -0.52509546784E+02 -0.11173869145E+04  0.11255027184E+04  0.12000000000E+03 0.  0.
<mgrwt>
<rscale>  0 0.27490191E+03</rscale>
<asrwt>0</asrwt>
<pdfrwt beam="1">  1        2 0.42657759E+00 0.27490191E+03</pdfrwt>
<pdfrwt beam="2">  1       -2 0.10482643E-02 0.27490191E+03</pdfrwt>
<totfact> 0.56219443E+03</totfact>
</mgrwt>
</event>
<event>
 5    1  0.1132878E+001  0.2752407E+03  0.7818608E-02  0.1098317E+00
         -2   -1    0    0    0  501 -0.00000000000E+00  0.00000000000E+00  0.11220476194E+02  0.11220476194E+02  0.00000000000E+00 0.  1.
          2   -1    0    0  501    0  0.00000000000E+00 -0.00000000000E+00 -0.16879280958E+04  0.16879280958E+04  0.00000000000E+00 0.  1.
         35    2    1    2    0    0  0.00000000000E+00  0.00000000000E+00 -0.16767076196E+04  0.16991485720E+04  0.27524067299E+03 0.  0.
         25    1    3    3    0    0 -0.23703708400E+02 -0.43560497641E+02 -0.55680887071E+03  0.57174776016E+03  0.12000000000E+03 0.  0.
         25    1    3    3    0    0  0.23703708400E+02  0.43560497641E+02 -0.11198987489E+04  0.11274008118E+04  0.12000000000E+03 0.  0.
<mgrwt>
<rscale>  0 0.27524067E+03</rscale>
<asrwt>0</asrwt>
<pdfrwt beam="1">  1        2 0.25968112E+00 0.27524067E+03</pdfrwt>
<pdfrwt beam="2">  1       -2 0.17262280E-02 0.27524067E+03</pdfrwt>
<totfact> 0.10408743E+04</totfact>
</mgrwt>
</event>
<event>
 5    1  0.1132878E+001  0.2762743E+03  0.7818608E-02  0.1097741E+00
          1   -1    0    0  501    0  0.00000000000E+00  0.00000000000E+00  0.52351552197E+02  0.52351552197E+02  0.00000000000E+00 0.  1.
         -1   -1    0    0    0  501 -0.00000000000E+00 -0.00000000000E+00 -0.36449481136E+03  0.36449481136E+03  0.00000000000E+00 0.  1.
         35    2    1    2    0    0  0.00000000000E+00  0.00000000000E+00 -0.31214325916E+03  0.41684636355E+03  0.27627427779E+03 0.  0.
         25    1    3    3    0    0 -0.24470802371E+02  0.61924743218E+02 -0.13229284585E+03  0.19061713211E+03  0.12000000000E+03 0.  0.
         25    1    3    3    0    0  0.24470802371E+02 -0.61924743218E+02 -0.17985041331E+03  0.22622923144E+03  0.12000000000E+03 0.  0.
<mgrwt>
<rscale>  0 0.27627428E+03</rscale>
<asrwt>0</asrwt>
<pdfrwt beam="1">  1        1 0.80540853E-02 0.27627428E+03</pdfrwt>
<pdfrwt beam="2">  1       -1 0.56076123E-01 0.27627428E+03</pdfrwt>
<totfact> 0.28425939E+03</totfact>
</mgrwt>
</event>
<event>
 5    1  0.1132878E+001  0.2733846E+03  0.7818608E-02  0.1099358E+00
         -2   -1    0    0    0  501 -0.00000000000E+00  0.00000000000E+00  0.25694871028E+02  0.25694871028E+02  0.00000000000E+00 0.  1.
          2   -1    0    0  501    0  0.00000000000E+00 -0.00000000000E+00 -0.72717974228E+03  0.72717974228E+03  0.00000000000E+00 0.  1.
         35    2    1    2    0    0  0.00000000000E+00  0.00000000000E+00 -0.70148487125E+03  0.75287461331E+03  0.27338463521E+03 0.  0.
         25    1    3    3    0    0 -0.24158272020E+02 -0.20967386838E+02 -0.19346744898E+03  0.22989760163E+03  0.12000000000E+03 0.  0.
         25    1    3    3    0    0  0.24158272020E+02  0.20967386838E+02 -0.50801742227E+03  0.52297701169E+03  0.12000000000E+03 0.  0.
<mgrwt>
<rscale>  0 0.27338464E+03</rscale>
<asrwt>0</asrwt>
<pdfrwt beam="1">  1        2 0.11187381E+00 0.27338464E+03</pdfrwt>
<pdfrwt beam="2">  1       -2 0.39530569E-02 0.27338464E+03</pdfrwt>
<totfact> 0.11149929E+04</totfact>
</mgrwt>
</event>
<event>
 5    1  0.1132878E+001  0.2761467E+03  0.7818608E-02  0.1097812E+00
          2   -1    0    0  501    0  0.00000000000E+00  0.00000000000E+00  0.33736031675E+03  0.33736031675E+03  0.00000000000E+00 0.  1.
         -2   -1    0    0    0  501 -0.00000000000E+00 -0.00000000000E+00 -0.56510060067E+02  0.56510060067E+02  0.00000000000E+00 0.  1.
         35    2    1    2    0    0  0.00000000000E+00  0.00000000000E+00  0.28085025668E+03  0.39387037681E+03  0.27614671292E+03 0.  0.
         25    1    3    3    0    0  0.13050142385E+02  0.50972589477E+02  0.78323511969E+02  0.15265347563E+03  0.12000000000E+03 0.  0.
         25    1    3    3    0    0 -0.13050142385E+02 -0.50972589477E+02  0.20252674471E+03  0.24121690119E+03  0.12000000000E+03 0.  0.
<mgrwt>
<rscale>  0 0.27614671E+03</rscale>
<asrwt>0</asrwt>
<pdfrwt beam="1">  1        2 0.51901586E-01 0.27614671E+03</pdfrwt>
<pdfrwt beam="2">  1       -2 0.86938556E-02 0.27614671E+03</pdfrwt>
<totfact> 0.79221948E+03</totfact>
</mgrwt>
</event>
<event>
 5    1  0.1132878E+001  0.2715663E+03  0.7818608E-02  0.1100386E+00
         -1   -1    0    0    0  501 -0.00000000000E+00  0.00000000000E+00  0.62884440089E+02  0.62884440089E+02  0.00000000000E+00 0. -1.
          1   -1    0    0  501    0  0.00000000000E+00 -0.00000000000E+00 -0.29318966001E+03  0.29318966001E+03  0.00000000000E+00 0. -1.
         35    2    1    2    0    0  0.00000000000E+00  0.00000000000E+00 -0.23030521992E+03  0.35607410009E+03  0.27156632788E+03 0.  0.
         25    1    3    3    0    0 -0.29688855606E+02 -0.27170703095E+02 -0.17961969563E+03  0.21973372594E+03  0.12000000000E+03 0.  0.
         25    1    3    3    0    0  0.29688855606E+02  0.27170703095E+02 -0.50685524283E+02  0.13634037416E+03  0.12000000000E+03 0.  0.
<mgrwt>
<rscale>  0 0.27156633E+03</rscale>
<asrwt>0</asrwt>
<pdfrwt beam="1">  1        1 0.45106102E-01 0.27156633E+03</pdfrwt>
<pdfrwt beam="2">  1       -1 0.96745291E-02 0.27156633E+03</pdfrwt>
<totfact> 0.57468318E+03</totfact>
</mgrwt>
</event>
<event>
 5    1  0.1132878E+001  0.2755133E+03  0.7818608E-02  0.1098165E+00
         -4   -1    0    0    0  501 -0.00000000000E+00  0.00000000000E+00  0.17809585090E+03  0.17809585090E+03  0.00000000000E+00 0.  1.
          4   -1    0    0  501    0  0.00000000000E+00 -0.00000000000E+00 -0.10655436529E+03  0.10655436529E+03  0.00000000000E+00 0.  1.
         35    2    1    2    0    0  0.00000000000E+00  0.00000000000E+00  0.71541485611E+02  0.28465021618E+03  0.27551326903E+03 0.  0.
         25    1    3    3    0    0  0.58106788076E+02 -0.71802146143E+01  0.75067953522E+00  0.13352347293E+03  0.12000000000E+03 0.  0.
         25    1    3    3    0    0 -0.58106788076E+02  0.71802146143E+01  0.70790806076E+02  0.15112674326E+03  0.12000000000E+03 0.  0.
<mgrwt>
<rscale>  0 0.27551327E+03</rscale>
<asrwt>0</asrwt>
<pdfrwt beam="1">  1        4 0.16392979E-01 0.27551327E+03</pdfrwt>
<pdfrwt beam="2">  1       -4 0.27399362E-01 0.27551327E+03</pdfrwt>
<totfact> 0.76296246E+02</totfact>
</mgrwt>
</event>
<event>
 5    1  0.1132878E+001  0.2751679E+03  0.7818608E-02  0.1098358E+00
          2   -1    0    0  501    0  0.00000000000E+00  0.00000000000E+00  0.26112697132E+03  0.26112697132E+03  0.00000000000E+00 0.  1.
         -2   -1    0    0    0  501 -0.00000000000E+00 -0.00000000000E+00 -0.72490949623E+02  0.72490949623E+02  0.00000000000E+00 0.  1.
         35    2    1    2    0    0  0.00000000000E+00  0.00000000000E+00  0.18863602169E+03  0.33361792094E+03  0.27516789146E+03 0.  0.
         25    1    3    3    0    0  0.42886179986E+02 -0.51522303902E+02  0.10154891949E+03  0.17089749935E+03  0.12000000000E+03 0.  0.
         25    1    3    3    0    0 -0.42886179986E+02  0.51522303902E+02  0.87087102199E+02  0.16272042159E+03  0.12000000000E+03 0.  0.
<mgrwt>
<rscale>  0 0.27516789E+03</rscale>
<asrwt>0</asrwt>
<pdfrwt beam="1">  1        2 0.40173380E-01 0.27516789E+03</pdfrwt>
<pdfrwt beam="2">  1       -2 0.11152454E-01 0.27516789E+03</pdfrwt>
<totfact> 0.70272112E+03</totfact>
</mgrwt>
</event>
<event>
 5    1  0.1132878E+001  0.2747772E+03  0.7818608E-02  0.1098576E+00
         -2   -1    0    0    0  501 -0.00000000000E+00  0.00000000000E+00  0.57372446339E+02  0.57372446339E+02  0.00000000000E+00 0. -1.
          2   -1    0    0  501    0  0.00000000000E+00 -0.00000000000E+00 -0.32900153738E+03  0.32900153738E+03  0.00000000000E+00 0. -1.
         35    2    1    2    0    0  0.00000000000E+00  0.00000000000E+00 -0.27162909104E+03  0.38637398372E+03  0.27477716826E+03 0.  0.
         25    1    3    3    0    0 -0.89090986919E-01  0.65786136004E+02 -0.15290932878E+03  0.20520498643E+03  0.12000000000E+03 0.  0.
         25    1    3    3    0    0  0.89090986919E-01 -0.65786136004E+02 -0.11871976226E+03  0.18116899729E+03  0.12000000000E+03 0.  0.
<mgrwt>
<rscale>  0 0.27477717E+03</rscale>
<asrwt>0</asrwt>
<pdfrwt beam="1">  1        2 0.50615620E-01 0.27477717E+03</pdfrwt>
<pdfrwt beam="2">  1       -2 0.88265304E-02 0.27477717E+03</pdfrwt>
<totfact> 0.79461839E+03</totfact>
</mgrwt>
</event>
<event>
 5    1  0.1132878E+001  0.2729545E+03  0.7818608E-02  0.1099600E+00
         -1   -1    0    0    0  501 -0.00000000000E+00  0.00000000000E+00  0.27142559225E+02  0.27142559225E+02  0.00000000000E+00 0.  1.
          1   -1    0    0  501    0  0.00000000000E+00 -0.00000000000E+00 -0.68623016720E+03  0.68623016720E+03  0.00000000000E+00 0.  1.
         35    2    1    2    0    0  0.00000000000E+00  0.00000000000E+00 -0.65908760798E+03  0.71337272643E+03  0.27295452335E+03 0.  0.
         25    1    3    3    0    0 -0.55364494887E+02 -0.11933768468E+02 -0.24614005392E+03  0.27962934085E+03  0.12000000000E+03 0.  0.
         25    1    3    3    0    0  0.55364494887E+02  0.11933768468E+02 -0.41294755406E+03  0.43374338557E+03  0.12000000000E+03 0.  0.
<mgrwt>
<rscale>  0 0.27295452E+03</rscale>
<asrwt>0</asrwt>
<pdfrwt beam="1">  1        1 0.10557386E+00 0.27295452E+03</pdfrwt>
<pdfrwt beam="2">  1       -1 0.41757787E-02 0.27295452E+03</pdfrwt>
<totfact> 0.66720862E+03</totfact>
</mgrwt>
</event>
<event>
 5    1  0.1132878E+001  0.2752612E+03  0.7818608E-02  0.1098306E+00
         -1   -1    0    0    0  501 -0.00000000000E+00  0.00000000000E+00  0.20980846648E+03  0.20980846648E+03  0.00000000000E+00 0.  1.
          1   -1    0    0  501    0  0.00000000000E+00 -0.00000000000E+00 -0.90283225918E+02  0.90283225918E+02  0.00000000000E+00 0.  1.
         35    2    1    2    0    0  0.00000000000E+00  0.00000000000E+00  0.11952524056E+03  0.30009169240E+03  0.27526122268E+03 0.  0.
         25    1    3    3    0    0  0.59374427309E+02  0.30777912260E+02  0.50668524891E+02  0.14642370681E+03  0.12000000000E+03 0.  0.
         25    1    3    3    0    0 -0.59374427309E+02 -0.30777912260E+02  0.68856715668E+02  0.15366798559E+03  0.12000000000E+03 0.  0.
<mgrwt>
<rscale>  0 0.27526122E+03</rscale>
<asrwt>0</asrwt>
<pdfrwt beam="1">  1        1 0.13889727E-01 0.27526122E+03</pdfrwt>
<pdfrwt beam="2">  1       -1 0.32278225E-01 0.27526122E+03</pdfrwt>
<totfact> 0.36973594E+03</totfact>
</mgrwt>
</event>
<event>
 5    1  0.1132878E+001  0.2727741E+03  0.7818608E-02  0.1099702E+00
          4   -1    0    0  501    0  0.00000000000E+00  0.00000000000E+00  0.52067373849E+03  0.52067373849E+03  0.00000000000E+00 0.  1.
         -4   -1    0    0    0  501 -0.00000000000E+00 -0.00000000000E+00 -0.35725698615E+02  0.35725698615E+02  0.00000000000E+00 0.  1.
         35    2    1    2    0    0  0.00000000000E+00  0.00000000000E+00  0.48494803988E+03  0.55639943711E+03  0.27277414143E+03 0.  0.
         25    1    3    3    0    0 -0.20994246030E+02  0.28330941233E+02  0.35341320012E+03  0.37489237205E+03  0.12000000000E+03 0.  0.
         25    1    3    3    0    0  0.20994246030E+02 -0.28330941233E+02  0.13153483975E+03  0.18150706506E+03  0.12000000000E+03 0.  0.
<mgrwt>
<rscale>  0 0.27277414E+03</rscale>
<asrwt>0</asrwt>
<pdfrwt beam="1">  1        4 0.80103646E-01 0.27277414E+03</pdfrwt>
<pdfrwt beam="2">  1       -4 0.54962617E-02 0.27277414E+03</pdfrwt>
<totfact> 0.54287013E+02</totfact>
</mgrwt>
</event>
<event>
 5    1  0.1132878E+001  0.2756352E+03  0.7818608E-02  0.1098097E+00
         -1   -1    0    0    0  501 -0.00000000000E+00  0.00000000000E+00  0.10961876319E+04  0.10961876319E+04  0.00000000000E+00 0. -1.
          1   -1    0    0  501    0  0.00000000000E+00 -0.00000000000E+00 -0.17327038437E+02  0.17327038437E+02  0.00000000000E+00 0. -1.
         35    2    1    2    0    0  0.00000000000E+00  0.00000000000E+00  0.10788605935E+04  0.11135146704E+04  0.27563515910E+03 0.  0.
         25    1    3    3    0    0 -0.10321964478E+02  0.34144339982E+02  0.30661270330E+03  0.33118533894E+03  0.12000000000E+03 0.  0.
         25    1    3    3    0    0  0.10321964478E+02 -0.34144339982E+02  0.77224789020E+03  0.78232933143E+03  0.12000000000E+03 0.  0.
<mgrwt>
<rscale>  0 0.27563516E+03</rscale>
<asrwt>0</asrwt>
<pdfrwt beam="1">  1        1 0.26656991E-02 0.27563516E+03</pdfrwt>
<pdfrwt beam="2">  1       -1 0.16864420E+00 0.27563516E+03</pdfrwt>
<totfact> 0.11082751E+03</totfact>
</mgrwt>
</event>
<event>
 5    1  0.1132878E+001  0.2749501E+03  0.7818608E-02  0.1098480E+00
         -2   -1    0    0    0  501 -0.00000000000E+00  0.00000000000E+00  0.10306825879E+02  0.10306825879E+02  0.00000000000E+00 0. -1.
          2   -1    0    0  501    0  0.00000000000E+00 -0.00000000000E+00 -0.18336767591E+04  0.18336767591E+04  0.00000000000E+00 0. -1.
         35    2    1    2    0    0  0.00000000000E+00  0.00000000000E+00 -0.18233699332E+04  0.18439835850E+04  0.27495008328E+03 0.  0.
         25    1    3    3    0    0 -0.62536626533E+02  0.10836039043E+02 -0.10572567196E+04  0.10659362178E+04  0.12000000000E+03 0.  0.
         25    1    3    3    0    0  0.62536626533E+02 -0.10836039043E+02 -0.76611321362E+03  0.77804736712E+03  0.12000000000E+03 0.  0.
<mgrwt>
<rscale>  0 0.27495008E+03</rscale>
<asrwt>0</asrwt>
<pdfrwt beam="1">  1        2 0.28210419E+00 0.27495008E+03</pdfrwt>
<pdfrwt beam="2">  1       -2 0.15856651E-02 0.27495008E+03</pdfrwt>
<totfact> 0.98817950E+03</totfact>
</mgrwt>
</event>
<event>
 5    1  0.1132878E+001  0.2716106E+03  0.7818608E-02  0.1100361E+00
          1   -1    0    0  501    0  0.00000000000E+00  0.00000000000E+00  0.32368833519E+03  0.32368833519E+03  0.00000000000E+00 0.  1.
         -1   -1    0    0    0  501 -0.00000000000E+00 -0.00000000000E+00 -0.56977877996E+02  0.56977877996E+02  0.00000000000E+00 0.  1.
         35    2    1    2    0    0  0.00000000000E+00  0.00000000000E+00  0.26671045719E+03  0.38066621318E+03  0.27161056291E+03 0.  0.
         25    1    3    3    0    0 -0.49483186956E+02 -0.14842477712E+02  0.18530946841E+03  0.22673439090E+03  0.12000000000E+03 0.  0.
         25    1    3    3    0    0  0.49483186956E+02  0.14842477712E+02  0.81400988782E+02  0.15393182228E+03  0.12000000000E+03 0.  0.
<mgrwt>
<rscale>  0 0.27161056E+03</rscale>
<asrwt>0</asrwt>
<pdfrwt beam="1">  1        1 0.49798204E-01 0.27161056E+03</pdfrwt>
<pdfrwt beam="2">  1       -1 0.87658276E-02 0.27161056E+03</pdfrwt>
<totfact> 0.59050800E+03</totfact>
</mgrwt>
</event>
<event>
 5    1  0.1132878E+001  0.2750221E+03  0.7818608E-02  0.1098439E+00
         -1   -1    0    0    0  501 -0.00000000000E+00  0.00000000000E+00  0.16529052655E+02  0.16529052655E+02  0.00000000000E+00 0.  1.
          1   -1    0    0  501    0  0.00000000000E+00 -0.00000000000E+00 -0.11440033965E+04  0.11440033965E+04  0.00000000000E+00 0.  1.
         35    2    1    2    0    0  0.00000000000E+00  0.00000000000E+00 -0.11274743438E+04  0.11605324491E+04  0.27502212550E+03 0.  0.
         25    1    3    3    0    0  0.17450205952E+02  0.48369251037E+02 -0.74598071616E+03  0.75731850830E+03  0.12000000000E+03 0.  0.
         25    1    3    3    0    0 -0.17450205952E+02 -0.48369251037E+02 -0.38149362766E+03  0.40321394083E+03  0.12000000000E+03 0.  0.
<mgrwt>
<rscale>  0 0.27502213E+03</rscale>
<asrwt>0</asrwt>
<pdfrwt beam="1">  1        1 0.17600051E+00 0.27502213E+03</pdfrwt>
<pdfrwt beam="2">  1       -1 0.25429314E-02 0.27502213E+03</pdfrwt>
<totfact> 0.60398847E+03</totfact>
</mgrwt>
</event>
<event>
 5    1  0.1132878E+001  0.2728605E+03  0.7818608E-02  0.1099654E+00
          1   -1    0    0  501    0  0.00000000000E+00  0.00000000000E+00  0.10191076525E+04  0.10191076525E+04  0.00000000000E+00 0.  1.
         -1   -1    0    0    0  501 -0.00000000000E+00 -0.00000000000E+00 -0.18264232381E+02  0.18264232381E+02  0.00000000000E+00 0.  1.
         35    2    1    2    0    0  0.00000000000E+00  0.00000000000E+00  0.10008434201E+04  0.10373718849E+04  0.27286054304E+03 0.  0.
         25    1    3    3    0    0  0.41876221267E+02  0.40781141399E+02  0.60771844618E+03  0.62220449149E+03  0.12000000000E+03 0.  0.
         25    1    3    3    0    0 -0.41876221267E+02 -0.40781141399E+02  0.39312497392E+03  0.41516739338E+03  0.12000000000E+03 0.  0.
<mgrwt>
<rscale>  0 0.27286054E+03</rscale>
<asrwt>0</asrwt>
<pdfrwt beam="1">  1        1 0.15678575E+00 0.27286054E+03</pdfrwt>
<pdfrwt beam="2">  1       -1 0.28098827E-02 0.27286054E+03</pdfrwt>
<totfact> 0.64242748E+03</totfact>
</mgrwt>
</event>
<event>
 5    1  0.1132878E+001  0.2753856E+03  0.7818608E-02  0.1098236E+00
          2   -1    0    0  501    0  0.00000000000E+00  0.00000000000E+00  0.16507649694E+03  0.16507649694E+03  0.00000000000E+00 0.  1.
         -2   -1    0    0    0  501 -0.00000000000E+00 -0.00000000000E+00 -0.11485167999E+03  0.11485167999E+03  0.00000000000E+00 0.  1.
         35    2    1    2    0    0  0.00000000000E+00  0.00000000000E+00  0.50224816954E+02  0.27992817692E+03  0.27538564232E+03 0.  0.
         25    1    3    3    0    0  0.26213895566E+02  0.14978744810E+02  0.86505535275E+02  0.15097926596E+03  0.12000000000E+03 0.  0.
         25    1    3    3    0    0 -0.26213895566E+02 -0.14978744810E+02 -0.36280718321E+02  0.12894891096E+03  0.12000000000E+03 0.  0.
<mgrwt>
<rscale>  0 0.27538564E+03</rscale>
<asrwt>0</asrwt>
<pdfrwt beam="1">  1        2 0.25396384E-01 0.27538564E+03</pdfrwt>
<pdfrwt beam="2">  1       -2 0.17669489E-01 0.27538564E+03</pdfrwt>
<totfact> 0.54527130E+03</totfact>
</mgrwt>
</event>
<event>
 5    1  0.1132878E+001  0.2732452E+03  0.7818608E-02  0.1099437E+00
          2   -1    0    0  501    0  0.00000000000E+00  0.00000000000E+00  0.42205471168E+03  0.42205471168E+03  0.00000000000E+00 0.  1.
         -2   -1    0    0    0  501 -0.00000000000E+00 -0.00000000000E+00 -0.44225878208E+02  0.44225878208E+02  0.00000000000E+00 0.  1.
         35    2    1    2    0    0  0.00000000000E+00  0.00000000000E+00  0.37782883347E+03  0.46628058988E+03  0.27324523985E+03 0.  0.
         25    1    3    3    0    0 -0.63505965869E+02 -0.14365895198E+02  0.18015419792E+03  0.22604185823E+03  0.12000000000E+03 0.  0.
         25    1    3    3    0    0  0.63505965869E+02  0.14365895198E+02  0.19767463555E+03  0.24023873165E+03  0.12000000000E+03 0.  0.
<mgrwt>
<rscale>  0 0.27324524E+03</rscale>
<asrwt>0</asrwt>
<pdfrwt beam="1">  1        2 0.64931491E-01 0.27324524E+03</pdfrwt>
<pdfrwt beam="2">  1       -2 0.68039816E-02 0.27324524E+03</pdfrwt>
<totfact> 0.91019908E+03</totfact>
</mgrwt>
</event>
<event>
 5    1  0.1132878E+001  0.2760859E+03  0.7818608E-02  0.1097846E+00
          2   -1    0    0  501    0  0.00000000000E+00  0.00000000000E+00  0.71366470385E+02  0.71366470385E+02  0.00000000000E+00 0.  1.
         -2   -1    0    0    0  501 -0.00000000000E+00 -0.00000000000E+00 -0.26701408988E+03  0.26701408988E+03  0.00000000000E+00 0.  1.
         35    2    1    2    0    0  0.00000000000E+00  0.00000000000E+00 -0.19564761949E+03  0.33838056026E+03  0.27608587894E+03 0.  0.
         25    1    3    3    0    0 -0.52362242433E+02 -0.39067021756E+02 -0.12196031349E+03  0.18314571982E+03  0.12000000000E+03 0.  0.
         25    1    3    3    0    0  0.52362242433E+02  0.39067021756E+02 -0.73687306006E+02  0.15523484044E+03  0.12000000000E+03 0.  0.
<mgrwt>
<rscale>  0 0.27608588E+03</rscale>
<asrwt>0</asrwt>
<pdfrwt beam="1">  1        2 0.10979457E-01 0.27608588E+03</pdfrwt>
<pdfrwt beam="2">  1       -2 0.41079091E-01 0.27608588E+03</pdfrwt>
<totfact> 0.32140663E+03</totfact>
</mgrwt>
</event>
<event>
 5    1  0.1132878E+001  0.2750275E+03  0.7818608E-02  0.1098436E+00
         -1   -1    0    0    0  501 -0.00000000000E+00  0.00000000000E+00  0.15796058004E+02  0.15796058004E+02  0.00000000000E+00 0.  1.
          1   -1    0    0  501    0  0.00000000000E+00 -0.00000000000E+00 -0.11971358652E+04  0.11971358652E+04  0.00000000000E+00 0.  1.
         35    2    1    2    0    0  0.00000000000E+00  0.00000000000E+00 -0.11813398072E+04  0.12129319232E+04  0.27502747183E+03 0.  0.
         25    1    3    3    0    0 -0.89796880499E+01 -0.12116531782E+02 -0.30205868068E+03  0.32537192829E+03  0.12000000000E+03 0.  0.
         25    1    3    3    0    0  0.89796880499E+01  0.12116531782E+02 -0.87928112649E+03  0.88755999490E+03  0.12000000000E+03 0.  0.
<mgrwt>
<rscale>  0 0.27502747E+03</rscale>
<asrwt>0</asrwt>
<pdfrwt beam="1">  1        1 0.18417477E+00 0.27502747E+03</pdfrwt>
<pdfrwt beam="2">  1       -1 0.24301624E-02 0.27502747E+03</pdfrwt>
<totfact> 0.59222308E+03</totfact>
</mgrwt>
</event>
<event>
 5    1  0.1132878E+001  0.2751349E+03  0.7818608E-02  0.1098376E+00
         -1   -1    0    0    0  501 -0.00000000000E+00  0.00000000000E+00  0.18745615573E+02  0.18745615573E+02  0.00000000000E+00 0.  1.
          1   -1    0    0  501    0  0.00000000000E+00 -0.00000000000E+00 -0.10095591668E+04  0.10095591668E+04  0.00000000000E+00 0.  1.
         35    2    1    2    0    0  0.00000000000E+00  0.00000000000E+00 -0.99081355121E+03  0.10283047824E+04  0.27513493445E+03 0.  0.
         25    1    3    3    0    0  0.29836898482E+02  0.38377717451E+02 -0.66917712369E+03  0.68158720101E+03  0.12000000000E+03 0.  0.
         25    1    3    3    0    0 -0.29836898482E+02 -0.38377717451E+02 -0.32163642752E+03  0.34671758135E+03  0.12000000000E+03 0.  0.
<mgrwt>
<rscale>  0 0.27513493E+03</rscale>
<asrwt>0</asrwt>
<pdfrwt beam="1">  1        1 0.15531684E+00 0.27513493E+03</pdfrwt>
<pdfrwt beam="2">  1       -1 0.28839400E-02 0.27513493E+03</pdfrwt>
<totfact> 0.62857670E+03</totfact>
</mgrwt>
</event>
<event>
 5    1  0.1132878E+001  0.2746171E+03  0.7818608E-02  0.1098666E+00
          1   -1    0    0  501    0  0.00000000000E+00  0.00000000000E+00  0.11679725058E+04  0.11679725058E+04  0.00000000000E+00 0. -1.
         -1   -1    0    0    0  501 -0.00000000000E+00 -0.00000000000E+00 -0.16142192275E+02  0.16142192275E+02  0.00000000000E+00 0. -1.
         35    2    1    2    0    0  0.00000000000E+00  0.00000000000E+00  0.11518303135E+04  0.11841146981E+04  0.27461709168E+03 0.  0.
         25    1    3    3    0    0  0.40917615471E+02  0.51926039086E+02  0.61521523931E+03  0.63028593152E+03  0.12000000000E+03 0.  0.
         25    1    3    3    0    0 -0.40917615471E+02 -0.51926039086E+02  0.53661507423E+03  0.55382876657E+03  0.12000000000E+03 0.  0.
<mgrwt>
<rscale>  0 0.27461709E+03</rscale>
<asrwt>0</asrwt>
<pdfrwt beam="1">  1        1 0.17968801E+00 0.27461709E+03</pdfrwt>
<pdfrwt beam="2">  1       -1 0.24834151E-02 0.27461709E+03</pdfrwt>
<totfact> 0.60138470E+03</totfact>
</mgrwt>
</event>
<event>
 5    1  0.1132878E+001  0.2782592E+03  0.7818608E-02  0.1096644E+00
          4   -1    0    0  501    0  0.00000000000E+00  0.00000000000E+00  0.48989529242E+03  0.48989529242E+03  0.00000000000E+00 0. -1.
         -4   -1    0    0    0  501 -0.00000000000E+00 -0.00000000000E+00 -0.39512612100E+02  0.39512612100E+02  0.00000000000E+00 0. -1.
         35    2    1    2    0    0  0.00000000000E+00  0.00000000000E+00  0.45038268032E+03  0.52940790452E+03  0.27825917889E+03 0.  0.
         25    1    3    3    0    0  0.44884235442E+02 -0.50351119584E+02  0.18679837582E+03  0.23204194242E+03  0.12000000000E+03 0.  0.
         25    1    3    3    0    0 -0.44884235442E+02  0.50351119584E+02  0.26358430450E+03  0.29736596210E+03  0.12000000000E+03 0.  0.
<mgrwt>
<rscale>  0 0.27825918E+03</rscale>
<asrwt>0</asrwt>
<pdfrwt beam="1">  1        4 0.75368502E-01 0.27825918E+03</pdfrwt>
<pdfrwt beam="2">  1       -4 0.60788638E-02 0.27825918E+03</pdfrwt>
<totfact> 0.52860348E+02</totfact>
</mgrwt>
</event>
<event>
 5    1  0.1132878E+001  0.2751180E+03  0.7818608E-02  0.1098386E+00
         -1   -1    0    0    0  501 -0.00000000000E+00  0.00000000000E+00  0.77144956600E+01  0.77144956600E+01  0.00000000000E+00 0.  1.
          1   -1    0    0  501    0  0.00000000000E+00 -0.00000000000E+00 -0.24528467058E+04  0.24528467058E+04  0.00000000000E+00 0.  1.
         35    2    1    2    0    0  0.00000000000E+00  0.00000000000E+00 -0.24451322102E+04  0.24605612015E+04  0.27511797663E+03 0.  0.
         25    1    3    3    0    0 -0.28369058719E+01 -0.27499301962E+02 -0.67428150259E+03  0.68543402628E+03  0.12000000000E+03 0.  0.
         25    1    3    3    0    0  0.28369058719E+01  0.27499301962E+02 -0.17708507076E+04  0.17751271752E+04  0.12000000000E+03 0.  0.
<mgrwt>
<rscale>  0 0.27511798E+03</rscale>
<asrwt>0</asrwt>
<pdfrwt beam="1">  1        1 0.37736118E+00 0.27511798E+03</pdfrwt>
<pdfrwt beam="2">  1       -1 0.11868450E-02 0.27511798E+03</pdfrwt>
<totfact> 0.25006807E+03</totfact>
</mgrwt>
</event>
<event>
 5    1  0.1132878E+001  0.2766963E+03  0.7818608E-02  0.1097507E+00
          1   -1    0    0  501    0  0.00000000000E+00  0.00000000000E+00  0.10047509025E+04  0.10047509025E+04  0.00000000000E+00 0.  1.
         -1   -1    0    0    0  501 -0.00000000000E+00 -0.00000000000E+00 -0.19049702347E+02  0.19049702347E+02  0.00000000000E+00 0.  1.
         35    2    1    2    0    0  0.00000000000E+00  0.00000000000E+00  0.98570120012E+03  0.10238006048E+04  0.27669626398E+03 0.  0.
         25    1    3    3    0    0 -0.25849503421E+02 -0.38589273610E+02  0.30480467408E+03  0.33085226039E+03  0.12000000000E+03 0.  0.
         25    1    3    3    0    0  0.25849503421E+02  0.38589273610E+02  0.68089652604E+03  0.69294834442E+03  0.12000000000E+03 0.  0.
<mgrwt>
<rscale>  0 0.27669626E+03</rscale>
<asrwt>0</asrwt>
<pdfrwt beam="1">  1        1 0.15457702E+00 0.27669626E+03</pdfrwt>
<pdfrwt beam="2">  1       -1 0.29307242E-02 0.27669626E+03</pdfrwt>
<totfact> 0.61900423E+03</totfact>
</mgrwt>
</event>
<event>
 5    1  0.1132878E+001  0.2746344E+03  0.7818608E-02  0.1098656E+00
         -1   -1    0    0    0  501 -0.00000000000E+00  0.00000000000E+00  0.31358482303E+03  0.31358482303E+03  0.00000000000E+00 0. -1.
          1   -1    0    0  501    0  0.00000000000E+00 -0.00000000000E+00 -0.60130491264E+02  0.60130491264E+02  0.00000000000E+00 0. -1.
         35    2    1    2    0    0  0.00000000000E+00  0.00000000000E+00  0.25345433176E+03  0.37371531429E+03  0.27463437120E+03 0.  0.
         25    1    3    3    0    0 -0.42474773786E+02  0.51467759717E+02  0.12438095987E+03  0.18526645643E+03  0.12000000000E+03 0.  0.
         25    1    3    3    0    0  0.42474773786E+02 -0.51467759717E+02  0.12907337189E+03  0.18844885786E+03  0.12000000000E+03 0.  0.
<mgrwt>
<rscale>  0 0.27463437E+03</rscale>
<asrwt>0</asrwt>
<pdfrwt beam="1">  1        1 0.92508450E-02 0.27463437E+03</pdfrwt>
<pdfrwt beam="2">  1       -1 0.48243818E-01 0.27463437E+03</pdfrwt>
<totfact> 0.31185027E+03</totfact>
</mgrwt>
</event>
<event>
 5    1  0.1132878E+001  0.2693182E+03  0.7818608E-02  0.1101670E+00
         -1   -1    0    0    0  501 -0.00000000000E+00  0.00000000000E+00  0.21292505444E+03  0.21292505444E+03  0.00000000000E+00 0. -1.
          1   -1    0    0  501    0  0.00000000000E+00 -0.00000000000E+00 -0.85161776474E+02  0.85161776474E+02  0.00000000000E+00 0. -1.
         35    2    1    2    0    0  0.00000000000E+00  0.00000000000E+00  0.12776327796E+03  0.29808683091E+03  0.26931821989E+03 0.  0.
         25    1    3    3    0    0  0.13351793789E+02  0.10321367619E+01  0.12986279061E+03  0.17732365914E+03  0.12000000000E+03 0.  0.
         25    1    3    3    0    0 -0.13351793789E+02 -0.10321367619E+01 -0.20995126497E+01  0.12076317177E+03  0.12000000000E+03 0.  0.
<mgrwt>
<rscale>  0 0.26931822E+03</rscale>
<asrwt>0</asrwt>
<pdfrwt beam="1">  1        1 0.13101812E-01 0.26931822E+03</pdfrwt>
<pdfrwt beam="2">  1       -1 0.32757700E-01 0.26931822E+03</pdfrwt>
<totfact> 0.38912553E+03</totfact>
</mgrwt>
</event>
<event>
 5    1  0.1132878E+001  0.2750293E+03  0.7818608E-02  0.1098435E+00
          1   -1    0    0  501    0  0.00000000000E+00  0.00000000000E+00  0.34170676953E+04  0.34170676953E+04  0.00000000000E+00 0. -1.
         -1   -1    0    0    0  501 -0.00000000000E+00 -0.00000000000E+00 -0.55340662993E+01  0.55340662993E+01  0.00000000000E+00 0. -1.
         35    2    1    2    0    0  0.00000000000E+00  0.00000000000E+00  0.34115336290E+04  0.34226017616E+04  0.27502930153E+03 0.  0.
         25    1    3    3    0    0  0.24596876915E+02 -0.52294665132E+01  0.24807229739E+04  0.24837509591E+04  0.12000000000E+03 0.  0.
         25    1    3    3    0    0 -0.24596876915E+02  0.52294665132E+01  0.93081065505E+03  0.93885080243E+03  0.12000000000E+03 0.  0.
<mgrwt>
<rscale>  0 0.27502930E+03</rscale>
<asrwt>0</asrwt>
<pdfrwt beam="1">  1        1 0.52570104E+00 0.27502930E+03</pdfrwt>
<pdfrwt beam="2">  1       -1 0.85139755E-03 0.27502930E+03</pdfrwt>
<totfact> 0.85947300E+02</totfact>
</mgrwt>
</event>
<event>
 5    1  0.1132878E+001  0.2741953E+03  0.7818608E-02  0.1098902E+00
         -1   -1    0    0    0  501 -0.00000000000E+00  0.00000000000E+00  0.41957095324E+02  0.41957095324E+02  0.00000000000E+00 0. -1.
          1   -1    0    0  501    0  0.00000000000E+00 -0.00000000000E+00 -0.44797575065E+03  0.44797575065E+03  0.00000000000E+00 0. -1.
         35    2    1    2    0    0  0.00000000000E+00  0.00000000000E+00 -0.40601865533E+03  0.48993284598E+03  0.27419526818E+03 0.  0.
         25    1    3    3    0    0  0.12051757464E+01  0.57568758427E+02 -0.14428500615E+03  0.19630022260E+03  0.12000000000E+03 0.  0.
         25    1    3    3    0    0 -0.12051757464E+01 -0.57568758427E+02 -0.26173364918E+03  0.29363262337E+03  0.12000000000E+03 0.  0.
<mgrwt>
<rscale>  0 0.27419527E+03</rscale>
<asrwt>0</asrwt>
<pdfrwt beam="1">  1        1 0.68919348E-01 0.27419527E+03</pdfrwt>
<pdfrwt beam="2">  1       -1 0.64549375E-02 0.27419527E+03</pdfrwt>
<totfact> 0.62140445E+03</totfact>
</mgrwt>
</event>
<event>
 5    1  0.1132878E+001  0.2759174E+03  0.7818608E-02  0.1097940E+00
         -1   -1    0    0    0  501 -0.00000000000E+00  0.00000000000E+00  0.14058670832E+03  0.14058670832E+03  0.00000000000E+00 0.  1.
          1   -1    0    0  501    0  0.00000000000E+00 -0.00000000000E+00 -0.13537978956E+03  0.13537978956E+03  0.00000000000E+00 0.  1.
         35    2    1    2    0    0  0.00000000000E+00  0.00000000000E+00  0.52069187575E+01  0.27596649788E+03  0.27591737160E+03 0.  0.
         25    1    3    3    0    0 -0.12146675224E+02 -0.65341876643E+02  0.17285869569E+02  0.13826027574E+03  0.12000000000E+03 0.  0.
         25    1    3    3    0    0  0.12146675224E+02  0.65341876643E+02 -0.12078950812E+02  0.13770622214E+03  0.12000000000E+03 0.  0.
<mgrwt>
<rscale>  0 0.27591737E+03</rscale>
<asrwt>0</asrwt>
<pdfrwt beam="1">  1        1 0.20827660E-01 0.27591737E+03</pdfrwt>
<pdfrwt beam="2">  1       -1 0.21628724E-01 0.27591737E+03</pdfrwt>
<totfact> 0.42676801E+03</totfact>
</mgrwt>
</event>
<event>
 5    1  0.1132878E+001  0.2753823E+03  0.7818608E-02  0.1098238E+00
          2   -1    0    0  501    0  0.00000000000E+00  0.00000000000E+00  0.47530135469E+03  0.47530135469E+03  0.00000000000E+00 0.  1.
         -2   -1    0    0    0  501 -0.00000000000E+00 -0.00000000000E+00 -0.39888080048E+02  0.39888080048E+02  0.00000000000E+00 0.  1.
         35    2    1    2    0    0  0.00000000000E+00  0.00000000000E+00  0.43541327465E+03  0.51518943474E+03  0.27538234136E+03 0.  0.
         25    1    3    3    0    0  0.21595343260E+02  0.59465178049E+02  0.26183536327E+03  0.29489018924E+03  0.12000000000E+03 0.  0.
         25    1    3    3    0    0 -0.21595343260E+02 -0.59465178049E+02  0.17357791137E+03  0.22029924550E+03  0.12000000000E+03 0.  0.
<mgrwt>
<rscale>  0 0.27538234E+03</rscale>
<asrwt>0</asrwt>
<pdfrwt beam="1">  1        2 0.73123281E-01 0.27538234E+03</pdfrwt>
<pdfrwt beam="2">  1       -2 0.61366280E-02 0.27538234E+03</pdfrwt>
<totfact> 0.93662169E+03</totfact>
</mgrwt>
</event>
<event>
 5    1  0.1132878E+001  0.2755466E+03  0.7818608E-02  0.1098146E+00
          2   -1    0    0  501    0  0.00000000000E+00  0.00000000000E+00  0.14721450492E+03  0.14721450492E+03  0.00000000000E+00 0.  1.
         -2   -1    0    0    0  501 -0.00000000000E+00 -0.00000000000E+00 -0.12893757565E+03  0.12893757565E+03  0.00000000000E+00 0.  1.
         35    2    1    2    0    0  0.00000000000E+00  0.00000000000E+00  0.18276929277E+02  0.27615208057E+03  0.27554659399E+03 0.  0.
         25    1    3    3    0    0  0.58120661922E+02 -0.12670251161E+02  0.41503929064E+02  0.14021812556E+03  0.12000000000E+03 0.  0.
         25    1    3    3    0    0 -0.58120661922E+02  0.12670251161E+02 -0.23226999788E+02  0.13593395501E+03  0.12000000000E+03 0.  0.
<mgrwt>
<rscale>  0 0.27554659E+03</rscale>
<asrwt>0</asrwt>
<pdfrwt beam="1">  1        2 0.22648385E-01 0.27554659E+03</pdfrwt>
<pdfrwt beam="2">  1       -2 0.19836550E-01 0.27554659E+03</pdfrwt>
<totfact> 0.50961096E+03</totfact>
</mgrwt>
</event>
<event>
 5    1  0.1132878E+001  0.2749422E+03  0.7818608E-02  0.1098484E+00
          2   -1    0    0  501    0  0.00000000000E+00  0.00000000000E+00  0.20253517922E+04  0.20253517922E+04  0.00000000000E+00 0.  1.
         -2   -1    0    0    0  501 -0.00000000000E+00 -0.00000000000E+00 -0.93308752112E+01  0.93308752112E+01  0.00000000000E+00 0.  1.
         35    2    1    2    0    0  0.00000000000E+00  0.00000000000E+00  0.20160209170E+04  0.20346826674E+04  0.27494221089E+03 0.  0.
         25    1    3    3    0    0 -0.29692821705E+02 -0.20629493041E+02  0.14260555255E+04  0.14315521651E+04  0.12000000000E+03 0.  0.
         25    1    3    3    0    0  0.29692821705E+02  0.20629493041E+02  0.58996539156E+03  0.60313050236E+03  0.12000000000E+03 0.  0.
<mgrwt>
<rscale>  0 0.27494221E+03</rscale>
<asrwt>0</asrwt>
<pdfrwt beam="1">  1        2 0.31159223E+00 0.27494221E+03</pdfrwt>
<pdfrwt beam="2">  1       -2 0.14355209E-02 0.27494221E+03</pdfrwt>
<totfact> 0.90645109E+03</totfact>
</mgrwt>
</event>
<event>
 5    1  0.1132878E+001  0.2736972E+03  0.7818608E-02  0.1099182E+00
          2   -1    0    0  501    0  0.00000000000E+00  0.00000000000E+00  0.74960217085E+02  0.74960217085E+02  0.00000000000E+00 0. -1.
         -2   -1    0    0    0  501 -0.00000000000E+00 -0.00000000000E+00 -0.24983312868E+03  0.24983312868E+03  0.00000000000E+00 0. -1.
         35    2    1    2    0    0  0.00000000000E+00  0.00000000000E+00 -0.17487291160E+03  0.32479334577E+03  0.27369724559E+03 0.  0.
         25    1    3    3    0    0  0.65015375216E+02  0.35854396116E+01 -0.98549028803E+02  0.16837982501E+03  0.12000000000E+03 0.  0.
         25    1    3    3    0    0 -0.65015375216E+02 -0.35854396116E+01 -0.76323882795E+02  0.15641352076E+03  0.12000000000E+03 0.  0.
<mgrwt>
<rscale>  0 0.27369725E+03</rscale>
<asrwt>0</asrwt>
<pdfrwt beam="1">  1        2 0.11532341E-01 0.27369725E+03</pdfrwt>
<pdfrwt beam="2">  1       -2 0.38435866E-01 0.27369725E+03</pdfrwt>
<totfact> 0.34345954E+03</totfact>
</mgrwt>
</event>
<event>
 5    1  0.1132878E+001  0.2749096E+03  0.7818608E-02  0.1098502E+00
         -2   -1    0    0    0  501 -0.00000000000E+00  0.00000000000E+00  0.11888368758E+02  0.11888368758E+02  0.00000000000E+00 0.  1.
          2   -1    0    0  501    0  0.00000000000E+00 -0.00000000000E+00 -0.15892699816E+04  0.15892699816E+04  0.00000000000E+00 0.  1.
         35    2    1    2    0    0  0.00000000000E+00  0.00000000000E+00 -0.15773816129E+04  0.16011583504E+04  0.27490964040E+03 0.  0.
         25    1    3    3    0    0  0.32744292447E+02  0.57228318993E+02 -0.85920064064E+03  0.87004195880E+03  0.12000000000E+03 0.  0.
         25    1    3    3    0    0 -0.32744292447E+02 -0.57228318993E+02 -0.71818097222E+03  0.73111639158E+03  0.12000000000E+03 0.  0.
<mgrwt>
<rscale>  0 0.27490964E+03</rscale>
<asrwt>0</asrwt>
<pdfrwt beam="1">  1        2 0.24450325E+00 0.27490964E+03</pdfrwt>
<pdfrwt beam="2">  1       -2 0.18289785E-02 0.27490964E+03</pdfrwt>
<totfact> 0.10781609E+04</totfact>
</mgrwt>
</event>
<event>
 5    1  0.1132878E+001  0.2726228E+03  0.7818608E-02  0.1099788E+00
          1   -1    0    0  501    0  0.00000000000E+00  0.00000000000E+00  0.73382054022E+02  0.73382054022E+02  0.00000000000E+00 0.  1.
         -1   -1    0    0    0  501 -0.00000000000E+00 -0.00000000000E+00 -0.25320637133E+03  0.25320637133E+03  0.00000000000E+00 0.  1.
         35    2    1    2    0    0  0.00000000000E+00  0.00000000000E+00 -0.17982431731E+03  0.32658842535E+03  0.27262284291E+03 0.  0.
         25    1    3    3    0    0  0.12271998631E+02 -0.35587622559E+02 -0.26934605030E+02  0.12861785948E+03  0.12000000000E+03 0.  0.
         25    1    3    3    0    0 -0.12271998631E+02  0.35587622559E+02 -0.15288971228E+03  0.19797056587E+03  0.12000000000E+03 0.  0.
<mgrwt>
<rscale>  0 0.27262284E+03</rscale>
<asrwt>0</asrwt>
<pdfrwt beam="1">  1        1 0.11289547E-01 0.27262284E+03</pdfrwt>
<pdfrwt beam="2">  1       -1 0.38954826E-01 0.27262284E+03</pdfrwt>
<totfact> 0.35075189E+03</totfact>
</mgrwt>
</event>
<event>
 5    1  0.1132878E+001  0.2752259E+03  0.7818608E-02  0.1098325E+00
          2   -1    0    0  501    0  0.00000000000E+00  0.00000000000E+00  0.11402581796E+04  0.11402581796E+04  0.00000000000E+00 0. -1.
         -2   -1    0    0    0  501 -0.00000000000E+00 -0.00000000000E+00 -0.16607922005E+02  0.16607922005E+02  0.00000000000E+00 0. -1.
         35    2    1    2    0    0  0.00000000000E+00  0.00000000000E+00  0.11236502576E+04  0.11568661016E+04  0.27522586298E+03 0.  0.
         25    1    3    3    0    0  0.56382426924E+02 -0.92990830292E+01  0.41192056428E+03  0.43283253377E+03  0.12000000000E+03 0.  0.
         25    1    3    3    0    0 -0.56382426924E+02  0.92990830292E+01  0.71172969335E+03  0.72403356787E+03  0.12000000000E+03 0.  0.
<mgrwt>
<rscale>  0 0.27522586E+03</rscale>
<asrwt>0</asrwt>
<pdfrwt beam="1">  1        2 0.17542427E+00 0.27522586E+03</pdfrwt>
<pdfrwt beam="2">  1       -2 0.25550658E-02 0.27522586E+03</pdfrwt>
<totfact> 0.11620926E+04</totfact>
</mgrwt>
</event>
<event>
 5    1  0.1132878E+001  0.2720223E+03  0.7818608E-02  0.1100128E+00
         -4   -1    0    0    0  501 -0.00000000000E+00  0.00000000000E+00  0.12840900369E+03  0.12840900369E+03  0.00000000000E+00 0. -1.
          4   -1    0    0  501    0  0.00000000000E+00 -0.00000000000E+00 -0.14406332129E+03  0.14406332129E+03  0.00000000000E+00 0. -1.
         35    2    1    2    0    0  0.00000000000E+00  0.00000000000E+00 -0.15654317604E+02  0.27247232498E+03  0.27202226052E+03 0.  0.
         25    1    3    3    0    0 -0.34032406820E+02 -0.42462483692E+02  0.25959352015E+02  0.13429503041E+03  0.12000000000E+03 0.  0.
         25    1    3    3    0    0  0.34032406820E+02  0.42462483692E+02 -0.41613669619E+02  0.13817729457E+03  0.12000000000E+03 0.  0.
<mgrwt>
<rscale>  0 0.27202226E+03</rscale>
<asrwt>0</asrwt>
<pdfrwt beam="1">  1        4 0.22163588E-01 0.27202226E+03</pdfrwt>
<pdfrwt beam="2">  1       -4 0.19755231E-01 0.27202226E+03</pdfrwt>
<totfact> 0.80841348E+02</totfact>
</mgrwt>
</event>
<event>
 5    1  0.1132878E+001  0.2688729E+03  0.7818608E-02  0.1101926E+00
         -2   -1    0    0    0  501 -0.00000000000E+00  0.00000000000E+00  0.41406271773E+02  0.41406271773E+02  0.00000000000E+00 0.  1.
          2   -1    0    0  501    0  0.00000000000E+00 -0.00000000000E+00 -0.43648367539E+03  0.43648367539E+03  0.00000000000E+00 0.  1.
         35    2    1    2    0    0  0.00000000000E+00  0.00000000000E+00 -0.39507740361E+03  0.47788994716E+03  0.26887291933E+03 0.  0.
         25    1    3    3    0    0  0.13690417517E+02 -0.58536964643E+02 -0.18386811041E+03  0.22764333020E+03  0.12000000000E+03 0.  0.
         25    1    3    3    0    0 -0.13690417517E+02  0.58536964643E+02 -0.21120929321E+03  0.25024661696E+03  0.12000000000E+03 0.  0.
<mgrwt>
<rscale>  0 0.26887292E+03</rscale>
<asrwt>0</asrwt>
<pdfrwt beam="1">  1        2 0.67151332E-01 0.26887292E+03</pdfrwt>
<pdfrwt beam="2">  1       -2 0.63701960E-02 0.26887292E+03</pdfrwt>
<totfact> 0.97052752E+03</totfact>
</mgrwt>
</event>
<event>
 5    1  0.1132878E+001  0.2803679E+03  0.7818608E-02  0.1095488E+00
          2   -1    0    0  501    0  0.00000000000E+00  0.00000000000E+00  0.34365958176E+03  0.34365958176E+03  0.00000000000E+00 0. -1.
         -2   -1    0    0    0  501 -0.00000000000E+00 -0.00000000000E+00 -0.57183151020E+02  0.57183151020E+02  0.00000000000E+00 0. -1.
         35    2    1    2    0    0  0.00000000000E+00  0.00000000000E+00  0.28647643074E+03  0.40084273278E+03  0.28036788520E+03 0.  0.
         25    1    3    3    0    0  0.85105377291E+01 -0.35912176919E+02  0.54074450753E+02  0.13669732963E+03  0.12000000000E+03 0.  0.
         25    1    3    3    0    0 -0.85105377291E+01  0.35912176919E+02  0.23240197999E+03  0.26414540315E+03  0.12000000000E+03 0.  0.
<mgrwt>
<rscale>  0 0.28036789E+03</rscale>
<asrwt>0</asrwt>
<pdfrwt beam="1">  1        2 0.52870704E-01 0.28036789E+03</pdfrwt>
<pdfrwt beam="2">  1       -2 0.87974081E-02 0.28036789E+03</pdfrwt>
<totfact> 0.76267758E+03</totfact>
</mgrwt>
</event>
<event>
 5    1  0.1132878E+001  0.2754600E+03  0.7818608E-02  0.1098195E+00
          2   -1    0    0  501    0  0.00000000000E+00  0.00000000000E+00  0.22598106827E+04  0.22598106827E+04  0.00000000000E+00 0. -1.
         -2   -1    0    0    0  501 -0.00000000000E+00 -0.00000000000E+00 -0.83943096954E+01  0.83943096954E+01  0.00000000000E+00 0. -1.
         35    2    1    2    0    0  0.00000000000E+00  0.00000000000E+00  0.22514163730E+04  0.22682049924E+04  0.27545998420E+03 0.  0.
         25    1    3    3    0    0 -0.59965259971E+02 -0.28089074511E+02  0.10137944630E+04  0.10230171268E+04  0.12000000000E+03 0.  0.
         25    1    3    3    0    0  0.59965259971E+02  0.28089074511E+02  0.12376219101E+04  0.12451878657E+04  0.12000000000E+03 0.  0.
<mgrwt>
<rscale>  0 0.27545998E+03</rscale>
<asrwt>0</asrwt>
<pdfrwt beam="1">  1        2 0.34766270E+00 0.27545998E+03</pdfrwt>
<pdfrwt beam="2">  1       -2 0.12914341E-02 0.27545998E+03</pdfrwt>
<totfact> 0.79458702E+03</totfact>
</mgrwt>
</event>
<event>
 5    1  0.1132878E+001  0.2742721E+03  0.7818608E-02  0.1098859E+00
         -2   -1    0    0    0  501 -0.00000000000E+00  0.00000000000E+00  0.50223372346E+02  0.50223372346E+02  0.00000000000E+00 0. -1.
          2   -1    0    0  501    0  0.00000000000E+00 -0.00000000000E+00 -0.37445311097E+03  0.37445311097E+03  0.00000000000E+00 0. -1.
         35    2    1    2    0    0  0.00000000000E+00  0.00000000000E+00 -0.32422973862E+03  0.42467648331E+03  0.27427211319E+03 0.  0.
         25    1    3    3    0    0 -0.39832925717E+02  0.15999007294E+02 -0.83716426767E+02  0.15248301648E+03  0.12000000000E+03 0.  0.
         25    1    3    3    0    0  0.39832925717E+02 -0.15999007294E+02 -0.24051331186E+03  0.27219346683E+03  0.12000000000E+03 0.  0.
<mgrwt>
<rscale>  0 0.27427211E+03</rscale>
<asrwt>0</asrwt>
<pdfrwt beam="1">  1        2 0.57608169E-01 0.27427211E+03</pdfrwt>
<pdfrwt beam="2">  1       -2 0.77266730E-02 0.27427211E+03</pdfrwt>
<totfact> 0.85104473E+03</totfact>
</mgrwt>
</event>
<event>
 5    1  0.1132878E+001  0.2749735E+03  0.7818608E-02  0.1098466E+00
          2   -1    0    0  501    0  0.00000000000E+00  0.00000000000E+00  0.17084693840E+04  0.17084693840E+04  0.00000000000E+00 0.  1.
         -2   -1    0    0    0  501 -0.00000000000E+00 -0.00000000000E+00 -0.11064060705E+02  0.11064060705E+02  0.00000000000E+00 0.  1.
         35    2    1    2    0    0  0.00000000000E+00  0.00000000000E+00  0.16974053233E+04  0.17195334447E+04  0.27497351857E+03 0.  0.
         25    1    3    3    0    0  0.10813629320E+02 -0.39752338008E+01  0.12620870869E+04  0.12678314368E+04  0.12000000000E+03 0.  0.
         25    1    3    3    0    0 -0.10813629320E+02  0.39752338008E+01  0.43531823636E+03  0.45170200794E+03  0.12000000000E+03 0.  0.
<mgrwt>
<rscale>  0 0.27497352E+03</rscale>
<asrwt>0</asrwt>
<pdfrwt beam="1">  1        2 0.26284123E+00 0.27497352E+03</pdfrwt>
<pdfrwt beam="2">  1       -2 0.17021645E-02 0.27497352E+03</pdfrwt>
<totfact> 0.10363643E+04</totfact>
</mgrwt>
</event>
<event>
 5    1  0.1132878E+001  0.2719661E+03  0.7818608E-02  0.1100160E+00
         -2   -1    0    0    0  501 -0.00000000000E+00  0.00000000000E+00  0.95135410102E+02  0.95135410102E+02  0.00000000000E+00 0. -1.
          2   -1    0    0  501    0  0.00000000000E+00 -0.00000000000E+00 -0.19436916445E+03  0.19436916445E+03  0.00000000000E+00 0. -1.
         35    2    1    2    0    0  0.00000000000E+00  0.00000000000E+00 -0.99233754348E+02  0.28950457455E+03  0.27196610209E+03 0.  0.
         25    1    3    3    0    0  0.27730617826E+02 -0.50127155733E+02 -0.79906580300E+02  0.15513471720E+03  0.12000000000E+03 0.  0.
         25    1    3    3    0    0 -0.27730617826E+02  0.50127155733E+02 -0.19327174048E+02  0.13436985735E+03  0.12000000000E+03 0.  0.
<mgrwt>
<rscale>  0 0.27196610E+03</rscale>
<asrwt>0</asrwt>
<pdfrwt beam="1">  1        2 0.29902948E-01 0.27196610E+03</pdfrwt>
<pdfrwt beam="2">  1       -2 0.14636217E-01 0.27196610E+03</pdfrwt>
<totfact> 0.62247387E+03</totfact>
</mgrwt>
</event>
<event>
 5    1  0.1132878E+001  0.2746880E+03  0.7818608E-02  0.1098626E+00
          1   -1    0    0  501    0  0.00000000000E+00  0.00000000000E+00  0.25253210548E+03  0.25253210548E+03  0.00000000000E+00 0. -1.
         -1   -1    0    0    0  501 -0.00000000000E+00 -0.00000000000E+00 -0.74696954581E+02  0.74696954581E+02  0.00000000000E+00 0. -1.
         35    2    1    2    0    0  0.00000000000E+00  0.00000000000E+00  0.17783515090E+03  0.32722906006E+03  0.27468803551E+03 0.  0.
         25    1    3    3    0    0  0.28257128718E+01  0.42244528766E+02  0.15048235742E+03  0.19707238457E+03  0.12000000000E+03 0.  0.
         25    1    3    3    0    0 -0.28257128718E+01 -0.42244528766E+02  0.27352793476E+02  0.13015667549E+03  0.12000000000E+03 0.  0.
<mgrwt>
<rscale>  0 0.27468804E+03</rscale>
<asrwt>0</asrwt>
<pdfrwt beam="1">  1        1 0.38851093E-01 0.27468804E+03</pdfrwt>
<pdfrwt beam="2">  1       -1 0.11491839E-01 0.27468804E+03</pdfrwt>
<totfact> 0.53098125E+03</totfact>
</mgrwt>
</event>
<event>
 5    1  0.1132878E+001  0.2756001E+03  0.7818608E-02  0.1098117E+00
         -2   -1    0    0    0  501 -0.00000000000E+00  0.00000000000E+00  0.40861356241E+02  0.40861356241E+02  0.00000000000E+00 0.  1.
          2   -1    0    0  501    0  0.00000000000E+00 -0.00000000000E+00 -0.46471427564E+03  0.46471427564E+03  0.00000000000E+00 0.  1.
         35    2    1    2    0    0  0.00000000000E+00  0.00000000000E+00 -0.42385291940E+03  0.50557563188E+03  0.27560011297E+03 0.  0.
         25    1    3    3    0    0 -0.66258213747E+02  0.90065594283E+01 -0.23181878692E+03  0.26946468965E+03  0.12000000000E+03 0.  0.
         25    1    3    3    0    0  0.66258213747E+02 -0.90065594283E+01 -0.19203413248E+03  0.23611094223E+03  0.12000000000E+03 0.  0.
<mgrwt>
<rscale>  0 0.27560011E+03</rscale>
<asrwt>0</asrwt>
<pdfrwt beam="1">  1        2 0.71494502E-01 0.27560011E+03</pdfrwt>
<pdfrwt beam="2">  1       -2 0.62863627E-02 0.27560011E+03</pdfrwt>
<totfact> 0.92537590E+03</totfact>
</mgrwt>
</event>
<event>
 5    1  0.1132878E+001  0.2725295E+03  0.7818608E-02  0.1099841E+00
         -2   -1    0    0    0  501 -0.00000000000E+00  0.00000000000E+00  0.64923622476E+01  0.64923622476E+01  0.00000000000E+00 0. -1.
          2   -1    0    0  501    0  0.00000000000E+00 -0.00000000000E+00 -0.28599881285E+04  0.28599881285E+04  0.00000000000E+00 0. -1.
         35    2    1    2    0    0  0.00000000000E+00  0.00000000000E+00 -0.28534957662E+04  0.28664804907E+04  0.27252947697E+03 0.  0.
         25    1    3    3    0    0 -0.19861803195E+02  0.60648906778E+02 -0.15294257938E+04  0.15354530406E+04  0.12000000000E+03 0.  0.
         25    1    3    3    0    0  0.19861803195E+02 -0.60648906778E+02 -0.13240699724E+04  0.13310274501E+04  0.12000000000E+03 0.  0.
<mgrwt>
<rscale>  0 0.27252948E+03</rscale>
<asrwt>0</asrwt>
<pdfrwt beam="1">  1        2 0.43999891E+00 0.27252948E+03</pdfrwt>
<pdfrwt beam="2">  1       -2 0.99882329E-03 0.27252948E+03</pdfrwt>
<totfact> 0.53750411E+03</totfact>
</mgrwt>
</event>
<event>
 5    1  0.1132878E+001  0.2752869E+03  0.7818608E-02  0.1098291E+00
         -2   -1    0    0    0  501 -0.00000000000E+00  0.00000000000E+00  0.21028328901E+03  0.21028328901E+03  0.00000000000E+00 0.  1.
          2   -1    0    0  501    0  0.00000000000E+00 -0.00000000000E+00 -0.90096166733E+02  0.90096166733E+02  0.00000000000E+00 0.  1.
         35    2    1    2    0    0  0.00000000000E+00  0.00000000000E+00  0.12018712228E+03  0.30037945574E+03  0.27528689230E+03 0.  0.
         25    1    3    3    0    0  0.22811472056E+02 -0.49818293429E+02  0.17225190606E+02  0.13303733615E+03  0.12000000000E+03 0.  0.
         25    1    3    3    0    0 -0.22811472056E+02  0.49818293429E+02  0.10296193167E+03  0.16734211960E+03  0.12000000000E+03 0.  0.
<mgrwt>
<rscale>  0 0.27528689E+03</rscale>
<asrwt>0</asrwt>
<pdfrwt beam="1">  1        2 0.13860949E-01 0.27528689E+03</pdfrwt>
<pdfrwt beam="2">  1       -2 0.32351275E-01 0.27528689E+03</pdfrwt>
<totfact> 0.37935881E+03</totfact>
</mgrwt>
</event>
<event>
 5    1  0.1132878E+001  0.2751201E+03  0.7818608E-02  0.1098384E+00
         -2   -1    0    0    0  501 -0.00000000000E+00  0.00000000000E+00  0.90738936715E+02  0.90738936715E+02  0.00000000000E+00 0.  1.
          2   -1    0    0  501    0  0.00000000000E+00 -0.00000000000E+00 -0.20854072329E+03  0.20854072329E+03  0.00000000000E+00 0.  1.
         35    2    1    2    0    0  0.00000000000E+00  0.00000000000E+00 -0.11780178658E+03  0.29927966001E+03  0.27512007192E+03 0.  0.
         25    1    3    3    0    0 -0.51088911261E+02  0.43447149102E+02 -0.64343433035E+02  0.15178211026E+03  0.12000000000E+03 0.  0.
         25    1    3    3    0    0  0.51088911261E+02 -0.43447149102E+02 -0.53458353541E+02  0.14749754975E+03  0.12000000000E+03 0.  0.
<mgrwt>
<rscale>  0 0.27512007E+03</rscale>
<asrwt>0</asrwt>
<pdfrwt beam="1">  1        2 0.32083188E-01 0.27512007E+03</pdfrwt>
<pdfrwt beam="2">  1       -2 0.13959837E-01 0.27512007E+03</pdfrwt>
<totfact> 0.62319117E+03</totfact>
</mgrwt>
</event>
<event>
 5    1  0.1132878E+001  0.2747227E+03  0.7818608E-02  0.1098607E+00
          4   -1    0    0  501    0  0.00000000000E+00  0.00000000000E+00  0.51904868903E+03  0.51904868903E+03  0.00000000000E+00 0.  1.
         -4   -1    0    0    0  501 -0.00000000000E+00 -0.00000000000E+00 -0.36351383943E+02  0.36351383943E+02  0.00000000000E+00 0.  1.
         35    2    1    2    0    0  0.00000000000E+00  0.00000000000E+00  0.48269730509E+03  0.55540007297E+03  0.27472268330E+03 0.  0.
         25    1    3    3    0    0 -0.10443644074E+02 -0.85244911284E+01  0.37370898166E+03  0.39273418443E+03  0.12000000000E+03 0.  0.
         25    1    3    3    0    0  0.10443644074E+02  0.85244911284E+01  0.10898832343E+03  0.16266588854E+03  0.12000000000E+03 0.  0.
<mgrwt>
<rscale>  0 0.27472268E+03</rscale>
<asrwt>0</asrwt>
<pdfrwt beam="1">  1        4 0.79853639E-01 0.27472268E+03</pdfrwt>
<pdfrwt beam="2">  1       -4 0.55925210E-02 0.27472268E+03</pdfrwt>
<totfact> 0.53191651E+02</totfact>
</mgrwt>
</event>
<event>
 5    1  0.1132878E+001  0.2745529E+03  0.7818608E-02  0.1098702E+00
          1   -1    0    0  501    0  0.00000000000E+00  0.00000000000E+00  0.39396167488E+03  0.39396167488E+03  0.00000000000E+00 0. -1.
         -1   -1    0    0    0  501 -0.00000000000E+00 -0.00000000000E+00 -0.47834147508E+02  0.47834147508E+02  0.00000000000E+00 0. -1.
         35    2    1    2    0    0  0.00000000000E+00  0.00000000000E+00  0.34612752737E+03  0.44179582239E+03  0.27455287920E+03 0.  0.
         25    1    3    3    0    0  0.25417265863E+02 -0.32740807676E+02  0.89035754378E+02  0.15506567463E+03  0.12000000000E+03 0.  0.
         25    1    3    3    0    0 -0.25417265863E+02  0.32740807676E+02  0.25709177300E+03  0.28673014776E+03  0.12000000000E+03 0.  0.
<mgrwt>
<rscale>  0 0.27455288E+03</rscale>
<asrwt>0</asrwt>
<pdfrwt beam="1">  1        1 0.60609486E-01 0.27455288E+03</pdfrwt>
<pdfrwt beam="2">  1       -1 0.73590999E-02 0.27455288E+03</pdfrwt>
<totfact> 0.60124736E+03</totfact>
</mgrwt>
</event>
<event>
 5    1  0.1132878E+001  0.2750165E+03  0.7818608E-02  0.1098442E+00
         -2   -1    0    0    0  501 -0.00000000000E+00  0.00000000000E+00  0.63093331579E+03  0.63093331579E+03  0.00000000000E+00 0. -1.
          2   -1    0    0  501    0  0.00000000000E+00 -0.00000000000E+00 -0.29969116342E+02  0.29969116342E+02  0.00000000000E+00 0. -1.
         35    2    1    2    0    0  0.00000000000E+00  0.00000000000E+00  0.60096419944E+03  0.66090243213E+03  0.27501646456E+03 0.  0.
         25    1    3    3    0    0 -0.29750579845E+02 -0.19451543231E+01  0.15590119303E+03  0.19898256862E+03  0.12000000000E+03 0.  0.
         25    1    3    3    0    0  0.29750579845E+02  0.19451543231E+01  0.44506300641E+03  0.46191986351E+03  0.12000000000E+03 0.  0.
<mgrwt>
<rscale>  0 0.27501646E+03</rscale>
<asrwt>0</asrwt>
<pdfrwt beam="1">  1        2 0.46106338E-02 0.27501646E+03</pdfrwt>
<pdfrwt beam="2">  1       -2 0.97066654E-01 0.27501646E+03</pdfrwt>
<totfact> 0.16082447E+03</totfact>
</mgrwt>
</event>
<event>
 5    1  0.1132878E+001  0.2758901E+03  0.7818608E-02  0.1097955E+00
          1   -1    0    0  501    0  0.00000000000E+00  0.00000000000E+00  0.29929394770E+03  0.29929394770E+03  0.00000000000E+00 0. -1.
         -1   -1    0    0    0  501 -0.00000000000E+00 -0.00000000000E+00 -0.63579074366E+02  0.63579074366E+02  0.00000000000E+00 0. -1.
         35    2    1    2    0    0  0.00000000000E+00  0.00000000000E+00  0.23571487333E+03  0.36287302206E+03  0.27589006621E+03 0.  0.
         25    1    3    3    0    0 -0.54528405089E+02  0.15870240857E+02  0.68580523705E+02  0.14942723894E+03  0.12000000000E+03 0.  0.
         25    1    3    3    0    0  0.54528405089E+02 -0.15870240857E+02  0.16713434963E+03  0.21344578312E+03  0.12000000000E+03 0.  0.
<mgrwt>
<rscale>  0 0.27589007E+03</rscale>
<asrwt>0</asrwt>
<pdfrwt beam="1">  1        1 0.46045222E-01 0.27589007E+03</pdfrwt>
<pdfrwt beam="2">  1       -1 0.97813963E-02 0.27589007E+03</pdfrwt>
<totfact> 0.55086449E+03</totfact>
</mgrwt>
</event>
<event>
 5    1  0.1132878E+001  0.2748137E+03  0.7818608E-02  0.1098556E+00
         -2   -1    0    0    0  501 -0.00000000000E+00  0.00000000000E+00  0.17788589500E+02  0.17788589500E+02  0.00000000000E+00 0.  1.
          2   -1    0    0  501    0  0.00000000000E+00 -0.00000000000E+00 -0.10613903207E+04  0.10613903207E+04  0.00000000000E+00 0.  1.
         35    2    1    2    0    0  0.00000000000E+00  0.00000000000E+00 -0.10436017312E+04  0.10791789102E+04  0.27481365842E+03 0.  0.
         25    1    3    3    0    0 -0.34942618557E+02 -0.27387677795E+02 -0.71852352191E+03  0.72982677604E+03  0.12000000000E+03 0.  0.
         25    1    3    3    0    0  0.34942618557E+02  0.27387677795E+02 -0.32507820928E+03  0.34935213415E+03  0.12000000000E+03 0.  0.
<mgrwt>
<rscale>  0 0.27481366E+03</rscale>
<asrwt>0</asrwt>
<pdfrwt beam="1">  1        2 0.16329086E+00 0.27481366E+03</pdfrwt>
<pdfrwt beam="2">  1       -2 0.27367054E-02 0.27481366E+03</pdfrwt>
<totfact> 0.11677070E+04</totfact>
</mgrwt>
</event>
<event>
 5    1  0.1132878E+001  0.2748030E+03  0.7818608E-02  0.1098562E+00
          1   -1    0    0  501    0  0.00000000000E+00  0.00000000000E+00  0.60235564147E+03  0.60235564147E+03  0.00000000000E+00 0.  1.
         -1   -1    0    0    0  501 -0.00000000000E+00 -0.00000000000E+00 -0.31342236073E+02  0.31342236073E+02  0.00000000000E+00 0.  1.
         35    2    1    2    0    0  0.00000000000E+00  0.00000000000E+00  0.57101340540E+03  0.63369787754E+03  0.27480300373E+03 0.  0.
         25    1    3    3    0    0 -0.29434102769E+02  0.60046553655E+02  0.27931143205E+03  0.31126649528E+03  0.12000000000E+03 0.  0.
         25    1    3    3    0    0  0.29434102769E+02 -0.60046553655E+02  0.29170197335E+03  0.32243138226E+03  0.12000000000E+03 0.  0.
<mgrwt>
<rscale>  0 0.27480300E+03</rscale>
<asrwt>0</asrwt>
<pdfrwt beam="1">  1        1 0.92670090E-01 0.27480300E+03</pdfrwt>
<pdfrwt beam="2">  1       -1 0.48218829E-02 0.27480300E+03</pdfrwt>
<totfact> 0.64773910E+03</totfact>
</mgrwt>
</event>
<event>
 5    1  0.1132878E+001  0.2743630E+03  0.7818608E-02  0.1098808E+00
          1   -1    0    0  501    0  0.00000000000E+00  0.00000000000E+00  0.81042887884E+03  0.81042887884E+03  0.00000000000E+00 0. -1.
         -1   -1    0    0    0  501 -0.00000000000E+00 -0.00000000000E+00 -0.23220744198E+02  0.23220744198E+02  0.00000000000E+00 0. -1.
         35    2    1    2    0    0  0.00000000000E+00  0.00000000000E+00  0.78720813464E+03  0.83364962304E+03  0.27436298355E+03 0.  0.
         25    1    3    3    0    0 -0.20392490986E+02  0.31768968686E+02  0.22735551463E+03  0.25983773993E+03  0.12000000000E+03 0.  0.
         25    1    3    3    0    0  0.20392490986E+02 -0.31768968686E+02  0.55985262001E+03  0.57381188310E+03  0.12000000000E+03 0.  0.
<mgrwt>
<rscale>  0 0.27436298E+03</rscale>
<asrwt>0</asrwt>
<pdfrwt beam="1">  1        1 0.12468134E+00 0.27436298E+03</pdfrwt>
<pdfrwt beam="2">  1       -1 0.35724228E-02 0.27436298E+03</pdfrwt>
<totfact> 0.65602426E+03</totfact>
</mgrwt>
</event>
<event>
 5    1  0.1132878E+001  0.2749522E+03  0.7818608E-02  0.1098478E+00
         -2   -1    0    0    0  501 -0.00000000000E+00  0.00000000000E+00  0.22255263749E+02  0.22255263749E+02  0.00000000000E+00 0. -1.
          2   -1    0    0  501    0  0.00000000000E+00 -0.00000000000E+00 -0.84922290270E+03  0.84922290270E+03  0.00000000000E+00 0. -1.
         35    2    1    2    0    0  0.00000000000E+00  0.00000000000E+00 -0.82696763895E+03  0.87147816645E+03  0.27495221171E+03 0.  0.
         25    1    3    3    0    0 -0.12515389013E+02 -0.60826528061E+02 -0.49386695681E+03  0.51201667210E+03  0.12000000000E+03 0.  0.
         25    1    3    3    0    0  0.12515389013E+02  0.60826528061E+02 -0.33310068215E+03  0.35946149435E+03  0.12000000000E+03 0.  0.
<mgrwt>
<rscale>  0 0.27495221E+03</rscale>
<asrwt>0</asrwt>
<pdfrwt beam="1">  1        2 0.13064965E+00 0.27495221E+03</pdfrwt>
<pdfrwt beam="2">  1       -2 0.34238873E-02 0.27495221E+03</pdfrwt>
<totfact> 0.11368514E+04</totfact>
</mgrwt>
</event>
<event>
 5    1  0.1132878E+001  0.2757988E+03  0.7818608E-02  0.1098006E+00
          4   -1    0    0  501    0  0.00000000000E+00  0.00000000000E+00  0.29388141691E+03  0.29388141691E+03  0.00000000000E+00 0.  1.
         -4   -1    0    0    0  501 -0.00000000000E+00 -0.00000000000E+00 -0.64707223497E+02  0.64707223497E+02  0.00000000000E+00 0.  1.
         35    2    1    2    0    0  0.00000000000E+00  0.00000000000E+00  0.22917419342E+03  0.35858864041E+03  0.27579884355E+03 0.  0.
         25    1    3    3    0    0 -0.31396695464E+02  0.57328840643E+02  0.13869844419E+03  0.19470389538E+03  0.12000000000E+03 0.  0.
         25    1    3    3    0    0  0.31396695464E+02 -0.57328840643E+02  0.90475749223E+02  0.16388474503E+03  0.12000000000E+03 0.  0.
<mgrwt>
<rscale>  0 0.27579884E+03</rscale>
<asrwt>0</asrwt>
<pdfrwt beam="1">  1        4 0.45212525E-01 0.27579884E+03</pdfrwt>
<pdfrwt beam="2">  1       -4 0.99549576E-02 0.27579884E+03</pdfrwt>
<totfact> 0.68266232E+02</totfact>
</mgrwt>
</event>
<event>
 5    1  0.1132878E+001  0.2751781E+03  0.7818608E-02  0.1098352E+00
         -2   -1    0    0    0  501 -0.00000000000E+00  0.00000000000E+00  0.33323246847E+02  0.33323246847E+02  0.00000000000E+00 0. -1.
          2   -1    0    0  501    0  0.00000000000E+00 -0.00000000000E+00 -0.56809415172E+03  0.56809415172E+03  0.00000000000E+00 0. -1.
         35    2    1    2    0    0  0.00000000000E+00  0.00000000000E+00 -0.53477090488E+03  0.60141739857E+03  0.27517806344E+03 0.  0.
         25    1    3    3    0    0  0.26706348123E+02  0.28016713552E+02 -0.14702936756E+03  0.19368995894E+03  0.12000000000E+03 0.  0.
         25    1    3    3    0    0 -0.26706348123E+02 -0.28016713552E+02 -0.38774153732E+03  0.40772743963E+03  0.12000000000E+03 0.  0.
<mgrwt>
<rscale>  0 0.27517806E+03</rscale>
<asrwt>0</asrwt>
<pdfrwt beam="1">  1        2 0.87399094E-01 0.27517806E+03</pdfrwt>
<pdfrwt beam="2">  1       -2 0.51266537E-02 0.27517806E+03</pdfrwt>
<totfact> 0.10084265E+04</totfact>
</mgrwt>
</event>
<event>
 5    1  0.1132878E+001  0.2750682E+03  0.7818608E-02  0.1098414E+00
          1   -1    0    0  501    0  0.00000000000E+00  0.00000000000E+00  0.34144592362E+03  0.34144592362E+03  0.00000000000E+00 0.  1.
         -1   -1    0    0    0  501 -0.00000000000E+00 -0.00000000000E+00 -0.55398588610E+02  0.55398588610E+02  0.00000000000E+00 0.  1.
         35    2    1    2    0    0  0.00000000000E+00  0.00000000000E+00  0.28604733501E+03  0.39684451223E+03  0.27506815341E+03 0.  0.
         25    1    3    3    0    0  0.79479393242E+01  0.25417660715E+02  0.54014037363E+02  0.13426370860E+03  0.12000000000E+03 0.  0.
         25    1    3    3    0    0 -0.79479393242E+01 -0.25417660715E+02  0.23203329765E+03  0.26258080362E+03  0.12000000000E+03 0.  0.
<mgrwt>
<rscale>  0 0.27506815E+03</rscale>
<asrwt>0</asrwt>
<pdfrwt beam="1">  1        1 0.52530141E-01 0.27506815E+03</pdfrwt>
<pdfrwt beam="2">  1       -1 0.85228600E-02 0.27506815E+03</pdfrwt>
<totfact> 0.57651692E+03</totfact>
</mgrwt>
</event>
<event>
 5    1  0.1132878E+001  0.2750101E+03  0.7818608E-02  0.1098446E+00
          1   -1    0    0  501    0  0.00000000000E+00  0.00000000000E+00  0.33328376525E+02  0.33328376525E+02  0.00000000000E+00 0.  1.
         -1   -1    0    0    0  501 -0.00000000000E+00 -0.00000000000E+00 -0.56731333809E+03  0.56731333809E+03  0.00000000000E+00 0.  1.
         35    2    1    2    0    0  0.00000000000E+00  0.00000000000E+00 -0.53398496157E+03  0.60064171462E+03  0.27501005465E+03 0.  0.
         25    1    3    3    0    0  0.63072821467E+02  0.91660847942E+00 -0.21677727502E+03  0.25567832905E+03  0.12000000000E+03 0.  0.
         25    1    3    3    0    0 -0.63072821467E+02 -0.91660847942E+00 -0.31720768655E+03  0.34496338557E+03  0.12000000000E+03 0.  0.
<mgrwt>
<rscale>  0 0.27501005E+03</rscale>
<asrwt>0</asrwt>
<pdfrwt beam="1">  1        1 0.51274425E-02 0.27501005E+03</pdfrwt>
<pdfrwt beam="2">  1       -1 0.87278975E-01 0.27501005E+03</pdfrwt>
<totfact> 0.21780468E+03</totfact>
</mgrwt>
</event>
<event>
 5    1  0.1132878E+001  0.2756828E+03  0.7818608E-02  0.1098071E+00
          1   -1    0    0  501    0  0.00000000000E+00  0.00000000000E+00  0.12104657591E+04  0.12104657591E+04  0.00000000000E+00 0.  1.
         -1   -1    0    0    0  501 -0.00000000000E+00 -0.00000000000E+00 -0.15696647648E+02  0.15696647648E+02  0.00000000000E+00 0.  1.
         35    2    1    2    0    0  0.00000000000E+00  0.00000000000E+00  0.11947691115E+04  0.12261624068E+04  0.27568282145E+03 0.  0.
         25    1    3    3    0    0 -0.32944163281E+02 -0.14550230589E+02  0.85301202972E+03  0.86216387650E+03  0.12000000000E+03 0.  0.
         25    1    3    3    0    0  0.32944163281E+02  0.14550230589E+02  0.34175708174E+03  0.36399853025E+03  0.12000000000E+03 0.  0.
<mgrwt>
<rscale>  0 0.27568282E+03</rscale>
<asrwt>0</asrwt>
<pdfrwt beam="1">  1        1 0.18622543E+00 0.27568282E+03</pdfrwt>
<pdfrwt beam="2">  1       -1 0.24148698E-02 0.27568282E+03</pdfrwt>
<totfact> 0.58507099E+03</totfact>
</mgrwt>
</event>
<event>
 4    1  0.1132878E+001  0.2915033E+03  0.7818608E-02  0.1089567E+00
         -3   -1    0    0    0  501 -0.00000000000E+00  0.00000000000E+00  0.27177193854E+02  0.27177193854E+02  0.00000000000E+00 0. -1.
          3   -1    0    0  501    0  0.00000000000E+00 -0.00000000000E+00 -0.78166801132E+03  0.78166801132E+03  0.00000000000E+00 0. -1.
         25    1    1    2    0    0  0.66067914639E+02 -0.48702973232E+02 -0.40589303104E+03  0.43114510503E+03  0.12000000000E+03 0.  0.
         25    1    1    2    0    0 -0.66067914639E+02  0.48702973232E+02 -0.34859778643E+03  0.37770010014E+03  0.12000000000E+03 0.  0.
<mgrwt>
<rscale>  0 0.29150330E+03</rscale>
<asrwt>0</asrwt>
<pdfrwt beam="1">  1        3 0.12025663E+00 0.29150330E+03</pdfrwt>
<pdfrwt beam="2">  1       -3 0.41811063E-02 0.29150330E+03</pdfrwt>
<totfact> 0.45501245E+02</totfact>
</mgrwt>
</event>
<event>
 5    1  0.1132878E+001  0.2745194E+03  0.7818608E-02  0.1098721E+00
         -2   -1    0    0    0  501 -0.00000000000E+00  0.00000000000E+00  0.22049072822E+02  0.22049072822E+02  0.00000000000E+00 0.  1.
          2   -1    0    0  501    0  0.00000000000E+00 -0.00000000000E+00 -0.85446793012E+03  0.85446793012E+03  0.00000000000E+00 0.  1.
         35    2    1    2    0    0  0.00000000000E+00  0.00000000000E+00 -0.83241885730E+03  0.87651700294E+03  0.27451940270E+03 0.  0.
         25    1    3    3    0    0  0.29628498135E+02 -0.59302827011E+02 -0.39465963898E+03  0.41779289587E+03  0.12000000000E+03 0.  0.
         25    1    3    3    0    0 -0.29628498135E+02  0.59302827011E+02 -0.43775921832E+03  0.45872410708E+03  0.12000000000E+03 0.  0.
<mgrwt>
<rscale>  0 0.27451940E+03</rscale>
<asrwt>0</asrwt>
<pdfrwt beam="1">  1        2 0.13145660E+00 0.27451940E+03</pdfrwt>
<pdfrwt beam="2">  1       -2 0.33921651E-02 0.27451940E+03</pdfrwt>
<totfact> 0.11434845E+04</totfact>
</mgrwt>
</event>
<event>
 5    1  0.1132878E+001  0.2723279E+03  0.7818608E-02  0.1099955E+00
         -2   -1    0    0    0  501 -0.00000000000E+00  0.00000000000E+00  0.56517739978E+02  0.56517739978E+02  0.00000000000E+00 0.  1.
          2   -1    0    0  501    0  0.00000000000E+00 -0.00000000000E+00 -0.32804961049E+03  0.32804961049E+03  0.00000000000E+00 0.  1.
         35    2    1    2    0    0  0.00000000000E+00  0.00000000000E+00 -0.27153187051E+03  0.38456735047E+03  0.27232790959E+03 0.  0.
         25    1    3    3    0    0  0.60991046375E+02  0.20317953684E+02 -0.13973394742E+03  0.19508537372E+03  0.12000000000E+03 0.  0.
         25    1    3    3    0    0 -0.60991046375E+02 -0.20317953684E+02 -0.13179792310E+03  0.18948197675E+03  0.12000000000E+03 0.  0.
<mgrwt>
<rscale>  0 0.27232791E+03</rscale>
<asrwt>0</asrwt>
<pdfrwt beam="1">  1        2 0.50469170E-01 0.27232791E+03</pdfrwt>
<pdfrwt beam="2">  1       -2 0.86950371E-02 0.27232791E+03</pdfrwt>
<totfact> 0.81585266E+03</totfact>
</mgrwt>
</event>
<event>
 5    1  0.1132878E+001  0.2748884E+03  0.7818608E-02  0.1098514E+00
          2   -1    0    0  501    0  0.00000000000E+00  0.00000000000E+00  0.33192436138E+03  0.33192436138E+03  0.00000000000E+00 0. -1.
         -2   -1    0    0    0  501 -0.00000000000E+00 -0.00000000000E+00 -0.56913287427E+02  0.56913287427E+02  0.00000000000E+00 0. -1.
         35    2    1    2    0    0  0.00000000000E+00  0.00000000000E+00  0.27501107395E+03  0.38883764880E+03  0.27488838886E+03 0.  0.
         25    1    3    3    0    0 -0.52879953578E+02  0.13837090007E+02  0.82663526575E+02  0.15563101611E+03  0.12000000000E+03 0.  0.
         25    1    3    3    0    0  0.52879953578E+02 -0.13837090007E+02  0.19234754738E+03  0.23320663269E+03  0.12000000000E+03 0.  0.
<mgrwt>
<rscale>  0 0.27488839E+03</rscale>
<asrwt>0</asrwt>
<pdfrwt beam="1">  1        2 0.51065285E-01 0.27488839E+03</pdfrwt>
<pdfrwt beam="2">  1       -2 0.87558906E-02 0.27488839E+03</pdfrwt>
<totfact> 0.79710780E+03</totfact>
</mgrwt>
</event>
<event>
 5    1  0.1132878E+001  0.2738309E+03  0.7818608E-02  0.1099107E+00
          2   -1    0    0  501    0  0.00000000000E+00  0.00000000000E+00  0.20052936100E+04  0.20052936100E+04  0.00000000000E+00 0.  1.
         -2   -1    0    0    0  501 -0.00000000000E+00 -0.00000000000E+00 -0.93481802807E+01  0.93481802807E+01  0.00000000000E+00 0.  1.
         35    2    1    2    0    0  0.00000000000E+00  0.00000000000E+00  0.19959454297E+04  0.20146417902E+04  0.27383094187E+03 0.  0.
         25    1    3    3    0    0  0.59710255895E+01  0.35991497387E+02  0.59400659537E+03  0.60710367844E+03  0.12000000000E+03 0.  0.
         25    1    3    3    0    0 -0.59710255895E+01 -0.35991497387E+02  0.14019388343E+04  0.14075381118E+04  0.12000000000E+03 0.  0.
<mgrwt>
<rscale>  0 0.27383094E+03</rscale>
<asrwt>0</asrwt>
<pdfrwt beam="1">  1        2 0.30850637E+00 0.27383094E+03</pdfrwt>
<pdfrwt beam="2">  1       -2 0.14381832E-02 0.27383094E+03</pdfrwt>
<totfact> 0.92621217E+03</totfact>
</mgrwt>
</event>
<event>
 5    1  0.1132878E+001  0.2745582E+03  0.7818608E-02  0.1098699E+00
         -2   -1    0    0    0  501 -0.00000000000E+00  0.00000000000E+00  0.87488448790E+01  0.87488448790E+01  0.00000000000E+00 0. -1.
          2   -1    0    0  501    0  0.00000000000E+00 -0.00000000000E+00 -0.21540615769E+04  0.21540615769E+04  0.00000000000E+00 0. -1.
         35    2    1    2    0    0  0.00000000000E+00  0.00000000000E+00 -0.21453127321E+04  0.21628104218E+04  0.27455819490E+03 0.  0.
         25    1    3    3    0    0 -0.37840069386E+02  0.15146847659E+02 -0.65699623375E+03  0.66910787547E+03  0.12000000000E+03 0.  0.
         25    1    3    3    0    0  0.37840069386E+02 -0.15146847659E+02 -0.14883164983E+04  0.14937025464E+04  0.12000000000E+03 0.  0.
<mgrwt>
<rscale>  0 0.27455819E+03</rscale>
<asrwt>0</asrwt>
<pdfrwt beam="1">  1        2 0.33139377E+00 0.27455819E+03</pdfrwt>
<pdfrwt beam="2">  1       -2 0.13459774E-02 0.27455819E+03</pdfrwt>
<totfact> 0.85154206E+03</totfact>
</mgrwt>
</event>
<event>
 5    1  0.1132878E+001  0.2736966E+03  0.7818608E-02  0.1099182E+00
          2   -1    0    0  501    0  0.00000000000E+00  0.00000000000E+00  0.42681696083E+03  0.42681696083E+03  0.00000000000E+00 0.  1.
         -2   -1    0    0    0  501 -0.00000000000E+00 -0.00000000000E+00 -0.43877030650E+02  0.43877030650E+02  0.00000000000E+00 0.  1.
         35    2    1    2    0    0  0.00000000000E+00  0.00000000000E+00  0.38293993018E+03  0.47069399148E+03  0.27369662674E+03 0.  0.
         25    1    3    3    0    0 -0.41196400984E+02  0.47431111149E+02  0.15791879582E+03  0.20805095489E+03  0.12000000000E+03 0.  0.
         25    1    3    3    0    0  0.41196400984E+02 -0.47431111149E+02  0.22502113437E+03  0.26264303659E+03  0.12000000000E+03 0.  0.
<mgrwt>
<rscale>  0 0.27369663E+03</rscale>
<asrwt>0</asrwt>
<pdfrwt beam="1">  1        2 0.65664145E-01 0.27369663E+03</pdfrwt>
<pdfrwt beam="2">  1       -2 0.67503127E-02 0.27369663E+03</pdfrwt>
<totfact> 0.91023185E+03</totfact>
</mgrwt>
</event>
<event>
 5    1  0.1132878E+001  0.2755677E+03  0.7818608E-02  0.1098135E+00
          1   -1    0    0  501    0  0.00000000000E+00  0.00000000000E+00  0.61909596417E+03  0.61909596417E+03  0.00000000000E+00 0.  1.
         -1   -1    0    0    0  501 -0.00000000000E+00 -0.00000000000E+00 -0.30664694468E+02  0.30664694468E+02  0.00000000000E+00 0.  1.
         35    2    1    2    0    0  0.00000000000E+00  0.00000000000E+00  0.58843126971E+03  0.64976065864E+03  0.27556769468E+03 0.  0.
         25    1    3    3    0    0  0.66332901740E+02 -0.12537187844E+02  0.28192882152E+03  0.31375323956E+03  0.12000000000E+03 0.  0.
         25    1    3    3    0    0 -0.66332901740E+02  0.12537187844E+02  0.30650244819E+03  0.33600741908E+03  0.12000000000E+03 0.  0.
<mgrwt>
<rscale>  0 0.27556769E+03</rscale>
<asrwt>0</asrwt>
<pdfrwt beam="1">  1        1 0.95245524E-01 0.27556769E+03</pdfrwt>
<pdfrwt beam="2">  1       -1 0.47176458E-02 0.27556769E+03</pdfrwt>
<totfact> 0.64418965E+03</totfact>
</mgrwt>
</event>
<event>
 5    1  0.1132878E+001  0.2738315E+03  0.7818608E-02  0.1099107E+00
          2   -1    0    0  501    0  0.00000000000E+00  0.00000000000E+00  0.83933396967E+02  0.83933396967E+02  0.00000000000E+00 0.  1.
         -2   -1    0    0    0  501 -0.00000000000E+00 -0.00000000000E+00 -0.22334280188E+03  0.22334280188E+03  0.00000000000E+00 0.  1.
         35    2    1    2    0    0  0.00000000000E+00  0.00000000000E+00 -0.13940940491E+03  0.30727619885E+03  0.27383148139E+03 0.  0.
         25    1    3    3    0    0 -0.40655834251E+02  0.51872180207E+02 -0.71406547484E+02  0.15441021651E+03  0.12000000000E+03 0.  0.
         25    1    3    3    0    0  0.40655834251E+02 -0.51872180207E+02 -0.68002857429E+02  0.15286598234E+03  0.12000000000E+03 0.  0.
<mgrwt>
<rscale>  0 0.27383148E+03</rscale>
<asrwt>0</asrwt>
<pdfrwt beam="1">  1        2 0.12912830E-01 0.27383148E+03</pdfrwt>
<pdfrwt beam="2">  1       -2 0.34360431E-01 0.27383148E+03</pdfrwt>
<totfact> 0.36947073E+03</totfact>
</mgrwt>
</event>
<event>
 5    1  0.1132878E+001  0.2750108E+03  0.7818608E-02  0.1098446E+00
         -1   -1    0    0    0  501 -0.00000000000E+00  0.00000000000E+00  0.21932291503E+02  0.21932291503E+02  0.00000000000E+00 0. -1.
          1   -1    0    0  501    0  0.00000000000E+00 -0.00000000000E+00 -0.86209601231E+03  0.86209601231E+03  0.00000000000E+00 0. -1.
         35    2    1    2    0    0  0.00000000000E+00  0.00000000000E+00 -0.84016372080E+03  0.88402830381E+03  0.27501084375E+03 0.  0.
         25    1    3    3    0    0  0.18144093074E+02  0.63483058776E+02 -0.45924552392E+03  0.47923455438E+03  0.12000000000E+03 0.  0.
         25    1    3    3    0    0 -0.18144093074E+02 -0.63483058776E+02 -0.38091819688E+03  0.40479374943E+03  0.12000000000E+03 0.  0.
<mgrwt>
<rscale>  0 0.27501084E+03</rscale>
<asrwt>0</asrwt>
<pdfrwt beam="1">  1        1 0.13263018E+00 0.27501084E+03</pdfrwt>
<pdfrwt beam="2">  1       -1 0.33741981E-02 0.27501084E+03</pdfrwt>
<totfact> 0.64789733E+03</totfact>
</mgrwt>
</event>
<event>
 5    1  0.1132878E+001  0.2804173E+03  0.7818608E-02  0.1095461E+00
          2   -1    0    0  501    0  0.00000000000E+00  0.00000000000E+00  0.55957048651E+03  0.55957048651E+03  0.00000000000E+00 0.  1.
         -2   -1    0    0    0  501 -0.00000000000E+00 -0.00000000000E+00 -0.35131337024E+02  0.35131337024E+02  0.00000000000E+00 0.  1.
         35    2    1    2    0    0  0.00000000000E+00  0.00000000000E+00  0.52443914948E+03  0.59470182353E+03  0.28041725589E+03 0.  0.
         25    1    3    3    0    0 -0.17988598495E+02  0.35281280236E+02  0.13339056809E+03  0.18374276058E+03  0.12000000000E+03 0.  0.
         25    1    3    3    0    0  0.17988598495E+02 -0.35281280236E+02  0.39104858139E+03  0.41095906295E+03  0.12000000000E+03 0.  0.
<mgrwt>
<rscale>  0 0.28041726E+03</rscale>
<asrwt>0</asrwt>
<pdfrwt beam="1">  1        2 0.86087760E-01 0.28041726E+03</pdfrwt>
<pdfrwt beam="2">  1       -2 0.54048215E-02 0.28041726E+03</pdfrwt>
<totfact> 0.94732627E+03</totfact>
</mgrwt>
</event>
<event>
 5    1  0.1132878E+001  0.2751859E+03  0.7818608E-02  0.1098348E+00
          2   -1    0    0  501    0  0.00000000000E+00  0.00000000000E+00  0.31166117185E+03  0.31166117185E+03  0.00000000000E+00 0.  1.
         -2   -1    0    0    0  501 -0.00000000000E+00 -0.00000000000E+00 -0.60744893717E+02  0.60744893717E+02  0.00000000000E+00 0.  1.
         35    2    1    2    0    0  0.00000000000E+00  0.00000000000E+00  0.25091627813E+03  0.37240606557E+03  0.27518593539E+03 0.  0.
         25    1    3    3    0    0  0.29050522042E+01  0.67069285077E+02  0.11867865739E+03  0.18163521699E+03  0.12000000000E+03 0.  0.
         25    1    3    3    0    0 -0.29050522042E+01 -0.67069285077E+02  0.13223762074E+03  0.19077084858E+03  0.12000000000E+03 0.  0.
<mgrwt>
<rscale>  0 0.27518594E+03</rscale>
<asrwt>0</asrwt>
<pdfrwt beam="1">  1        2 0.47947872E-01 0.27518594E+03</pdfrwt>
<pdfrwt beam="2">  1       -2 0.93453685E-02 0.27518594E+03</pdfrwt>
<totfact> 0.76977841E+03</totfact>
</mgrwt>
</event>
<event>
 5    1  0.1132878E+001  0.2743115E+03  0.7818608E-02  0.1098837E+00
          2   -1    0    0  501    0  0.00000000000E+00  0.00000000000E+00  0.13504609616E+04  0.13504609616E+04  0.00000000000E+00 0. -1.
         -2   -1    0    0    0  501 -0.00000000000E+00 -0.00000000000E+00 -0.13929834491E+02  0.13929834491E+02  0.00000000000E+00 0. -1.
         35    2    1    2    0    0  0.00000000000E+00  0.00000000000E+00  0.13365311271E+04  0.13643907961E+04  0.27431148486E+03 0.  0.
         25    1    3    3    0    0  0.60974185384E+02  0.69117374991E+01  0.54183967422E+03  0.55835101500E+03  0.12000000000E+03 0.  0.
         25    1    3    3    0    0 -0.60974185384E+02 -0.69117374991E+01  0.79469145286E+03  0.80603978106E+03  0.12000000000E+03 0.  0.
<mgrwt>
<rscale>  0 0.27431148E+03</rscale>
<asrwt>0</asrwt>
<pdfrwt beam="1">  1        2 0.20776312E+00 0.27431148E+03</pdfrwt>
<pdfrwt beam="2">  1       -2 0.21430525E-02 0.27431148E+03</pdfrwt>
<totfact> 0.11478730E+04</totfact>
</mgrwt>
</event>
<event>
 5    1  0.1132878E+001  0.2721368E+03  0.7818608E-02  0.1100063E+00
         -1   -1    0    0    0  501 -0.00000000000E+00  0.00000000000E+00  0.63256794026E+01  0.63256794026E+01  0.00000000000E+00 0.  1.
          1   -1    0    0  501    0  0.00000000000E+00 -0.00000000000E+00 -0.29268973535E+04  0.29268973535E+04  0.00000000000E+00 0.  1.
         35    2    1    2    0    0  0.00000000000E+00  0.00000000000E+00 -0.29205716740E+04  0.29332230329E+04  0.27213683545E+03 0.  0.
         25    1    3    3    0    0  0.99926804286E+00 -0.54949719586E+02 -0.11037567111E+04  0.11116201454E+04  0.12000000000E+03 0.  0.
         25    1    3    3    0    0 -0.99926804286E+00  0.54949719586E+02 -0.18168149629E+04  0.18216028875E+04  0.12000000000E+03 0.  0.
<mgrwt>
<rscale>  0 0.27213684E+03</rscale>
<asrwt>0</asrwt>
<pdfrwt beam="1">  1        1 0.45029253E+00 0.27213684E+03</pdfrwt>
<pdfrwt beam="2">  1       -1 0.97318008E-03 0.27213684E+03</pdfrwt>
<totfact> 0.15928144E+03</totfact>
</mgrwt>
</event>
<event>
 5    1  0.1132878E+001  0.2780895E+03  0.7818608E-02  0.1096737E+00
         -1   -1    0    0    0  501 -0.00000000000E+00  0.00000000000E+00  0.10498145207E+02  0.10498145207E+02  0.00000000000E+00 0.  1.
          1   -1    0    0  501    0  0.00000000000E+00 -0.00000000000E+00 -0.18416054554E+04  0.18416054554E+04  0.00000000000E+00 0.  1.
         35    2    1    2    0    0  0.00000000000E+00  0.00000000000E+00 -0.18311073102E+04  0.18521036007E+04  0.27808949269E+03 0.  0.
         25    1    3    3    0    0 -0.32478492093E+02 -0.24460097226E+02 -0.53410420455E+03  0.54892663456E+03  0.12000000000E+03 0.  0.
         25    1    3    3    0    0  0.32478492093E+02  0.24460097226E+02 -0.12970031057E+04  0.13031769661E+04  0.12000000000E+03 0.  0.
<mgrwt>
<rscale>  0 0.27808949E+03</rscale>
<asrwt>0</asrwt>
<pdfrwt beam="1">  1        1 0.28332367E+00 0.27808949E+03</pdfrwt>
<pdfrwt beam="2">  1       -1 0.16151007E-02 0.27808949E+03</pdfrwt>
<totfact> 0.40066292E+03</totfact>
</mgrwt>
</event>
<event>
 5    1  0.1132878E+001  0.2739289E+03  0.7818608E-02  0.1099052E+00
         -1   -1    0    0    0  501 -0.00000000000E+00  0.00000000000E+00  0.12053467315E+03  0.12053467315E+03  0.00000000000E+00 0.  1.
          1   -1    0    0  501    0  0.00000000000E+00 -0.00000000000E+00 -0.15563376845E+03  0.15563376845E+03  0.00000000000E+00 0.  1.
         35    2    1    2    0    0  0.00000000000E+00  0.00000000000E+00 -0.35099095303E+02  0.27616844160E+03  0.27392893539E+03 0.  0.
         25    1    3    3    0    0  0.65577526077E+01 -0.32486699268E+02 -0.75120479533E+02  0.14540108732E+03  0.12000000000E+03 0.  0.
         25    1    3    3    0    0 -0.65577526077E+01  0.32486699268E+02  0.40021384229E+02  0.13076735428E+03  0.12000000000E+03 0.  0.
<mgrwt>
<rscale>  0 0.27392894E+03</rscale>
<asrwt>0</asrwt>
<pdfrwt beam="1">  1        1 0.23943657E-01 0.27392894E+03</pdfrwt>
<pdfrwt beam="2">  1       -1 0.18543796E-01 0.27392894E+03</pdfrwt>
<totfact> 0.45839343E+03</totfact>
</mgrwt>
</event>
<event>
 5    1  0.1132878E+001  0.2753939E+03  0.7818608E-02  0.1098232E+00
         -2   -1    0    0    0  501 -0.00000000000E+00  0.00000000000E+00  0.15559143212E+03  0.15559143212E+03  0.00000000000E+00 0. -1.
          2   -1    0    0  501    0  0.00000000000E+00 -0.00000000000E+00 -0.12186051078E+03  0.12186051078E+03  0.00000000000E+00 0. -1.
         35    2    1    2    0    0  0.00000000000E+00  0.00000000000E+00  0.33730921341E+02  0.27745194289E+03  0.27539390981E+03 0.  0.
         25    1    3    3    0    0  0.26749672520E+02  0.61722291699E+02  0.22848283024E+02  0.13945332664E+03  0.12000000000E+03 0.  0.
         25    1    3    3    0    0 -0.26749672520E+02 -0.61722291699E+02  0.10882638317E+02  0.13799861626E+03  0.12000000000E+03 0.  0.
<mgrwt>
<rscale>  0 0.27539391E+03</rscale>
<asrwt>0</asrwt>
<pdfrwt beam="1">  1        2 0.18747771E-01 0.27539391E+03</pdfrwt>
<pdfrwt beam="2">  1       -2 0.23937144E-01 0.27539391E+03</pdfrwt>
<totfact> 0.45675872E+03</totfact>
</mgrwt>
</event>
<event>
 5    1  0.1132878E+001  0.2767433E+03  0.7818608E-02  0.1097481E+00
          1   -1    0    0  501    0  0.00000000000E+00  0.00000000000E+00  0.63942756789E+03  0.63942756789E+03  0.00000000000E+00 0.  1.
         -1   -1    0    0    0  501 -0.00000000000E+00 -0.00000000000E+00 -0.29943516571E+02  0.29943516571E+02  0.00000000000E+00 0.  1.
         35    2    1    2    0    0  0.00000000000E+00  0.00000000000E+00  0.60948405132E+03  0.66937108446E+03  0.27674327435E+03 0.  0.
         25    1    3    3    0    0  0.64629014063E+02 -0.27384061638E+01  0.24738659425E+03  0.28246156436E+03  0.12000000000E+03 0.  0.
         25    1    3    3    0    0 -0.64629014063E+02  0.27384061638E+01  0.36209745707E+03  0.38690952010E+03  0.12000000000E+03 0.  0.
<mgrwt>
<rscale>  0 0.27674327E+03</rscale>
<asrwt>0</asrwt>
<pdfrwt beam="1">  1        1 0.98373462E-01 0.27674327E+03</pdfrwt>
<pdfrwt beam="2">  1       -1 0.46066953E-02 0.27674327E+03</pdfrwt>
<totfact> 0.63789462E+03</totfact>
</mgrwt>
</event>
<event>
 5    1  0.1132878E+001  0.2756882E+03  0.7818608E-02  0.1098068E+00
         -1   -1    0    0    0  501 -0.00000000000E+00  0.00000000000E+00  0.84804900362E+03  0.84804900362E+03  0.00000000000E+00 0. -1.
          1   -1    0    0  501    0  0.00000000000E+00 -0.00000000000E+00 -0.22405539077E+02  0.22405539077E+02  0.00000000000E+00 0. -1.
         35    2    1    2    0    0  0.00000000000E+00  0.00000000000E+00  0.82564346454E+03  0.87045454270E+03  0.27568819408E+03 0.  0.
         25    1    3    3    0    0  0.40389835568E+02  0.42280349821E+02  0.52137474052E+03  0.53819196096E+03  0.12000000000E+03 0.  0.
         25    1    3    3    0    0 -0.40389835568E+02 -0.42280349821E+02  0.30426872403E+03  0.33226258173E+03  0.12000000000E+03 0.  0.
<mgrwt>
<rscale>  0 0.27568819E+03</rscale>
<asrwt>0</asrwt>
<pdfrwt beam="1">  1        1 0.34470067E-02 0.27568819E+03</pdfrwt>
<pdfrwt beam="2">  1       -1 0.13046905E+00 0.27568819E+03</pdfrwt>
<totfact> 0.15115377E+03</totfact>
</mgrwt>
</event>
<event>
 5    1  0.1132878E+001  0.2818429E+03  0.7818608E-02  0.1094687E+00
          4   -1    0    0  501    0  0.00000000000E+00  0.00000000000E+00  0.73838693977E+02  0.73838693977E+02  0.00000000000E+00 0.  1.
         -4   -1    0    0    0  501 -0.00000000000E+00 -0.00000000000E+00 -0.26894912001E+03  0.26894912001E+03  0.00000000000E+00 0.  1.
         35    2    1    2    0    0  0.00000000000E+00  0.00000000000E+00 -0.19511042604E+03  0.34278781399E+03  0.28184287657E+03 0.  0.
         25    1    3    3    0    0  0.20870103977E+02  0.49904378280E+02 -0.36345196775E+02  0.13655395102E+03  0.12000000000E+03 0.  0.
         25    1    3    3    0    0 -0.20870103977E+02 -0.49904378280E+02 -0.15876522926E+03  0.20623386297E+03  0.12000000000E+03 0.  0.
<mgrwt>
<rscale>  0 0.28184288E+03</rscale>
<asrwt>0</asrwt>
<pdfrwt beam="1">  1        4 0.11359799E-01 0.28184288E+03</pdfrwt>
<pdfrwt beam="2">  1       -4 0.41376787E-01 0.28184288E+03</pdfrwt>
<totfact> 0.65306777E+02</totfact>
</mgrwt>
</event>
<event>
 5    1  0.1132878E+001  0.2760816E+03  0.7818608E-02  0.1097849E+00
          2   -1    0    0  501    0  0.00000000000E+00  0.00000000000E+00  0.81040561638E+02  0.81040561638E+02  0.00000000000E+00 0.  1.
         -2   -1    0    0    0  501 -0.00000000000E+00 -0.00000000000E+00 -0.23513234679E+03  0.23513234679E+03  0.00000000000E+00 0.  1.
         35    2    1    2    0    0  0.00000000000E+00  0.00000000000E+00 -0.15409178515E+03  0.31617290843E+03  0.27608156362E+03 0.  0.
         25    1    3    3    0    0 -0.62478388827E+01  0.35173501500E+02 -0.14361678027E+03  0.19053081188E+03  0.12000000000E+03 0.  0.
         25    1    3    3    0    0  0.62478388827E+01 -0.35173501500E+02 -0.10475004879E+02  0.12564209655E+03  0.12000000000E+03 0.  0.
<mgrwt>
<rscale>  0 0.27608156E+03</rscale>
<asrwt>0</asrwt>
<pdfrwt beam="1">  1        2 0.12467779E-01 0.27608156E+03</pdfrwt>
<pdfrwt beam="2">  1       -2 0.36174207E-01 0.27608156E+03</pdfrwt>
<totfact> 0.35027881E+03</totfact>
</mgrwt>
</event>
<event>
 5    1  0.1132878E+001  0.2741951E+03  0.7818608E-02  0.1098902E+00
          1   -1    0    0  501    0  0.00000000000E+00  0.00000000000E+00  0.21944480322E+04  0.21944480322E+04  0.00000000000E+00 0. -1.
         -1   -1    0    0    0  501 -0.00000000000E+00 -0.00000000000E+00 -0.85651332836E+01  0.85651332836E+01  0.00000000000E+00 0. -1.
         35    2    1    2    0    0  0.00000000000E+00  0.00000000000E+00  0.21858828990E+04  0.22030131655E+04  0.27419511214E+03 0.  0.
         25    1    3    3    0    0  0.42322569370E+02 -0.25520645317E+02  0.14480284863E+04  0.14538325215E+04  0.12000000000E+03 0.  0.
         25    1    3    3    0    0 -0.42322569370E+02  0.25520645317E+02  0.73785441262E+03  0.74918064407E+03  0.12000000000E+03 0.  0.
<mgrwt>
<rscale>  0 0.27419511E+03</rscale>
<asrwt>0</asrwt>
<pdfrwt beam="1">  1        1 0.33760694E+00 0.27419511E+03</pdfrwt>
<pdfrwt beam="2">  1       -1 0.13177146E-02 0.27419511E+03</pdfrwt>
<totfact> 0.31769042E+03</totfact>
</mgrwt>
</event>
<event>
 5    1  0.1132878E+001  0.2750593E+03  0.7818608E-02  0.1098418E+00
         -2   -1    0    0    0  501 -0.00000000000E+00  0.00000000000E+00  0.93592942420E+01  0.93592942420E+01  0.00000000000E+00 0. -1.
          2   -1    0    0  501    0  0.00000000000E+00 -0.00000000000E+00 -0.20209214609E+04  0.20209214609E+04  0.00000000000E+00 0. -1.
         35    2    1    2    0    0  0.00000000000E+00  0.00000000000E+00 -0.20115621667E+04  0.20302807552E+04  0.27505925611E+03 0.  0.
         25    1    3    3    0    0  0.48343171989E+02 -0.19238535301E+02 -0.69199422275E+03  0.70424653910E+03  0.12000000000E+03 0.  0.
         25    1    3    3    0    0 -0.48343171989E+02  0.19238535301E+02 -0.13195679440E+04  0.13260342161E+04  0.12000000000E+03 0.  0.
<mgrwt>
<rscale>  0 0.27505926E+03</rscale>
<asrwt>0</asrwt>
<pdfrwt beam="1">  1        2 0.31091100E+00 0.27505926E+03</pdfrwt>
<pdfrwt beam="2">  1       -2 0.14398914E-02 0.27505926E+03</pdfrwt>
<totfact> 0.90729366E+03</totfact>
</mgrwt>
</event>
<event>
 5    1  0.1132878E+001  0.2748103E+03  0.7818608E-02  0.1098558E+00
          2   -1    0    0  501    0  0.00000000000E+00  0.00000000000E+00  0.39236976771E+03  0.39236976771E+03  0.00000000000E+00 0.  1.
         -2   -1    0    0    0  501 -0.00000000000E+00 -0.00000000000E+00 -0.48118313527E+02  0.48118313527E+02  0.00000000000E+00 0.  1.
         35    2    1    2    0    0  0.00000000000E+00  0.00000000000E+00  0.34425145419E+03  0.44048808124E+03  0.27481027274E+03 0.  0.
         25    1    3    3    0    0 -0.66561188695E+02  0.69398618913E+01  0.17008686669E+03  0.21865062484E+03  0.12000000000E+03 0.  0.
         25    1    3    3    0    0  0.66561188695E+02 -0.69398618913E+01  0.17416458750E+03  0.22183745640E+03  0.12000000000E+03 0.  0.
<mgrwt>
<rscale>  0 0.27481027E+03</rscale>
<asrwt>0</asrwt>
<pdfrwt beam="1">  1        2 0.60364577E-01 0.27481027E+03</pdfrwt>
<pdfrwt beam="2">  1       -2 0.74028177E-02 0.27481027E+03</pdfrwt>
<totfact> 0.86484392E+03</totfact>
</mgrwt>
</event>
<event>
 5    1  0.1132878E+001  0.2734675E+03  0.7818608E-02  0.1099311E+00
         -1   -1    0    0    0  501 -0.00000000000E+00  0.00000000000E+00  0.39753659036E+02  0.39753659036E+02  0.00000000000E+00 0.  1.
          1   -1    0    0  501    0  0.00000000000E+00 -0.00000000000E+00 -0.47029930032E+03  0.47029930032E+03  0.00000000000E+00 0.  1.
         35    2    1    2    0    0  0.00000000000E+00  0.00000000000E+00 -0.43054564129E+03  0.51005295936E+03  0.27346749737E+03 0.  0.
         25    1    3    3    0    0  0.60128541250E+02 -0.26032159419E+02 -0.21204057719E+03  0.25229808000E+03  0.12000000000E+03 0.  0.
         25    1    3    3    0    0 -0.60128541250E+02  0.26032159419E+02 -0.21850506409E+03  0.25775487935E+03  0.12000000000E+03 0.  0.
<mgrwt>
<rscale>  0 0.27346750E+03</rscale>
<asrwt>0</asrwt>
<pdfrwt beam="1">  1        1 0.72353733E-01 0.27346750E+03</pdfrwt>
<pdfrwt beam="2">  1       -1 0.61159480E-02 0.27346750E+03</pdfrwt>
<totfact> 0.63258917E+03</totfact>
</mgrwt>
</event>
<event>
 5    1  0.1132878E+001  0.2740045E+03  0.7818608E-02  0.1099009E+00
          3   -1    0    0  501    0  0.00000000000E+00  0.00000000000E+00  0.32012610614E+03  0.32012610614E+03  0.00000000000E+00 0.  1.
         -3   -1    0    0    0  501 -0.00000000000E+00 -0.00000000000E+00 -0.58631956323E+02  0.58631956323E+02  0.00000000000E+00 0.  1.
         35    2    1    2    0    0  0.00000000000E+00  0.00000000000E+00  0.26149414982E+03  0.37875806246E+03  0.27400452458E+03 0.  0.
         25    1    3    3    0    0  0.40718211777E+02 -0.52056332952E+02  0.12890010415E+03  0.18810388465E+03  0.12000000000E+03 0.  0.
         25    1    3    3    0    0 -0.40718211777E+02  0.52056332952E+02  0.13259404567E+03  0.19065417781E+03  0.12000000000E+03 0.  0.
<mgrwt>
<rscale>  0 0.27400452E+03</rscale>
<asrwt>0</asrwt>
<pdfrwt beam="1">  1        3 0.49250169E-01 0.27400452E+03</pdfrwt>
<pdfrwt beam="2">  1       -3 0.90203012E-02 0.27400452E+03</pdfrwt>
<totfact> 0.91676868E+02</totfact>
</mgrwt>
</event>
<event>
 5    1  0.1132878E+001  0.2747089E+03  0.7818608E-02  0.1098614E+00
         -2   -1    0    0    0  501 -0.00000000000E+00  0.00000000000E+00  0.79298148367E+01  0.79298148367E+01  0.00000000000E+00 0. -1.
          2   -1    0    0  501    0  0.00000000000E+00 -0.00000000000E+00 -0.23791537768E+04  0.23791537768E+04  0.00000000000E+00 0. -1.
         35    2    1    2    0    0  0.00000000000E+00  0.00000000000E+00 -0.23712239620E+04  0.23870835916E+04  0.27470892900E+03 0.  0.
         25    1    3    3    0    0 -0.32061104471E+02  0.34721037607E+02 -0.15962112879E+04  0.16014131074E+04  0.12000000000E+03 0.  0.
         25    1    3    3    0    0  0.32061104471E+02 -0.34721037607E+02 -0.77501267410E+03  0.78567048429E+03  0.12000000000E+03 0.  0.
<mgrwt>
<rscale>  0 0.27470893E+03</rscale>
<asrwt>0</asrwt>
<pdfrwt beam="1">  1        2 0.36602346E+00 0.27470893E+03</pdfrwt>
<pdfrwt beam="2">  1       -2 0.12199722E-02 0.27470893E+03</pdfrwt>
<totfact> 0.74481593E+03</totfact>
</mgrwt>
</event>
<event>
 5    1  0.1132878E+001  0.2741899E+03  0.7818608E-02  0.1098905E+00
          2   -1    0    0  501    0  0.00000000000E+00  0.00000000000E+00  0.40377771616E+03  0.40377771616E+03  0.00000000000E+00 0.  1.
         -2   -1    0    0    0  501 -0.00000000000E+00 -0.00000000000E+00 -0.46547944144E+02  0.46547944144E+02  0.00000000000E+00 0.  1.
         35    2    1    2    0    0  0.00000000000E+00  0.00000000000E+00  0.35722977202E+03  0.45032566031E+03  0.27418988004E+03 0.  0.
         25    1    3    3    0    0  0.72082883245E+01  0.63341198938E+02  0.20849348224E+03  0.24886461990E+03  0.12000000000E+03 0.  0.
         25    1    3    3    0    0 -0.72082883245E+01 -0.63341198938E+02  0.14873628978E+03  0.20146104041E+03  0.12000000000E+03 0.  0.
<mgrwt>
<rscale>  0 0.27418988E+03</rscale>
<asrwt>0</asrwt>
<pdfrwt beam="1">  1        2 0.62119646E-01 0.27418988E+03</pdfrwt>
<pdfrwt beam="2">  1       -2 0.71612224E-02 0.27418988E+03</pdfrwt>
<totfact> 0.88256506E+03</totfact>
</mgrwt>
</event>
<event>
 5    1  0.1132878E+001  0.2754744E+03  0.7818608E-02  0.1098187E+00
         -1   -1    0    0    0  501 -0.00000000000E+00  0.00000000000E+00  0.14818818138E+03  0.14818818138E+03  0.00000000000E+00 0. -1.
          1   -1    0    0  501    0  0.00000000000E+00 -0.00000000000E+00 -0.12802327459E+03  0.12802327459E+03  0.00000000000E+00 0. -1.
         35    2    1    2    0    0  0.00000000000E+00  0.00000000000E+00  0.20164906785E+02  0.27621145597E+03  0.27547439980E+03 0.  0.
         25    1    3    3    0    0  0.23057741489E+02  0.63279196081E+02  0.40982239654E+01  0.13766884738E+03  0.12000000000E+03 0.  0.
         25    1    3    3    0    0 -0.23057741489E+02 -0.63279196081E+02  0.16066682819E+02  0.13854260859E+03  0.12000000000E+03 0.  0.
<mgrwt>
<rscale>  0 0.27547440E+03</rscale>
<asrwt>0</asrwt>
<pdfrwt beam="1">  1        1 0.19695888E-01 0.27547440E+03</pdfrwt>
<pdfrwt beam="2">  1       -1 0.22798182E-01 0.27547440E+03</pdfrwt>
<totfact> 0.42058361E+03</totfact>
</mgrwt>
</event>
<event>
 5    1  0.1132878E+001  0.2775951E+03  0.7818608E-02  0.1097010E+00
         -3   -1    0    0    0  501 -0.00000000000E+00  0.00000000000E+00  0.97195772697E+02  0.97195772697E+02  0.00000000000E+00 0. -1.
          3   -1    0    0  501    0  0.00000000000E+00 -0.00000000000E+00 -0.19820578789E+03  0.19820578789E+03  0.00000000000E+00 0. -1.
         35    2    1    2    0    0  0.00000000000E+00  0.00000000000E+00 -0.10101001519E+03  0.29540156058E+03  0.27759513473E+03 0.  0.
         25    1    3    3    0    0  0.38284095419E+02  0.52626364181E+02 -0.23804532190E+02  0.13857078307E+03  0.12000000000E+03 0.  0.
         25    1    3    3    0    0 -0.38284095419E+02 -0.52626364181E+02 -0.77205483000E+02  0.15683077751E+03  0.12000000000E+03 0.  0.
<mgrwt>
<rscale>  0 0.27759513E+03</rscale>
<asrwt>0</asrwt>
<pdfrwt beam="1">  1        3 0.30493198E-01 0.27759513E+03</pdfrwt>
<pdfrwt beam="2">  1       -3 0.14953196E-01 0.27759513E+03</pdfrwt>
<totfact> 0.98946997E+02</totfact>
</mgrwt>
</event>
<event>
 5    1  0.1132878E+001  0.2746210E+03  0.7818608E-02  0.1098664E+00
          1   -1    0    0  501    0  0.00000000000E+00  0.00000000000E+00  0.35396968495E+03  0.35396968495E+03  0.00000000000E+00 0. -1.
         -1   -1    0    0    0  501 -0.00000000000E+00 -0.00000000000E+00 -0.53264944661E+02  0.53264944661E+02  0.00000000000E+00 0. -1.
         35    2    1    2    0    0  0.00000000000E+00  0.00000000000E+00  0.30070474029E+03  0.40723462962E+03  0.27462101654E+03 0.  0.
         25    1    3    3    0    0 -0.16978364408E+02  0.13434540332E+02  0.24396796350E+03  0.27274368727E+03  0.12000000000E+03 0.  0.
         25    1    3    3    0    0  0.16978364408E+02 -0.13434540332E+02  0.56736776796E+02  0.13449094235E+03  0.12000000000E+03 0.  0.
<mgrwt>
<rscale>  0 0.27462102E+03</rscale>
<asrwt>0</asrwt>
<pdfrwt beam="1">  1        1 0.54456873E-01 0.27462102E+03</pdfrwt>
<pdfrwt beam="2">  1       -1 0.81946071E-02 0.27462102E+03</pdfrwt>
<totfact> 0.58488207E+03</totfact>
</mgrwt>
</event>
<event>
 5    1  0.1132878E+001  0.2781029E+03  0.7818608E-02  0.1096730E+00
         -1   -1    0    0    0  501 -0.00000000000E+00  0.00000000000E+00  0.31830439887E+02  0.31830439887E+02  0.00000000000E+00 0. -1.
          1   -1    0    0  501    0  0.00000000000E+00 -0.00000000000E+00 -0.60744697205E+03  0.60744697205E+03  0.00000000000E+00 0. -1.
         35    2    1    2    0    0  0.00000000000E+00  0.00000000000E+00 -0.57561653217E+03  0.63927741194E+03  0.27810288980E+03 0.  0.
         25    1    3    3    0    0  0.64341814765E+02 -0.21769272864E+02 -0.24658928212E+03  0.28252441386E+03  0.12000000000E+03 0.  0.
         25    1    3    3    0    0 -0.64341814765E+02  0.21769272864E+02 -0.32902725005E+03  0.35675299808E+03  0.12000000000E+03 0.  0.
<mgrwt>
<rscale>  0 0.27810289E+03</rscale>
<asrwt>0</asrwt>
<pdfrwt beam="1">  1        1 0.93453376E-01 0.27810289E+03</pdfrwt>
<pdfrwt beam="2">  1       -1 0.48969910E-02 0.27810289E+03</pdfrwt>
<totfact> 0.62576431E+03</totfact>
</mgrwt>
</event>
<event>
 5    1  0.1132878E+001  0.2793041E+03  0.7818608E-02  0.1096070E+00
         -1   -1    0    0    0  501 -0.00000000000E+00  0.00000000000E+00  0.42150367595E+02  0.42150367595E+02  0.00000000000E+00 0. -1.
          1   -1    0    0  501    0  0.00000000000E+00 -0.00000000000E+00 -0.46269323729E+03  0.46269323729E+03  0.00000000000E+00 0. -1.
         35    2    1    2    0    0  0.00000000000E+00  0.00000000000E+00 -0.42054286969E+03  0.50484360488E+03  0.27930406396E+03 0.  0.
         25    1    3    3    0    0  0.10779430127E+02 -0.65705673023E+02 -0.16351121576E+03  0.21346978536E+03  0.12000000000E+03 0.  0.
         25    1    3    3    0    0 -0.10779430127E+02  0.65705673023E+02 -0.25703165393E+03  0.29137381953E+03  0.12000000000E+03 0.  0.
<mgrwt>
<rscale>  0 0.27930406E+03</rscale>
<asrwt>0</asrwt>
<pdfrwt beam="1">  1        1 0.71183574E-01 0.27930406E+03</pdfrwt>
<pdfrwt beam="2">  1       -1 0.64846721E-02 0.27930406E+03</pdfrwt>
<totfact> 0.59191614E+03</totfact>
</mgrwt>
</event>
<event>
 5    1  0.1132878E+001  0.2750593E+03  0.7818608E-02  0.1098418E+00
         -2   -1    0    0    0  501 -0.00000000000E+00  0.00000000000E+00  0.10561690786E+03  0.10561690786E+03  0.00000000000E+00 0. -1.
          2   -1    0    0  501    0  0.00000000000E+00 -0.00000000000E+00 -0.17908504564E+03  0.17908504564E+03  0.00000000000E+00 0. -1.
         35    2    1    2    0    0  0.00000000000E+00  0.00000000000E+00 -0.73468137779E+02  0.28470195350E+03  0.27505933007E+03 0.  0.
         25    1    3    3    0    0 -0.28654927255E+02 -0.20060155026E+02  0.22643309522E+02  0.12702847768E+03  0.12000000000E+03 0.  0.
         25    1    3    3    0    0  0.28654927255E+02  0.20060155026E+02 -0.96111447301E+02  0.15767347582E+03  0.12000000000E+03 0.  0.
<mgrwt>
<rscale>  0 0.27505933E+03</rscale>
<asrwt>0</asrwt>
<pdfrwt beam="1">  1        2 0.27551545E-01 0.27505933E+03</pdfrwt>
<pdfrwt beam="2">  1       -2 0.16248755E-01 0.27505933E+03</pdfrwt>
<totfact> 0.57314757E+03</totfact>
</mgrwt>
</event>
<event>
 5    1  0.1132878E+001  0.2799009E+03  0.7818608E-02  0.1095743E+00
         -2   -1    0    0    0  501 -0.00000000000E+00  0.00000000000E+00  0.18368941010E+03  0.18368941010E+03  0.00000000000E+00 0.  1.
          2   -1    0    0  501    0  0.00000000000E+00 -0.00000000000E+00 -0.10662632705E+03  0.10662632705E+03  0.00000000000E+00 0.  1.
         35    2    1    2    0    0  0.00000000000E+00  0.00000000000E+00  0.77063083048E+02  0.29031573715E+03  0.27990089044E+03 0.  0.
         25    1    3    3    0    0 -0.12288537377E+02 -0.56513662179E+02 -0.59757860000E+01  0.13334358695E+03  0.12000000000E+03 0.  0.
         25    1    3    3    0    0  0.12288537377E+02  0.56513662179E+02  0.83038869048E+02  0.15697215019E+03  0.12000000000E+03 0.  0.
<mgrwt>
<rscale>  0 0.27990089E+03</rscale>
<asrwt>0</asrwt>
<pdfrwt beam="1">  1        2 0.16404050E-01 0.27990089E+03</pdfrwt>
<pdfrwt beam="2">  1       -2 0.28259909E-01 0.27990089E+03</pdfrwt>
<totfact> 0.39755802E+03</totfact>
</mgrwt>
</event>
<event>
 5    1  0.1132878E+001  0.2744643E+03  0.7818608E-02  0.1098751E+00
          1   -1    0    0  501    0  0.00000000000E+00  0.00000000000E+00  0.29100659791E+03  0.29100659791E+03  0.00000000000E+00 0. -1.
         -1   -1    0    0    0  501 -0.00000000000E+00 -0.00000000000E+00 -0.64715564784E+02  0.64715564784E+02  0.00000000000E+00 0. -1.
         35    2    1    2    0    0  0.00000000000E+00  0.00000000000E+00  0.22629103312E+03  0.35572216269E+03  0.27446425151E+03 0.  0.
         25    1    3    3    0    0  0.64057642061E+02 -0.13980897533E+02  0.98153213684E+02  0.16832379618E+03  0.12000000000E+03 0.  0.
         25    1    3    3    0    0 -0.64057642061E+02  0.13980897533E+02  0.12813781944E+03  0.18739836651E+03  0.12000000000E+03 0.  0.
<mgrwt>
<rscale>  0 0.27446425E+03</rscale>
<asrwt>0</asrwt>
<pdfrwt beam="1">  1        1 0.44770245E-01 0.27446425E+03</pdfrwt>
<pdfrwt beam="2">  1       -1 0.99562409E-02 0.27446425E+03</pdfrwt>
<totfact> 0.55515949E+03</totfact>
</mgrwt>
</event>
<event>
 5    1  0.1132878E+001  0.2747060E+03  0.7818608E-02  0.1098616E+00
          1   -1    0    0  501    0  0.00000000000E+00  0.00000000000E+00  0.89494509337E+03  0.89494509337E+03  0.00000000000E+00 0.  1.
         -1   -1    0    0    0  501 -0.00000000000E+00 -0.00000000000E+00 -0.21080445152E+02  0.21080445152E+02  0.00000000000E+00 0.  1.
         35    2    1    2    0    0  0.00000000000E+00  0.00000000000E+00  0.87386464822E+03  0.91602553853E+03  0.27470595884E+03 0.  0.
         25    1    3    3    0    0 -0.16174607312E+02  0.12815975841E+02  0.22498459103E+03  0.25582011914E+03  0.12000000000E+03 0.  0.
         25    1    3    3    0    0  0.16174607312E+02 -0.12815975841E+02  0.64888005719E+03  0.66020541938E+03  0.12000000000E+03 0.  0.
<mgrwt>
<rscale>  0 0.27470596E+03</rscale>
<asrwt>0</asrwt>
<pdfrwt beam="1">  1        1 0.13768383E+00 0.27470596E+03</pdfrwt>
<pdfrwt beam="2">  1       -1 0.32431461E-02 0.27470596E+03</pdfrwt>
<totfact> 0.64688200E+03</totfact>
</mgrwt>
</event>
<event>
 5    1  0.1132878E+001  0.2733326E+03  0.7818608E-02  0.1099387E+00
         -1   -1    0    0    0  501 -0.00000000000E+00  0.00000000000E+00  0.63872392651E+03  0.63872392651E+03  0.00000000000E+00 0.  1.
          1   -1    0    0  501    0  0.00000000000E+00 -0.00000000000E+00 -0.29242169477E+02  0.29242169477E+02  0.00000000000E+00 0.  1.
         35    2    1    2    0    0  0.00000000000E+00  0.00000000000E+00  0.60948175704E+03  0.66796609599E+03  0.27333256892E+03 0.  0.
         25    1    3    3    0    0 -0.38108624837E+02 -0.28933258302E+02  0.19577237202E+03  0.23455537165E+03  0.12000000000E+03 0.  0.
         25    1    3    3    0    0  0.38108624837E+02  0.28933258302E+02  0.41370938502E+03  0.43341072434E+03  0.12000000000E+03 0.  0.
<mgrwt>
<rscale>  0 0.27333257E+03</rscale>
<asrwt>0</asrwt>
<pdfrwt beam="1">  1        1 0.44987958E-02 0.27333257E+03</pdfrwt>
<pdfrwt beam="2">  1       -1 0.98265210E-01 0.27333257E+03</pdfrwt>
<totfact> 0.20189580E+03</totfact>
</mgrwt>
</event>
<event>
 5    1  0.1132878E+001  0.2722886E+03  0.7818608E-02  0.1099977E+00
         -2   -1    0    0    0  501 -0.00000000000E+00  0.00000000000E+00  0.87095792949E+02  0.87095792949E+02  0.00000000000E+00 0. -1.
          2   -1    0    0  501    0  0.00000000000E+00 -0.00000000000E+00 -0.21281477884E+03  0.21281477884E+03  0.00000000000E+00 0. -1.
         35    2    1    2    0    0  0.00000000000E+00  0.00000000000E+00 -0.12571898589E+03  0.29991057179E+03  0.27228861096E+03 0.  0.
         25    1    3    3    0    0  0.29060789637E+02  0.14031833018E+02 -0.12412442146E+03  0.17563682369E+03  0.12000000000E+03 0.  0.
         25    1    3    3    0    0 -0.29060789637E+02 -0.14031833018E+02 -0.15945644349E+01  0.12427374810E+03  0.12000000000E+03 0.  0.
<mgrwt>
<rscale>  0 0.27228861E+03</rscale>
<asrwt>0</asrwt>
<pdfrwt beam="1">  1        2 0.32740735E-01 0.27228861E+03</pdfrwt>
<pdfrwt beam="2">  1       -2 0.13399353E-01 0.27228861E+03</pdfrwt>
<totfact> 0.65156390E+03</totfact>
</mgrwt>
</event>
<event>
 5    1  0.1132878E+001  0.2750086E+03  0.7818608E-02  0.1098447E+00
         -2   -1    0    0    0  501 -0.00000000000E+00  0.00000000000E+00  0.31363984612E+03  0.31363984612E+03  0.00000000000E+00 0. -1.
          2   -1    0    0  501    0  0.00000000000E+00 -0.00000000000E+00 -0.60283897319E+02  0.60283897319E+02  0.00000000000E+00 0. -1.
         35    2    1    2    0    0  0.00000000000E+00  0.00000000000E+00  0.25335594880E+03  0.37392374344E+03  0.27500859826E+03 0.  0.
         25    1    3    3    0    0 -0.41082285970E+02  0.52410144600E+02  0.11507242087E+03  0.17909840737E+03  0.12000000000E+03 0.  0.
         25    1    3    3    0    0  0.41082285970E+02 -0.52410144600E+02  0.13828352793E+03  0.19482533607E+03  0.12000000000E+03 0.  0.
<mgrwt>
<rscale>  0 0.27500860E+03</rscale>
<asrwt>0</asrwt>
<pdfrwt beam="1">  1        2 0.92744459E-02 0.27500860E+03</pdfrwt>
<pdfrwt beam="2">  1       -2 0.48252283E-01 0.27500860E+03</pdfrwt>
<totfact> 0.28952339E+03</totfact>
</mgrwt>
</event>
<event>
 5    1  0.1132878E+001  0.2719012E+03  0.7818608E-02  0.1100196E+00
         -2   -1    0    0    0  501 -0.00000000000E+00  0.00000000000E+00  0.28947150755E+02  0.28947150755E+02  0.00000000000E+00 0.  1.
          2   -1    0    0  501    0  0.00000000000E+00 -0.00000000000E+00 -0.63849320361E+03  0.63849320361E+03  0.00000000000E+00 0.  1.
         35    2    1    2    0    0  0.00000000000E+00  0.00000000000E+00 -0.60954605285E+03  0.66744035436E+03  0.27190115131E+03 0.  0.
         25    1    3    3    0    0 -0.39078925436E+02 -0.38992827392E+02 -0.22580298568E+03  0.26160005991E+03  0.12000000000E+03 0.  0.
         25    1    3    3    0    0  0.39078925436E+02  0.38992827392E+02 -0.38374306717E+03  0.40584029445E+03  0.12000000000E+03 0.  0.
<mgrwt>
<rscale>  0 0.27190115E+03</rscale>
<asrwt>0</asrwt>
<pdfrwt beam="1">  1        2 0.98229717E-01 0.27190115E+03</pdfrwt>
<pdfrwt beam="2">  1       -2 0.44534081E-02 0.27190115E+03</pdfrwt>
<totfact> 0.10893214E+04</totfact>
</mgrwt>
</event>
<event>
 5    1  0.1132878E+001  0.2778776E+03  0.7818608E-02  0.1096854E+00
         -2   -1    0    0    0  501 -0.00000000000E+00  0.00000000000E+00  0.13315076776E+02  0.13315076776E+02  0.00000000000E+00 0. -1.
          2   -1    0    0  501    0  0.00000000000E+00 -0.00000000000E+00 -0.14497840246E+04  0.14497840246E+04  0.00000000000E+00 0. -1.
         35    2    1    2    0    0  0.00000000000E+00  0.00000000000E+00 -0.14364689479E+04  0.14630991014E+04  0.27787756726E+03 0.  0.
         25    1    3    3    0    0  0.66794148090E+02 -0.74427372620E+00 -0.82892701026E+03  0.84022735049E+03  0.12000000000E+03 0.  0.
         25    1    3    3    0    0 -0.66794148090E+02  0.74427372620E+00 -0.60754193761E+03  0.62287175094E+03  0.12000000000E+03 0.  0.
<mgrwt>
<rscale>  0 0.27787757E+03</rscale>
<asrwt>0</asrwt>
<pdfrwt beam="1">  1        2 0.22304363E+00 0.27787757E+03</pdfrwt>
<pdfrwt beam="2">  1       -2 0.20484740E-02 0.27787757E+03</pdfrwt>
<totfact> 0.10837819E+04</totfact>
</mgrwt>
</event>
<event>
 5    1  0.1132878E+001  0.2750916E+03  0.7818608E-02  0.1098400E+00
          2   -1    0    0  501    0  0.00000000000E+00  0.00000000000E+00  0.85603608407E+03  0.85603608407E+03  0.00000000000E+00 0.  1.
         -2   -1    0    0    0  501 -0.00000000000E+00 -0.00000000000E+00 -0.22100525427E+02  0.22100525427E+02  0.00000000000E+00 0.  1.
         35    2    1    2    0    0  0.00000000000E+00  0.00000000000E+00  0.83393555864E+03  0.87813660950E+03  0.27509160105E+03 0.  0.
         25    1    3    3    0    0  0.40268215059E+02 -0.44991435080E+02  0.32264556719E+03  0.34949380595E+03  0.12000000000E+03 0.  0.
         25    1    3    3    0    0 -0.40268215059E+02  0.44991435080E+02  0.51128999146E+03  0.52864280354E+03  0.12000000000E+03 0.  0.
<mgrwt>
<rscale>  0 0.27509160E+03</rscale>
<asrwt>0</asrwt>
<pdfrwt beam="1">  1        2 0.13169783E+00 0.27509160E+03</pdfrwt>
<pdfrwt beam="2">  1       -2 0.34000815E-02 0.27509160E+03</pdfrwt>
<totfact> 0.11368579E+04</totfact>
</mgrwt>
</event>
<event>
 5    1  0.1132878E+001  0.2755885E+03  0.7818608E-02  0.1098123E+00
         -2   -1    0    0    0  501 -0.00000000000E+00  0.00000000000E+00  0.28480811926E+03  0.28480811926E+03  0.00000000000E+00 0.  1.
          2   -1    0    0  501    0  0.00000000000E+00 -0.00000000000E+00 -0.66666842053E+02  0.66666842053E+02  0.00000000000E+00 0.  1.
         35    2    1    2    0    0  0.00000000000E+00  0.00000000000E+00  0.21814127721E+03  0.35147496131E+03  0.27558851864E+03 0.  0.
         25    1    3    3    0    0  0.39072694224E+02 -0.40605660395E+02  0.61150933108E+02  0.14599634143E+03  0.12000000000E+03 0.  0.
         25    1    3    3    0    0 -0.39072694224E+02  0.40605660395E+02  0.15699034410E+03  0.20547861989E+03  0.12000000000E+03 0.  0.
<mgrwt>
<rscale>  0 0.27558852E+03</rscale>
<asrwt>0</asrwt>
<pdfrwt beam="1">  1        2 0.10256437E-01 0.27558852E+03</pdfrwt>
<pdfrwt beam="2">  1       -2 0.43816633E-01 0.27558852E+03</pdfrwt>
<totfact> 0.30862408E+03</totfact>
</mgrwt>
</event>
<event>
 5    1  0.1132878E+001  0.2749852E+03  0.7818608E-02  0.1098460E+00
          2   -1    0    0  501    0  0.00000000000E+00  0.00000000000E+00  0.33888891414E+02  0.33888891414E+02  0.00000000000E+00 0. -1.
         -2   -1    0    0    0  501 -0.00000000000E+00 -0.00000000000E+00 -0.55782924073E+03  0.55782924073E+03  0.00000000000E+00 0. -1.
         35    2    1    2    0    0  0.00000000000E+00  0.00000000000E+00 -0.52394034932E+03  0.59171813215E+03  0.27498519645E+03 0.  0.
         25    1    3    3    0    0 -0.50182608459E+02 -0.42913554926E+02 -0.23611724806E+03  0.27296743802E+03  0.12000000000E+03 0.  0.
         25    1    3    3    0    0  0.50182608459E+02  0.42913554926E+02 -0.28782310126E+03  0.31875069413E+03  0.12000000000E+03 0.  0.
<mgrwt>
<rscale>  0 0.27498520E+03</rscale>
<asrwt>0</asrwt>
<pdfrwt beam="1">  1        2 0.52136761E-02 0.27498520E+03</pdfrwt>
<pdfrwt beam="2">  1       -2 0.85819875E-01 0.27498520E+03</pdfrwt>
<totfact> 0.18077387E+03</totfact>
</mgrwt>
</event>
<event>
 5    1  0.1132878E+001  0.2750605E+03  0.7818608E-02  0.1098418E+00
         -2   -1    0    0    0  501 -0.00000000000E+00  0.00000000000E+00  0.37776513039E+02  0.37776513039E+02  0.00000000000E+00 0. -1.
          2   -1    0    0  501    0  0.00000000000E+00 -0.00000000000E+00 -0.50069638422E+03  0.50069638422E+03  0.00000000000E+00 0. -1.
         35    2    1    2    0    0  0.00000000000E+00  0.00000000000E+00 -0.46291987118E+03  0.53847289726E+03  0.27506045508E+03 0.  0.
         25    1    3    3    0    0 -0.57866834658E+02  0.22927074669E+02 -0.18192156165E+03  0.22664879417E+03  0.12000000000E+03 0.  0.
         25    1    3    3    0    0  0.57866834658E+02 -0.22927074669E+02 -0.28099830953E+03  0.31182410309E+03  0.12000000000E+03 0.  0.
<mgrwt>
<rscale>  0 0.27506046E+03</rscale>
<asrwt>0</asrwt>
<pdfrwt beam="1">  1        2 0.77030216E-01 0.27506046E+03</pdfrwt>
<pdfrwt beam="2">  1       -2 0.58117710E-02 0.27506046E+03</pdfrwt>
<totfact> 0.96069194E+03</totfact>
</mgrwt>
</event>
<event>
 5    1  0.1132878E+001  0.2732411E+03  0.7818608E-02  0.1099439E+00
         -2   -1    0    0    0  501 -0.00000000000E+00  0.00000000000E+00  0.14817550191E+02  0.14817550191E+02  0.00000000000E+00 0. -1.
          2   -1    0    0  501    0  0.00000000000E+00 -0.00000000000E+00 -0.12596664507E+04  0.12596664507E+04  0.00000000000E+00 0. -1.
         35    2    1    2    0    0  0.00000000000E+00  0.00000000000E+00 -0.12448489005E+04  0.12744840009E+04  0.27324107200E+03 0.  0.
         25    1    3    3    0    0  0.45593754317E+02  0.43300967827E+02 -0.54011450353E+03  0.55684597616E+03  0.12000000000E+03 0.  0.
         25    1    3    3    0    0 -0.45593754317E+02 -0.43300967827E+02 -0.70473439702E+03  0.71763802477E+03  0.12000000000E+03 0.  0.
<mgrwt>
<rscale>  0 0.27324107E+03</rscale>
<asrwt>0</asrwt>
<pdfrwt beam="1">  1        2 0.19379480E+00 0.27324107E+03</pdfrwt>
<pdfrwt beam="2">  1       -2 0.22796236E-02 0.27324107E+03</pdfrwt>
<totfact> 0.11762739E+04</totfact>
</mgrwt>
</event>
<event>
 5    1  0.1132878E+001  0.2745577E+03  0.7818608E-02  0.1098699E+00
          2   -1    0    0  501    0  0.00000000000E+00  0.00000000000E+00  0.26210216951E+03  0.26210216951E+03  0.00000000000E+00 0.  1.
         -2   -1    0    0    0  501 -0.00000000000E+00 -0.00000000000E+00 -0.71901260807E+02  0.71901260807E+02  0.00000000000E+00 0.  1.
         35    2    1    2    0    0  0.00000000000E+00  0.00000000000E+00  0.19020090871E+03  0.33400343032E+03  0.27455765477E+03 0.  0.
         25    1    3    3    0    0  0.10872053340E+02  0.65427769945E+02  0.86806551325E+02  0.16227868614E+03  0.12000000000E+03 0.  0.
         25    1    3    3    0    0 -0.10872053340E+02 -0.65427769945E+02  0.10339435738E+03  0.17172474418E+03  0.12000000000E+03 0.  0.
<mgrwt>
<rscale>  0 0.27455765E+03</rscale>
<asrwt>0</asrwt>
<pdfrwt beam="1">  1        2 0.40323410E-01 0.27455765E+03</pdfrwt>
<pdfrwt beam="2">  1       -2 0.11061733E-01 0.27455765E+03</pdfrwt>
<totfact> 0.70907238E+03</totfact>
</mgrwt>
</event>
<event>
 5    1  0.1132878E+001  0.2753081E+03  0.7818608E-02  0.1098280E+00
          2   -1    0    0  501    0  0.00000000000E+00  0.00000000000E+00  0.40055576612E+03  0.40055576612E+03  0.00000000000E+00 0.  1.
         -2   -1    0    0    0  501 -0.00000000000E+00 -0.00000000000E+00 -0.47305849452E+02  0.47305849452E+02  0.00000000000E+00 0.  1.
         35    2    1    2    0    0  0.00000000000E+00  0.00000000000E+00  0.35324991667E+03  0.44786161558E+03  0.27530805124E+03 0.  0.
         25    1    3    3    0    0  0.48804915236E+02  0.43699671882E+02  0.15054340356E+03  0.20335903577E+03  0.12000000000E+03 0.  0.
         25    1    3    3    0    0 -0.48804915236E+02 -0.43699671882E+02  0.20270651311E+03  0.24450257981E+03  0.12000000000E+03 0.  0.
<mgrwt>
<rscale>  0 0.27530805E+03</rscale>
<asrwt>0</asrwt>
<pdfrwt beam="1">  1        2 0.61623962E-01 0.27530805E+03</pdfrwt>
<pdfrwt beam="2">  1       -2 0.72778233E-02 0.27530805E+03</pdfrwt>
<totfact> 0.86839147E+03</totfact>
</mgrwt>
</event>
<event>
 5    1  0.1132878E+001  0.2755561E+03  0.7818608E-02  0.1098141E+00
         -3   -1    0    0    0  501 -0.00000000000E+00  0.00000000000E+00  0.30764771111E+03  0.30764771111E+03  0.00000000000E+00 0.  1.
          3   -1    0    0  501    0  0.00000000000E+00 -0.00000000000E+00 -0.61703000633E+02  0.61703000633E+02  0.00000000000E+00 0.  1.
         35    2    1    2    0    0  0.00000000000E+00  0.00000000000E+00  0.24594471048E+03  0.36935071174E+03  0.27555606989E+03 0.  0.
         25    1    3    3    0    0 -0.99862827095E+01 -0.64701064786E+02  0.14606561594E+03  0.20005278750E+03  0.12000000000E+03 0.  0.
         25    1    3    3    0    0  0.99862827095E+01  0.64701064786E+02  0.99879094533E+02  0.16929792424E+03  0.12000000000E+03 0.  0.
<mgrwt>
<rscale>  0 0.27555607E+03</rscale>
<asrwt>0</asrwt>
<pdfrwt beam="1">  1        3 0.94927695E-02 0.27555607E+03</pdfrwt>
<pdfrwt beam="2">  1       -3 0.47330416E-01 0.27555607E+03</pdfrwt>
<totfact> 0.91224565E+02</totfact>
</mgrwt>
</event>
<event>
 5    1  0.1132878E+001  0.2737995E+03  0.7818608E-02  0.1099125E+00
         -2   -1    0    0    0  501 -0.00000000000E+00  0.00000000000E+00  0.82565485263E+02  0.82565485263E+02  0.00000000000E+00 0.  1.
          2   -1    0    0  501    0  0.00000000000E+00 -0.00000000000E+00 -0.22698995980E+03  0.22698995980E+03  0.00000000000E+00 0.  1.
         35    2    1    2    0    0  0.00000000000E+00  0.00000000000E+00 -0.14442447454E+03  0.30955544506E+03  0.27379946078E+03 0.  0.
         25    1    3    3    0    0  0.25388245664E+02  0.47410082327E+01 -0.36784473709E+01  0.12280297697E+03  0.12000000000E+03 0.  0.
         25    1    3    3    0    0 -0.25388245664E+02 -0.47410082327E+01 -0.14074602716E+03  0.18675246809E+03  0.12000000000E+03 0.  0.
<mgrwt>
<rscale>  0 0.27379946E+03</rscale>
<asrwt>0</asrwt>
<pdfrwt beam="1">  1        2 0.34921532E-01 0.27379946E+03</pdfrwt>
<pdfrwt beam="2">  1       -2 0.12702382E-01 0.27379946E+03</pdfrwt>
<totfact> 0.66274518E+03</totfact>
</mgrwt>
</event>
<event>
 5    1  0.1132878E+001  0.2738637E+03  0.7818608E-02  0.1099088E+00
          2   -1    0    0  501    0  0.00000000000E+00  0.00000000000E+00  0.13812578555E+04  0.13812578555E+04  0.00000000000E+00 0. -1.
         -2   -1    0    0    0  501 -0.00000000000E+00 -0.00000000000E+00 -0.13574820103E+02  0.13574820103E+02  0.00000000000E+00 0. -1.
         35    2    1    2    0    0  0.00000000000E+00  0.00000000000E+00  0.13676830354E+04  0.13948326756E+04  0.27386366611E+03 0.  0.
         25    1    3    3    0    0  0.53459318580E+02 -0.38509360713E+02  0.66817865175E+03  0.68205834080E+03  0.12000000000E+03 0.  0.
         25    1    3    3    0    0 -0.53459318580E+02  0.38509360713E+02  0.69950438363E+03  0.71277433478E+03  0.12000000000E+03 0.  0.
<mgrwt>
<rscale>  0 0.27386367E+03</rscale>
<asrwt>0</asrwt>
<pdfrwt beam="1">  1        2 0.21250110E+00 0.27386367E+03</pdfrwt>
<pdfrwt beam="2">  1       -2 0.20884350E-02 0.27386367E+03</pdfrwt>
<totfact> 0.11470175E+04</totfact>
</mgrwt>
</event>
<event>
 5    1  0.1132878E+001  0.2743828E+03  0.7818608E-02  0.1098797E+00
         -2   -1    0    0    0  501 -0.00000000000E+00  0.00000000000E+00  0.28925917856E+02  0.28925917856E+02  0.00000000000E+00 0. -1.
          2   -1    0    0  501    0  0.00000000000E+00 -0.00000000000E+00 -0.65067879282E+03  0.65067879282E+03  0.00000000000E+00 0. -1.
         35    2    1    2    0    0  0.00000000000E+00  0.00000000000E+00 -0.62175287496E+03  0.67960471067E+03  0.27438280785E+03 0.  0.
         25    1    3    3    0    0  0.24537592459E+02  0.61118816686E+02 -0.33356065562E+03  0.36055556323E+03  0.12000000000E+03 0.  0.
         25    1    3    3    0    0 -0.24537592459E+02 -0.61118816686E+02 -0.28819221934E+03  0.31904914745E+03  0.12000000000E+03 0.  0.
<mgrwt>
<rscale>  0 0.27438281E+03</rscale>
<asrwt>0</asrwt>
<pdfrwt beam="1">  1        2 0.10010442E+00 0.27438281E+03</pdfrwt>
<pdfrwt beam="2">  1       -2 0.44501417E-02 0.27438281E+03</pdfrwt>
<totfact> 0.10667667E+04</totfact>
</mgrwt>
</event>
<event>
 5    1  0.1132878E+001  0.2728178E+03  0.7818608E-02  0.1099678E+00
         -1   -1    0    0    0  501 -0.00000000000E+00  0.00000000000E+00  0.94357098569E+01  0.94357098569E+01  0.00000000000E+00 0.  1.
          1   -1    0    0  501    0  0.00000000000E+00 -0.00000000000E+00 -0.19720171183E+04  0.19720171183E+04  0.00000000000E+00 0.  1.
         35    2    1    2    0    0  0.00000000000E+00  0.00000000000E+00 -0.19625814084E+04  0.19814528282E+04  0.27281775134E+03 0.  0.
         25    1    3    3    0    0 -0.18974633505E+02  0.39100613093E+02 -0.63157638332E+03  0.64434278348E+03  0.12000000000E+03 0.  0.
         25    1    3    3    0    0  0.18974633505E+02 -0.39100613093E+02 -0.13310050251E+04  0.13371100447E+04  0.12000000000E+03 0.  0.
<mgrwt>
<rscale>  0 0.27281775E+03</rscale>
<asrwt>0</asrwt>
<pdfrwt beam="1">  1        1 0.30338703E+00 0.27281775E+03</pdfrwt>
<pdfrwt beam="2">  1       -1 0.14516487E-02 0.27281775E+03</pdfrwt>
<totfact> 0.38512623E+03</totfact>
</mgrwt>
</event>
<event>
 5    1  0.1132878E+001  0.2755158E+03  0.7818608E-02  0.1098164E+00
         -2   -1    0    0    0  501 -0.00000000000E+00  0.00000000000E+00  0.13032702711E+03  0.13032702711E+03  0.00000000000E+00 0.  1.
          2   -1    0    0  501    0  0.00000000000E+00 -0.00000000000E+00 -0.14561242485E+03  0.14561242485E+03  0.00000000000E+00 0.  1.
         35    2    1    2    0    0  0.00000000000E+00  0.00000000000E+00 -0.15285397745E+02  0.27593945196E+03  0.27551576681E+03 0.  0.
         25    1    3    3    0    0  0.60790740111E+02 -0.21299377131E+02  0.13078653061E+02  0.13682188683E+03  0.12000000000E+03 0.  0.
         25    1    3    3    0    0 -0.60790740111E+02  0.21299377131E+02 -0.28364050806E+02  0.13911756513E+03  0.12000000000E+03 0.  0.
<mgrwt>
<rscale>  0 0.27551577E+03</rscale>
<asrwt>0</asrwt>
<pdfrwt beam="1">  1        2 0.22401912E-01 0.27551577E+03</pdfrwt>
<pdfrwt beam="2">  1       -2 0.20050312E-01 0.27551577E+03</pdfrwt>
<totfact> 0.50657803E+03</totfact>
</mgrwt>
</event>
<event>
 5    1  0.1132878E+001  0.2727465E+03  0.7818608E-02  0.1099718E+00
         -1   -1    0    0    0  501 -0.00000000000E+00  0.00000000000E+00  0.88662271780E+02  0.88662271780E+02  0.00000000000E+00 0.  1.
          1   -1    0    0  501    0  0.00000000000E+00 -0.00000000000E+00 -0.20975854107E+03  0.20975854107E+03  0.00000000000E+00 0.  1.
         35    2    1    2    0    0  0.00000000000E+00  0.00000000000E+00 -0.12109626929E+03  0.29842081285E+03  0.27274654004E+03 0.  0.
         25    1    3    3    0    0  0.80080313466E+01  0.52581811405E+02 -0.10102649691E+03  0.16563613294E+03  0.12000000000E+03 0.  0.
         25    1    3    3    0    0 -0.80080313466E+01 -0.52581811405E+02 -0.20069772384E+02  0.13278467992E+03  0.12000000000E+03 0.  0.
<mgrwt>
<rscale>  0 0.27274654E+03</rscale>
<asrwt>0</asrwt>
<pdfrwt beam="1">  1        1 0.32270545E-01 0.27274654E+03</pdfrwt>
<pdfrwt beam="2">  1       -1 0.13640350E-01 0.27274654E+03</pdfrwt>
<totfact> 0.51245336E+03</totfact>
</mgrwt>
</event>
<event>
 5    1  0.1132878E+001  0.2746423E+03  0.7818608E-02  0.1098652E+00
         -1   -1    0    0    0  501 -0.00000000000E+00  0.00000000000E+00  0.99116089852E+02  0.99116089852E+02  0.00000000000E+00 0.  1.
          1   -1    0    0  501    0  0.00000000000E+00 -0.00000000000E+00 -0.19025260254E+03  0.19025260254E+03  0.00000000000E+00 0.  1.
         35    2    1    2    0    0  0.00000000000E+00  0.00000000000E+00 -0.91136512689E+02  0.28936869239E+03  0.27464226949E+03 0.  0.
         25    1    3    3    0    0  0.27498786137E+02 -0.31367514219E+02 -0.10048795827E+03  0.16198127652E+03  0.12000000000E+03 0.  0.
         25    1    3    3    0    0 -0.27498786137E+02  0.31367514219E+02  0.93514455811E+01  0.12738741587E+03  0.12000000000E+03 0.  0.
<mgrwt>
<rscale>  0 0.27464227E+03</rscale>
<asrwt>0</asrwt>
<pdfrwt beam="1">  1        1 0.29269631E-01 0.27464227E+03</pdfrwt>
<pdfrwt beam="2">  1       -1 0.15248629E-01 0.27464227E+03</pdfrwt>
<totfact> 0.48597380E+03</totfact>
</mgrwt>
</event>
<event>
 5    1  0.1132878E+001  0.2750203E+03  0.7818608E-02  0.1098440E+00
         -2   -1    0    0    0  501 -0.00000000000E+00  0.00000000000E+00  0.89949030164E+02  0.89949030164E+02  0.00000000000E+00 0.  1.
          2   -1    0    0  501    0  0.00000000000E+00 -0.00000000000E+00 -0.21021957088E+03  0.21021957088E+03  0.00000000000E+00 0.  1.
         35    2    1    2    0    0  0.00000000000E+00  0.00000000000E+00 -0.12027054072E+03  0.30016860104E+03  0.27502033759E+03 0.  0.
         25    1    3    3    0    0  0.55409665278E+02 -0.31316663661E+02 -0.36775309653E+02  0.14072451041E+03  0.12000000000E+03 0.  0.
         25    1    3    3    0    0 -0.55409665278E+02  0.31316663661E+02 -0.83495231064E+02  0.15944409064E+03  0.12000000000E+03 0.  0.
<mgrwt>
<rscale>  0 0.27502034E+03</rscale>
<asrwt>0</asrwt>
<pdfrwt beam="1">  1        2 0.32341472E-01 0.27502034E+03</pdfrwt>
<pdfrwt beam="2">  1       -2 0.13838312E-01 0.27502034E+03</pdfrwt>
<totfact> 0.62666773E+03</totfact>
</mgrwt>
</event>
<event>
 5    1  0.1132878E+001  0.2751902E+03  0.7818608E-02  0.1098345E+00
          2   -1    0    0  501    0  0.00000000000E+00  0.00000000000E+00  0.42200455037E+03  0.42200455037E+03  0.00000000000E+00 0.  1.
         -2   -1    0    0    0  501 -0.00000000000E+00 -0.00000000000E+00 -0.44863066087E+02  0.44863066087E+02  0.00000000000E+00 0.  1.
         35    2    1    2    0    0  0.00000000000E+00  0.00000000000E+00  0.37714148428E+03  0.46686761646E+03  0.27519024716E+03 0.  0.
         25    1    3    3    0    0  0.40899376540E+02 -0.76830395472E+01  0.98788886822E+02  0.16090690556E+03  0.12000000000E+03 0.  0.
         25    1    3    3    0    0 -0.40899376540E+02  0.76830395472E+01  0.27835259746E+03  0.30596071090E+03  0.12000000000E+03 0.  0.
<mgrwt>
<rscale>  0 0.27519025E+03</rscale>
<asrwt>0</asrwt>
<pdfrwt beam="1">  1        2 0.64923774E-01 0.27519025E+03</pdfrwt>
<pdfrwt beam="2">  1       -2 0.69020104E-02 0.27519025E+03</pdfrwt>
<totfact> 0.89064640E+03</totfact>
</mgrwt>
</event>
<event>
 5    1  0.1132878E+001  0.2748203E+03  0.7818608E-02  0.1098552E+00
          2   -1    0    0  501    0  0.00000000000E+00  0.00000000000E+00  0.97359506246E+03  0.97359506246E+03  0.00000000000E+00 0.  1.
         -2   -1    0    0    0  501 -0.00000000000E+00 -0.00000000000E+00 -0.19393631437E+02  0.19393631437E+02  0.00000000000E+00 0.  1.
         35    2    1    2    0    0  0.00000000000E+00  0.00000000000E+00  0.95420143102E+03  0.99298869389E+03  0.27482025988E+03 0.  0.
         25    1    3    3    0    0  0.65669987482E+02 -0.12358630026E+02  0.46253047377E+03  0.48249323535E+03  0.12000000000E+03 0.  0.
         25    1    3    3    0    0 -0.65669987482E+02  0.12358630026E+02  0.49167095725E+03  0.51049545854E+03  0.12000000000E+03 0.  0.
<mgrwt>
<rscale>  0 0.27482026E+03</rscale>
<asrwt>0</asrwt>
<pdfrwt beam="1">  1        2 0.14978382E+00 0.27482026E+03</pdfrwt>
<pdfrwt beam="2">  1       -2 0.29836364E-02 0.27482026E+03</pdfrwt>
<totfact> 0.11613349E+04</totfact>
</mgrwt>
</event>
<event>
 5    1  0.1132878E+001  0.2786552E+03  0.7818608E-02  0.1096426E+00
         -2   -1    0    0    0  501 -0.00000000000E+00  0.00000000000E+00  0.16770193924E+02  0.16770193924E+02  0.00000000000E+00 0. -1.
          2   -1    0    0  501    0  0.00000000000E+00 -0.00000000000E+00 -0.11575407494E+04  0.11575407494E+04  0.00000000000E+00 0. -1.
         35    2    1    2    0    0  0.00000000000E+00  0.00000000000E+00 -0.11407705555E+04  0.11743109433E+04  0.27865521953E+03 0.  0.
         25    1    3    3    0    0  0.48514701542E+02 -0.51515397044E+02 -0.57949269066E+03  0.59600276084E+03  0.12000000000E+03 0.  0.
         25    1    3    3    0    0 -0.48514701542E+02  0.51515397044E+02 -0.56127786483E+03  0.57830818250E+03  0.12000000000E+03 0.  0.
<mgrwt>
<rscale>  0 0.27865522E+03</rscale>
<asrwt>0</asrwt>
<pdfrwt beam="1">  1        2 0.17808323E+00 0.27865522E+03</pdfrwt>
<pdfrwt beam="2">  1       -2 0.25800293E-02 0.27865522E+03</pdfrwt>
<totfact> 0.11198394E+04</totfact>
</mgrwt>
</event>
<event>
 5    1  0.1132878E+001  0.2756581E+03  0.7818608E-02  0.1098084E+00
         -2   -1    0    0    0  501 -0.00000000000E+00  0.00000000000E+00  0.35373520196E+02  0.35373520196E+02  0.00000000000E+00 0. -1.
          2   -1    0    0  501    0  0.00000000000E+00 -0.00000000000E+00 -0.53703565333E+03  0.53703565333E+03  0.00000000000E+00 0. -1.
         35    2    1    2    0    0  0.00000000000E+00  0.00000000000E+00 -0.50166213313E+03  0.57240917352E+03  0.27565806013E+03 0.  0.
         25    1    3    3    0    0  0.44340184607E+02  0.48717380714E+02 -0.28414650542E+03  0.31540239646E+03  0.12000000000E+03 0.  0.
         25    1    3    3    0    0 -0.44340184607E+02 -0.48717380714E+02 -0.21751562772E+03  0.25700677706E+03  0.12000000000E+03 0.  0.
<mgrwt>
<rscale>  0 0.27565806E+03</rscale>
<asrwt>0</asrwt>
<pdfrwt beam="1">  1        2 0.82620870E-01 0.27565806E+03</pdfrwt>
<pdfrwt beam="2">  1       -2 0.54420800E-02 0.27565806E+03</pdfrwt>
<totfact> 0.98172103E+03</totfact>
</mgrwt>
</event>
<event>
 5    1  0.1132878E+001  0.2692261E+03  0.7818608E-02  0.1101723E+00
         -2   -1    0    0    0  501 -0.00000000000E+00  0.00000000000E+00  0.62358331887E+01  0.62358331887E+01  0.00000000000E+00 0.  1.
          2   -1    0    0  501    0  0.00000000000E+00 -0.00000000000E+00 -0.29058939617E+04  0.29058939617E+04  0.00000000000E+00 0.  1.
         35    2    1    2    0    0  0.00000000000E+00  0.00000000000E+00 -0.28996581285E+04  0.29121297948E+04  0.26922607607E+03 0.  0.
         25    1    3    3    0    0 -0.15791535475E+02 -0.51666897043E+02 -0.17561202725E+04  0.17610443641E+04  0.12000000000E+03 0.  0.
         25    1    3    3    0    0  0.15791535475E+02  0.51666897043E+02 -0.11435378560E+04  0.11510854307E+04  0.12000000000E+03 0.  0.
<mgrwt>
<rscale>  0 0.26922608E+03</rscale>
<asrwt>0</asrwt>
<pdfrwt beam="1">  1        2 0.44706188E+00 0.26922608E+03</pdfrwt>
<pdfrwt beam="2">  1       -2 0.95935622E-03 0.26922608E+03</pdfrwt>
<totfact> 0.53611148E+03</totfact>
</mgrwt>
</event>
<event>
 5    1  0.1132878E+001  0.2754418E+03  0.7818608E-02  0.1098205E+00
          2   -1    0    0  501    0  0.00000000000E+00  0.00000000000E+00  0.58943083897E+02  0.58943083897E+02  0.00000000000E+00 0. -1.
         -2   -1    0    0    0  501 -0.00000000000E+00 -0.00000000000E+00 -0.32178571465E+03  0.32178571465E+03  0.00000000000E+00 0. -1.
         35    2    1    2    0    0  0.00000000000E+00  0.00000000000E+00 -0.26284263075E+03  0.38072879855E+03  0.27544177153E+03 0.  0.
         25    1    3    3    0    0  0.36615004845E+02 -0.23373593951E+02 -0.59863331674E+02  0.14096312267E+03  0.12000000000E+03 0.  0.
         25    1    3    3    0    0 -0.36615004845E+02  0.23373593951E+02 -0.20297929908E+03  0.23976567588E+03  0.12000000000E+03 0.  0.
<mgrwt>
<rscale>  0 0.27544177E+03</rscale>
<asrwt>0</asrwt>
<pdfrwt beam="1">  1        2 0.90681668E-02 0.27544177E+03</pdfrwt>
<pdfrwt beam="2">  1       -2 0.49505494E-01 0.27544177E+03</pdfrwt>
<totfact> 0.28303342E+03</totfact>
</mgrwt>
</event>
<event>
 5    1  0.1132878E+001  0.2767996E+03  0.7818608E-02  0.1097450E+00
          2   -1    0    0  501    0  0.00000000000E+00  0.00000000000E+00  0.78610767503E+02  0.78610767503E+02  0.00000000000E+00 0.  1.
         -2   -1    0    0    0  501 -0.00000000000E+00 -0.00000000000E+00 -0.24366259066E+03  0.24366259066E+03  0.00000000000E+00 0.  1.
         35    2    1    2    0    0  0.00000000000E+00  0.00000000000E+00 -0.16505182316E+03  0.32227335816E+03  0.27679959005E+03 0.  0.
         25    1    3    3    0    0 -0.68928904898E+01 -0.33613364109E+02 -0.15216074012E+03  0.19680005340E+03  0.12000000000E+03 0.  0.
         25    1    3    3    0    0  0.68928904898E+01  0.33613364109E+02 -0.12891083042E+02  0.12547330476E+03  0.12000000000E+03 0.  0.
<mgrwt>
<rscale>  0 0.27679959E+03</rscale>
<asrwt>0</asrwt>
<pdfrwt beam="1">  1        2 0.12093965E-01 0.27679959E+03</pdfrwt>
<pdfrwt beam="2">  1       -2 0.37486552E-01 0.27679959E+03</pdfrwt>
<totfact> 0.33992684E+03</totfact>
</mgrwt>
</event>
<event>
 5    1  0.1132878E+001  0.2617518E+03  0.7818608E-02  0.1106095E+00
          2   -1    0    0  501    0  0.00000000000E+00  0.00000000000E+00  0.92831234524E+03  0.92831234524E+03  0.00000000000E+00 0. -1.
         -2   -1    0    0    0  501 -0.00000000000E+00 -0.00000000000E+00 -0.18451219445E+02  0.18451219445E+02  0.00000000000E+00 0. -1.
         35    2    1    2    0    0  0.00000000000E+00  0.00000000000E+00  0.90986112579E+03  0.94676356468E+03  0.26175175106E+03 0.  0.
         25    1    3    3    0    0  0.45765151756E+01  0.92059924929E+01  0.64017045891E+03  0.65140149773E+03  0.12000000000E+03 0.  0.
         25    1    3    3    0    0 -0.45765151756E+01 -0.92059924929E+01  0.26969066688E+03  0.29536206695E+03  0.12000000000E+03 0.  0.
<mgrwt>
<rscale>  0 0.26175175E+03</rscale>
<asrwt>0</asrwt>
<pdfrwt beam="1">  1        2 0.14281725E+00 0.26175175E+03</pdfrwt>
<pdfrwt beam="2">  1       -2 0.28386499E-02 0.26175175E+03</pdfrwt>
<totfact> 0.13328364E+04</totfact>
</mgrwt>
</event>
<event>
 5    1  0.1132878E+001  0.2726896E+03  0.7818608E-02  0.1099750E+00
         -2   -1    0    0    0  501 -0.00000000000E+00  0.00000000000E+00  0.14414741483E+03  0.14414741483E+03  0.00000000000E+00 0. -1.
          2   -1    0    0  501    0  0.00000000000E+00 -0.00000000000E+00 -0.12896451005E+03  0.12896451005E+03  0.00000000000E+00 0. -1.
         35    2    1    2    0    0  0.00000000000E+00  0.00000000000E+00  0.15182904778E+02  0.27311192489E+03  0.27268957244E+03 0.  0.
         25    1    3    3    0    0  0.26853143100E+02 -0.57175736369E+02  0.21746445483E+02  0.13734287027E+03  0.12000000000E+03 0.  0.
         25    1    3    3    0    0 -0.26853143100E+02  0.57175736369E+02 -0.65635407049E+01  0.13576905461E+03  0.12000000000E+03 0.  0.
<mgrwt>
<rscale>  0 0.27268957E+03</rscale>
<asrwt>0</asrwt>
<pdfrwt beam="1">  1        2 0.19840694E-01 0.27268957E+03</pdfrwt>
<pdfrwt beam="2">  1       -2 0.22176525E-01 0.27268957E+03</pdfrwt>
<totfact> 0.48876445E+03</totfact>
</mgrwt>
</event>
<event>
 5    1  0.1132878E+001  0.2751979E+03  0.7818608E-02  0.1098341E+00
          1   -1    0    0  501    0  0.00000000000E+00  0.00000000000E+00  0.12636980168E+03  0.12636980168E+03  0.00000000000E+00 0.  1.
         -1   -1    0    0    0  501 -0.00000000000E+00 -0.00000000000E+00 -0.14982587789E+03  0.14982587789E+03  0.00000000000E+00 0.  1.
         35    2    1    2    0    0  0.00000000000E+00  0.00000000000E+00 -0.23456076211E+02  0.27619567957E+03  0.27519786682E+03 0.  0.
         25    1    3    3    0    0  0.13889181840E+02 -0.34368083823E+02  0.44684231010E+02  0.13330699554E+03  0.12000000000E+03 0.  0.
         25    1    3    3    0    0 -0.13889181840E+02  0.34368083823E+02 -0.68140307221E+02  0.14288868404E+03  0.12000000000E+03 0.  0.
<mgrwt>
<rscale>  0 0.27519787E+03</rscale>
<asrwt>0</asrwt>
<pdfrwt beam="1">  1        1 0.19441508E-01 0.27519787E+03</pdfrwt>
<pdfrwt beam="2">  1       -1 0.23050135E-01 0.27519787E+03</pdfrwt>
<totfact> 0.42000839E+03</totfact>
</mgrwt>
</event>
<event>
 5    1  0.1132878E+001  0.2757008E+03  0.7818608E-02  0.1098060E+00
          1   -1    0    0  501    0  0.00000000000E+00  0.00000000000E+00  0.20510570240E+02  0.20510570240E+02  0.00000000000E+00 0.  1.
         -1   -1    0    0    0  501 -0.00000000000E+00 -0.00000000000E+00 -0.92648507530E+03  0.92648507530E+03  0.00000000000E+00 0.  1.
         35    2    1    2    0    0  0.00000000000E+00  0.00000000000E+00 -0.90597450506E+03  0.94699564554E+03  0.27570083216E+03 0.  0.
         25    1    3    3    0    0 -0.43671327712E+02  0.45273641301E+02 -0.36569500936E+03  0.38998682969E+03  0.12000000000E+03 0.  0.
         25    1    3    3    0    0  0.43671327712E+02 -0.45273641301E+02 -0.54027949570E+03  0.55700881585E+03  0.12000000000E+03 0.  0.
<mgrwt>
<rscale>  0 0.27570083E+03</rscale>
<asrwt>0</asrwt>
<pdfrwt beam="1">  1        1 0.31554724E-02 0.27570083E+03</pdfrwt>
<pdfrwt beam="2">  1       -1 0.14253616E+00 0.27570083E+03</pdfrwt>
<totfact> 0.13699406E+03</totfact>
</mgrwt>
</event>
<event>
 5    1  0.1132878E+001  0.2750178E+03  0.7818608E-02  0.1098442E+00
         -2   -1    0    0    0  501 -0.00000000000E+00  0.00000000000E+00  0.26854758353E+03  0.26854758353E+03  0.00000000000E+00 0. -1.
          2   -1    0    0  501    0  0.00000000000E+00 -0.00000000000E+00 -0.70410977353E+02  0.70410977353E+02  0.00000000000E+00 0. -1.
         35    2    1    2    0    0  0.00000000000E+00  0.00000000000E+00  0.19813660618E+03  0.33895856088E+03  0.27501780177E+03 0.  0.
         25    1    3    3    0    0  0.28895446813E+02  0.50542857976E+02  0.57836348346E+02  0.14537733843E+03  0.12000000000E+03 0.  0.
         25    1    3    3    0    0 -0.28895446813E+02 -0.50542857976E+02  0.14030025783E+03  0.19358122245E+03  0.12000000000E+03 0.  0.
<mgrwt>
<rscale>  0 0.27501780E+03</rscale>
<asrwt>0</asrwt>
<pdfrwt beam="1">  1        2 0.10832458E-01 0.27501780E+03</pdfrwt>
<pdfrwt beam="2">  1       -2 0.41315012E-01 0.27501780E+03</pdfrwt>
<totfact> 0.32316947E+03</totfact>
</mgrwt>
</event>
<event>
 5    1  0.1132878E+001  0.2770641E+03  0.7818608E-02  0.1097303E+00
          2   -1    0    0  501    0  0.00000000000E+00  0.00000000000E+00  0.20934245153E+03  0.20934245153E+03  0.00000000000E+00 0. -1.
         -2   -1    0    0    0  501 -0.00000000000E+00 -0.00000000000E+00 -0.91673387184E+02  0.91673387184E+02  0.00000000000E+00 0. -1.
         35    2    1    2    0    0  0.00000000000E+00  0.00000000000E+00  0.11766906434E+03  0.30101583871E+03  0.27706411975E+03 0.  0.
         25    1    3    3    0    0  0.71802317309E+01 -0.14711117572E+02  0.13190299698E+03  0.17907086117E+03  0.12000000000E+03 0.  0.
         25    1    3    3    0    0 -0.71802317309E+01  0.14711117572E+02 -0.14233932642E+02  0.12194497754E+03  0.12000000000E+03 0.  0.
<mgrwt>
<rscale>  0 0.27706412E+03</rscale>
<asrwt>0</asrwt>
<pdfrwt beam="1">  1        2 0.32206531E-01 0.27706412E+03</pdfrwt>
<pdfrwt beam="2">  1       -2 0.14103598E-01 0.27706412E+03</pdfrwt>
<totfact> 0.61039804E+03</totfact>
</mgrwt>
</event>
<event>
 5    1  0.1132878E+001  0.2751637E+03  0.7818608E-02  0.1098360E+00
         -2   -1    0    0    0  501 -0.00000000000E+00  0.00000000000E+00  0.12706531241E+03  0.12706531241E+03  0.00000000000E+00 0.  1.
          2   -1    0    0  501    0  0.00000000000E+00 -0.00000000000E+00 -0.14896875342E+03  0.14896875342E+03  0.00000000000E+00 0.  1.
         35    2    1    2    0    0  0.00000000000E+00  0.00000000000E+00 -0.21903441007E+02  0.27603406583E+03  0.27516366906E+03 0.  0.
         25    1    3    3    0    0 -0.24078735948E+02 -0.57618786972E+02 -0.36111946541E+02  0.14001350942E+03  0.12000000000E+03 0.  0.
         25    1    3    3    0    0  0.24078735948E+02  0.57618786972E+02  0.14208505534E+02  0.13602055641E+03  0.12000000000E+03 0.  0.
<mgrwt>
<rscale>  0 0.27516367E+03</rscale>
<asrwt>0</asrwt>
<pdfrwt beam="1">  1        2 0.22918270E-01 0.27516367E+03</pdfrwt>
<pdfrwt beam="2">  1       -2 0.19548510E-01 0.27516367E+03</pdfrwt>
<totfact> 0.51553368E+03</totfact>
</mgrwt>
</event>
<event>
 5    1  0.1132878E+001  0.2751322E+03  0.7818608E-02  0.1098378E+00
         -1   -1    0    0    0  501 -0.00000000000E+00  0.00000000000E+00  0.15182880689E+02  0.15182880689E+02  0.00000000000E+00 0.  1.
          1   -1    0    0  501    0  0.00000000000E+00 -0.00000000000E+00 -0.12464326182E+04  0.12464326182E+04  0.00000000000E+00 0.  1.
         35    2    1    2    0    0  0.00000000000E+00  0.00000000000E+00 -0.12312497375E+04  0.12616154989E+04  0.27513224260E+03 0.  0.
         25    1    3    3    0    0 -0.43629058924E+02  0.45236850228E+02 -0.50570982810E+03  0.52353824849E+03  0.12000000000E+03 0.  0.
         25    1    3    3    0    0  0.43629058924E+02 -0.45236850228E+02 -0.72553990943E+03  0.73807725041E+03  0.12000000000E+03 0.  0.
<mgrwt>
<rscale>  0 0.27513224E+03</rscale>
<asrwt>0</asrwt>
<pdfrwt beam="1">  1        1 0.19175887E+00 0.27513224E+03</pdfrwt>
<pdfrwt beam="2">  1       -1 0.23358278E-02 0.27513224E+03</pdfrwt>
<totfact> 0.57998378E+03</totfact>
</mgrwt>
</event>
<event>
 5    1  0.1132878E+001  0.2748209E+03  0.7818608E-02  0.1098552E+00
         -3   -1    0    0    0  501 -0.00000000000E+00  0.00000000000E+00  0.80380575685E+02  0.80380575685E+02  0.00000000000E+00 0. -1.
          3   -1    0    0  501    0  0.00000000000E+00 -0.00000000000E+00 -0.23490294793E+03  0.23490294793E+03  0.00000000000E+00 0. -1.
         35    2    1    2    0    0  0.00000000000E+00  0.00000000000E+00 -0.15452237224E+03  0.31528352361E+03  0.27482091758E+03 0.  0.
         25    1    3    3    0    0 -0.63971176470E+02 -0.37166217632E+01 -0.99492337085E+02  0.16853738409E+03  0.12000000000E+03 0.  0.
         25    1    3    3    0    0  0.63971176470E+02  0.37166217632E+01 -0.55030035159E+02  0.14674613953E+03  0.12000000000E+03 0.  0.
<mgrwt>
<rscale>  0 0.27482092E+03</rscale>
<asrwt>0</asrwt>
<pdfrwt beam="1">  1        3 0.36138915E-01 0.27482092E+03</pdfrwt>
<pdfrwt beam="2">  1       -3 0.12366243E-01 0.27482092E+03</pdfrwt>
<totfact> 0.99190752E+02</totfact>
</mgrwt>
</event>
<event>
 5    1  0.1132878E+001  0.2752530E+03  0.7818608E-02  0.1098310E+00
         -4   -1    0    0    0  501 -0.00000000000E+00  0.00000000000E+00  0.85060876492E+02  0.85060876492E+02  0.00000000000E+00 0.  1.
          4   -1    0    0  501    0  0.00000000000E+00 -0.00000000000E+00 -0.22267644648E+03  0.22267644648E+03  0.00000000000E+00 0.  1.
         35    2    1    2    0    0  0.00000000000E+00  0.00000000000E+00 -0.13761556998E+03  0.30773732297E+03  0.27525300152E+03 0.  0.
         25    1    3    3    0    0 -0.40814102549E+02  0.44543860469E+02 -0.35433413644E+02  0.13894413725E+03  0.12000000000E+03 0.  0.
         25    1    3    3    0    0  0.40814102549E+02 -0.44543860469E+02 -0.10218215634E+03  0.16879318572E+03  0.12000000000E+03 0.  0.
<mgrwt>
<rscale>  0 0.27525300E+03</rscale>
<asrwt>0</asrwt>
<pdfrwt beam="1">  1        4 0.34257914E-01 0.27525300E+03</pdfrwt>
<pdfrwt beam="2">  1       -4 0.13086289E-01 0.27525300E+03</pdfrwt>
<totfact> 0.73930551E+02</totfact>
</mgrwt>
</event>
<event>
 5    1  0.1132878E+001  0.2753116E+03  0.7818608E-02  0.1098278E+00
         -1   -1    0    0    0  501 -0.00000000000E+00  0.00000000000E+00  0.76926507498E+02  0.76926507498E+02  0.00000000000E+00 0. -1.
          1   -1    0    0  501    0  0.00000000000E+00 -0.00000000000E+00 -0.24632750520E+03  0.24632750520E+03  0.00000000000E+00 0. -1.
         35    2    1    2    0    0  0.00000000000E+00  0.00000000000E+00 -0.16940099770E+03  0.32325401269E+03  0.27531156660E+03 0.  0.
         25    1    3    3    0    0  0.47736375765E+02  0.17662423695E+02 -0.32740483779E+02  0.13439740347E+03  0.12000000000E+03 0.  0.
         25    1    3    3    0    0 -0.47736375765E+02 -0.17662423695E+02 -0.13666051392E+03  0.18885660922E+03  0.12000000000E+03 0.  0.
<mgrwt>
<rscale>  0 0.27531157E+03</rscale>
<asrwt>0</asrwt>
<pdfrwt beam="1">  1        1 0.37896539E-01 0.27531157E+03</pdfrwt>
<pdfrwt beam="2">  1       -1 0.11834847E-01 0.27531157E+03</pdfrwt>
<totfact> 0.52330925E+03</totfact>
</mgrwt>
</event>
<event>
 5    1  0.1132878E+001  0.2750775E+03  0.7818608E-02  0.1098408E+00
          2   -1    0    0  501    0  0.00000000000E+00  0.00000000000E+00  0.19170058606E+04  0.19170058606E+04  0.00000000000E+00 0.  1.
         -2   -1    0    0    0  501 -0.00000000000E+00 -0.00000000000E+00 -0.98679436009E+01  0.98679436009E+01  0.00000000000E+00 0.  1.
         35    2    1    2    0    0  0.00000000000E+00  0.00000000000E+00  0.19071379170E+04  0.19268738042E+04  0.27507748520E+03 0.  0.
         25    1    3    3    0    0 -0.49118204610E+02  0.43208064429E+02  0.84564647556E+03  0.85661980860E+03  0.12000000000E+03 0.  0.
         25    1    3    3    0    0  0.49118204610E+02 -0.43208064429E+02  0.10614914415E+04  0.10702539956E+04  0.12000000000E+03 0.  0.
<mgrwt>
<rscale>  0 0.27507749E+03</rscale>
<asrwt>0</asrwt>
<pdfrwt beam="1">  1        2 0.29492368E+00 0.27507749E+03</pdfrwt>
<pdfrwt beam="2">  1       -2 0.15181467E-02 0.27507749E+03</pdfrwt>
<totfact> 0.95227731E+03</totfact>
</mgrwt>
</event>
<event>
 5    1  0.1132878E+001  0.2751343E+03  0.7818608E-02  0.1098377E+00
          3   -1    0    0  501    0  0.00000000000E+00  0.00000000000E+00  0.67106839618E+02  0.67106839618E+02  0.00000000000E+00 0. -1.
         -3   -1    0    0    0  501 -0.00000000000E+00 -0.00000000000E+00 -0.28200878287E+03  0.28200878287E+03  0.00000000000E+00 0. -1.
         35    2    1    2    0    0  0.00000000000E+00  0.00000000000E+00 -0.21490194325E+03  0.34911562248E+03  0.27513428113E+03 0.  0.
         25    1    3    3    0    0 -0.29456561530E+02  0.51397876678E+02 -0.67019543695E+02  0.14966980317E+03  0.12000000000E+03 0.  0.
         25    1    3    3    0    0  0.29456561530E+02 -0.51397876678E+02 -0.14788239955E+03  0.19944581931E+03  0.12000000000E+03 0.  0.
<mgrwt>
<rscale>  0 0.27513428E+03</rscale>
<asrwt>0</asrwt>
<pdfrwt beam="1">  1        3 0.10324129E-01 0.27513428E+03</pdfrwt>
<pdfrwt beam="2">  1       -3 0.43385967E-01 0.27513428E+03</pdfrwt>
<totfact> 0.94239076E+02</totfact>
</mgrwt>
</event>
<event>
 5    1  0.1132878E+001  0.2756868E+03  0.7818608E-02  0.1098068E+00
          2   -1    0    0  501    0  0.00000000000E+00  0.00000000000E+00  0.47019467181E+02  0.47019467181E+02  0.00000000000E+00 0. -1.
         -2   -1    0    0    0  501 -0.00000000000E+00 -0.00000000000E+00 -0.40410500482E+03  0.40410500482E+03  0.00000000000E+00 0. -1.
         35    2    1    2    0    0  0.00000000000E+00  0.00000000000E+00 -0.35708553764E+03  0.45112447200E+03  0.27568679338E+03 0.  0.
         25    1    3    3    0    0  0.11051131815E+01 -0.67130482985E+02 -0.19433001049E+03  0.23805855582E+03  0.12000000000E+03 0.  0.
         25    1    3    3    0    0 -0.11051131815E+01  0.67130482985E+02 -0.16275552714E+03  0.21306591618E+03  0.12000000000E+03 0.  0.
<mgrwt>
<rscale>  0 0.27568679E+03</rscale>
<asrwt>0</asrwt>
<pdfrwt beam="1">  1        2 0.72337639E-02 0.27568679E+03</pdfrwt>
<pdfrwt beam="2">  1       -2 0.62170003E-01 0.27568679E+03</pdfrwt>
<totfact> 0.23704357E+03</totfact>
</mgrwt>
</event>
<event>
 5    1  0.1132878E+001  0.2747351E+03  0.7818608E-02  0.1098600E+00
          2   -1    0    0  501    0  0.00000000000E+00  0.00000000000E+00  0.30646556185E+04  0.30646556185E+04  0.00000000000E+00 0. -1.
         -2   -1    0    0    0  501 -0.00000000000E+00 -0.00000000000E+00 -0.61572465615E+01  0.61572465615E+01  0.00000000000E+00 0. -1.
         35    2    1    2    0    0  0.00000000000E+00  0.00000000000E+00  0.30584983720E+04  0.30708128651E+04  0.27473507435E+03 0.  0.
         25    1    3    3    0    0 -0.99106296275E+01  0.19894385087E+02  0.22340287749E+04  0.22373597329E+04  0.12000000000E+03 0.  0.
         25    1    3    3    0    0  0.99106296275E+01 -0.19894385087E+02  0.82446959704E+03  0.83345313221E+03  0.12000000000E+03 0.  0.
<mgrwt>
<rscale>  0 0.27473507E+03</rscale>
<asrwt>0</asrwt>
<pdfrwt beam="1">  1        2 0.47148426E+00 0.27473507E+03</pdfrwt>
<pdfrwt beam="2">  1       -2 0.94727115E-03 0.27473507E+03</pdfrwt>
<totfact> 0.43978328E+03</totfact>
</mgrwt>
</event>
<event>
 5    1  0.1132878E+001  0.2800647E+03  0.7818608E-02  0.1095654E+00
          2   -1    0    0  501    0  0.00000000000E+00  0.00000000000E+00  0.96858053803E+03  0.96858053803E+03  0.00000000000E+00 0.  1.
         -2   -1    0    0    0  501 -0.00000000000E+00 -0.00000000000E+00 -0.20245148746E+02  0.20245148746E+02  0.00000000000E+00 0.  1.
         35    2    1    2    0    0  0.00000000000E+00  0.00000000000E+00  0.94833538928E+03  0.98882568678E+03  0.28006468585E+03 0.  0.
         25    1    3    3    0    0 -0.63945125540E+02  0.35539629310E+01  0.35667173589E+03  0.38172809291E+03  0.12000000000E+03 0.  0.
         25    1    3    3    0    0  0.63945125540E+02 -0.35539629310E+01  0.59166365339E+03  0.60709759386E+03  0.12000000000E+03 0.  0.
<mgrwt>
<rscale>  0 0.28006469E+03</rscale>
<asrwt>0</asrwt>
<pdfrwt beam="1">  1        2 0.14901235E+00 0.28006469E+03</pdfrwt>
<pdfrwt beam="2">  1       -2 0.31146390E-02 0.28006469E+03</pdfrwt>
<totfact> 0.10978306E+04</totfact>
</mgrwt>
</event>
<event>
 5    1  0.1132878E+001  0.2745542E+03  0.7818608E-02  0.1098701E+00
         -1   -1    0    0    0  501 -0.00000000000E+00  0.00000000000E+00  0.27964699900E+02  0.27964699900E+02  0.00000000000E+00 0.  1.
          1   -1    0    0  501    0  0.00000000000E+00 -0.00000000000E+00 -0.67388540694E+03  0.67388540694E+03  0.00000000000E+00 0.  1.
         35    2    1    2    0    0  0.00000000000E+00  0.00000000000E+00 -0.64592070704E+03  0.70185010684E+03  0.27455420719E+03 0.  0.
         25    1    3    3    0    0  0.26358116465E+02 -0.60605413789E+02 -0.30049423282E+03  0.33024922474E+03  0.12000000000E+03 0.  0.
         25    1    3    3    0    0 -0.26358116465E+02  0.60605413789E+02 -0.34542647422E+03  0.37160088210E+03  0.12000000000E+03 0.  0.
<mgrwt>
<rscale>  0 0.27455421E+03</rscale>
<asrwt>0</asrwt>
<pdfrwt beam="1">  1        1 0.10367467E+00 0.27455421E+03</pdfrwt>
<pdfrwt beam="2">  1       -1 0.43022617E-02 0.27455421E+03</pdfrwt>
<totfact> 0.65526392E+03</totfact>
</mgrwt>
</event>
<event>
 5    1  0.1132878E+001  0.2754261E+03  0.7818608E-02  0.1098214E+00
          1   -1    0    0  501    0  0.00000000000E+00  0.00000000000E+00  0.40718049637E+03  0.40718049637E+03  0.00000000000E+00 0. -1.
         -1   -1    0    0    0  501 -0.00000000000E+00 -0.00000000000E+00 -0.46576094804E+02  0.46576094804E+02  0.00000000000E+00 0. -1.
         35    2    1    2    0    0  0.00000000000E+00  0.00000000000E+00  0.36060440157E+03  0.45375659118E+03  0.27542605107E+03 0.  0.
         25    1    3    3    0    0 -0.46800142640E+02  0.48021274655E+02  0.16665886498E+03  0.21603581519E+03  0.12000000000E+03 0.  0.
         25    1    3    3    0    0  0.46800142640E+02 -0.48021274655E+02  0.19394553659E+03  0.23772077599E+03  0.12000000000E+03 0.  0.
<mgrwt>
<rscale>  0 0.27542605E+03</rscale>
<asrwt>0</asrwt>
<pdfrwt beam="1">  1        1 0.62643151E-01 0.27542605E+03</pdfrwt>
<pdfrwt beam="2">  1       -1 0.71655533E-02 0.27542605E+03</pdfrwt>
<totfact> 0.60021719E+03</totfact>
</mgrwt>
</event>
<event>
 5    1  0.1132878E+001  0.2751054E+03  0.7818608E-02  0.1098393E+00
          2   -1    0    0  501    0  0.00000000000E+00  0.00000000000E+00  0.15702759456E+04  0.15702759456E+04  0.00000000000E+00 0. -1.
         -2   -1    0    0    0  501 -0.00000000000E+00 -0.00000000000E+00 -0.12049314284E+02  0.12049314284E+02  0.00000000000E+00 0. -1.
         35    2    1    2    0    0  0.00000000000E+00  0.00000000000E+00  0.15582266313E+04  0.15823252599E+04  0.27510542257E+03 0.  0.
         25    1    3    3    0    0 -0.54113278672E+02 -0.19908948961E+02  0.97803711551E+03  0.98705684360E+03  0.12000000000E+03 0.  0.
         25    1    3    3    0    0  0.54113278672E+02  0.19908948961E+02  0.58018951580E+03  0.59526841628E+03  0.12000000000E+03 0.  0.
<mgrwt>
<rscale>  0 0.27510542E+03</rscale>
<asrwt>0</asrwt>
<pdfrwt beam="1">  1        2 0.24158075E+00 0.27510542E+03</pdfrwt>
<pdfrwt beam="2">  1       -2 0.18537419E-02 0.27510542E+03</pdfrwt>
<totfact> 0.10819249E+04</totfact>
</mgrwt>
</event>
<event>
 5    1  0.1132878E+001  0.2745620E+03  0.7818608E-02  0.1098697E+00
         -1   -1    0    0    0  501 -0.00000000000E+00  0.00000000000E+00  0.23294757259E+02  0.23294757259E+02  0.00000000000E+00 0. -1.
          1   -1    0    0  501    0  0.00000000000E+00 -0.00000000000E+00 -0.80902666173E+03  0.80902666173E+03  0.00000000000E+00 0. -1.
         35    2    1    2    0    0  0.00000000000E+00  0.00000000000E+00 -0.78573190447E+03  0.83232141899E+03  0.27456204910E+03 0.  0.
         25    1    3    3    0    0  0.12776300282E+02 -0.65379117435E+02 -0.40166074285E+03  0.42446320829E+03  0.12000000000E+03 0.  0.
         25    1    3    3    0    0 -0.12776300282E+02  0.65379117435E+02 -0.38407116162E+03  0.40785821069E+03  0.12000000000E+03 0.  0.
<mgrwt>
<rscale>  0 0.27456205E+03</rscale>
<asrwt>0</asrwt>
<pdfrwt beam="1">  1        1 0.12446563E+00 0.27456205E+03</pdfrwt>
<pdfrwt beam="2">  1       -1 0.35838090E-02 0.27456205E+03</pdfrwt>
<totfact> 0.65470175E+03</totfact>
</mgrwt>
</event>
<event>
 5    1  0.1132878E+001  0.2705713E+03  0.7818608E-02  0.1100953E+00
         -2   -1    0    0    0  501 -0.00000000000E+00  0.00000000000E+00  0.44193793660E+02  0.44193793660E+02  0.00000000000E+00 0. -1.
          2   -1    0    0  501    0  0.00000000000E+00 -0.00000000000E+00 -0.41413513956E+03  0.41413513956E+03  0.00000000000E+00 0. -1.
         35    2    1    2    0    0  0.00000000000E+00  0.00000000000E+00 -0.36994134590E+03  0.45832893322E+03  0.27057126902E+03 0.  0.
         25    1    3    3    0    0 -0.15663200369E+02  0.41062506577E+02 -0.26016931502E+03  0.28986123882E+03  0.12000000000E+03 0.  0.
         25    1    3    3    0    0  0.15663200369E+02 -0.41062506577E+02 -0.10977203087E+03  0.16846769439E+03  0.12000000000E+03 0.  0.
<mgrwt>
<rscale>  0 0.27057127E+03</rscale>
<asrwt>0</asrwt>
<pdfrwt beam="1">  1        2 0.63713095E-01 0.27057127E+03</pdfrwt>
<pdfrwt beam="2">  1       -2 0.67990456E-02 0.27057127E+03</pdfrwt>
<totfact> 0.92989073E+03</totfact>
</mgrwt>
</event>
<event>
 5    1  0.1132878E+001  0.2705922E+03  0.7818608E-02  0.1100941E+00
          2   -1    0    0  501    0  0.00000000000E+00  0.00000000000E+00  0.95427150891E+03  0.95427150891E+03  0.00000000000E+00 0. -1.
         -2   -1    0    0    0  501 -0.00000000000E+00 -0.00000000000E+00 -0.19182209419E+02  0.19182209419E+02  0.00000000000E+00 0. -1.
         35    2    1    2    0    0  0.00000000000E+00  0.00000000000E+00  0.93508929949E+03  0.97345371833E+03  0.27059220925E+03 0.  0.
         25    1    3    3    0    0  0.50573238608E+02  0.93375660815E+00  0.33553518707E+03  0.35991997184E+03  0.12000000000E+03 0.  0.
         25    1    3    3    0    0 -0.50573238608E+02 -0.93375660815E+00  0.59955411242E+03  0.61353374649E+03  0.12000000000E+03 0.  0.
<mgrwt>
<rscale>  0 0.27059221E+03</rscale>
<asrwt>0</asrwt>
<pdfrwt beam="1">  1        2 0.14681096E+00 0.27059221E+03</pdfrwt>
<pdfrwt beam="2">  1       -2 0.29511099E-02 0.27059221E+03</pdfrwt>
<totfact> 0.12130054E+04</totfact>
</mgrwt>
</event>
<event>
 5    1  0.1132878E+001  0.2860582E+03  0.7818608E-02  0.1092425E+00
         -2   -1    0    0    0  501 -0.00000000000E+00  0.00000000000E+00  0.21391190461E+02  0.21391190461E+02  0.00000000000E+00 0. -1.
          2   -1    0    0  501    0  0.00000000000E+00 -0.00000000000E+00 -0.95634341512E+03  0.95634341512E+03  0.00000000000E+00 0. -1.
         35    2    1    2    0    0  0.00000000000E+00  0.00000000000E+00 -0.93495222466E+03  0.97773460558E+03  0.28605820484E+03 0.  0.
         25    1    3    3    0    0 -0.71332440890E+02 -0.26838016455E+02 -0.52138108360E+03  0.54041357366E+03  0.12000000000E+03 0.  0.
         25    1    3    3    0    0  0.71332440890E+02  0.26838016455E+02 -0.41357114105E+03  0.43732103192E+03  0.12000000000E+03 0.  0.
<mgrwt>
<rscale>  0 0.28605820E+03</rscale>
<asrwt>0</asrwt>
<pdfrwt beam="1">  1        2 0.14712976E+00 0.28605820E+03</pdfrwt>
<pdfrwt beam="2">  1       -2 0.32909523E-02 0.28605820E+03</pdfrwt>
<totfact> 0.10297895E+04</totfact>
</mgrwt>
</event>
<event>
 5    1  0.1132878E+001  0.2752407E+03  0.7818608E-02  0.1098317E+00
          2   -1    0    0  501    0  0.00000000000E+00  0.00000000000E+00  0.13280395247E+02  0.13280395247E+02  0.00000000000E+00 0. -1.
         -2   -1    0    0    0  501 -0.00000000000E+00 -0.00000000000E+00 -0.14261143361E+04  0.14261143361E+04  0.00000000000E+00 0. -1.
         35    2    1    2    0    0  0.00000000000E+00  0.00000000000E+00 -0.14128339409E+04  0.14393947314E+04  0.27524070956E+03 0.  0.
         25    1    3    3    0    0  0.33338536193E+02  0.55865003290E+02 -0.61478642088E+03  0.62975765171E+03  0.12000000000E+03 0.  0.
         25    1    3    3    0    0 -0.33338536193E+02 -0.55865003290E+02 -0.79804751998E+03  0.80963707965E+03  0.12000000000E+03 0.  0.
<mgrwt>
<rscale>  0 0.27524071E+03</rscale>
<asrwt>0</asrwt>
<pdfrwt beam="1">  1        2 0.20431391E-02 0.27524071E+03</pdfrwt>
<pdfrwt beam="2">  1       -2 0.21940206E+00 0.27524071E+03</pdfrwt>
<totfact> 0.58105801E+02</totfact>
</mgrwt>
</event>
<event>
 5    1  0.1132878E+001  0.2751966E+03  0.7818608E-02  0.1098342E+00
         -2   -1    0    0    0  501 -0.00000000000E+00  0.00000000000E+00  0.79933502741E+02  0.79933502741E+02  0.00000000000E+00 0. -1.
          2   -1    0    0  501    0  0.00000000000E+00 -0.00000000000E+00 -0.23686309144E+03  0.23686309144E+03  0.00000000000E+00 0. -1.
         35    2    1    2    0    0  0.00000000000E+00  0.00000000000E+00 -0.15692958870E+03  0.31679659418E+03  0.27519663202E+03 0.  0.
         25    1    3    3    0    0  0.75839347543E+01  0.64225798105E+02 -0.56903038833E+02  0.14771738231E+03  0.12000000000E+03 0.  0.
         25    1    3    3    0    0 -0.75839347543E+01 -0.64225798105E+02 -0.10002654987E+03  0.16907921187E+03  0.12000000000E+03 0.  0.
<mgrwt>
<rscale>  0 0.27519663E+03</rscale>
<asrwt>0</asrwt>
<pdfrwt beam="1">  1        2 0.36440476E-01 0.27519663E+03</pdfrwt>
<pdfrwt beam="2">  1       -2 0.12297462E-01 0.27519663E+03</pdfrwt>
<totfact> 0.66707970E+03</totfact>
</mgrwt>
</event>
<event>
 5    1  0.1132878E+001  0.2774513E+03  0.7818608E-02  0.1097089E+00
          3   -1    0    0  501    0  0.00000000000E+00  0.00000000000E+00  0.41280982397E+03  0.41280982397E+03  0.00000000000E+00 0.  1.
         -3   -1    0    0    0  501 -0.00000000000E+00 -0.00000000000E+00 -0.46619058832E+02  0.46619058832E+02  0.00000000000E+00 0.  1.
         35    2    1    2    0    0  0.00000000000E+00  0.00000000000E+00  0.36619076514E+03  0.45942888280E+03  0.27745129641E+03 0.  0.
         25    1    3    3    0    0 -0.11590180335E+02  0.36706501978E+02  0.27912425017E+03  0.30625487196E+03  0.12000000000E+03 0.  0.
         25    1    3    3    0    0  0.11590180335E+02 -0.36706501978E+02  0.87066514966E+02  0.15317401084E+03  0.12000000000E+03 0.  0.
<mgrwt>
<rscale>  0 0.27745130E+03</rscale>
<asrwt>0</asrwt>
<pdfrwt beam="1">  1        3 0.63509201E-01 0.27745130E+03</pdfrwt>
<pdfrwt beam="2">  1       -3 0.71721632E-02 0.27745130E+03</pdfrwt>
<totfact> 0.79355162E+02</totfact>
</mgrwt>
</event>
<event>
 5    1  0.1132878E+001  0.2746155E+03  0.7818608E-02  0.1098667E+00
         -1   -1    0    0    0  501 -0.00000000000E+00  0.00000000000E+00  0.11998958966E+03  0.11998958966E+03  0.00000000000E+00 0. -1.
          1   -1    0    0  501    0  0.00000000000E+00 -0.00000000000E+00 -0.15712550542E+03  0.15712550542E+03  0.00000000000E+00 0. -1.
         35    2    1    2    0    0  0.00000000000E+00  0.00000000000E+00 -0.37135915760E+02  0.27711509509E+03  0.27461554888E+03 0.  0.
         25    1    3    3    0    0  0.30939847495E+02 -0.58061804286E+02 -0.72868637730E+01  0.13704577944E+03  0.12000000000E+03 0.  0.
         25    1    3    3    0    0 -0.30939847495E+02  0.58061804286E+02 -0.29849051987E+02  0.14006931564E+03  0.12000000000E+03 0.  0.
<mgrwt>
<rscale>  0 0.27461555E+03</rscale>
<asrwt>0</asrwt>
<pdfrwt beam="1">  1        1 0.24173155E-01 0.27461555E+03</pdfrwt>
<pdfrwt beam="2">  1       -1 0.18459937E-01 0.27461555E+03</pdfrwt>
<totfact> 0.45621142E+03</totfact>
</mgrwt>
</event>
<event>
 5    1  0.1132878E+001  0.2748551E+03  0.7818608E-02  0.1098533E+00
          2   -1    0    0  501    0  0.00000000000E+00  0.00000000000E+00  0.25524932352E+03  0.25524932352E+03  0.00000000000E+00 0. -1.
         -2   -1    0    0    0  501 -0.00000000000E+00 -0.00000000000E+00 -0.73991716695E+02  0.73991716695E+02  0.00000000000E+00 0. -1.
         35    2    1    2    0    0  0.00000000000E+00  0.00000000000E+00  0.18125760683E+03  0.32924104022E+03  0.27485513008E+03 0.  0.
         25    1    3    3    0    0 -0.28188536048E+02 -0.50495584213E+02  0.13110795380E+03  0.18690557279E+03  0.12000000000E+03 0.  0.
         25    1    3    3    0    0  0.28188536048E+02  0.50495584213E+02  0.50149653026E+02  0.14233546743E+03  0.12000000000E+03 0.  0.
<mgrwt>
<rscale>  0 0.27485513E+03</rscale>
<asrwt>0</asrwt>
<pdfrwt beam="1">  1        2 0.39269126E-01 0.27485513E+03</pdfrwt>
<pdfrwt beam="2">  1       -2 0.11383341E-01 0.27485513E+03</pdfrwt>
<totfact> 0.69684500E+03</totfact>
</mgrwt>
</event>
<event>
 5    1  0.1132878E+001  0.2716204E+03  0.7818608E-02  0.1100356E+00
          2   -1    0    0  501    0  0.00000000000E+00  0.00000000000E+00  0.91791049367E+03  0.91791049367E+03  0.00000000000E+00 0. -1.
         -2   -1    0    0    0  501 -0.00000000000E+00 -0.00000000000E+00 -0.20093907782E+02  0.20093907782E+02  0.00000000000E+00 0. -1.
         35    2    1    2    0    0  0.00000000000E+00  0.00000000000E+00  0.89781658589E+03  0.93800440145E+03  0.27162038813E+03 0.  0.
         25    1    3    3    0    0  0.37633288932E+02 -0.50847320795E+02  0.42634369066E+03  0.44740435518E+03  0.12000000000E+03 0.  0.
         25    1    3    3    0    0 -0.37633288932E+02  0.50847320795E+02  0.47147289523E+03  0.49060004627E+03  0.12000000000E+03 0.  0.
<mgrwt>
<rscale>  0 0.27162039E+03</rscale>
<asrwt>0</asrwt>
<pdfrwt beam="1">  1        2 0.14121697E+00 0.27162039E+03</pdfrwt>
<pdfrwt beam="2">  1       -2 0.30913711E-02 0.27162039E+03</pdfrwt>
<totfact> 0.11937332E+04</totfact>
</mgrwt>
</event>
<event>
 5    1  0.1132878E+001  0.2738689E+03  0.7818608E-02  0.1099086E+00
         -2   -1    0    0    0  501 -0.00000000000E+00  0.00000000000E+00  0.14045362845E+03  0.14045362845E+03  0.00000000000E+00 0.  1.
          2   -1    0    0  501    0  0.00000000000E+00 -0.00000000000E+00 -0.13350345712E+03  0.13350345712E+03  0.00000000000E+00 0.  1.
         35    2    1    2    0    0  0.00000000000E+00  0.00000000000E+00  0.69501713310E+01  0.27395708557E+03  0.27386890998E+03 0.  0.
         25    1    3    3    0    0  0.14668185417E+01 -0.61790557006E+02  0.26522045012E+02  0.13756323405E+03  0.12000000000E+03 0.  0.
         25    1    3    3    0    0 -0.14668185417E+01  0.61790557006E+02 -0.19571873681E+02  0.13639385152E+03  0.12000000000E+03 0.  0.
<mgrwt>
<rscale>  0 0.27386891E+03</rscale>
<asrwt>0</asrwt>
<pdfrwt beam="1">  1        2 0.20538993E-01 0.27386891E+03</pdfrwt>
<pdfrwt beam="2">  1       -2 0.21608251E-01 0.27386891E+03</pdfrwt>
<totfact> 0.49147579E+03</totfact>
</mgrwt>
</event>
<event>
 5    1  0.1132878E+001  0.2753441E+03  0.7818608E-02  0.1098259E+00
          2   -1    0    0  501    0  0.00000000000E+00  0.00000000000E+00  0.21324412848E+03  0.21324412848E+03  0.00000000000E+00 0.  1.
         -2   -1    0    0    0  501 -0.00000000000E+00 -0.00000000000E+00 -0.88882153456E+02  0.88882153456E+02  0.00000000000E+00 0.  1.
         35    2    1    2    0    0  0.00000000000E+00  0.00000000000E+00  0.12436197502E+03  0.30212628194E+03  0.27534412905E+03 0.  0.
         25    1    3    3    0    0 -0.11893518269E+02  0.54330254657E+02  0.20249198321E+02  0.13380307314E+03  0.12000000000E+03 0.  0.
         25    1    3    3    0    0  0.11893518269E+02 -0.54330254657E+02  0.10411277670E+03  0.16832320880E+03  0.12000000000E+03 0.  0.
<mgrwt>
<rscale>  0 0.27534413E+03</rscale>
<asrwt>0</asrwt>
<pdfrwt beam="1">  1        2 0.32806789E-01 0.27534413E+03</pdfrwt>
<pdfrwt beam="2">  1       -2 0.13674178E-01 0.27534413E+03</pdfrwt>
<totfact> 0.62917651E+03</totfact>
</mgrwt>
</event>
<event>
 5    1  0.1132878E+001  0.2703421E+03  0.7818608E-02  0.1101084E+00
         -1   -1    0    0    0  501 -0.00000000000E+00  0.00000000000E+00  0.40723653859E+02  0.40723653859E+02  0.00000000000E+00 0.  1.
          1   -1    0    0  501    0  0.00000000000E+00 -0.00000000000E+00 -0.44866347631E+03  0.44866347631E+03  0.00000000000E+00 0.  1.
         35    2    1    2    0    0  0.00000000000E+00  0.00000000000E+00 -0.40793982245E+03  0.48938713017E+03  0.27034212478E+03 0.  0.
         25    1    3    3    0    0  0.49041224762E+02 -0.15277620976E+02 -0.26752928611E+03  0.29767493404E+03  0.12000000000E+03 0.  0.
         25    1    3    3    0    0 -0.49041224762E+02  0.15277620976E+02 -0.14041053634E+03  0.19171219613E+03  0.12000000000E+03 0.  0.
<mgrwt>
<rscale>  0 0.27034212E+03</rscale>
<asrwt>0</asrwt>
<pdfrwt beam="1">  1        1 0.69025155E-01 0.27034212E+03</pdfrwt>
<pdfrwt beam="2">  1       -1 0.62651771E-02 0.27034212E+03</pdfrwt>
<totfact> 0.64848401E+03</totfact>
</mgrwt>
</event>
<event>
 5    1  0.1132878E+001  0.2741964E+03  0.7818608E-02  0.1098902E+00
          1   -1    0    0  501    0  0.00000000000E+00  0.00000000000E+00  0.56570762389E+03  0.56570762389E+03  0.00000000000E+00 0. -1.
         -1   -1    0    0    0  501 -0.00000000000E+00 -0.00000000000E+00 -0.33225505272E+02  0.33225505272E+02  0.00000000000E+00 0. -1.
         35    2    1    2    0    0  0.00000000000E+00  0.00000000000E+00  0.53248211861E+03  0.59893312916E+03  0.27419643790E+03 0.  0.
         25    1    3    3    0    0  0.31475115546E+02  0.44688181058E+02  0.18427208480E+03  0.22659196293E+03  0.12000000000E+03 0.  0.
         25    1    3    3    0    0 -0.31475115546E+02 -0.44688181058E+02  0.34821003381E+03  0.37234116623E+03  0.12000000000E+03 0.  0.
<mgrwt>
<rscale>  0 0.27419644E+03</rscale>
<asrwt>0</asrwt>
<pdfrwt beam="1">  1        1 0.87031935E-01 0.27419644E+03</pdfrwt>
<pdfrwt beam="2">  1       -1 0.51116166E-02 0.27419644E+03</pdfrwt>
<totfact> 0.64713190E+03</totfact>
</mgrwt>
</event>
<event>
 5    1  0.1132878E+001  0.2747873E+03  0.7818608E-02  0.1098571E+00
          2   -1    0    0  501    0  0.00000000000E+00  0.00000000000E+00  0.18453471039E+04  0.18453471039E+04  0.00000000000E+00 0.  1.
         -2   -1    0    0    0  501 -0.00000000000E+00 -0.00000000000E+00 -0.10229523513E+02  0.10229523513E+02  0.00000000000E+00 0.  1.
         35    2    1    2    0    0  0.00000000000E+00  0.00000000000E+00  0.18351175804E+04  0.18555766274E+04  0.27478734752E+03 0.  0.
         25    1    3    3    0    0 -0.65347940040E+02 -0.81285033952E+01  0.99762850189E+03  0.10069752001E+04  0.12000000000E+03 0.  0.
         25    1    3    3    0    0  0.65347940040E+02  0.81285033952E+01  0.83748907849E+03  0.84860142730E+03  0.12000000000E+03 0.  0.
<mgrwt>
<rscale>  0 0.27478735E+03</rscale>
<asrwt>0</asrwt>
<pdfrwt beam="1">  1        2 0.28389929E+00 0.27478735E+03</pdfrwt>
<pdfrwt beam="2">  1       -2 0.15737743E-02 0.27478735E+03</pdfrwt>
<totfact> 0.98513288E+03</totfact>
</mgrwt>
</event>
<event>
 5    1  0.1132878E+001  0.2756389E+03  0.7818608E-02  0.1098095E+00
          1   -1    0    0  501    0  0.00000000000E+00  0.00000000000E+00  0.93843966314E+03  0.93843966314E+03  0.00000000000E+00 0. -1.
         -1   -1    0    0    0  501 -0.00000000000E+00 -0.00000000000E+00 -0.20240196446E+02  0.20240196446E+02  0.00000000000E+00 0. -1.
         35    2    1    2    0    0  0.00000000000E+00  0.00000000000E+00  0.91819946669E+03  0.95867985958E+03  0.27563891695E+03 0.  0.
         25    1    3    3    0    0  0.52189569316E+02 -0.27033998671E+02  0.57651163691E+03  0.59179409910E+03  0.12000000000E+03 0.  0.
         25    1    3    3    0    0 -0.52189569316E+02  0.27033998671E+02  0.34168782978E+03  0.36688576049E+03  0.12000000000E+03 0.  0.
<mgrwt>
<rscale>  0 0.27563892E+03</rscale>
<asrwt>0</asrwt>
<pdfrwt beam="1">  1        1 0.14437530E+00 0.27563892E+03</pdfrwt>
<pdfrwt beam="2">  1       -1 0.31138771E-02 0.27563892E+03</pdfrwt>
<totfact> 0.63545589E+03</totfact>
</mgrwt>
</event>
<event>
 5    1  0.1132878E+001  0.2743156E+03  0.7818608E-02  0.1098835E+00
          2   -1    0    0  501    0  0.00000000000E+00  0.00000000000E+00  0.21099653364E+03  0.21099653364E+03  0.00000000000E+00 0.  1.
         -2   -1    0    0    0  501 -0.00000000000E+00 -0.00000000000E+00 -0.89159134161E+02  0.89159134161E+02  0.00000000000E+00 0.  1.
         35    2    1    2    0    0  0.00000000000E+00  0.00000000000E+00  0.12183739948E+03  0.30015566780E+03  0.27431564483E+03 0.  0.
         25    1    3    3    0    0  0.50878281646E+02 -0.31769253800E+02  0.29693129390E+02  0.13740293652E+03  0.12000000000E+03 0.  0.
         25    1    3    3    0    0 -0.50878281646E+02  0.31769253800E+02  0.92144270087E+02  0.16275273128E+03  0.12000000000E+03 0.  0.
<mgrwt>
<rscale>  0 0.27431564E+03</rscale>
<asrwt>0</asrwt>
<pdfrwt beam="1">  1        2 0.32461005E-01 0.27431564E+03</pdfrwt>
<pdfrwt beam="2">  1       -2 0.13716790E-01 0.27431564E+03</pdfrwt>
<totfact> 0.63316979E+03</totfact>
</mgrwt>
</event>
<event>
 5    1  0.1132878E+001  0.2747722E+03  0.7818608E-02  0.1098579E+00
          2   -1    0    0  501    0  0.00000000000E+00  0.00000000000E+00  0.40118613611E+03  0.40118613611E+03  0.00000000000E+00 0.  1.
         -2   -1    0    0    0  501 -0.00000000000E+00 -0.00000000000E+00 -0.47047853866E+02  0.47047853866E+02  0.00000000000E+00 0.  1.
         35    2    1    2    0    0  0.00000000000E+00  0.00000000000E+00  0.35413828225E+03  0.44823398998E+03  0.27477224536E+03 0.  0.
         25    1    3    3    0    0 -0.20902425492E+02 -0.25743755649E+02  0.27184282246E+03  0.29899527165E+03  0.12000000000E+03 0.  0.
         25    1    3    3    0    0  0.20902425492E+02  0.25743755649E+02  0.82295459785E+02  0.14923871833E+03  0.12000000000E+03 0.  0.
<mgrwt>
<rscale>  0 0.27477225E+03</rscale>
<asrwt>0</asrwt>
<pdfrwt beam="1">  1        2 0.61720942E-01 0.27477225E+03</pdfrwt>
<pdfrwt beam="2">  1       -2 0.72381316E-02 0.27477225E+03</pdfrwt>
<totfact> 0.87423215E+03</totfact>
</mgrwt>
</event>
<event>
 5    1  0.1132878E+001  0.2768414E+03  0.7818608E-02  0.1097427E+00
          2   -1    0    0  501    0  0.00000000000E+00  0.00000000000E+00  0.80182161265E+02  0.80182161265E+02  0.00000000000E+00 0. -1.
         -2   -1    0    0    0  501 -0.00000000000E+00 -0.00000000000E+00 -0.23895949691E+03  0.23895949691E+03  0.00000000000E+00 0. -1.
         35    2    1    2    0    0  0.00000000000E+00  0.00000000000E+00 -0.15877733564E+03  0.31914165817E+03  0.27684139081E+03 0.  0.
         25    1    3    3    0    0  0.12652476229E+02  0.65873051390E+02 -0.98010690473E+02  0.16883553980E+03  0.12000000000E+03 0.  0.
         25    1    3    3    0    0 -0.12652476229E+02 -0.65873051390E+02 -0.60766645171E+02  0.15030611837E+03  0.12000000000E+03 0.  0.
<mgrwt>
<rscale>  0 0.27684139E+03</rscale>
<asrwt>0</asrwt>
<pdfrwt beam="1">  1        2 0.12335717E-01 0.27684139E+03</pdfrwt>
<pdfrwt beam="2">  1       -2 0.36762999E-01 0.27684139E+03</pdfrwt>
<totfact> 0.34426378E+03</totfact>
</mgrwt>
</event>
<event>
 5    1  0.1132878E+001  0.2749414E+03  0.7818608E-02  0.1098484E+00
          1   -1    0    0  501    0  0.00000000000E+00  0.00000000000E+00  0.81012050289E+02  0.81012050289E+02  0.00000000000E+00 0.  1.
         -1   -1    0    0    0  501 -0.00000000000E+00 -0.00000000000E+00 -0.23327624157E+03  0.23327624157E+03  0.00000000000E+00 0.  1.
         35    2    1    2    0    0  0.00000000000E+00  0.00000000000E+00 -0.15226419128E+03  0.31428829186E+03  0.27494135093E+03 0.  0.
         25    1    3    3    0    0 -0.42271432239E+02  0.27544172961E+02 -0.25619667141E+02  0.13267223821E+03  0.12000000000E+03 0.  0.
         25    1    3    3    0    0  0.42271432239E+02 -0.27544172961E+02 -0.12664452414E+03  0.18161605365E+03  0.12000000000E+03 0.  0.
<mgrwt>
<rscale>  0 0.27494135E+03</rscale>
<asrwt>0</asrwt>
<pdfrwt beam="1">  1        1 0.12463393E-01 0.27494135E+03</pdfrwt>
<pdfrwt beam="2">  1       -1 0.35888652E-01 0.27494135E+03</pdfrwt>
<totfact> 0.35515702E+03</totfact>
</mgrwt>
</event>
<event>
 5    1  0.1132878E+001  0.2749118E+03  0.7818608E-02  0.1098501E+00
          2   -1    0    0  501    0  0.00000000000E+00  0.00000000000E+00  0.16614245103E+02  0.16614245103E+02  0.00000000000E+00 0. -1.
         -2   -1    0    0    0  501 -0.00000000000E+00 -0.00000000000E+00 -0.11372240967E+04  0.11372240967E+04  0.00000000000E+00 0. -1.
         35    2    1    2    0    0  0.00000000000E+00  0.00000000000E+00 -0.11206098516E+04  0.11538383418E+04  0.27491176679E+03 0.  0.
         25    1    3    3    0    0  0.63110122869E+02 -0.20584402446E+01 -0.46580020221E+03  0.48513601512E+03  0.12000000000E+03 0.  0.
         25    1    3    3    0    0 -0.63110122869E+02  0.20584402446E+01 -0.65480964938E+03  0.66870232668E+03  0.12000000000E+03 0.  0.
<mgrwt>
<rscale>  0 0.27491177E+03</rscale>
<asrwt>0</asrwt>
<pdfrwt beam="1">  1        2 0.25560366E-02 0.27491177E+03</pdfrwt>
<pdfrwt beam="2">  1       -2 0.17495763E+00 0.27491177E+03</pdfrwt>
<totfact> 0.82152418E+02</totfact>
</mgrwt>
</event>
<event>
 5    1  0.1132878E+001  0.2747333E+03  0.7818608E-02  0.1098601E+00
         -2   -1    0    0    0  501 -0.00000000000E+00  0.00000000000E+00  0.19330295231E+02  0.19330295231E+02  0.00000000000E+00 0. -1.
          2   -1    0    0  501    0  0.00000000000E+00 -0.00000000000E+00 -0.97616733232E+03  0.97616733232E+03  0.00000000000E+00 0. -1.
         35    2    1    2    0    0  0.00000000000E+00  0.00000000000E+00 -0.95683703709E+03  0.99549762755E+03  0.27473334511E+03 0.  0.
         25    1    3    3    0    0 -0.11958847483E+02 -0.47838250088E+02 -0.64200243067E+03  0.65497987235E+03  0.12000000000E+03 0.  0.
         25    1    3    3    0    0  0.11958847483E+02  0.47838250088E+02 -0.31483460642E+03  0.34051775520E+03  0.12000000000E+03 0.  0.
<mgrwt>
<rscale>  0 0.27473335E+03</rscale>
<asrwt>0</asrwt>
<pdfrwt beam="1">  1        2 0.15017960E+00 0.27473335E+03</pdfrwt>
<pdfrwt beam="2">  1       -2 0.29738914E-02 0.27473335E+03</pdfrwt>
<totfact> 0.11627116E+04</totfact>
</mgrwt>
</event>
<event>
 5    1  0.1132878E+001  0.2693493E+03  0.7818608E-02  0.1101653E+00
          1   -1    0    0  501    0  0.00000000000E+00  0.00000000000E+00  0.54569220007E+03  0.54569220007E+03  0.00000000000E+00 0. -1.
         -1   -1    0    0    0  501 -0.00000000000E+00 -0.00000000000E+00 -0.33237152698E+02  0.33237152698E+02  0.00000000000E+00 0. -1.
         35    2    1    2    0    0  0.00000000000E+00  0.00000000000E+00  0.51245504737E+03  0.57892935276E+03  0.26934925268E+03 0.  0.
         25    1    3    3    0    0  0.23344763840E+02  0.40621563055E+02  0.17182113881E+03  0.21475007131E+03  0.12000000000E+03 0.  0.
         25    1    3    3    0    0 -0.23344763840E+02 -0.40621563055E+02  0.34063390856E+03  0.36417928146E+03  0.12000000000E+03 0.  0.
<mgrwt>
<rscale>  0 0.26934925E+03</rscale>
<asrwt>0</asrwt>
<pdfrwt beam="1">  1        1 0.83952640E-01 0.26934925E+03</pdfrwt>
<pdfrwt beam="2">  1       -1 0.51134085E-02 0.26934925E+03</pdfrwt>
<totfact> 0.67890624E+03</totfact>
</mgrwt>
</event>
<event>
 5    1  0.1132878E+001  0.2756596E+03  0.7818608E-02  0.1098083E+00
          2   -1    0    0  501    0  0.00000000000E+00  0.00000000000E+00  0.95969870416E+03  0.95969870416E+03  0.00000000000E+00 0. -1.
         -2   -1    0    0    0  501 -0.00000000000E+00 -0.00000000000E+00 -0.19794806604E+02  0.19794806604E+02  0.00000000000E+00 0. -1.
         35    2    1    2    0    0  0.00000000000E+00  0.00000000000E+00  0.93990389756E+03  0.97949351077E+03  0.27565957446E+03 0.  0.
         25    1    3    3    0    0 -0.21981208531E+02 -0.63996138203E+02  0.45472211921E+03  0.47513249198E+03  0.12000000000E+03 0.  0.
         25    1    3    3    0    0  0.21981208531E+02  0.63996138203E+02  0.48518177835E+03  0.50436101879E+03  0.12000000000E+03 0.  0.
<mgrwt>
<rscale>  0 0.27565957E+03</rscale>
<asrwt>0</asrwt>
<pdfrwt beam="1">  1        2 0.14764592E+00 0.27565957E+03</pdfrwt>
<pdfrwt beam="2">  1       -2 0.30453556E-02 0.27565957E+03</pdfrwt>
<totfact> 0.11492545E+04</totfact>
</mgrwt>
</event>
<event>
 5    1  0.1132878E+001  0.2755130E+03  0.7818608E-02  0.1098165E+00
         -2   -1    0    0    0  501 -0.00000000000E+00  0.00000000000E+00  0.78925058893E+02  0.78925058893E+02  0.00000000000E+00 0.  1.
          2   -1    0    0  501    0  0.00000000000E+00 -0.00000000000E+00 -0.24044150234E+03  0.24044150234E+03  0.00000000000E+00 0.  1.
         35    2    1    2    0    0  0.00000000000E+00  0.00000000000E+00 -0.16151644344E+03  0.31936656123E+03  0.27551304675E+03 0.  0.
         25    1    3    3    0    0  0.35114588869E+01  0.48750595887E+02 -0.13497851709E+03  0.18710465259E+03  0.12000000000E+03 0.  0.
         25    1    3    3    0    0 -0.35114588869E+01 -0.48750595887E+02 -0.26537926351E+02  0.13226190864E+03  0.12000000000E+03 0.  0.
<mgrwt>
<rscale>  0 0.27551305E+03</rscale>
<asrwt>0</asrwt>
<pdfrwt beam="1">  1        2 0.36991000E-01 0.27551305E+03</pdfrwt>
<pdfrwt beam="2">  1       -2 0.12142317E-01 0.27551305E+03</pdfrwt>
<totfact> 0.66997954E+03</totfact>
</mgrwt>
</event>
<event>
 5    1  0.1132878E+001  0.2749750E+03  0.7818608E-02  0.1098466E+00
         -2   -1    0    0    0  501 -0.00000000000E+00  0.00000000000E+00  0.61612445217E+02  0.61612445217E+02  0.00000000000E+00 0. -1.
          2   -1    0    0  501    0  0.00000000000E+00 -0.00000000000E+00 -0.30680187480E+03  0.30680187480E+03  0.00000000000E+00 0. -1.
         35    2    1    2    0    0  0.00000000000E+00  0.00000000000E+00 -0.24518942958E+03  0.36841432001E+03  0.27497500762E+03 0.  0.
         25    1    3    3    0    0 -0.22111646190E+01  0.66206068756E+02 -0.10824679787E+03  0.17465824355E+03  0.12000000000E+03 0.  0.
         25    1    3    3    0    0  0.22111646190E+01 -0.66206068756E+02 -0.13694263171E+03  0.19375607647E+03  0.12000000000E+03 0.  0.
<mgrwt>
<rscale>  0 0.27497501E+03</rscale>
<asrwt>0</asrwt>
<pdfrwt beam="1">  1        2 0.47200289E-01 0.27497501E+03</pdfrwt>
<pdfrwt beam="2">  1       -2 0.94788376E-02 0.27497501E+03</pdfrwt>
<totfact> 0.76551288E+03</totfact>
</mgrwt>
</event>
<event>
 5    1  0.1132878E+001  0.2696774E+03  0.7818608E-02  0.1101464E+00
          1   -1    0    0  501    0  0.00000000000E+00  0.00000000000E+00  0.78978838735E+02  0.78978838735E+02  0.00000000000E+00 0.  1.
         -1   -1    0    0    0  501 -0.00000000000E+00 -0.00000000000E+00 -0.23020685562E+03  0.23020685562E+03  0.00000000000E+00 0.  1.
         35    2    1    2    0    0  0.00000000000E+00  0.00000000000E+00 -0.15122801688E+03  0.30918569435E+03  0.26967736372E+03 0.  0.
         25    1    3    3    0    0  0.18588888203E+02  0.87754459828E+01 -0.14206085859E+03  0.18709313926E+03  0.12000000000E+03 0.  0.
         25    1    3    3    0    0 -0.18588888203E+02 -0.87754459828E+01 -0.91671582946E+01  0.12209255509E+03  0.12000000000E+03 0.  0.
<mgrwt>
<rscale>  0 0.26967736E+03</rscale>
<asrwt>0</asrwt>
<pdfrwt beam="1">  1        1 0.12150591E-01 0.26967736E+03</pdfrwt>
<pdfrwt beam="2">  1       -1 0.35416439E-01 0.26967736E+03</pdfrwt>
<totfact> 0.37571308E+03</totfact>
</mgrwt>
</event>
<event>
 5    1  0.1132878E+001  0.2767058E+03  0.7818608E-02  0.1097502E+00
         -2   -1    0    0    0  501 -0.00000000000E+00  0.00000000000E+00  0.74516129447E+01  0.74516129447E+01  0.00000000000E+00 0. -1.
          2   -1    0    0  501    0  0.00000000000E+00 -0.00000000000E+00 -0.25687757501E+04  0.25687757501E+04  0.00000000000E+00 0. -1.
         35    2    1    2    0    0  0.00000000000E+00  0.00000000000E+00 -0.25613241371E+04  0.25762273630E+04  0.27670578332E+03 0.  0.
         25    1    3    3    0    0 -0.42797828080E+02  0.28466024533E+02 -0.17072705407E+04  0.17122542649E+04  0.12000000000E+03 0.  0.
         25    1    3    3    0    0  0.42797828080E+02 -0.28466024533E+02 -0.85405359644E+03  0.86397309810E+03  0.12000000000E+03 0.  0.
<mgrwt>
<rscale>  0 0.27670578E+03</rscale>
<asrwt>0</asrwt>
<pdfrwt beam="1">  1        2 0.39519651E+00 0.27670578E+03</pdfrwt>
<pdfrwt beam="2">  1       -2 0.11464013E-02 0.27670578E+03</pdfrwt>
<totfact> 0.64231776E+03</totfact>
</mgrwt>
</event>
<event>
 5    1  0.1132878E+001  0.2751342E+03  0.7818608E-02  0.1098377E+00
         -2   -1    0    0    0  501 -0.00000000000E+00  0.00000000000E+00  0.12451816337E+02  0.12451816337E+02  0.00000000000E+00 0. -1.
          2   -1    0    0  501    0  0.00000000000E+00 -0.00000000000E+00 -0.15198348834E+04  0.15198348834E+04  0.00000000000E+00 0. -1.
         35    2    1    2    0    0  0.00000000000E+00  0.00000000000E+00 -0.15073830671E+04  0.15322866998E+04  0.27513418422E+03 0.  0.
         25    1    3    3    0    0 -0.33908124646E+02 -0.17915275141E+02 -0.10614634997E+04  0.10689132234E+04  0.12000000000E+03 0.  0.
         25    1    3    3    0    0  0.33908124646E+02  0.17915275141E+02 -0.44591956736E+03  0.46337347632E+03  0.12000000000E+03 0.  0.
<mgrwt>
<rscale>  0 0.27513418E+03</rscale>
<asrwt>0</asrwt>
<pdfrwt beam="1">  1        2 0.23382064E+00 0.27513418E+03</pdfrwt>
<pdfrwt beam="2">  1       -2 0.19156650E-02 0.27513418E+03</pdfrwt>
<totfact> 0.10967268E+04</totfact>
</mgrwt>
</event>
<event>
 5    1  0.1132878E+001  0.2747110E+03  0.7818608E-02  0.1098613E+00
         -1   -1    0    0    0  501 -0.00000000000E+00  0.00000000000E+00  0.41906649215E+02  0.41906649215E+02  0.00000000000E+00 0.  1.
          1   -1    0    0  501    0  0.00000000000E+00 -0.00000000000E+00 -0.45020371312E+03  0.45020371312E+03  0.00000000000E+00 0.  1.
         35    2    1    2    0    0  0.00000000000E+00  0.00000000000E+00 -0.40829706390E+03  0.49211036233E+03  0.27471096870E+03 0.  0.
         25    1    3    3    0    0 -0.25850074942E+02  0.58390702614E+02 -0.23947218294E+03  0.27536271884E+03  0.12000000000E+03 0.  0.
         25    1    3    3    0    0  0.25850074942E+02 -0.58390702614E+02 -0.16882488096E+03  0.21674764349E+03  0.12000000000E+03 0.  0.
<mgrwt>
<rscale>  0 0.27471097E+03</rscale>
<asrwt>0</asrwt>
<pdfrwt beam="1">  1        1 0.69262111E-01 0.27471097E+03</pdfrwt>
<pdfrwt beam="2">  1       -1 0.64471767E-02 0.27471097E+03</pdfrwt>
<totfact> 0.61856121E+03</totfact>
</mgrwt>
</event>
<event>
 5    1  0.1132878E+001  0.2744766E+03  0.7818608E-02  0.1098745E+00
         -2   -1    0    0    0  501 -0.00000000000E+00  0.00000000000E+00  0.83419941453E+02  0.83419941453E+02  0.00000000000E+00 0.  1.
          2   -1    0    0  501    0  0.00000000000E+00 -0.00000000000E+00 -0.22577759125E+03  0.22577759125E+03  0.00000000000E+00 0.  1.
         35    2    1    2    0    0  0.00000000000E+00  0.00000000000E+00 -0.14235764980E+03  0.30919753270E+03  0.27447661790E+03 0.  0.
         25    1    3    3    0    0 -0.22893240166E+02 -0.20001037306E+02 -0.44371181134E+01  0.12387021416E+03  0.12000000000E+03 0.  0.
         25    1    3    3    0    0  0.22893240166E+02  0.20001037306E+02 -0.13792053168E+03  0.18532731854E+03  0.12000000000E+03 0.  0.
<mgrwt>
<rscale>  0 0.27447662E+03</rscale>
<asrwt>0</asrwt>
<pdfrwt beam="1">  1        2 0.34735014E-01 0.27447662E+03</pdfrwt>
<pdfrwt beam="2">  1       -2 0.12833837E-01 0.27447662E+03</pdfrwt>
<totfact> 0.65561732E+03</totfact>
</mgrwt>
</event>
<event>
 5    1  0.1132878E+001  0.2753250E+03  0.7818608E-02  0.1098270E+00
         -1   -1    0    0    0  501 -0.00000000000E+00  0.00000000000E+00  0.81483469430E+02  0.81483469430E+02  0.00000000000E+00 0. -1.
          1   -1    0    0  501    0  0.00000000000E+00 -0.00000000000E+00 -0.23257436809E+03  0.23257436809E+03  0.00000000000E+00 0. -1.
         35    2    1    2    0    0  0.00000000000E+00  0.00000000000E+00 -0.15109089866E+03  0.31405783752E+03  0.27532501821E+03 0.  0.
         25    1    3    3    0    0 -0.41791991618E+02  0.52359884306E+02 -0.84587696951E+02  0.16137907709E+03  0.12000000000E+03 0.  0.
         25    1    3    3    0    0  0.41791991618E+02 -0.52359884306E+02 -0.66503201708E+02  0.15267876043E+03  0.12000000000E+03 0.  0.
<mgrwt>
<rscale>  0 0.27532502E+03</rscale>
<asrwt>0</asrwt>
<pdfrwt beam="1">  1        1 0.35780672E-01 0.27532502E+03</pdfrwt>
<pdfrwt beam="2">  1       -1 0.12535918E-01 0.27532502E+03</pdfrwt>
<totfact> 0.51406163E+03</totfact>
</mgrwt>
</event>
<event>
 5    1  0.1132878E+001  0.2745174E+03  0.7818608E-02  0.1098722E+00
          1   -1    0    0  501    0  0.00000000000E+00  0.00000000000E+00  0.20890242092E+04  0.20890242092E+04  0.00000000000E+00 0. -1.
         -1   -1    0    0    0  501 -0.00000000000E+00 -0.00000000000E+00 -0.90185394093E+01  0.90185394093E+01  0.00000000000E+00 0. -1.
         35    2    1    2    0    0  0.00000000000E+00  0.00000000000E+00  0.20800056698E+04  0.20980427486E+04  0.27451737401E+03 0.  0.
         25    1    3    3    0    0  0.44842906561E+02  0.48853129811E+02  0.99021831754E+03  0.99966485932E+03  0.12000000000E+03 0.  0.
         25    1    3    3    0    0 -0.44842906561E+02 -0.48853129811E+02  0.10897873523E+04  0.10983778893E+04  0.12000000000E+03 0.  0.
<mgrwt>
<rscale>  0 0.27451737E+03</rscale>
<asrwt>0</asrwt>
<pdfrwt beam="1">  1        1 0.32138795E+00 0.27451737E+03</pdfrwt>
<pdfrwt beam="2">  1       -1 0.13874693E-02 0.27451737E+03</pdfrwt>
<totfact> 0.34525472E+03</totfact>
</mgrwt>
</event>
<event>
 5    1  0.1132878E+001  0.2729243E+03  0.7818608E-02  0.1099617E+00
         -2   -1    0    0    0  501 -0.00000000000E+00  0.00000000000E+00  0.18584451007E+03  0.18584451007E+03  0.00000000000E+00 0.  1.
          2   -1    0    0  501    0  0.00000000000E+00 -0.00000000000E+00 -0.10020164206E+03  0.10020164206E+03  0.00000000000E+00 0.  1.
         35    2    1    2    0    0  0.00000000000E+00  0.00000000000E+00  0.85642868009E+02  0.28604615212E+03  0.27292434905E+03 0.  0.
         25    1    3    3    0    0 -0.28534612391E+02 -0.58368260081E+02  0.43786114355E+02  0.14331190355E+03  0.12000000000E+03 0.  0.
         25    1    3    3    0    0  0.28534612391E+02  0.58368260081E+02  0.41856753654E+02  0.14273424857E+03  0.12000000000E+03 0.  0.
<mgrwt>
<rscale>  0 0.27292435E+03</rscale>
<asrwt>0</asrwt>
<pdfrwt beam="1">  1        2 0.15415637E-01 0.27292435E+03</pdfrwt>
<pdfrwt beam="2">  1       -2 0.28591463E-01 0.27292435E+03</pdfrwt>
<totfact> 0.41850473E+03</totfact>
</mgrwt>
</event>
<event>
 5    1  0.1132878E+001  0.2753507E+03  0.7818608E-02  0.1098256E+00
         -1   -1    0    0    0  501 -0.00000000000E+00  0.00000000000E+00  0.63979648976E+02  0.63979648976E+02  0.00000000000E+00 0. -1.
          1   -1    0    0  501    0  0.00000000000E+00 -0.00000000000E+00 -0.29625822324E+03  0.29625822324E+03  0.00000000000E+00 0. -1.
         35    2    1    2    0    0  0.00000000000E+00  0.00000000000E+00 -0.23227857426E+03  0.36023787222E+03  0.27535066464E+03 0.  0.
         25    1    3    3    0    0  0.21682848726E+02 -0.52140438174E+02 -0.67790563493E+02  0.14894405567E+03  0.12000000000E+03 0.  0.
         25    1    3    3    0    0 -0.21682848726E+02  0.52140438174E+02 -0.16448801077E+03  0.21129381654E+03  0.12000000000E+03 0.  0.
<mgrwt>
<rscale>  0 0.27535066E+03</rscale>
<asrwt>0</asrwt>
<pdfrwt beam="1">  1        1 0.45578189E-01 0.27535066E+03</pdfrwt>
<pdfrwt beam="2">  1       -1 0.98430228E-02 0.27535066E+03</pdfrwt>
<totfact> 0.55255202E+03</totfact>
</mgrwt>
</event>
<event>
 5    1  0.1132878E+001  0.2835383E+03  0.7818608E-02  0.1093772E+00
          1   -1    0    0  501    0  0.00000000000E+00  0.00000000000E+00  0.43794722507E+03  0.43794722507E+03  0.00000000000E+00 0. -1.
         -1   -1    0    0    0  501 -0.00000000000E+00 -0.00000000000E+00 -0.45892495964E+02  0.45892495964E+02  0.00000000000E+00 0. -1.
         35    2    1    2    0    0  0.00000000000E+00  0.00000000000E+00  0.39205472911E+03  0.48383972104E+03  0.28353829554E+03 0.  0.
         25    1    3    3    0    0 -0.33497201463E+02 -0.57772149017E+02  0.13596648100E+03  0.19325260067E+03  0.12000000000E+03 0.  0.
         25    1    3    3    0    0  0.33497201463E+02  0.57772149017E+02  0.25608824810E+03  0.29058712037E+03  0.12000000000E+03 0.  0.
<mgrwt>
<rscale>  0 0.28353830E+03</rscale>
<asrwt>0</asrwt>
<pdfrwt beam="1">  1        1 0.67376493E-01 0.28353830E+03</pdfrwt>
<pdfrwt beam="2">  1       -1 0.70603843E-02 0.28353830E+03</pdfrwt>
<totfact> 0.55919104E+03</totfact>
</mgrwt>
</event>
<event>
 5    1  0.1132878E+001  0.2747449E+03  0.7818608E-02  0.1098594E+00
          1   -1    0    0  501    0  0.00000000000E+00  0.00000000000E+00  0.10836114386E+04  0.10836114386E+04  0.00000000000E+00 0. -1.
         -1   -1    0    0    0  501 -0.00000000000E+00 -0.00000000000E+00 -0.17415084949E+02  0.17415084949E+02  0.00000000000E+00 0. -1.
         35    2    1    2    0    0  0.00000000000E+00  0.00000000000E+00  0.10661963537E+04  0.11010265236E+04  0.27474486532E+03 0.  0.
         25    1    3    3    0    0 -0.43759312894E+02 -0.26418571933E+02  0.70585448763E+03  0.71780455287E+03  0.12000000000E+03 0.  0.
         25    1    3    3    0    0  0.43759312894E+02  0.26418571933E+02  0.36034186605E+03  0.38322197071E+03  0.12000000000E+03 0.  0.
<mgrwt>
<rscale>  0 0.27474487E+03</rscale>
<asrwt>0</asrwt>
<pdfrwt beam="1">  1        1 0.16670940E+00 0.27474487E+03</pdfrwt>
<pdfrwt beam="2">  1       -1 0.26792447E-02 0.27474487E+03</pdfrwt>
<totfact> 0.61803302E+03</totfact>
</mgrwt>
</event>
<event>
 5    1  0.1132878E+001  0.2750073E+03  0.7818608E-02  0.1098447E+00
          2   -1    0    0  501    0  0.00000000000E+00  0.00000000000E+00  0.37224714944E+03  0.37224714944E+03  0.00000000000E+00 0. -1.
         -2   -1    0    0    0  501 -0.00000000000E+00 -0.00000000000E+00 -0.50792218661E+02  0.50792218661E+02  0.00000000000E+00 0. -1.
         35    2    1    2    0    0  0.00000000000E+00  0.00000000000E+00  0.32145493078E+03  0.42303936810E+03  0.27500733525E+03 0.  0.
         25    1    3    3    0    0 -0.23763402578E+02 -0.62282108414E+02  0.14846952550E+03  0.20220524309E+03  0.12000000000E+03 0.  0.
         25    1    3    3    0    0  0.23763402578E+02  0.62282108414E+02  0.17298540527E+03  0.22083412501E+03  0.12000000000E+03 0.  0.
<mgrwt>
<rscale>  0 0.27500734E+03</rscale>
<asrwt>0</asrwt>
<pdfrwt beam="1">  1        2 0.57268791E-01 0.27500734E+03</pdfrwt>
<pdfrwt beam="2">  1       -2 0.78141877E-02 0.27500734E+03</pdfrwt>
<totfact> 0.84167788E+03</totfact>
</mgrwt>
</event>
<event>
 5    1  0.1132878E+001  0.2751815E+03  0.7818608E-02  0.1098350E+00
          1   -1    0    0  501    0  0.00000000000E+00  0.00000000000E+00  0.20008155665E+03  0.20008155665E+03  0.00000000000E+00 0.  1.
         -1   -1    0    0    0  501 -0.00000000000E+00 -0.00000000000E+00 -0.94617483509E+02  0.94617483509E+02  0.00000000000E+00 0.  1.
         35    2    1    2    0    0  0.00000000000E+00  0.00000000000E+00  0.10546407314E+03  0.29469904015E+03  0.27518149201E+03 0.  0.
         25    1    3    3    0    0 -0.46376032376E+02  0.48544303533E+02  0.57970562366E+02  0.14922423357E+03  0.12000000000E+03 0.  0.
         25    1    3    3    0    0  0.46376032376E+02 -0.48544303533E+02  0.47493510771E+02  0.14547480658E+03  0.12000000000E+03 0.  0.
<mgrwt>
<rscale>  0 0.27518149E+03</rscale>
<asrwt>0</asrwt>
<pdfrwt beam="1">  1        1 0.30781778E-01 0.27518149E+03</pdfrwt>
<pdfrwt beam="2">  1       -1 0.14556536E-01 0.27518149E+03</pdfrwt>
<totfact> 0.49094072E+03</totfact>
</mgrwt>
</event>
<event>
 5    1  0.1132878E+001  0.2760496E+03  0.7818608E-02  0.1097866E+00
         -2   -1    0    0    0  501 -0.00000000000E+00  0.00000000000E+00  0.30540410211E+02  0.30540410211E+02  0.00000000000E+00 0.  1.
          2   -1    0    0  501    0  0.00000000000E+00 -0.00000000000E+00 -0.62379152535E+03  0.62379152535E+03  0.00000000000E+00 0.  1.
         35    2    1    2    0    0  0.00000000000E+00  0.00000000000E+00 -0.59325111514E+03  0.65433193556E+03  0.27604962648E+03 0.  0.
         25    1    3    3    0    0 -0.39426707891E+02  0.43312694346E+02 -0.21381970449E+03  0.25208990621E+03  0.12000000000E+03 0.  0.
         25    1    3    3    0    0  0.39426707891E+02 -0.43312694346E+02 -0.37943141065E+03  0.40224202935E+03  0.12000000000E+03 0.  0.
<mgrwt>
<rscale>  0 0.27604963E+03</rscale>
<asrwt>0</asrwt>
<pdfrwt beam="1">  1        2 0.95967920E-01 0.27604963E+03</pdfrwt>
<pdfrwt beam="2">  1       -2 0.46985250E-02 0.27604963E+03</pdfrwt>
<totfact> 0.10329977E+04</totfact>
</mgrwt>
</event>
<event>
 5    1  0.1132878E+001  0.2723886E+03  0.7818608E-02  0.1099920E+00
         -1   -1    0    0    0  501 -0.00000000000E+00  0.00000000000E+00  0.39199659579E+02  0.39199659579E+02  0.00000000000E+00 0.  1.
          1   -1    0    0  501    0  0.00000000000E+00 -0.00000000000E+00 -0.47319000813E+03  0.47319000813E+03  0.00000000000E+00 0.  1.
         35    2    1    2    0    0  0.00000000000E+00  0.00000000000E+00 -0.43399034855E+03  0.51238966771E+03  0.27238859914E+03 0.  0.
         25    1    3    3    0    0 -0.21902970205E+02  0.35132192855E+02 -0.30981695075E+03  0.33481420825E+03  0.12000000000E+03 0.  0.
         25    1    3    3    0    0  0.21902970205E+02 -0.35132192855E+02 -0.12417339781E+03  0.17757545946E+03  0.12000000000E+03 0.  0.
<mgrwt>
<rscale>  0 0.27238860E+03</rscale>
<asrwt>0</asrwt>
<pdfrwt beam="1">  1        1 0.72798458E-01 0.27238860E+03</pdfrwt>
<pdfrwt beam="2">  1       -1 0.60307173E-02 0.27238860E+03</pdfrwt>
<totfact> 0.64086504E+03</totfact>
</mgrwt>
</event>
<event>
 5    1  0.1132878E+001  0.2760260E+03  0.7818608E-02  0.1097879E+00
         -2   -1    0    0    0  501 -0.00000000000E+00  0.00000000000E+00  0.17370168880E+02  0.17370168880E+02  0.00000000000E+00 0. -1.
          2   -1    0    0  501    0  0.00000000000E+00 -0.00000000000E+00 -0.10965692624E+04  0.10965692624E+04  0.00000000000E+00 0. -1.
         35    2    1    2    0    0  0.00000000000E+00  0.00000000000E+00 -0.10791990935E+04  0.11139394313E+04  0.27602603701E+03 0.  0.
         25    1    3    3    0    0 -0.41164681345E+02  0.41401392389E+02 -0.39754834865E+03  0.41934865661E+03  0.12000000000E+03 0.  0.
         25    1    3    3    0    0  0.41164681345E+02 -0.41401392389E+02 -0.68165074484E+03  0.69459077464E+03  0.12000000000E+03 0.  0.
<mgrwt>
<rscale>  0 0.27602604E+03</rscale>
<asrwt>0</asrwt>
<pdfrwt beam="1">  1        2 0.16870302E+00 0.27602604E+03</pdfrwt>
<pdfrwt beam="2">  1       -2 0.26723328E-02 0.27602604E+03</pdfrwt>
<totfact> 0.11531683E+04</totfact>
</mgrwt>
</event>
<event>
 5    1  0.1132878E+001  0.2751522E+03  0.7818608E-02  0.1098367E+00
          1   -1    0    0  501    0  0.00000000000E+00  0.00000000000E+00  0.20579472119E+03  0.20579472119E+03  0.00000000000E+00 0. -1.
         -1   -1    0    0    0  501 -0.00000000000E+00 -0.00000000000E+00 -0.91971204407E+02  0.91971204407E+02  0.00000000000E+00 0. -1.
         35    2    1    2    0    0  0.00000000000E+00  0.00000000000E+00  0.11382351678E+03  0.29776592559E+03  0.27515223690E+03 0.  0.
         25    1    3    3    0    0 -0.18166834733E+02  0.26406854742E+02 -0.71097026299E+01  0.12441022359E+03  0.12000000000E+03 0.  0.
         25    1    3    3    0    0  0.18166834733E+02 -0.26406854742E+02  0.12093321941E+03  0.17335570201E+03  0.12000000000E+03 0.  0.
<mgrwt>
<rscale>  0 0.27515224E+03</rscale>
<asrwt>0</asrwt>
<pdfrwt beam="1">  1        1 0.31660726E-01 0.27515224E+03</pdfrwt>
<pdfrwt beam="2">  1       -1 0.14149416E-01 0.27515224E+03</pdfrwt>
<totfact> 0.49556861E+03</totfact>
</mgrwt>
</event>
<event>
 5    1  0.1132878E+001  0.2857833E+03  0.7818608E-02  0.1092572E+00
          1   -1    0    0  501    0  0.00000000000E+00  0.00000000000E+00  0.84445409227E+03  0.84445409227E+03  0.00000000000E+00 0. -1.
         -1   -1    0    0    0  501 -0.00000000000E+00 -0.00000000000E+00 -0.24178959883E+02  0.24178959883E+02  0.00000000000E+00 0. -1.
         35    2    1    2    0    0  0.00000000000E+00  0.00000000000E+00  0.82027513239E+03  0.86863305216E+03  0.28578328587E+03 0.  0.
         25    1    3    3    0    0  0.42452131932E+02  0.64116261565E+02  0.37900058483E+03  0.40491298053E+03  0.12000000000E+03 0.  0.
         25    1    3    3    0    0 -0.42452131932E+02 -0.64116261565E+02  0.44127454756E+03  0.46372007163E+03  0.12000000000E+03 0.  0.
<mgrwt>
<rscale>  0 0.28578329E+03</rscale>
<asrwt>0</asrwt>
<pdfrwt beam="1">  1        1 0.12991599E+00 0.28578329E+03</pdfrwt>
<pdfrwt beam="2">  1       -1 0.37198406E-02 0.28578329E+03</pdfrwt>
<totfact> 0.57986270E+03</totfact>
</mgrwt>
</event>
<event>
 5    1  0.1132878E+001  0.2741556E+03  0.7818608E-02  0.1098925E+00
         -1   -1    0    0    0  501 -0.00000000000E+00  0.00000000000E+00  0.24392277290E+03  0.24392277290E+03  0.00000000000E+00 0.  1.
          1   -1    0    0  501    0  0.00000000000E+00 -0.00000000000E+00 -0.77033927245E+02  0.77033927245E+02  0.00000000000E+00 0.  1.
         35    2    1    2    0    0  0.00000000000E+00  0.00000000000E+00  0.16688884566E+03  0.32095670015E+03  0.27415564295E+03 0.  0.
         25    1    3    3    0    0 -0.30398109511E+02  0.47645020213E+01  0.14744765276E+02  0.12475637717E+03  0.12000000000E+03 0.  0.
         25    1    3    3    0    0  0.30398109511E+02 -0.47645020213E+01  0.15214408038E+03  0.19620032298E+03  0.12000000000E+03 0.  0.
<mgrwt>
<rscale>  0 0.27415564E+03</rscale>
<asrwt>0</asrwt>
<pdfrwt beam="1">  1        1 0.11851374E-01 0.27415564E+03</pdfrwt>
<pdfrwt beam="2">  1       -1 0.37526580E-01 0.27415564E+03</pdfrwt>
<totfact> 0.35117863E+03</totfact>
</mgrwt>
</event>
<event>
 4    1  0.1132878E+001  0.2909260E+03  0.7818608E-02  0.1089867E+00
          1   -1    0    0  501    0  0.00000000000E+00  0.00000000000E+00  0.75395357309E+02  0.75395357309E+02  0.00000000000E+00 0.  1.
         -1   -1    0    0    0  501 -0.00000000000E+00 -0.00000000000E+00 -0.28064705463E+03  0.28064705463E+03  0.00000000000E+00 0.  1.
         25    1    1    2    0    0  0.39999274270E+02 -0.71825083374E+02 -0.10365007954E+03  0.17861165565E+03  0.12000000000E+03 0.  0.
         25    1    1    2    0    0 -0.39999274270E+02  0.71825083374E+02 -0.10160161778E+03  0.17743075630E+03  0.12000000000E+03 0.  0.
<mgrwt>
<rscale>  0 0.29092600E+03</rscale>
<asrwt>0</asrwt>
<pdfrwt beam="1">  1        1 0.11599286E-01 0.29092600E+03</pdfrwt>
<pdfrwt beam="2">  1       -1 0.43176470E-01 0.29092600E+03</pdfrwt>
<totfact> 0.28202036E+03</totfact>
</mgrwt>
</event>
<event>
 5    1  0.1132878E+001  0.2751893E+03  0.7818608E-02  0.1098346E+00
          2   -1    0    0  501    0  0.00000000000E+00  0.00000000000E+00  0.12023052675E+04  0.12023052675E+04  0.00000000000E+00 0. -1.
         -2   -1    0    0    0  501 -0.00000000000E+00 -0.00000000000E+00 -0.15746656191E+02  0.15746656191E+02  0.00000000000E+00 0. -1.
         35    2    1    2    0    0  0.00000000000E+00  0.00000000000E+00  0.11865586113E+04  0.12180519237E+04  0.27518929982E+03 0.  0.
         25    1    3    3    0    0  0.26806401089E+02  0.43818921101E+02  0.40066916458E+03  0.42139584767E+03  0.12000000000E+03 0.  0.
         25    1    3    3    0    0 -0.26806401089E+02 -0.43818921101E+02  0.78588944670E+03  0.79665607600E+03  0.12000000000E+03 0.  0.
<mgrwt>
<rscale>  0 0.27518930E+03</rscale>
<asrwt>0</asrwt>
<pdfrwt beam="1">  1        2 0.18496997E+00 0.27518930E+03</pdfrwt>
<pdfrwt beam="2">  1       -2 0.24225634E-02 0.27518930E+03</pdfrwt>
<totfact> 0.11584798E+04</totfact>
</mgrwt>
</event>
<event>
 5    1  0.1132878E+001  0.2744822E+03  0.7818608E-02  0.1098741E+00
         -2   -1    0    0    0  501 -0.00000000000E+00  0.00000000000E+00  0.32375417718E+02  0.32375417718E+02  0.00000000000E+00 0. -1.
          2   -1    0    0  501    0  0.00000000000E+00 -0.00000000000E+00 -0.58177231257E+03  0.58177231257E+03  0.00000000000E+00 0. -1.
         35    2    1    2    0    0  0.00000000000E+00  0.00000000000E+00 -0.54939689485E+03  0.61414773028E+03  0.27448221535E+03 0.  0.
         25    1    3    3    0    0  0.43132757337E+02 -0.43818769051E+02 -0.21745214718E+03  0.25586315794E+03  0.12000000000E+03 0.  0.
         25    1    3    3    0    0 -0.43132757337E+02  0.43818769051E+02 -0.33194474767E+03  0.35828457235E+03  0.12000000000E+03 0.  0.
<mgrwt>
<rscale>  0 0.27448222E+03</rscale>
<asrwt>0</asrwt>
<pdfrwt beam="1">  1        2 0.89503437E-01 0.27448222E+03</pdfrwt>
<pdfrwt beam="2">  1       -2 0.49808332E-02 0.27448222E+03</pdfrwt>
<totfact> 0.10251244E+04</totfact>
</mgrwt>
</event>
<event>
 5    1  0.1132878E+001  0.2750183E+03  0.7818608E-02  0.1098441E+00
          1   -1    0    0  501    0  0.00000000000E+00  0.00000000000E+00  0.11599560795E+03  0.11599560795E+03  0.00000000000E+00 0. -1.
         -1   -1    0    0    0  501 -0.00000000000E+00 -0.00000000000E+00 -0.16301282547E+03  0.16301282547E+03  0.00000000000E+00 0. -1.
         35    2    1    2    0    0  0.00000000000E+00  0.00000000000E+00 -0.47017217515E+02  0.27900843342E+03  0.27501833971E+03 0.  0.
         25    1    3    3    0    0 -0.21325887582E+02  0.23944025345E+02 -0.83361701786E+02  0.14959038457E+03  0.12000000000E+03 0.  0.
         25    1    3    3    0    0  0.21325887582E+02 -0.23944025345E+02  0.36344484271E+02  0.12941804885E+03  0.12000000000E+03 0.  0.
<mgrwt>
<rscale>  0 0.27501834E+03</rscale>
<asrwt>0</asrwt>
<pdfrwt beam="1">  1        1 0.17845478E-01 0.27501834E+03</pdfrwt>
<pdfrwt beam="2">  1       -1 0.25078896E-01 0.27501834E+03</pdfrwt>
<totfact> 0.40806405E+03</totfact>
</mgrwt>
</event>
<event>
 5    1  0.1132878E+001  0.2740390E+03  0.7818608E-02  0.1098990E+00
         -1   -1    0    0    0  501 -0.00000000000E+00  0.00000000000E+00  0.14791299766E+02  0.14791299766E+02  0.00000000000E+00 0.  1.
          1   -1    0    0  501    0  0.00000000000E+00 -0.00000000000E+00 -0.12692829276E+04  0.12692829276E+04  0.00000000000E+00 0.  1.
         35    2    1    2    0    0  0.00000000000E+00  0.00000000000E+00 -0.12544916279E+04  0.12840742274E+04  0.27403900650E+03 0.  0.
         25    1    3    3    0    0 -0.37278624839E+01  0.26397157403E+02 -0.34362768572E+03  0.36495300145E+03  0.12000000000E+03 0.  0.
         25    1    3    3    0    0  0.37278624839E+01 -0.26397157403E+02 -0.91086394213E+03  0.91912122593E+03  0.12000000000E+03 0.  0.
<mgrwt>
<rscale>  0 0.27403901E+03</rscale>
<asrwt>0</asrwt>
<pdfrwt beam="1">  1        1 0.19527434E+00 0.27403901E+03</pdfrwt>
<pdfrwt beam="2">  1       -1 0.22755841E-02 0.27403901E+03</pdfrwt>
<totfact> 0.58112254E+03</totfact>
</mgrwt>
</event>
<event>
 5    1  0.1132878E+001  0.2745860E+03  0.7818608E-02  0.1098683E+00
         -2   -1    0    0    0  501 -0.00000000000E+00  0.00000000000E+00  0.74438489669E+01  0.74438489669E+01  0.00000000000E+00 0.  1.
          2   -1    0    0  501    0  0.00000000000E+00 -0.00000000000E+00 -0.25322076066E+04  0.25322076066E+04  0.00000000000E+00 0.  1.
         35    2    1    2    0    0  0.00000000000E+00  0.00000000000E+00 -0.25247637577E+04  0.25396514556E+04  0.27458602278E+03 0.  0.
         25    1    3    3    0    0 -0.45308442289E+01  0.32918758452E+02 -0.17973237473E+04  0.18016317120E+04  0.12000000000E+03 0.  0.
         25    1    3    3    0    0  0.45308442289E+01 -0.32918758452E+02 -0.72744001035E+03  0.73801974355E+03  0.12000000000E+03 0.  0.
<mgrwt>
<rscale>  0 0.27458602E+03</rscale>
<asrwt>0</asrwt>
<pdfrwt beam="1">  1        2 0.38957025E+00 0.27458602E+03</pdfrwt>
<pdfrwt beam="2">  1       -2 0.11452080E-02 0.27458602E+03</pdfrwt>
<totfact> 0.67391566E+03</totfact>
</mgrwt>
</event>
<event>
 5    1  0.1132878E+001  0.2750040E+03  0.7818608E-02  0.1098449E+00
          3   -1    0    0  501    0  0.00000000000E+00  0.00000000000E+00  0.10208485460E+03  0.10208485460E+03  0.00000000000E+00 0. -1.
         -3   -1    0    0    0  501 -0.00000000000E+00 -0.00000000000E+00 -0.18520670412E+03  0.18520670412E+03  0.00000000000E+00 0. -1.
         35    2    1    2    0    0  0.00000000000E+00  0.00000000000E+00 -0.83121849526E+02  0.28729155872E+03  0.27500399605E+03 0.  0.
         25    1    3    3    0    0  0.45234319864E+02  0.48681141162E+02 -0.51515716897E+02  0.14652599184E+03  0.12000000000E+03 0.  0.
         25    1    3    3    0    0 -0.45234319864E+02 -0.48681141162E+02 -0.31606132629E+02  0.14076556688E+03  0.12000000000E+03 0.  0.
<mgrwt>
<rscale>  0 0.27500400E+03</rscale>
<asrwt>0</asrwt>
<pdfrwt beam="1">  1        3 0.15705362E-01 0.27500400E+03</pdfrwt>
<pdfrwt beam="2">  1       -3 0.28493339E-01 0.27500400E+03</pdfrwt>
<totfact> 0.10302034E+03</totfact>
</mgrwt>
</event>
<event>
 5    1  0.1132878E+001  0.2696886E+03  0.7818608E-02  0.1101458E+00
          3   -1    0    0  501    0  0.00000000000E+00  0.00000000000E+00  0.14563570795E+03  0.14563570795E+03  0.00000000000E+00 0.  1.
         -3   -1    0    0    0  501 -0.00000000000E+00 -0.00000000000E+00 -0.12485254868E+03  0.12485254868E+03  0.00000000000E+00 0.  1.
         35    2    1    2    0    0  0.00000000000E+00  0.00000000000E+00  0.20783159267E+02  0.27048825663E+03  0.26968863021E+03 0.  0.
         25    1    3    3    0    0 -0.16014281659E+02 -0.85156486273E+01  0.69336710874E+02  0.13977321976E+03  0.12000000000E+03 0.  0.
         25    1    3    3    0    0  0.16014281659E+02  0.85156486273E+01 -0.48553551607E+02  0.13071503686E+03  0.12000000000E+03 0.  0.
<mgrwt>
<rscale>  0 0.26968863E+03</rscale>
<asrwt>0</asrwt>
<pdfrwt beam="1">  1        3 0.22405494E-01 0.26968863E+03</pdfrwt>
<pdfrwt beam="2">  1       -3 0.19208084E-01 0.26968863E+03</pdfrwt>
<totfact> 0.11209673E+03</totfact>
</mgrwt>
</event>
<event>
 5    1  0.1132878E+001  0.2747088E+03  0.7818608E-02  0.1098614E+00
          1   -1    0    0  501    0  0.00000000000E+00  0.00000000000E+00  0.33423624752E+03  0.33423624752E+03  0.00000000000E+00 0.  1.
         -1   -1    0    0    0  501 -0.00000000000E+00 -0.00000000000E+00 -0.56445802949E+02  0.56445802949E+02  0.00000000000E+00 0.  1.
         35    2    1    2    0    0  0.00000000000E+00  0.00000000000E+00  0.27779044457E+03  0.39068205047E+03  0.27470881577E+03 0.  0.
         25    1    3    3    0    0 -0.60598553421E+02  0.24143483381E+02  0.11823014445E+03  0.18064733467E+03  0.12000000000E+03 0.  0.
         25    1    3    3    0    0  0.60598553421E+02 -0.24143483381E+02  0.15956030013E+03  0.21003471580E+03  0.12000000000E+03 0.  0.
<mgrwt>
<rscale>  0 0.27470882E+03</rscale>
<asrwt>0</asrwt>
<pdfrwt beam="1">  1        1 0.51420960E-01 0.27470882E+03</pdfrwt>
<pdfrwt beam="2">  1       -1 0.86839699E-02 0.27470882E+03</pdfrwt>
<totfact> 0.57550867E+03</totfact>
</mgrwt>
</event>
<event>
 5    1  0.1132878E+001  0.2744982E+03  0.7818608E-02  0.1098732E+00
         -1   -1    0    0    0  501 -0.00000000000E+00  0.00000000000E+00  0.69742068838E+01  0.69742068838E+01  0.00000000000E+00 0. -1.
          1   -1    0    0  501    0  0.00000000000E+00 -0.00000000000E+00 -0.27009976563E+04  0.27009976563E+04  0.00000000000E+00 0. -1.
         35    2    1    2    0    0  0.00000000000E+00  0.00000000000E+00 -0.26940234494E+04  0.27079718632E+04  0.27449820726E+03 0.  0.
         25    1    3    3    0    0 -0.19357409187E+02 -0.62053346166E+02 -0.12033762564E+04  0.12110903111E+04  0.12000000000E+03 0.  0.
         25    1    3    3    0    0  0.19357409187E+02  0.62053346166E+02 -0.14906471930E+04  0.14968815521E+04  0.12000000000E+03 0.  0.
<mgrwt>
<rscale>  0 0.27449821E+03</rscale>
<asrwt>0</asrwt>
<pdfrwt beam="1">  1        1 0.41553827E+00 0.27449821E+03</pdfrwt>
<pdfrwt beam="2">  1       -1 0.10729545E-02 0.27449821E+03</pdfrwt>
<totfact> 0.19744693E+03</totfact>
</mgrwt>
</event>
<event>
 5    1  0.1132878E+001  0.2752499E+03  0.7818608E-02  0.1098312E+00
          3   -1    0    0  501    0  0.00000000000E+00  0.00000000000E+00  0.68099582482E+03  0.68099582482E+03  0.00000000000E+00 0.  1.
         -3   -1    0    0    0  501 -0.00000000000E+00 -0.00000000000E+00 -0.27813124000E+02  0.27813124000E+02  0.00000000000E+00 0.  1.
         35    2    1    2    0    0  0.00000000000E+00  0.00000000000E+00  0.65318270082E+03  0.70880894882E+03  0.27524985972E+03 0.  0.
         25    1    3    3    0    0 -0.65873198750E+02  0.67964562529E+01  0.29451539223E+03  0.32484578863E+03  0.12000000000E+03 0.  0.
         25    1    3    3    0    0  0.65873198750E+02 -0.67964562529E+01  0.35866730859E+03  0.38396316019E+03  0.12000000000E+03 0.  0.
<mgrwt>
<rscale>  0 0.27524986E+03</rscale>
<asrwt>0</asrwt>
<pdfrwt beam="1">  1        3 0.10476858E+00 0.27524986E+03</pdfrwt>
<pdfrwt beam="2">  1       -3 0.42789427E-02 0.27524986E+03</pdfrwt>
<totfact> 0.60338295E+02</totfact>
</mgrwt>
</event>
<event>
 5    1  0.1132878E+001  0.2743290E+03  0.7818608E-02  0.1098827E+00
         -1   -1    0    0    0  501 -0.00000000000E+00  0.00000000000E+00  0.50064324500E+02  0.50064324500E+02  0.00000000000E+00 0. -1.
          1   -1    0    0  501    0  0.00000000000E+00 -0.00000000000E+00 -0.37579848874E+03  0.37579848874E+03  0.00000000000E+00 0. -1.
         35    2    1    2    0    0  0.00000000000E+00  0.00000000000E+00 -0.32573416424E+03  0.42586281324E+03  0.27432898124E+03 0.  0.
         25    1    3    3    0    0 -0.57325454439E+02 -0.11988203646E+02 -0.21156761266E+03  0.25018149308E+03  0.12000000000E+03 0.  0.
         25    1    3    3    0    0  0.57325454439E+02  0.11988203646E+02 -0.11416655158E+03  0.17568132016E+03  0.12000000000E+03 0.  0.
<mgrwt>
<rscale>  0 0.27432898E+03</rscale>
<asrwt>0</asrwt>
<pdfrwt beam="1">  1        1 0.57815154E-01 0.27432898E+03</pdfrwt>
<pdfrwt beam="2">  1       -1 0.77022036E-02 0.27432898E+03</pdfrwt>
<totfact> 0.59577975E+03</totfact>
</mgrwt>
</event>
<event>
 5    1  0.1132878E+001  0.2761513E+03  0.7818608E-02  0.1097810E+00
         -2   -1    0    0    0  501 -0.00000000000E+00  0.00000000000E+00  0.65670302812E+02  0.65670302812E+02  0.00000000000E+00 0.  1.
          2   -1    0    0  501    0  0.00000000000E+00 -0.00000000000E+00 -0.29031220789E+03  0.29031220789E+03  0.00000000000E+00 0.  1.
         35    2    1    2    0    0  0.00000000000E+00  0.00000000000E+00 -0.22464190508E+03  0.35598251071E+03  0.27615133969E+03 0.  0.
         25    1    3    3    0    0 -0.48343210187E+02 -0.43026083502E+02 -0.14046261597E+03  0.19574998421E+03  0.12000000000E+03 0.  0.
         25    1    3    3    0    0  0.48343210187E+02  0.43026083502E+02 -0.84179289117E+02  0.16023252650E+03  0.12000000000E+03 0.  0.
<mgrwt>
<rscale>  0 0.27615134E+03</rscale>
<asrwt>0</asrwt>
<pdfrwt beam="1">  1        2 0.44663418E-01 0.27615134E+03</pdfrwt>
<pdfrwt beam="2">  1       -2 0.10103123E-01 0.27615134E+03</pdfrwt>
<totfact> 0.73429991E+03</totfact>
</mgrwt>
</event>
<event>
 5    1  0.1132878E+001  0.2752222E+03  0.7818608E-02  0.1098327E+00
          1   -1    0    0  501    0  0.00000000000E+00  0.00000000000E+00  0.66328270591E+02  0.66328270591E+02  0.00000000000E+00 0. -1.
         -1   -1    0    0    0  501 -0.00000000000E+00 -0.00000000000E+00 -0.28550136535E+03  0.28550136535E+03  0.00000000000E+00 0. -1.
         35    2    1    2    0    0  0.00000000000E+00  0.00000000000E+00 -0.21917309476E+03  0.35182963594E+03  0.27522217799E+03 0.  0.
         25    1    3    3    0    0  0.14348528206E+02  0.41476064174E+02 -0.44269764510E+02  0.13522557528E+03  0.12000000000E+03 0.  0.
         25    1    3    3    0    0 -0.14348528206E+02 -0.41476064174E+02 -0.17490333025E+03  0.21660406065E+03  0.12000000000E+03 0.  0.
<mgrwt>
<rscale>  0 0.27522218E+03</rscale>
<asrwt>0</asrwt>
<pdfrwt beam="1">  1        1 0.10204349E-01 0.27522218E+03</pdfrwt>
<pdfrwt beam="2">  1       -1 0.43923287E-01 0.27522218E+03</pdfrwt>
<totfact> 0.32417558E+03</totfact>
</mgrwt>
</event>
<event>
 5    1  0.1132878E+001  0.2728664E+03  0.7818608E-02  0.1099650E+00
          2   -1    0    0  501    0  0.00000000000E+00  0.00000000000E+00  0.52345279768E+02  0.52345279768E+02  0.00000000000E+00 0.  1.
         -2   -1    0    0    0  501 -0.00000000000E+00 -0.00000000000E+00 -0.35560076855E+03  0.35560076855E+03  0.00000000000E+00 0.  1.
         35    2    1    2    0    0  0.00000000000E+00  0.00000000000E+00 -0.30325548878E+03  0.40794604832E+03  0.27286642678E+03 0.  0.
         25    1    3    3    0    0 -0.16790315712E+02 -0.57706490557E+02 -0.11494385414E+03  0.17670326358E+03  0.12000000000E+03 0.  0.
         25    1    3    3    0    0  0.16790315712E+02  0.57706490557E+02 -0.18831163464E+03  0.23124278474E+03  0.12000000000E+03 0.  0.
<mgrwt>
<rscale>  0 0.27286643E+03</rscale>
<asrwt>0</asrwt>
<pdfrwt beam="1">  1        2 0.80531201E-02 0.27286643E+03</pdfrwt>
<pdfrwt beam="2">  1       -2 0.54707810E-01 0.27286643E+03</pdfrwt>
<totfact> 0.26886642E+03</totfact>
</mgrwt>
</event>
<event>
 5    1  0.1132878E+001  0.2752870E+03  0.7818608E-02  0.1098291E+00
         -2   -1    0    0    0  501 -0.00000000000E+00  0.00000000000E+00  0.45525034766E+02  0.45525034766E+02  0.00000000000E+00 0. -1.
          2   -1    0    0  501    0  0.00000000000E+00 -0.00000000000E+00 -0.41616083404E+03  0.41616083404E+03  0.00000000000E+00 0. -1.
         35    2    1    2    0    0  0.00000000000E+00  0.00000000000E+00 -0.37063579927E+03  0.46168586880E+03  0.27528702431E+03 0.  0.
         25    1    3    3    0    0 -0.52689401783E+02  0.36877862845E+02 -0.21925960941E+03  0.25809092612E+03  0.12000000000E+03 0.  0.
         25    1    3    3    0    0  0.52689401783E+02 -0.36877862845E+02 -0.15137618986E+03  0.20359494268E+03  0.12000000000E+03 0.  0.
<mgrwt>
<rscale>  0 0.27528702E+03</rscale>
<asrwt>0</asrwt>
<pdfrwt beam="1">  1        2 0.64024745E-01 0.27528702E+03</pdfrwt>
<pdfrwt beam="2">  1       -2 0.70038513E-02 0.27528702E+03</pdfrwt>
<totfact> 0.88404976E+03</totfact>
</mgrwt>
</event>
<event>
 5    1  0.1132878E+001  0.2785482E+03  0.7818608E-02  0.1096485E+00
         -2   -1    0    0    0  501 -0.00000000000E+00  0.00000000000E+00  0.12065967115E+03  0.12065967115E+03  0.00000000000E+00 0. -1.
          2   -1    0    0  501    0  0.00000000000E+00 -0.00000000000E+00 -0.16076016949E+03  0.16076016949E+03  0.00000000000E+00 0. -1.
         35    2    1    2    0    0  0.00000000000E+00  0.00000000000E+00 -0.40100498334E+02  0.28141984064E+03  0.27854815874E+03 0.  0.
         25    1    3    3    0    0  0.68910402070E+02  0.86461917979E+00 -0.35956707952E+02  0.14297648732E+03  0.12000000000E+03 0.  0.
         25    1    3    3    0    0 -0.68910402070E+02 -0.86461917979E+00 -0.41437903823E+01  0.13844335332E+03  0.12000000000E+03 0.  0.
<mgrwt>
<rscale>  0 0.27854816E+03</rscale>
<asrwt>0</asrwt>
<pdfrwt beam="1">  1        2 0.24732334E-01 0.27854816E+03</pdfrwt>
<pdfrwt beam="2">  1       -2 0.18563026E-01 0.27854816E+03</pdfrwt>
<totfact> 0.51697179E+03</totfact>
</mgrwt>
</event>
<event>
 5    1  0.1132878E+001  0.2710033E+03  0.7818608E-02  0.1100707E+00
         -1   -1    0    0    0  501 -0.00000000000E+00  0.00000000000E+00  0.10430715947E+02  0.10430715947E+02  0.00000000000E+00 0.  1.
          1   -1    0    0  501    0  0.00000000000E+00 -0.00000000000E+00 -0.17602529703E+04  0.17602529703E+04  0.00000000000E+00 0.  1.
         35    2    1    2    0    0  0.00000000000E+00  0.00000000000E+00 -0.17498222543E+04  0.17706836862E+04  0.27100331163E+03 0.  0.
         25    1    3    3    0    0 -0.14260884912E+02 -0.60172938530E+02 -0.95125983278E+03  0.96079104119E+03  0.12000000000E+03 0.  0.
         25    1    3    3    0    0  0.14260884912E+02  0.60172938530E+02 -0.79856242154E+03  0.80989264502E+03  0.12000000000E+03 0.  0.
<mgrwt>
<rscale>  0 0.27100331E+03</rscale>
<asrwt>0</asrwt>
<pdfrwt beam="1">  1        1 0.27080780E+00 0.27100331E+03</pdfrwt>
<pdfrwt beam="2">  1       -1 0.16047276E-02 0.27100331E+03</pdfrwt>
<totfact> 0.45680353E+03</totfact>
</mgrwt>
</event>
<event>
 5    1  0.1132878E+001  0.2751176E+03  0.7818608E-02  0.1098386E+00
          1   -1    0    0  501    0  0.00000000000E+00  0.00000000000E+00  0.79317195409E+03  0.79317195409E+03  0.00000000000E+00 0.  1.
         -1   -1    0    0    0  501 -0.00000000000E+00 -0.00000000000E+00 -0.23856642190E+02  0.23856642190E+02  0.00000000000E+00 0.  1.
         35    2    1    2    0    0  0.00000000000E+00  0.00000000000E+00  0.76931531190E+03  0.81702859628E+03  0.27511757126E+03 0.  0.
         25    1    3    3    0    0  0.49980610769E+02 -0.33589464909E+02  0.47355700815E+03  0.49222205718E+03  0.12000000000E+03 0.  0.
         25    1    3    3    0    0 -0.49980610769E+02  0.33589464909E+02  0.29575830375E+03  0.32480653911E+03  0.12000000000E+03 0.  0.
<mgrwt>
<rscale>  0 0.27511757E+03</rscale>
<asrwt>0</asrwt>
<pdfrwt beam="1">  1        1 0.12202643E+00 0.27511757E+03</pdfrwt>
<pdfrwt beam="2">  1       -1 0.36702533E-02 0.27511757E+03</pdfrwt>
<totfact> 0.65156966E+03</totfact>
</mgrwt>
</event>
<event>
 5    1  0.1132878E+001  0.2752735E+03  0.7818608E-02  0.1098299E+00
          2   -1    0    0  501    0  0.00000000000E+00  0.00000000000E+00  0.13363216825E+04  0.13363216825E+04  0.00000000000E+00 0. -1.
         -2   -1    0    0    0  501 -0.00000000000E+00 -0.00000000000E+00 -0.14176134305E+02  0.14176134305E+02  0.00000000000E+00 0. -1.
         35    2    1    2    0    0  0.00000000000E+00  0.00000000000E+00  0.13221455482E+04  0.13504978168E+04  0.27527350505E+03 0.  0.
         25    1    3    3    0    0  0.29659821739E+02 -0.58038524943E+02  0.57670913324E+03  0.59265639266E+03  0.12000000000E+03 0.  0.
         25    1    3    3    0    0 -0.29659821739E+02  0.58038524943E+02  0.74543641500E+03  0.75784142419E+03  0.12000000000E+03 0.  0.
<mgrwt>
<rscale>  0 0.27527351E+03</rscale>
<asrwt>0</asrwt>
<pdfrwt beam="1">  1        2 0.20558785E+00 0.27527351E+03</pdfrwt>
<pdfrwt beam="2">  1       -2 0.21809448E-02 0.27527351E+03</pdfrwt>
<totfact> 0.11388563E+04</totfact>
</mgrwt>
</event>
<event>
 5    1  0.1132878E+001  0.2751830E+03  0.7818608E-02  0.1098349E+00
          1   -1    0    0  501    0  0.00000000000E+00  0.00000000000E+00  0.15847629534E+04  0.15847629534E+04  0.00000000000E+00 0.  1.
         -1   -1    0    0    0  501 -0.00000000000E+00 -0.00000000000E+00 -0.11945904803E+02  0.11945904803E+02  0.00000000000E+00 0.  1.
         35    2    1    2    0    0  0.00000000000E+00  0.00000000000E+00  0.15728170486E+04  0.15967088582E+04  0.27518304728E+03 0.  0.
         25    1    3    3    0    0 -0.57328344533E+02  0.29259171137E+02  0.67199927064E+03  0.68565709938E+03  0.12000000000E+03 0.  0.
         25    1    3    3    0    0  0.57328344533E+02 -0.29259171137E+02  0.90081777797E+03  0.91105175884E+03  0.12000000000E+03 0.  0.
<mgrwt>
<rscale>  0 0.27518305E+03</rscale>
<asrwt>0</asrwt>
<pdfrwt beam="1">  1        1 0.24380952E+00 0.27518305E+03</pdfrwt>
<pdfrwt beam="2">  1       -1 0.18378328E-02 0.27518305E+03</pdfrwt>
<totfact> 0.48815942E+03</totfact>
</mgrwt>
</event>
<event>
 5    1  0.1132878E+001  0.2740144E+03  0.7818608E-02  0.1099004E+00
          2   -1    0    0  501    0  0.00000000000E+00  0.00000000000E+00  0.68966158528E+03  0.68966158528E+03  0.00000000000E+00 0. -1.
         -2   -1    0    0    0  501 -0.00000000000E+00 -0.00000000000E+00 -0.27217650800E+02  0.27217650800E+02  0.00000000000E+00 0. -1.
         35    2    1    2    0    0  0.00000000000E+00  0.00000000000E+00  0.66244393448E+03  0.71687923608E+03  0.27401436603E+03 0.  0.
         25    1    3    3    0    0  0.32688577964E+02  0.30591744779E+01  0.18109008804E+03  0.21970780974E+03  0.12000000000E+03 0.  0.
         25    1    3    3    0    0 -0.32688577964E+02 -0.30591744779E+01  0.48135384644E+03  0.49717142633E+03  0.12000000000E+03 0.  0.
<mgrwt>
<rscale>  0 0.27401437E+03</rscale>
<asrwt>0</asrwt>
<pdfrwt beam="1">  1        2 0.10610177E+00 0.27401437E+03</pdfrwt>
<pdfrwt beam="2">  1       -2 0.41873314E-02 0.27401437E+03</pdfrwt>
<totfact> 0.10906763E+04</totfact>
</mgrwt>
</event>
<event>
 5    1  0.1132878E+001  0.2749608E+03  0.7818608E-02  0.1098474E+00
         -2   -1    0    0    0  501 -0.00000000000E+00  0.00000000000E+00  0.83022551858E+02  0.83022551858E+02  0.00000000000E+00 0.  1.
          2   -1    0    0  501    0  0.00000000000E+00 -0.00000000000E+00 -0.22765932295E+03  0.22765932295E+03  0.00000000000E+00 0.  1.
         35    2    1    2    0    0  0.00000000000E+00  0.00000000000E+00 -0.14463677109E+03  0.31068187481E+03  0.27496078226E+03 0.  0.
         25    1    3    3    0    0 -0.30538745842E+02  0.42977654555E+02 -0.11919500766E+03  0.17716417143E+03  0.12000000000E+03 0.  0.
         25    1    3    3    0    0  0.30538745842E+02 -0.42977654555E+02 -0.25441763436E+02  0.13351770338E+03  0.12000000000E+03 0.  0.
<mgrwt>
<rscale>  0 0.27496078E+03</rscale>
<asrwt>0</asrwt>
<pdfrwt beam="1">  1        2 0.35024511E-01 0.27496078E+03</pdfrwt>
<pdfrwt beam="2">  1       -2 0.12772700E-01 0.27496078E+03</pdfrwt>
<totfact> 0.65483721E+03</totfact>
</mgrwt>
</event>
<event>
 5    1  0.1132878E+001  0.2751660E+03  0.7818608E-02  0.1098359E+00
          2   -1    0    0  501    0  0.00000000000E+00  0.00000000000E+00  0.10072003215E+04  0.10072003215E+04  0.00000000000E+00 0.  1.
         -2   -1    0    0    0  501 -0.00000000000E+00 -0.00000000000E+00 -0.18793767463E+02  0.18793767463E+02  0.00000000000E+00 0.  1.
         35    2    1    2    0    0  0.00000000000E+00  0.00000000000E+00  0.98840655406E+03  0.10259940890E+04  0.27516604900E+03 0.  0.
         25    1    3    3    0    0  0.35271979171E+02 -0.50217845971E+02  0.39119947026E+03  0.41376680642E+03  0.12000000000E+03 0.  0.
         25    1    3    3    0    0 -0.35271979171E+02  0.50217845971E+02  0.59720708380E+03  0.61222728256E+03  0.12000000000E+03 0.  0.
<mgrwt>
<rscale>  0 0.27516605E+03</rscale>
<asrwt>0</asrwt>
<pdfrwt beam="1">  1        2 0.15495385E+00 0.27516605E+03</pdfrwt>
<pdfrwt beam="2">  1       -2 0.28913496E-02 0.27516605E+03</pdfrwt>
<totfact> 0.11603460E+04</totfact>
</mgrwt>
</event>
<event>
 5    1  0.1132878E+001  0.2747773E+03  0.7818608E-02  0.1098576E+00
         -1   -1    0    0    0  501 -0.00000000000E+00  0.00000000000E+00  0.64553894342E+01  0.64553894342E+01  0.00000000000E+00 0.  1.
          1   -1    0    0  501    0  0.00000000000E+00 -0.00000000000E+00 -0.29240118226E+04  0.29240118226E+04  0.00000000000E+00 0.  1.
         35    2    1    2    0    0  0.00000000000E+00  0.00000000000E+00 -0.29175564332E+04  0.29304672121E+04  0.27477725543E+03 0.  0.
         25    1    3    3    0    0 -0.26604552189E+02 -0.54431546618E+02 -0.17613752714E+04  0.17664975069E+04  0.12000000000E+03 0.  0.
         25    1    3    3    0    0  0.26604552189E+02  0.54431546618E+02 -0.11561811618E+04  0.11639697051E+04  0.12000000000E+03 0.  0.
<mgrwt>
<rscale>  0 0.27477726E+03</rscale>
<asrwt>0</asrwt>
<pdfrwt beam="1">  1        1 0.44984986E+00 0.27477726E+03</pdfrwt>
<pdfrwt beam="2">  1       -1 0.99313267E-03 0.27477726E+03</pdfrwt>
<totfact> 0.15534099E+03</totfact>
</mgrwt>
</event>
<event>
 5    1  0.1132878E+001  0.2740285E+03  0.7818608E-02  0.1098996E+00
          1   -1    0    0  501    0  0.00000000000E+00  0.00000000000E+00  0.33578299183E+03  0.33578299183E+03  0.00000000000E+00 0.  1.
         -1   -1    0    0    0  501 -0.00000000000E+00 -0.00000000000E+00 -0.55907829505E+02  0.55907829505E+02  0.00000000000E+00 0.  1.
         35    2    1    2    0    0  0.00000000000E+00  0.00000000000E+00  0.27987516232E+03  0.39169082133E+03  0.27402845296E+03 0.  0.
         25    1    3    3    0    0  0.31980752428E+01 -0.41364209422E+02  0.21354264584E+03  0.24843849762E+03  0.12000000000E+03 0.  0.
         25    1    3    3    0    0 -0.31980752428E+01  0.41364209422E+02  0.66332516481E+02  0.14325232371E+03  0.12000000000E+03 0.  0.
<mgrwt>
<rscale>  0 0.27402845E+03</rscale>
<asrwt>0</asrwt>
<pdfrwt beam="1">  1        1 0.51658921E-01 0.27402845E+03</pdfrwt>
<pdfrwt beam="2">  1       -1 0.86012047E-02 0.27402845E+03</pdfrwt>
<totfact> 0.58057456E+03</totfact>
</mgrwt>
</event>
<event>
 5    1  0.1132878E+001  0.2753819E+03  0.7818608E-02  0.1098238E+00
         -2   -1    0    0    0  501 -0.00000000000E+00  0.00000000000E+00  0.16490031341E+02  0.16490031341E+02  0.00000000000E+00 0. -1.
          2   -1    0    0  501    0  0.00000000000E+00 -0.00000000000E+00 -0.11497123044E+04  0.11497123044E+04  0.00000000000E+00 0. -1.
         35    2    1    2    0    0  0.00000000000E+00  0.00000000000E+00 -0.11332222731E+04  0.11662023358E+04  0.27538185803E+03 0.  0.
         25    1    3    3    0    0 -0.42033084831E+02  0.38590408566E+02 -0.41375737316E+03  0.43457009066E+03  0.12000000000E+03 0.  0.
         25    1    3    3    0    0  0.42033084831E+02 -0.38590408566E+02 -0.71946489991E+03  0.73163224509E+03  0.12000000000E+03 0.  0.
<mgrwt>
<rscale>  0 0.27538186E+03</rscale>
<asrwt>0</asrwt>
<pdfrwt beam="1">  1        2 0.17687882E+00 0.27538186E+03</pdfrwt>
<pdfrwt beam="2">  1       -2 0.25369279E-02 0.27538186E+03</pdfrwt>
<totfact> 0.11597466E+04</totfact>
</mgrwt>
</event>
<event>
 5    1  0.1132878E+001  0.2763662E+03  0.7818608E-02  0.1097690E+00
         -2   -1    0    0    0  501 -0.00000000000E+00  0.00000000000E+00  0.12852351793E+03  0.12852351793E+03  0.00000000000E+00 0.  1.
          2   -1    0    0  501    0  0.00000000000E+00 -0.00000000000E+00 -0.14856865199E+03  0.14856865199E+03  0.00000000000E+00 0.  1.
         35    2    1    2    0    0  0.00000000000E+00  0.00000000000E+00 -0.20045134054E+02  0.27709216992E+03  0.27636617599E+03 0.  0.
         25    1    3    3    0    0 -0.44809744379E+02  0.19842457305E+01  0.41908430422E+02  0.13478934291E+03  0.12000000000E+03 0.  0.
         25    1    3    3    0    0  0.44809744379E+02 -0.19842457305E+01 -0.61953564476E+02  0.14230282701E+03  0.12000000000E+03 0.  0.
<mgrwt>
<rscale>  0 0.27636618E+03</rscale>
<asrwt>0</asrwt>
<pdfrwt beam="1">  1        2 0.22856716E-01 0.27636618E+03</pdfrwt>
<pdfrwt beam="2">  1       -2 0.19772849E-01 0.27636618E+03</pdfrwt>
<totfact> 0.50720309E+03</totfact>
</mgrwt>
</event>
<event>
 5    1  0.1132878E+001  0.2748909E+03  0.7818608E-02  0.1098513E+00
          2   -1    0    0  501    0  0.00000000000E+00  0.00000000000E+00  0.11425107236E+03  0.11425107236E+03  0.00000000000E+00 0. -1.
         -2   -1    0    0    0  501 -0.00000000000E+00 -0.00000000000E+00 -0.16534862377E+03  0.16534862377E+03  0.00000000000E+00 0. -1.
         35    2    1    2    0    0  0.00000000000E+00  0.00000000000E+00 -0.51097551402E+02  0.27959969613E+03  0.27489094259E+03 0.  0.
         25    1    3    3    0    0 -0.66191785159E+02 -0.92486575260E+01 -0.20527874561E+02  0.13888226569E+03  0.12000000000E+03 0.  0.
         25    1    3    3    0    0  0.66191785159E+02  0.92486575260E+01 -0.30569676840E+02  0.14071743044E+03  0.12000000000E+03 0.  0.
<mgrwt>
<rscale>  0 0.27489094E+03</rscale>
<asrwt>0</asrwt>
<pdfrwt beam="1">  1        2 0.17577088E-01 0.27489094E+03</pdfrwt>
<pdfrwt beam="2">  1       -2 0.25438250E-01 0.27489094E+03</pdfrwt>
<totfact> 0.44217369E+03</totfact>
</mgrwt>
</event>
<event>
 5    1  0.1132878E+001  0.2758393E+03  0.7818608E-02  0.1097983E+00
         -2   -1    0    0    0  501 -0.00000000000E+00  0.00000000000E+00  0.79222545564E+01  0.79222545564E+01  0.00000000000E+00 0.  1.
          2   -1    0    0  501    0  0.00000000000E+00 -0.00000000000E+00 -0.24010631890E+04  0.24010631890E+04  0.00000000000E+00 0.  1.
         35    2    1    2    0    0  0.00000000000E+00  0.00000000000E+00 -0.23931409345E+04  0.24089854436E+04  0.27583932852E+03 0.  0.
         25    1    3    3    0    0  0.61500491794E+02 -0.10971985456E+02 -0.14307691022E+04  0.14371509729E+04  0.12000000000E+03 0.  0.
         25    1    3    3    0    0 -0.61500491794E+02  0.10971985456E+02 -0.96237183223E+03  0.97183447069E+03  0.12000000000E+03 0.  0.
<mgrwt>
<rscale>  0 0.27583933E+03</rscale>
<asrwt>0</asrwt>
<pdfrwt beam="1">  1        2 0.36939481E+00 0.27583933E+03</pdfrwt>
<pdfrwt beam="2">  1       -2 0.12188068E-02 0.27583933E+03</pdfrwt>
<totfact> 0.72575511E+03</totfact>
</mgrwt>
</event>
<event>
 5    1  0.1132878E+001  0.2817292E+03  0.7818608E-02  0.1094748E+00
          2   -1    0    0  501    0  0.00000000000E+00  0.00000000000E+00  0.19732647120E+03  0.19732647120E+03  0.00000000000E+00 0.  1.
         -2   -1    0    0    0  501 -0.00000000000E+00 -0.00000000000E+00 -0.10055839799E+03  0.10055839799E+03  0.00000000000E+00 0.  1.
         35    2    1    2    0    0  0.00000000000E+00  0.00000000000E+00  0.96768073212E+02  0.29788486919E+03  0.28172918788E+03 0.  0.
         25    1    3    3    0    0  0.11397982776E+01 -0.47456812290E+02 -0.11329132251E+02  0.12954457692E+03  0.12000000000E+03 0.  0.
         25    1    3    3    0    0 -0.11397982776E+01  0.47456812290E+02  0.10809720546E+03  0.16834029227E+03  0.12000000000E+03 0.  0.
<mgrwt>
<rscale>  0 0.28172919E+03</rscale>
<asrwt>0</asrwt>
<pdfrwt beam="1">  1        2 0.30357918E-01 0.28172919E+03</pdfrwt>
<pdfrwt beam="2">  1       -2 0.15470523E-01 0.28172919E+03</pdfrwt>
<totfact> 0.55934176E+03</totfact>
</mgrwt>
</event>
<event>
 5    1  0.1132878E+001  0.2753445E+03  0.7818608E-02  0.1098259E+00
         -2   -1    0    0    0  501 -0.00000000000E+00  0.00000000000E+00  0.83724780619E+01  0.83724780619E+01  0.00000000000E+00 0.  1.
          2   -1    0    0  501    0  0.00000000000E+00 -0.00000000000E+00 -0.22638035230E+04  0.22638035230E+04  0.00000000000E+00 0.  1.
         35    2    1    2    0    0  0.00000000000E+00  0.00000000000E+00 -0.22554310450E+04  0.22721760011E+04  0.27534447758E+03 0.  0.
         25    1    3    3    0    0  0.37812486073E+02  0.18696000369E+01 -0.15886809499E+04  0.15936563118E+04  0.12000000000E+03 0.  0.
         25    1    3    3    0    0 -0.37812486073E+02 -0.18696000369E+01 -0.66675009504E+03  0.67851968928E+03  0.12000000000E+03 0.  0.
<mgrwt>
<rscale>  0 0.27534448E+03</rscale>
<asrwt>0</asrwt>
<pdfrwt beam="1">  1        2 0.34827742E+00 0.27534448E+03</pdfrwt>
<pdfrwt beam="2">  1       -2 0.12880737E-02 0.27534448E+03</pdfrwt>
<totfact> 0.79369868E+03</totfact>
</mgrwt>
</event>
<event>
 5    1  0.1132878E+001  0.2744568E+03  0.7818608E-02  0.1098756E+00
          2   -1    0    0  501    0  0.00000000000E+00  0.00000000000E+00  0.56061091058E+03  0.56061091058E+03  0.00000000000E+00 0.  1.
         -2   -1    0    0    0  501 -0.00000000000E+00 -0.00000000000E+00 -0.33591270319E+02  0.33591270319E+02  0.00000000000E+00 0.  1.
         35    2    1    2    0    0  0.00000000000E+00  0.00000000000E+00  0.52701964026E+03  0.59420218090E+03  0.27445679180E+03 0.  0.
         25    1    3    3    0    0 -0.51752234608E+02 -0.20722198351E+02  0.34228559142E+03  0.36697020231E+03  0.12000000000E+03 0.  0.
         25    1    3    3    0    0  0.51752234608E+02  0.20722198351E+02  0.18473404884E+03  0.22723197859E+03  0.12000000000E+03 0.  0.
<mgrwt>
<rscale>  0 0.27445679E+03</rscale>
<asrwt>0</asrwt>
<pdfrwt beam="1">  1        2 0.86247825E-01 0.27445679E+03</pdfrwt>
<pdfrwt beam="2">  1       -2 0.51678882E-02 0.27445679E+03</pdfrwt>
<totfact> 0.10113450E+04</totfact>
</mgrwt>
</event>
<event>
 5    1  0.1132878E+001  0.2746318E+03  0.7818608E-02  0.1098658E+00
         -2   -1    0    0    0  501 -0.00000000000E+00  0.00000000000E+00  0.27532646526E+02  0.27532646526E+02  0.00000000000E+00 0.  1.
          2   -1    0    0  501    0  0.00000000000E+00 -0.00000000000E+00 -0.68484702746E+03  0.68484702746E+03  0.00000000000E+00 0.  1.
         35    2    1    2    0    0  0.00000000000E+00  0.00000000000E+00 -0.65731438093E+03  0.71237967398E+03  0.27463176168E+03 0.  0.
         25    1    3    3    0    0 -0.30321088923E+02  0.56881199059E+02 -0.28366799188E+03  0.31467819889E+03  0.12000000000E+03 0.  0.
         25    1    3    3    0    0  0.30321088923E+02 -0.56881199059E+02 -0.37364638905E+03  0.39770147510E+03  0.12000000000E+03 0.  0.
<mgrwt>
<rscale>  0 0.27463176E+03</rscale>
<asrwt>0</asrwt>
<pdfrwt beam="1">  1        2 0.10536110E+00 0.27463176E+03</pdfrwt>
<pdfrwt beam="2">  1       -2 0.42357912E-02 0.27463176E+03</pdfrwt>
<totfact> 0.10811092E+04</totfact>
</mgrwt>
</event>
<event>
 5    1  0.1132878E+001  0.2749357E+03  0.7818608E-02  0.1098488E+00
         -1   -1    0    0    0  501 -0.00000000000E+00  0.00000000000E+00  0.51754313654E+03  0.51754313654E+03  0.00000000000E+00 0.  1.
          1   -1    0    0  501    0  0.00000000000E+00 -0.00000000000E+00 -0.36513702760E+02  0.36513702760E+02  0.00000000000E+00 0.  1.
         35    2    1    2    0    0  0.00000000000E+00  0.00000000000E+00  0.48102943378E+03  0.55405683930E+03  0.27493574706E+03 0.  0.
         25    1    3    3    0    0  0.51032645663E+02 -0.21467144350E+02  0.16424852233E+03  0.21081448313E+03  0.12000000000E+03 0.  0.
         25    1    3    3    0    0 -0.51032645663E+02  0.21467144350E+02  0.31678091145E+03  0.34324235617E+03  0.12000000000E+03 0.  0.
<mgrwt>
<rscale>  0 0.27493575E+03</rscale>
<asrwt>0</asrwt>
<pdfrwt beam="1">  1        1 0.56174931E-02 0.27493575E+03</pdfrwt>
<pdfrwt beam="2">  1       -1 0.79622016E-01 0.27493575E+03</pdfrwt>
<totfact> 0.23279088E+03</totfact>
</mgrwt>
</event>
<event>
 5    1  0.1132878E+001  0.2747070E+03  0.7818608E-02  0.1098615E+00
          2   -1    0    0  501    0  0.00000000000E+00  0.00000000000E+00  0.16929485501E+04  0.16929485501E+04  0.00000000000E+00 0. -1.
         -2   -1    0    0    0  501 -0.00000000000E+00 -0.00000000000E+00 -0.11143860477E+02  0.11143860477E+02  0.00000000000E+00 0. -1.
         35    2    1    2    0    0  0.00000000000E+00  0.00000000000E+00  0.16818046896E+04  0.17040924105E+04  0.27470698889E+03 0.  0.
         25    1    3    3    0    0  0.96743896868E+01  0.22939972706E+02  0.45618981414E+03  0.47236530640E+03  0.12000000000E+03 0.  0.
         25    1    3    3    0    0 -0.96743896868E+01 -0.22939972706E+02  0.12256148754E+04  0.12317271041E+04  0.12000000000E+03 0.  0.
<mgrwt>
<rscale>  0 0.27470699E+03</rscale>
<asrwt>0</asrwt>
<pdfrwt beam="1">  1        2 0.26045342E+00 0.27470699E+03</pdfrwt>
<pdfrwt beam="2">  1       -2 0.17144414E-02 0.27470699E+03</pdfrwt>
<totfact> 0.10449676E+04</totfact>
</mgrwt>
</event>
<event>
 5    1  0.1132878E+001  0.2772826E+03  0.7818608E-02  0.1097182E+00
         -1   -1    0    0    0  501 -0.00000000000E+00  0.00000000000E+00  0.85521896610E+03  0.85521896610E+03  0.00000000000E+00 0.  1.
          1   -1    0    0  501    0  0.00000000000E+00 -0.00000000000E+00 -0.22475426309E+02  0.22475426309E+02  0.00000000000E+00 0.  1.
         35    2    1    2    0    0  0.00000000000E+00  0.00000000000E+00  0.83274353979E+03  0.87769439241E+03  0.27728260566E+03 0.  0.
         25    1    3    3    0    0  0.62549112500E+02  0.68215305148E+01  0.50933190558E+03  0.52704640668E+03  0.12000000000E+03 0.  0.
         25    1    3    3    0    0 -0.62549112500E+02 -0.68215305148E+01  0.32341163421E+03  0.35064798573E+03  0.12000000000E+03 0.  0.
<mgrwt>
<rscale>  0 0.27728261E+03</rscale>
<asrwt>0</asrwt>
<pdfrwt beam="1">  1        1 0.34577586E-02 0.27728261E+03</pdfrwt>
<pdfrwt beam="2">  1       -1 0.13157212E+00 0.27728261E+03</pdfrwt>
<totfact> 0.14741464E+03</totfact>
</mgrwt>
</event>
<event>
 5    1  0.1132878E+001  0.2748963E+03  0.7818608E-02  0.1098510E+00
         -2   -1    0    0    0  501 -0.00000000000E+00  0.00000000000E+00  0.93049309482E+02  0.93049309482E+02  0.00000000000E+00 0.  1.
          2   -1    0    0  501    0  0.00000000000E+00 -0.00000000000E+00 -0.20303211707E+03  0.20303211707E+03  0.00000000000E+00 0.  1.
         35    2    1    2    0    0  0.00000000000E+00  0.00000000000E+00 -0.10998280759E+03  0.29608142656E+03  0.27489633171E+03 0.  0.
         25    1    3    3    0    0  0.12713500134E+02 -0.61468730823E+02 -0.29686997192E+02  0.13864110414E+03  0.12000000000E+03 0.  0.
         25    1    3    3    0    0 -0.12713500134E+02  0.61468730823E+02 -0.80295810400E+02  0.15744032242E+03  0.12000000000E+03 0.  0.
<mgrwt>
<rscale>  0 0.27489633E+03</rscale>
<asrwt>0</asrwt>
<pdfrwt beam="1">  1        2 0.31235710E-01 0.27489633E+03</pdfrwt>
<pdfrwt beam="2">  1       -2 0.14315278E-01 0.27489633E+03</pdfrwt>
<totfact> 0.61572731E+03</totfact>
</mgrwt>
</event>
<event>
 5    1  0.1132878E+001  0.2746983E+03  0.7818608E-02  0.1098620E+00
         -1   -1    0    0    0  501 -0.00000000000E+00  0.00000000000E+00  0.11407862135E+03  0.11407862135E+03  0.00000000000E+00 0.  1.
          1   -1    0    0  501    0  0.00000000000E+00 -0.00000000000E+00 -0.16536656592E+03  0.16536656592E+03  0.00000000000E+00 0.  1.
         35    2    1    2    0    0  0.00000000000E+00  0.00000000000E+00 -0.51287944576E+02  0.27944518727E+03  0.27469830620E+03 0.  0.
         25    1    3    3    0    0  0.26671233737E+02 -0.29827013012E+02  0.28795112528E+02  0.12973112163E+03  0.12000000000E+03 0.  0.
         25    1    3    3    0    0 -0.26671233737E+02  0.29827013012E+02 -0.80083057104E+02  0.14971406564E+03  0.12000000000E+03 0.  0.
<mgrwt>
<rscale>  0 0.27469831E+03</rscale>
<asrwt>0</asrwt>
<pdfrwt beam="1">  1        1 0.25441010E-01 0.27469831E+03</pdfrwt>
<pdfrwt beam="2">  1       -1 0.17550557E-01 0.27469831E+03</pdfrwt>
<totfact> 0.46368553E+03</totfact>
</mgrwt>
</event>
<event>
 5    1  0.1132878E+001  0.2751555E+03  0.7818608E-02  0.1098365E+00
          2   -1    0    0  501    0  0.00000000000E+00  0.00000000000E+00  0.93303266091E+03  0.93303266091E+03  0.00000000000E+00 0.  1.
         -2   -1    0    0    0  501 -0.00000000000E+00 -0.00000000000E+00 -0.20286146800E+02  0.20286146800E+02  0.00000000000E+00 0.  1.
         35    2    1    2    0    0  0.00000000000E+00  0.00000000000E+00  0.91274651411E+03  0.95331880771E+03  0.27515550170E+03 0.  0.
         25    1    3    3    0    0 -0.39109056517E+02  0.46852754065E+02  0.35819820378E+03  0.38266258252E+03  0.12000000000E+03 0.  0.
         25    1    3    3    0    0  0.39109056517E+02 -0.46852754065E+02  0.55454831033E+03  0.57065622520E+03  0.12000000000E+03 0.  0.
<mgrwt>
<rscale>  0 0.27515550E+03</rscale>
<asrwt>0</asrwt>
<pdfrwt beam="1">  1        2 0.14354345E+00 0.27515550E+03</pdfrwt>
<pdfrwt beam="2">  1       -2 0.31209464E-02 0.27515550E+03</pdfrwt>
<totfact> 0.11516216E+04</totfact>
</mgrwt>
</event>
<event>
 5    1  0.1132878E+001  0.2762735E+03  0.7818608E-02  0.1097742E+00
          2   -1    0    0  501    0  0.00000000000E+00  0.00000000000E+00  0.17535565695E+04  0.17535565695E+04  0.00000000000E+00 0. -1.
         -2   -1    0    0    0  501 -0.00000000000E+00 -0.00000000000E+00 -0.10881752473E+02  0.10881752473E+02  0.00000000000E+00 0. -1.
         35    2    1    2    0    0  0.00000000000E+00  0.00000000000E+00  0.17426748170E+04  0.17644383219E+04  0.27627354948E+03 0.  0.
         25    1    3    3    0    0 -0.16523989261E+02 -0.12264750757E+02  0.12880968179E+04  0.12938380419E+04  0.12000000000E+03 0.  0.
         25    1    3    3    0    0  0.16523989261E+02  0.12264750757E+02  0.45457799912E+03  0.47060028009E+03  0.12000000000E+03 0.  0.
<mgrwt>
<rscale>  0 0.27627355E+03</rscale>
<asrwt>0</asrwt>
<pdfrwt beam="1">  1        2 0.26977771E+00 0.27627355E+03</pdfrwt>
<pdfrwt beam="2">  1       -2 0.16741172E-02 0.27627355E+03</pdfrwt>
<totfact> 0.10055549E+04</totfact>
</mgrwt>
</event>
<event>
 5    1  0.1132878E+001  0.2754730E+03  0.7818608E-02  0.1098187E+00
         -2   -1    0    0    0  501 -0.00000000000E+00  0.00000000000E+00  0.25181753705E+02  0.25181753705E+02  0.00000000000E+00 0. -1.
          2   -1    0    0  501    0  0.00000000000E+00 -0.00000000000E+00 -0.75337685007E+03  0.75337685007E+03  0.00000000000E+00 0. -1.
         35    2    1    2    0    0  0.00000000000E+00  0.00000000000E+00 -0.72819509637E+03  0.77855860377E+03  0.27547304975E+03 0.  0.
         25    1    3    3    0    0  0.20887018008E+02  0.46034408355E+02 -0.23720140913E+03  0.27059183795E+03  0.12000000000E+03 0.  0.
         25    1    3    3    0    0 -0.20887018008E+02 -0.46034408355E+02 -0.49099368723E+03  0.50796676582E+03  0.12000000000E+03 0.  0.
<mgrwt>
<rscale>  0 0.27547305E+03</rscale>
<asrwt>0</asrwt>
<pdfrwt beam="1">  1        2 0.11590415E+00 0.27547305E+03</pdfrwt>
<pdfrwt beam="2">  1       -2 0.38741154E-02 0.27547305E+03</pdfrwt>
<totfact> 0.11004064E+04</totfact>
</mgrwt>
</event>
<event>
 5    1  0.1132878E+001  0.2757403E+03  0.7818608E-02  0.1098039E+00
         -2   -1    0    0    0  501 -0.00000000000E+00  0.00000000000E+00  0.11459456733E+02  0.11459456733E+02  0.00000000000E+00 0.  1.
          2   -1    0    0  501    0  0.00000000000E+00 -0.00000000000E+00 -0.16587326784E+04  0.16587326784E+04  0.00000000000E+00 0.  1.
         35    2    1    2    0    0  0.00000000000E+00  0.00000000000E+00 -0.16472732216E+04  0.16701921351E+04  0.27574027896E+03 0.  0.
         25    1    3    3    0    0  0.11882401229E+02  0.17568317402E+02 -0.12142311108E+04  0.12203307042E+04  0.12000000000E+03 0.  0.
         25    1    3    3    0    0 -0.11882401229E+02 -0.17568317402E+02 -0.43304211083E+03  0.44986143087E+03  0.12000000000E+03 0.  0.
<mgrwt>
<rscale>  0 0.27574028E+03</rscale>
<asrwt>0</asrwt>
<pdfrwt beam="1">  1        2 0.25518967E+00 0.27574028E+03</pdfrwt>
<pdfrwt beam="2">  1       -2 0.17629932E-02 0.27574028E+03</pdfrwt>
<totfact> 0.10456396E+04</totfact>
</mgrwt>
</event>
<event>
 5    1  0.1132878E+001  0.2756458E+03  0.7818608E-02  0.1098091E+00
         -1   -1    0    0    0  501 -0.00000000000E+00  0.00000000000E+00  0.81305373778E+02  0.81305373778E+02  0.00000000000E+00 0. -1.
          1   -1    0    0  501    0  0.00000000000E+00 -0.00000000000E+00 -0.23362724543E+03  0.23362724543E+03  0.00000000000E+00 0. -1.
         35    2    1    2    0    0  0.00000000000E+00  0.00000000000E+00 -0.15232187165E+03  0.31493261920E+03  0.27564579093E+03 0.  0.
         25    1    3    3    0    0 -0.55142908491E+02  0.31163980274E+02 -0.10375280851E+03  0.17081153151E+03  0.12000000000E+03 0.  0.
         25    1    3    3    0    0  0.55142908491E+02 -0.31163980274E+02 -0.48569063137E+02  0.14412108769E+03  0.12000000000E+03 0.  0.
<mgrwt>
<rscale>  0 0.27564579E+03</rscale>
<asrwt>0</asrwt>
<pdfrwt beam="1">  1        1 0.35942653E-01 0.27564579E+03</pdfrwt>
<pdfrwt beam="2">  1       -1 0.12508519E-01 0.27564579E+03</pdfrwt>
<totfact> 0.51292707E+03</totfact>
</mgrwt>
</event>
<event>
 5    1  0.1132878E+001  0.2754892E+03  0.7818608E-02  0.1098178E+00
          2   -1    0    0  501    0  0.00000000000E+00  0.00000000000E+00  0.23873608999E+03  0.23873608999E+03  0.00000000000E+00 0. -1.
         -2   -1    0    0    0  501 -0.00000000000E+00 -0.00000000000E+00 -0.79475115257E+02  0.79475115257E+02  0.00000000000E+00 0. -1.
         35    2    1    2    0    0  0.00000000000E+00  0.00000000000E+00  0.15926097474E+03  0.31821120525E+03  0.27548922497E+03 0.  0.
         25    1    3    3    0    0  0.15277015919E+02 -0.87946955670E+01  0.42149915500E+01  0.12136103180E+03  0.12000000000E+03 0.  0.
         25    1    3    3    0    0 -0.15277015919E+02  0.87946955670E+01  0.15504598319E+03  0.19685017345E+03  0.12000000000E+03 0.  0.
<mgrwt>
<rscale>  0 0.27548922E+03</rscale>
<asrwt>0</asrwt>
<pdfrwt beam="1">  1        2 0.36728629E-01 0.27548922E+03</pdfrwt>
<pdfrwt beam="2">  1       -2 0.12226941E-01 0.27548922E+03</pdfrwt>
<totfact> 0.66762169E+03</totfact>
</mgrwt>
</event>
<event>
 5    1  0.1132878E+001  0.2749279E+03  0.7818608E-02  0.1098492E+00
         -2   -1    0    0    0  501 -0.00000000000E+00  0.00000000000E+00  0.54262256080E+03  0.54262256080E+03  0.00000000000E+00 0.  1.
          2   -1    0    0  501    0  0.00000000000E+00 -0.00000000000E+00 -0.34824081214E+02  0.34824081214E+02  0.00000000000E+00 0.  1.
         35    2    1    2    0    0  0.00000000000E+00  0.00000000000E+00  0.50779847959E+03  0.57744664202E+03  0.27492786055E+03 0.  0.
         25    1    3    3    0    0 -0.54123644869E+01  0.41850368657E+02  0.36335152027E+03  0.38497412163E+03  0.12000000000E+03 0.  0.
         25    1    3    3    0    0  0.54123644869E+01 -0.41850368657E+02  0.14444695932E+03  0.19247252038E+03  0.12000000000E+03 0.  0.
<mgrwt>
<rscale>  0 0.27492786E+03</rscale>
<asrwt>0</asrwt>
<pdfrwt beam="1">  1        2 0.53575513E-02 0.27492786E+03</pdfrwt>
<pdfrwt beam="2">  1       -2 0.83480388E-01 0.27492786E+03</pdfrwt>
<totfact> 0.18550376E+03</totfact>
</mgrwt>
</event>
<event>
 5    1  0.1132878E+001  0.2754128E+03  0.7818608E-02  0.1098221E+00
          1   -1    0    0  501    0  0.00000000000E+00  0.00000000000E+00  0.10175703763E+03  0.10175703763E+03  0.00000000000E+00 0.  1.
         -1   -1    0    0    0  501 -0.00000000000E+00 -0.00000000000E+00 -0.18635618127E+03  0.18635618127E+03  0.00000000000E+00 0.  1.
         35    2    1    2    0    0  0.00000000000E+00  0.00000000000E+00 -0.84599143637E+02  0.28811321890E+03  0.27541280254E+03 0.  0.
         25    1    3    3    0    0  0.52129540456E+02 -0.11396102239E+02  0.10314396131E+01  0.13133325551E+03  0.12000000000E+03 0.  0.
         25    1    3    3    0    0 -0.52129540456E+02  0.11396102239E+02 -0.85630583250E+02  0.15677996340E+03  0.12000000000E+03 0.  0.
<mgrwt>
<rscale>  0 0.27541280E+03</rscale>
<asrwt>0</asrwt>
<pdfrwt beam="1">  1        1 0.15654929E-01 0.27541280E+03</pdfrwt>
<pdfrwt beam="2">  1       -1 0.28670182E-01 0.27541280E+03</pdfrwt>
<totfact> 0.38671603E+03</totfact>
</mgrwt>
</event>
<event>
 5    1  0.1132878E+001  0.2749528E+03  0.7818608E-02  0.1098478E+00
          2   -1    0    0  501    0  0.00000000000E+00  0.00000000000E+00  0.16467407261E+03  0.16467407261E+03  0.00000000000E+00 0.  1.
         -2   -1    0    0    0  501 -0.00000000000E+00 -0.00000000000E+00 -0.11477072204E+03  0.11477072204E+03  0.00000000000E+00 0.  1.
         35    2    1    2    0    0  0.00000000000E+00  0.00000000000E+00  0.49903350568E+02  0.27944479466E+03  0.27495281207E+03 0.  0.
         25    1    3    3    0    0  0.54866464859E+02 -0.14020590923E+02 -0.11592063940E+02  0.13319640341E+03  0.12000000000E+03 0.  0.
         25    1    3    3    0    0 -0.54866464859E+02  0.14020590923E+02  0.61495414508E+02  0.14624839124E+03  0.12000000000E+03 0.  0.
<mgrwt>
<rscale>  0 0.27495281E+03</rscale>
<asrwt>0</asrwt>
<pdfrwt beam="1">  1        2 0.25334473E-01 0.27495281E+03</pdfrwt>
<pdfrwt beam="2">  1       -2 0.17657034E-01 0.27495281E+03</pdfrwt>
<totfact> 0.54737715E+03</totfact>
</mgrwt>
</event>
<event>
 5    1  0.1132878E+001  0.2729210E+03  0.7818608E-02  0.1099619E+00
         -1   -1    0    0    0  501 -0.00000000000E+00  0.00000000000E+00  0.21347889571E+02  0.21347889571E+02  0.00000000000E+00 0.  1.
          1   -1    0    0  501    0  0.00000000000E+00 -0.00000000000E+00 -0.87228599953E+03  0.87228599953E+03  0.00000000000E+00 0.  1.
         35    2    1    2    0    0  0.00000000000E+00  0.00000000000E+00 -0.85093810996E+03  0.89363388910E+03  0.27292097899E+03 0.  0.
         25    1    3    3    0    0  0.16182685575E+01  0.50250110234E+02 -0.56022573087E+03  0.57513525531E+03  0.12000000000E+03 0.  0.
         25    1    3    3    0    0 -0.16182685575E+01 -0.50250110234E+02 -0.29071237909E+03  0.31849863379E+03  0.12000000000E+03 0.  0.
<mgrwt>
<rscale>  0 0.27292098E+03</rscale>
<asrwt>0</asrwt>
<pdfrwt beam="1">  1        1 0.13419784E+00 0.27292098E+03</pdfrwt>
<pdfrwt beam="2">  1       -1 0.32842908E-02 0.27292098E+03</pdfrwt>
<totfact> 0.66164308E+03</totfact>
</mgrwt>
</event>
<event>
 5    1  0.1132878E+001  0.2740970E+03  0.7818608E-02  0.1098957E+00
          4   -1    0    0  501    0  0.00000000000E+00  0.00000000000E+00  0.67741895170E+03  0.67741895170E+03  0.00000000000E+00 0.  1.
         -4   -1    0    0    0  501 -0.00000000000E+00 -0.00000000000E+00 -0.27726256400E+02  0.27726256400E+02  0.00000000000E+00 0.  1.
         35    2    1    2    0    0  0.00000000000E+00  0.00000000000E+00  0.64969269530E+03  0.70514520810E+03  0.27409700141E+03 0.  0.
         25    1    3    3    0    0  0.63720028132E+02  0.17844703314E+02  0.31995424127E+03  0.34806521217E+03  0.12000000000E+03 0.  0.
         25    1    3    3    0    0 -0.63720028132E+02 -0.17844703314E+02  0.32973845403E+03  0.35707999592E+03  0.12000000000E+03 0.  0.
<mgrwt>
<rscale>  0 0.27409700E+03</rscale>
<asrwt>0</asrwt>
<pdfrwt beam="1">  1        4 0.10421829E+00 0.27409700E+03</pdfrwt>
<pdfrwt beam="2">  1       -4 0.42655784E-02 0.27409700E+03</pdfrwt>
<totfact> 0.44738912E+02</totfact>
</mgrwt>
</event>
<event>
 5    1  0.1132878E+001  0.2738436E+03  0.7818608E-02  0.1099100E+00
          2   -1    0    0  501    0  0.00000000000E+00  0.00000000000E+00  0.56071649386E+03  0.56071649386E+03  0.00000000000E+00 0. -1.
         -2   -1    0    0    0  501 -0.00000000000E+00 -0.00000000000E+00 -0.33435039589E+02  0.33435039589E+02  0.00000000000E+00 0. -1.
         35    2    1    2    0    0  0.00000000000E+00  0.00000000000E+00  0.52728145427E+03  0.59415153345E+03  0.27384359164E+03 0.  0.
         25    1    3    3    0    0 -0.58891122044E+02 -0.24763634829E+02  0.29903877693E+03  0.32848986586E+03  0.12000000000E+03 0.  0.
         25    1    3    3    0    0  0.58891122044E+02  0.24763634829E+02  0.22824267734E+03  0.26566166759E+03  0.12000000000E+03 0.  0.
<mgrwt>
<rscale>  0 0.27384359E+03</rscale>
<asrwt>0</asrwt>
<pdfrwt beam="1">  1        2 0.86264069E-01 0.27384359E+03</pdfrwt>
<pdfrwt beam="2">  1       -2 0.51438527E-02 0.27384359E+03</pdfrwt>
<totfact> 0.10182388E+04</totfact>
</mgrwt>
</event>
<event>
 5    1  0.1132878E+001  0.2760065E+03  0.7818608E-02  0.1097890E+00
          1   -1    0    0  501    0  0.00000000000E+00  0.00000000000E+00  0.32292972580E+03  0.32292972580E+03  0.00000000000E+00 0. -1.
         -1   -1    0    0    0  501 -0.00000000000E+00 -0.00000000000E+00 -0.58975345145E+02  0.58975345145E+02  0.00000000000E+00 0. -1.
         35    2    1    2    0    0  0.00000000000E+00  0.00000000000E+00  0.26395438065E+03  0.38190507094E+03  0.27600646396E+03 0.  0.
         25    1    3    3    0    0 -0.27156487154E+02  0.14417852026E+02  0.47816323689E+02  0.13278460025E+03  0.12000000000E+03 0.  0.
         25    1    3    3    0    0  0.27156487154E+02 -0.14417852026E+02  0.21613805696E+03  0.24912047070E+03  0.12000000000E+03 0.  0.
<mgrwt>
<rscale>  0 0.27600646E+03</rscale>
<asrwt>0</asrwt>
<pdfrwt beam="1">  1        1 0.49681496E-01 0.27600646E+03</pdfrwt>
<pdfrwt beam="2">  1       -1 0.90731302E-02 0.27600646E+03</pdfrwt>
<totfact> 0.56203079E+03</totfact>
</mgrwt>
</event>
<event>
 5    1  0.1132878E+001  0.2746840E+03  0.7818608E-02  0.1098628E+00
          2   -1    0    0  501    0  0.00000000000E+00  0.00000000000E+00  0.23126608187E+03  0.23126608187E+03  0.00000000000E+00 0.  1.
         -2   -1    0    0    0  501 -0.00000000000E+00 -0.00000000000E+00 -0.81563320324E+02  0.81563320324E+02  0.00000000000E+00 0.  1.
         35    2    1    2    0    0  0.00000000000E+00  0.00000000000E+00  0.14970276155E+03  0.31282940220E+03  0.27468403314E+03 0.  0.
         25    1    3    3    0    0 -0.55976278543E+02 -0.36044315211E+02  0.68583135395E+02  0.15341506731E+03  0.12000000000E+03 0.  0.
         25    1    3    3    0    0  0.55976278543E+02  0.36044315211E+02  0.81119626152E+02  0.15941433488E+03  0.12000000000E+03 0.  0.
<mgrwt>
<rscale>  0 0.27468403E+03</rscale>
<asrwt>0</asrwt>
<pdfrwt beam="1">  1        2 0.35579397E-01 0.27468403E+03</pdfrwt>
<pdfrwt beam="2">  1       -2 0.12548203E-01 0.27468403E+03</pdfrwt>
<totfact> 0.66253141E+03</totfact>
</mgrwt>
</event>
<event>
 5    1  0.1132878E+001  0.2743534E+03  0.7818608E-02  0.1098814E+00
         -1   -1    0    0    0  501 -0.00000000000E+00  0.00000000000E+00  0.70271145031E+02  0.70271145031E+02  0.00000000000E+00 0.  1.
          1   -1    0    0  501    0  0.00000000000E+00 -0.00000000000E+00 -0.26778343526E+03  0.26778343526E+03  0.00000000000E+00 0.  1.
         35    2    1    2    0    0  0.00000000000E+00  0.00000000000E+00 -0.19751229023E+03  0.33805458029E+03  0.27435341161E+03 0.  0.
         25    1    3    3    0    0 -0.49647519210E+02 -0.57745221291E+01 -0.44775301055E+02  0.13748835898E+03  0.12000000000E+03 0.  0.
         25    1    3    3    0    0  0.49647519210E+02  0.57745221291E+01 -0.15273698917E+03  0.20056622131E+03  0.12000000000E+03 0.  0.
<mgrwt>
<rscale>  0 0.27435341E+03</rscale>
<asrwt>0</asrwt>
<pdfrwt beam="1">  1        1 0.41197452E-01 0.27435341E+03</pdfrwt>
<pdfrwt beam="2">  1       -1 0.10810945E-01 0.27435341E+03</pdfrwt>
<totfact> 0.54245097E+03</totfact>
</mgrwt>
</event>
<event>
 5    1  0.1132878E+001  0.2748347E+03  0.7818608E-02  0.1098544E+00
         -2   -1    0    0    0  501 -0.00000000000E+00  0.00000000000E+00  0.19128907012E+02  0.19128907012E+02  0.00000000000E+00 0. -1.
          2   -1    0    0  501    0  0.00000000000E+00 -0.00000000000E+00 -0.98717255542E+03  0.98717255542E+03  0.00000000000E+00 0. -1.
         35    2    1    2    0    0  0.00000000000E+00  0.00000000000E+00 -0.96804364840E+03  0.10063014624E+04  0.27483472865E+03 0.  0.
         25    1    3    3    0    0  0.49334429439E+02 -0.44721014598E+02 -0.45821503791E+03  0.47832507361E+03  0.12000000000E+03 0.  0.
         25    1    3    3    0    0 -0.49334429439E+02  0.44721014598E+02 -0.50982861049E+03  0.52797638882E+03  0.12000000000E+03 0.  0.
<mgrwt>
<rscale>  0 0.27483473E+03</rscale>
<asrwt>0</asrwt>
<pdfrwt beam="1">  1        2 0.15187273E+00 0.27483473E+03</pdfrwt>
<pdfrwt beam="2">  1       -2 0.29429081E-02 0.27483473E+03</pdfrwt>
<totfact> 0.11626322E+04</totfact>
</mgrwt>
</event>
<event>
 5    1  0.1132878E+001  0.2752200E+03  0.7818608E-02  0.1098329E+00
         -1   -1    0    0    0  501 -0.00000000000E+00  0.00000000000E+00  0.42850108908E+02  0.42850108908E+02  0.00000000000E+00 0.  1.
          1   -1    0    0  501    0  0.00000000000E+00 -0.00000000000E+00 -0.44192459185E+03  0.44192459185E+03  0.00000000000E+00 0.  1.
         35    2    1    2    0    0  0.00000000000E+00  0.00000000000E+00 -0.39907448294E+03  0.48477470076E+03  0.27522003481E+03 0.  0.
         25    1    3    3    0    0 -0.28968164156E+02 -0.10451895888E+02 -0.94027296921E+02  0.15552983389E+03  0.12000000000E+03 0.  0.
         25    1    3    3    0    0  0.28968164156E+02  0.10451895888E+02 -0.30504718602E+03  0.32924486687E+03  0.12000000000E+03 0.  0.
<mgrwt>
<rscale>  0 0.27522003E+03</rscale>
<asrwt>0</asrwt>
<pdfrwt beam="1">  1        1 0.67988398E-01 0.27522003E+03</pdfrwt>
<pdfrwt beam="2">  1       -1 0.65923246E-02 0.27522003E+03</pdfrwt>
<totfact> 0.61272724E+03</totfact>
</mgrwt>
</event>
<event>
 5    1  0.1132878E+001  0.2759001E+03  0.7818608E-02  0.1097950E+00
          1   -1    0    0  501    0  0.00000000000E+00  0.00000000000E+00  0.12067537566E+04  0.12067537566E+04  0.00000000000E+00 0.  1.
         -1   -1    0    0    0  501 -0.00000000000E+00 -0.00000000000E+00 -0.15769754260E+02  0.15769754260E+02  0.00000000000E+00 0.  1.
         35    2    1    2    0    0  0.00000000000E+00  0.00000000000E+00  0.11909840024E+04  0.12225235109E+04  0.27590005578E+03 0.  0.
         25    1    3    3    0    0 -0.22246859064E+02 -0.46761746179E+02  0.39989160073E+03  0.42070758964E+03  0.12000000000E+03 0.  0.
         25    1    3    3    0    0  0.22246859064E+02  0.46761746179E+02  0.79109240166E+03  0.80181592127E+03  0.12000000000E+03 0.  0.
<mgrwt>
<rscale>  0 0.27590006E+03</rscale>
<asrwt>0</asrwt>
<pdfrwt beam="1">  1        1 0.18565435E+00 0.27590006E+03</pdfrwt>
<pdfrwt beam="2">  1       -1 0.24261170E-02 0.27590006E+03</pdfrwt>
<totfact> 0.58457867E+03</totfact>
</mgrwt>
</event>
<event>
 5    1  0.1132878E+001  0.2778038E+03  0.7818608E-02  0.1096895E+00
         -1   -1    0    0    0  501 -0.00000000000E+00  0.00000000000E+00  0.13050675507E+04  0.13050675507E+04  0.00000000000E+00 0. -1.
          1   -1    0    0  501    0  0.00000000000E+00 -0.00000000000E+00 -0.14783708726E+02  0.14783708726E+02  0.00000000000E+00 0. -1.
         35    2    1    2    0    0  0.00000000000E+00  0.00000000000E+00  0.12902838420E+04  0.13198512595E+04  0.27780380514E+03 0.  0.
         25    1    3    3    0    0 -0.37327056295E+02 -0.19804099503E+02  0.91001826229E+03  0.91886818923E+03  0.12000000000E+03 0.  0.
         25    1    3    3    0    0  0.37327056295E+02  0.19804099503E+02  0.38026557974E+03  0.40098307024E+03  0.12000000000E+03 0.  0.
<mgrwt>
<rscale>  0 0.27780381E+03</rscale>
<asrwt>0</asrwt>
<pdfrwt beam="1">  1        1 0.22744178E-02 0.27780381E+03</pdfrwt>
<pdfrwt beam="2">  1       -1 0.20077953E+00 0.27780381E+03</pdfrwt>
<totfact> 0.83187016E+02</totfact>
</mgrwt>
</event>
<event>
 5    1  0.1132878E+001  0.2760370E+03  0.7818608E-02  0.1097873E+00
         -3   -1    0    0    0  501 -0.00000000000E+00  0.00000000000E+00  0.22370543795E+02  0.22370543795E+02  0.00000000000E+00 0.  1.
          3   -1    0    0  501    0  0.00000000000E+00 -0.00000000000E+00 -0.85152629607E+03  0.85152629607E+03  0.00000000000E+00 0.  1.
         35    2    1    2    0    0  0.00000000000E+00  0.00000000000E+00 -0.82915575227E+03  0.87389683986E+03  0.27603699968E+03 0.  0.
         25    1    3    3    0    0 -0.55544221398E+02 -0.32649958378E+02 -0.48522187363E+03  0.50397564124E+03  0.12000000000E+03 0.  0.
         25    1    3    3    0    0  0.55544221398E+02  0.32649958378E+02 -0.34393387864E+03  0.36992119862E+03  0.12000000000E+03 0.  0.
<mgrwt>
<rscale>  0 0.27603700E+03</rscale>
<asrwt>0</asrwt>
<pdfrwt beam="1">  1        3 0.13100405E+00 0.27603700E+03</pdfrwt>
<pdfrwt beam="2">  1       -3 0.34416220E-02 0.27603700E+03</pdfrwt>
<totfact> 0.50056235E+02</totfact>
</mgrwt>
</event>
<event>
 5    1  0.1132878E+001  0.2745026E+03  0.7818608E-02  0.1098730E+00
          2   -1    0    0  501    0  0.00000000000E+00  0.00000000000E+00  0.14165965595E+04  0.14165965595E+04  0.00000000000E+00 0.  1.
         -2   -1    0    0    0  501 -0.00000000000E+00 -0.00000000000E+00 -0.13298010463E+02  0.13298010463E+02  0.00000000000E+00 0.  1.
         35    2    1    2    0    0  0.00000000000E+00  0.00000000000E+00  0.14032985490E+04  0.14298945699E+04  0.27450257463E+03 0.  0.
         25    1    3    3    0    0  0.12890205230E+02 -0.29070672410E+01  0.36153025319E+03  0.38115447315E+03  0.12000000000E+03 0.  0.
         25    1    3    3    0    0 -0.12890205230E+02  0.29070672410E+01  0.10417682958E+04  0.10487400968E+04  0.12000000000E+03 0.  0.
<mgrwt>
<rscale>  0 0.27450257E+03</rscale>
<asrwt>0</asrwt>
<pdfrwt beam="1">  1        2 0.21793781E+00 0.27450257E+03</pdfrwt>
<pdfrwt beam="2">  1       -2 0.20458489E-02 0.27450257E+03</pdfrwt>
<totfact> 0.11312951E+04</totfact>
</mgrwt>
</event>
<event>
 5    1  0.1132878E+001  0.2750379E+03  0.7818608E-02  0.1098430E+00
          4   -1    0    0  501    0  0.00000000000E+00  0.00000000000E+00  0.36929955169E+03  0.36929955169E+03  0.00000000000E+00 0. -1.
         -4   -1    0    0    0  501 -0.00000000000E+00 -0.00000000000E+00 -0.51209015591E+02  0.51209015591E+02  0.00000000000E+00 0. -1.
         35    2    1    2    0    0  0.00000000000E+00  0.00000000000E+00  0.31809053610E+03  0.42050856729E+03  0.27503793557E+03 0.  0.
         25    1    3    3    0    0  0.13985100893E+00  0.39556340221E+01  0.56530664722E+02  0.13270788467E+03  0.12000000000E+03 0.  0.
         25    1    3    3    0    0 -0.13985100893E+00 -0.39556340221E+01  0.26155987138E+03  0.28780068262E+03  0.12000000000E+03 0.  0.
<mgrwt>
<rscale>  0 0.27503794E+03</rscale>
<asrwt>0</asrwt>
<pdfrwt beam="1">  1        4 0.56815314E-01 0.27503794E+03</pdfrwt>
<pdfrwt beam="2">  1       -4 0.78783103E-02 0.27503794E+03</pdfrwt>
<totfact> 0.63178010E+02</totfact>
</mgrwt>
</event>
<event>
 5    1  0.1132878E+001  0.2755724E+03  0.7818608E-02  0.1098132E+00
         -2   -1    0    0    0  501 -0.00000000000E+00  0.00000000000E+00  0.10316501985E+02  0.10316501985E+02  0.00000000000E+00 0. -1.
          2   -1    0    0  501    0  0.00000000000E+00 -0.00000000000E+00 -0.18402596904E+04  0.18402596904E+04  0.00000000000E+00 0. -1.
         35    2    1    2    0    0  0.00000000000E+00  0.00000000000E+00 -0.18299431884E+04  0.18505761924E+04  0.27557244238E+03 0.  0.
         25    1    3    3    0    0 -0.21379684793E+02 -0.33915207185E+02 -0.54852353570E+03  0.56292575124E+03  0.12000000000E+03 0.  0.
         25    1    3    3    0    0  0.21379684793E+02  0.33915207185E+02 -0.12814196527E+04  0.12876504411E+04  0.12000000000E+03 0.  0.
<mgrwt>
<rscale>  0 0.27557244E+03</rscale>
<asrwt>0</asrwt>
<pdfrwt beam="1">  1        2 0.28311663E+00 0.27557244E+03</pdfrwt>
<pdfrwt beam="2">  1       -2 0.15871555E-02 0.27557244E+03</pdfrwt>
<totfact> 0.97903251E+03</totfact>
</mgrwt>
</event>
<event>
 5    1  0.1132878E+001  0.2768521E+03  0.7818608E-02  0.1097421E+00
         -2   -1    0    0    0  501 -0.00000000000E+00  0.00000000000E+00  0.25294977994E+03  0.25294977994E+03  0.00000000000E+00 0.  1.
          2   -1    0    0  501    0  0.00000000000E+00 -0.00000000000E+00 -0.75753284778E+02  0.75753284778E+02  0.00000000000E+00 0.  1.
         35    2    1    2    0    0  0.00000000000E+00  0.00000000000E+00  0.17719649517E+03  0.32870306472E+03  0.27685213898E+03 0.  0.
         25    1    3    3    0    0  0.28467560084E+02 -0.51144910554E+02  0.13198824887E+03  0.18774211486E+03  0.12000000000E+03 0.  0.
         25    1    3    3    0    0 -0.28467560084E+02  0.51144910554E+02  0.45208246298E+02  0.14096094986E+03  0.12000000000E+03 0.  0.
<mgrwt>
<rscale>  0 0.27685214E+03</rscale>
<asrwt>0</asrwt>
<pdfrwt beam="1">  1        2 0.11654352E-01 0.27685214E+03</pdfrwt>
<pdfrwt beam="2">  1       -2 0.38915350E-01 0.27685214E+03</pdfrwt>
<totfact> 0.33130194E+03</totfact>
</mgrwt>
</event>
<event>
 5    1  0.1132878E+001  0.2751659E+03  0.7818608E-02  0.1098359E+00
          3   -1    0    0  501    0  0.00000000000E+00  0.00000000000E+00  0.23274338284E+02  0.23274338284E+02  0.00000000000E+00 0. -1.
         -3   -1    0    0    0  501 -0.00000000000E+00 -0.00000000000E+00 -0.81330200371E+03  0.81330200371E+03  0.00000000000E+00 0. -1.
         35    2    1    2    0    0  0.00000000000E+00  0.00000000000E+00 -0.79002766543E+03  0.83657634200E+03  0.27516588423E+03 0.  0.
         25    1    3    3    0    0 -0.29960052683E+02  0.38139633134E+02 -0.53686182945E+03  0.55224347918E+03  0.12000000000E+03 0.  0.
         25    1    3    3    0    0  0.29960052683E+02 -0.38139633134E+02 -0.25316583598E+03  0.28433286282E+03  0.12000000000E+03 0.  0.
<mgrwt>
<rscale>  0 0.27516588E+03</rscale>
<asrwt>0</asrwt>
<pdfrwt beam="1">  1        3 0.35806671E-02 0.27516588E+03</pdfrwt>
<pdfrwt beam="2">  1       -3 0.12512340E+00 0.27516588E+03</pdfrwt>
<totfact> 0.52400349E+02</totfact>
</mgrwt>
</event>
<event>
 5    1  0.1132878E+001  0.2747450E+03  0.7818608E-02  0.1098594E+00
          2   -1    0    0  501    0  0.00000000000E+00  0.00000000000E+00  0.29186814941E+03  0.29186814941E+03  0.00000000000E+00 0.  1.
         -2   -1    0    0    0  501 -0.00000000000E+00 -0.00000000000E+00 -0.64656590679E+02  0.64656590679E+02  0.00000000000E+00 0.  1.
         35    2    1    2    0    0  0.00000000000E+00  0.00000000000E+00  0.22721155873E+03  0.35652474009E+03  0.27474496879E+03 0.  0.
         25    1    3    3    0    0  0.65254752123E+02 -0.77124471668E+01  0.12968494665E+03  0.18850954858E+03  0.12000000000E+03 0.  0.
         25    1    3    3    0    0 -0.65254752123E+02  0.77124471668E+01  0.97526612078E+02  0.16801519151E+03  0.12000000000E+03 0.  0.
<mgrwt>
<rscale>  0 0.27474497E+03</rscale>
<asrwt>0</asrwt>
<pdfrwt beam="1">  1        2 0.44902792E-01 0.27474497E+03</pdfrwt>
<pdfrwt beam="2">  1       -2 0.99471680E-02 0.27474497E+03</pdfrwt>
<totfact> 0.74822706E+03</totfact>
</mgrwt>
</event>
<event>
 5    1  0.1132878E+001  0.2756034E+03  0.7818608E-02  0.1098115E+00
          2   -1    0    0  501    0  0.00000000000E+00  0.00000000000E+00  0.51644442459E+03  0.51644442459E+03  0.00000000000E+00 0.  1.
         -2   -1    0    0    0  501 -0.00000000000E+00 -0.00000000000E+00 -0.36769305244E+02  0.36769305244E+02  0.00000000000E+00 0.  1.
         35    2    1    2    0    0  0.00000000000E+00  0.00000000000E+00  0.47967511935E+03  0.55321372984E+03  0.27560335767E+03 0.  0.
         25    1    3    3    0    0 -0.46167435026E+02 -0.49444452748E+02  0.24710733775E+03  0.28291027259E+03  0.12000000000E+03 0.  0.
         25    1    3    3    0    0  0.46167435026E+02  0.49444452748E+02  0.23256778160E+03  0.27030345725E+03  0.12000000000E+03 0.  0.
<mgrwt>
<rscale>  0 0.27560336E+03</rscale>
<asrwt>0</asrwt>
<pdfrwt beam="1">  1        2 0.79452983E-01 0.27560336E+03</pdfrwt>
<pdfrwt beam="2">  1       -2 0.56568166E-02 0.27560336E+03</pdfrwt>
<totfact> 0.96713208E+03</totfact>
</mgrwt>
</event>
<event>
 5    1  0.1132878E+001  0.2731652E+03  0.7818608E-02  0.1099482E+00
         -2   -1    0    0    0  501 -0.00000000000E+00  0.00000000000E+00  0.76857732076E+01  0.76857732076E+01  0.00000000000E+00 0. -1.
          2   -1    0    0  501    0  0.00000000000E+00 -0.00000000000E+00 -0.24271861064E+04  0.24271861064E+04  0.00000000000E+00 0. -1.
         35    2    1    2    0    0  0.00000000000E+00  0.00000000000E+00 -0.24195003332E+04  0.24348718796E+04  0.27316516576E+03 0.  0.
         25    1    3    3    0    0  0.49366753871E+02 -0.10776110159E+02 -0.84206199058E+03  0.85206900948E+03  0.12000000000E+03 0.  0.
         25    1    3    3    0    0 -0.49366753871E+02  0.10776110159E+02 -0.15774383426E+04  0.15828028701E+04  0.12000000000E+03 0.  0.
<mgrwt>
<rscale>  0 0.27316517E+03</rscale>
<asrwt>0</asrwt>
<pdfrwt beam="1">  1        2 0.37341256E+00 0.27316517E+03</pdfrwt>
<pdfrwt beam="2">  1       -2 0.11824288E-02 0.27316517E+03</pdfrwt>
<totfact> 0.73418078E+03</totfact>
</mgrwt>
</event>
<event>
 5    1  0.1132878E+001  0.2754692E+03  0.7818608E-02  0.1098190E+00
          4   -1    0    0  501    0  0.00000000000E+00  0.00000000000E+00  0.14208297847E+02  0.14208297847E+02  0.00000000000E+00 0.  1.
         -4   -1    0    0    0  501 -0.00000000000E+00 -0.00000000000E+00 -0.13351931253E+04  0.13351931253E+04  0.00000000000E+00 0.  1.
         35    2    1    2    0    0  0.00000000000E+00  0.00000000000E+00 -0.13209848274E+04  0.13494014231E+04  0.27546921140E+03 0.  0.
         25    1    3    3    0    0 -0.55062834409E+02  0.11175813106E+02 -0.47629060537E+03  0.49437794782E+03  0.12000000000E+03 0.  0.
         25    1    3    3    0    0  0.55062834409E+02 -0.11175813106E+02 -0.84469422208E+03  0.85502347531E+03  0.12000000000E+03 0.  0.
<mgrwt>
<rscale>  0 0.27546921E+03</rscale>
<asrwt>0</asrwt>
<pdfrwt beam="1">  1        4 0.21858917E-02 0.27546921E+03</pdfrwt>
<pdfrwt beam="2">  1       -4 0.20541435E+00 0.27546921E+03</pdfrwt>
<totfact> 0.22036672E+02</totfact>
</mgrwt>
</event>
<event>
 4    1  0.1132878E+001  0.2503721E+03  0.7818608E-02  0.1113070E+00
          2   -1    0    0  501    0  0.00000000000E+00  0.00000000000E+00  0.50024260167E+03  0.50024260167E+03  0.00000000000E+00 0. -1.
         -2   -1    0    0    0  501 -0.00000000000E+00 -0.00000000000E+00 -0.31327902954E+02  0.31327902954E+02  0.00000000000E+00 0. -1.
         25    1    1    2    0    0  0.82909024354E+01  0.32344447445E+02  0.20788443687E+03  0.24234446855E+03  0.12000000000E+03 0.  0.
         25    1    1    2    0    0 -0.82909024354E+01 -0.32344447445E+02  0.26103026185E+03  0.28922603608E+03  0.12000000000E+03 0.  0.
<mgrwt>
<rscale>  0 0.25037214E+03</rscale>
<asrwt>0</asrwt>
<pdfrwt beam="1">  1        2 0.76960395E-01 0.25037214E+03</pdfrwt>
<pdfrwt beam="2">  1       -2 0.48196777E-02 0.25037214E+03</pdfrwt>
<totfact> 0.12736837E+04</totfact>
</mgrwt>
</event>
<event>
 5    1  0.1132878E+001  0.2744442E+03  0.7818608E-02  0.1098763E+00
         -2   -1    0    0    0  501 -0.00000000000E+00  0.00000000000E+00  0.37827804357E+02  0.37827804357E+02  0.00000000000E+00 0.  1.
          2   -1    0    0  501    0  0.00000000000E+00 -0.00000000000E+00 -0.49777957168E+03  0.49777957168E+03  0.00000000000E+00 0.  1.
         35    2    1    2    0    0  0.00000000000E+00  0.00000000000E+00 -0.45995176732E+03  0.53560737604E+03  0.27444422567E+03 0.  0.
         25    1    3    3    0    0  0.28327929315E+02  0.45462380922E+02 -0.30707323326E+03  0.33401088342E+03  0.12000000000E+03 0.  0.
         25    1    3    3    0    0 -0.28327929315E+02 -0.45462380922E+02 -0.15287853406E+03  0.20159649262E+03  0.12000000000E+03 0.  0.
<mgrwt>
<rscale>  0 0.27444423E+03</rscale>
<asrwt>0</asrwt>
<pdfrwt beam="1">  1        2 0.76581473E-01 0.27444423E+03</pdfrwt>
<pdfrwt beam="2">  1       -2 0.58196622E-02 0.27444423E+03</pdfrwt>
<totfact> 0.96489959E+03</totfact>
</mgrwt>
</event>
<event>
 5    1  0.1132878E+001  0.2750286E+03  0.7818608E-02  0.1098436E+00
          1   -1    0    0  501    0  0.00000000000E+00  0.00000000000E+00  0.21902834169E+03  0.21902834169E+03  0.00000000000E+00 0.  1.
         -1   -1    0    0    0  501 -0.00000000000E+00 -0.00000000000E+00 -0.86336698947E+02  0.86336698947E+02  0.00000000000E+00 0.  1.
         35    2    1    2    0    0  0.00000000000E+00  0.00000000000E+00  0.13269164274E+03  0.30536504063E+03  0.27502860940E+03 0.  0.
         25    1    3    3    0    0  0.64808328849E+02  0.12687138582E+02  0.79903388228E+02  0.15857375074E+03  0.12000000000E+03 0.  0.
         25    1    3    3    0    0 -0.64808328849E+02 -0.12687138582E+02  0.52788254510E+02  0.14679128989E+03  0.12000000000E+03 0.  0.
<mgrwt>
<rscale>  0 0.27502861E+03</rscale>
<asrwt>0</asrwt>
<pdfrwt beam="1">  1        1 0.33696668E-01 0.27502861E+03</pdfrwt>
<pdfrwt beam="2">  1       -1 0.13282569E-01 0.27502861E+03</pdfrwt>
<totfact> 0.50619339E+03</totfact>
</mgrwt>
</event>
<event>
 5    1  0.1132878E+001  0.2740054E+03  0.7818608E-02  0.1099009E+00
         -1   -1    0    0    0  501 -0.00000000000E+00  0.00000000000E+00  0.89559331154E+02  0.89559331154E+02  0.00000000000E+00 0.  1.
          1   -1    0    0  501    0  0.00000000000E+00 -0.00000000000E+00 -0.20957876459E+03  0.20957876459E+03  0.00000000000E+00 0.  1.
         35    2    1    2    0    0  0.00000000000E+00  0.00000000000E+00 -0.12001943343E+03  0.29913809574E+03  0.27400535747E+03 0.  0.
         25    1    3    3    0    0  0.55886210740E+02 -0.23108453350E+02 -0.30869392423E+02  0.13787744034E+03  0.12000000000E+03 0.  0.
         25    1    3    3    0    0 -0.55886210740E+02  0.23108453350E+02 -0.89150041010E+02  0.16126065540E+03  0.12000000000E+03 0.  0.
<mgrwt>
<rscale>  0 0.27400536E+03</rscale>
<asrwt>0</asrwt>
<pdfrwt beam="1">  1        1 0.32242887E-01 0.27400536E+03</pdfrwt>
<pdfrwt beam="2">  1       -1 0.13778359E-01 0.27400536E+03</pdfrwt>
<totfact> 0.50500682E+03</totfact>
</mgrwt>
</event>
<event>
 5    1  0.1132878E+001  0.2750224E+03  0.7818608E-02  0.1098439E+00
         -1   -1    0    0    0  501 -0.00000000000E+00  0.00000000000E+00  0.42787630500E+02  0.42787630500E+02  0.00000000000E+00 0. -1.
          1   -1    0    0  501    0  0.00000000000E+00 -0.00000000000E+00 -0.44193439827E+03  0.44193439827E+03  0.00000000000E+00 0. -1.
         35    2    1    2    0    0  0.00000000000E+00  0.00000000000E+00 -0.39914676777E+03  0.48472202877E+03  0.27502236810E+03 0.  0.
         25    1    3    3    0    0 -0.47469755091E+02  0.38751869230E+02 -0.24797721400E+03  0.28221938927E+03  0.12000000000E+03 0.  0.
         25    1    3    3    0    0  0.47469755091E+02 -0.38751869230E+02 -0.15116955377E+03  0.20250263950E+03  0.12000000000E+03 0.  0.
<mgrwt>
<rscale>  0 0.27502237E+03</rscale>
<asrwt>0</asrwt>
<pdfrwt beam="1">  1        1 0.67989909E-01 0.27502237E+03</pdfrwt>
<pdfrwt beam="2">  1       -1 0.65827123E-02 0.27502237E+03</pdfrwt>
<totfact> 0.61405103E+03</totfact>
</mgrwt>
</event>
<event>
 5    1  0.1132878E+001  0.2750340E+03  0.7818608E-02  0.1098433E+00
         -3   -1    0    0    0  501 -0.00000000000E+00  0.00000000000E+00  0.65018303832E+02  0.65018303832E+02  0.00000000000E+00 0.  1.
          3   -1    0    0  501    0  0.00000000000E+00 -0.00000000000E+00 -0.29085538520E+03  0.29085538520E+03  0.00000000000E+00 0.  1.
         35    2    1    2    0    0  0.00000000000E+00  0.00000000000E+00 -0.22583708137E+03  0.35587368903E+03  0.27503398922E+03 0.  0.
         25    1    3    3    0    0 -0.59184486696E+02 -0.10893012600E+02 -0.74328666539E+02  0.15344774960E+03  0.12000000000E+03 0.  0.
         25    1    3    3    0    0  0.59184486696E+02  0.10893012600E+02 -0.15150841483E+03  0.20242593943E+03  0.12000000000E+03 0.  0.
<mgrwt>
<rscale>  0 0.27503399E+03</rscale>
<asrwt>0</asrwt>
<pdfrwt beam="1">  1        3 0.44746982E-01 0.27503399E+03</pdfrwt>
<pdfrwt beam="2">  1       -3 0.10002816E-01 0.27503399E+03</pdfrwt>
<totfact> 0.93506878E+02</totfact>
</mgrwt>
</event>
<event>
 5    1  0.1132878E+001  0.2761353E+03  0.7818608E-02  0.1097819E+00
          2   -1    0    0  501    0  0.00000000000E+00  0.00000000000E+00  0.15921661278E+04  0.15921661278E+04  0.00000000000E+00 0.  1.
         -2   -1    0    0    0  501 -0.00000000000E+00 -0.00000000000E+00 -0.11972789180E+02  0.11972789180E+02  0.00000000000E+00 0.  1.
         35    2    1    2    0    0  0.00000000000E+00  0.00000000000E+00  0.15801933386E+04  0.16041389169E+04  0.27613525227E+03 0.  0.
         25    1    3    3    0    0  0.37618805681E+02 -0.54811071263E+02  0.69949445933E+03  0.71281970141E+03  0.12000000000E+03 0.  0.
         25    1    3    3    0    0 -0.37618805681E+02  0.54811071263E+02  0.88069887925E+03  0.89131921554E+03  0.12000000000E+03 0.  0.
<mgrwt>
<rscale>  0 0.27613525E+03</rscale>
<asrwt>0</asrwt>
<pdfrwt beam="1">  1        2 0.24494847E+00 0.27613525E+03</pdfrwt>
<pdfrwt beam="2">  1       -2 0.18419688E-02 0.27613525E+03</pdfrwt>
<totfact> 0.10633376E+04</totfact>
</mgrwt>
</event>
<event>
 5    1  0.1132878E+001  0.2743147E+03  0.7818608E-02  0.1098835E+00
          1   -1    0    0  501    0  0.00000000000E+00  0.00000000000E+00  0.51098361800E+03  0.51098361800E+03  0.00000000000E+00 0.  1.
         -1   -1    0    0    0  501 -0.00000000000E+00 -0.00000000000E+00 -0.36815554980E+02  0.36815554980E+02  0.00000000000E+00 0.  1.
         35    2    1    2    0    0  0.00000000000E+00  0.00000000000E+00  0.47416806302E+03  0.54779917298E+03  0.27431474975E+03 0.  0.
         25    1    3    3    0    0  0.47638346435E+02  0.27962366960E+02  0.31075148542E+03  0.33766520654E+03  0.12000000000E+03 0.  0.
         25    1    3    3    0    0 -0.47638346435E+02 -0.27962366960E+02  0.16341657759E+03  0.21013396643E+03  0.12000000000E+03 0.  0.
<mgrwt>
<rscale>  0 0.27431475E+03</rscale>
<asrwt>0</asrwt>
<pdfrwt beam="1">  1        1 0.78612859E-01 0.27431475E+03</pdfrwt>
<pdfrwt beam="2">  1       -1 0.56639319E-02 0.27431475E+03</pdfrwt>
<totfact> 0.63639531E+03</totfact>
</mgrwt>
</event>
<event>
 5    1  0.1132878E+001  0.2753919E+03  0.7818608E-02  0.1098233E+00
         -1   -1    0    0    0  501 -0.00000000000E+00  0.00000000000E+00  0.47530191469E+02  0.47530191469E+02  0.00000000000E+00 0. -1.
          1   -1    0    0  501    0  0.00000000000E+00 -0.00000000000E+00 -0.39890806608E+03  0.39890806608E+03  0.00000000000E+00 0. -1.
         35    2    1    2    0    0  0.00000000000E+00  0.00000000000E+00 -0.35137787461E+03  0.44643825755E+03  0.27539191534E+03 0.  0.
         25    1    3    3    0    0 -0.58551154704E+02 -0.32399237526E+02 -0.19038907046E+03  0.23478915320E+03  0.12000000000E+03 0.  0.
         25    1    3    3    0    0  0.58551154704E+02  0.32399237526E+02 -0.16098880415E+03  0.21164910434E+03  0.12000000000E+03 0.  0.
<mgrwt>
<rscale>  0 0.27539192E+03</rscale>
<asrwt>0</asrwt>
<pdfrwt beam="1">  1        1 0.61370473E-01 0.27539192E+03</pdfrwt>
<pdfrwt beam="2">  1       -1 0.73123370E-02 0.27539192E+03</pdfrwt>
<totfact> 0.59753424E+03</totfact>
</mgrwt>
</event>
<event>
 5    1  0.1132878E+001  0.2708822E+03  0.7818608E-02  0.1100776E+00
         -2   -1    0    0    0  501 -0.00000000000E+00  0.00000000000E+00  0.10694411228E+02  0.10694411228E+02  0.00000000000E+00 0.  1.
          2   -1    0    0  501    0  0.00000000000E+00 -0.00000000000E+00 -0.17153156245E+04  0.17153156245E+04  0.00000000000E+00 0.  1.
         35    2    1    2    0    0  0.00000000000E+00  0.00000000000E+00 -0.17046212132E+04  0.17260100357E+04  0.27088219339E+03 0.  0.
         25    1    3    3    0    0  0.15774090896E+02  0.59119964450E+02 -0.94248884433E+03  0.95206576129E+03  0.12000000000E+03 0.  0.
         25    1    3    3    0    0 -0.15774090896E+02 -0.59119964450E+02 -0.76213236891E+03  0.77394427441E+03  0.12000000000E+03 0.  0.
<mgrwt>
<rscale>  0 0.27088219E+03</rscale>
<asrwt>0</asrwt>
<pdfrwt beam="1">  1        2 0.26389473E+00 0.27088219E+03</pdfrwt>
<pdfrwt beam="2">  1       -2 0.16452939E-02 0.27088219E+03</pdfrwt>
<totfact> 0.10800052E+04</totfact>
</mgrwt>
</event>
<event>
 5    1  0.1132878E+001  0.2754109E+03  0.7818608E-02  0.1098222E+00
          4   -1    0    0  501    0  0.00000000000E+00  0.00000000000E+00  0.50179597467E+03  0.50179597467E+03  0.00000000000E+00 0. -1.
         -4   -1    0    0    0  501 -0.00000000000E+00 -0.00000000000E+00 -0.37789847291E+02  0.37789847291E+02  0.00000000000E+00 0. -1.
         35    2    1    2    0    0  0.00000000000E+00  0.00000000000E+00  0.46400612738E+03  0.53958582196E+03  0.27541091666E+03 0.  0.
         25    1    3    3    0    0  0.39408359479E+02 -0.60563812997E+00  0.12452498605E+03  0.17736926945E+03  0.12000000000E+03 0.  0.
         25    1    3    3    0    0 -0.39408359479E+02  0.60563812997E+00  0.33948114133E+03  0.36221655251E+03  0.12000000000E+03 0.  0.
<mgrwt>
<rscale>  0 0.27541092E+03</rscale>
<asrwt>0</asrwt>
<pdfrwt beam="1">  1        4 0.77199376E-01 0.27541092E+03</pdfrwt>
<pdfrwt beam="2">  1       -4 0.58138230E-02 0.27541092E+03</pdfrwt>
<totfact> 0.53846267E+02</totfact>
</mgrwt>
</event>
<event>
 5    1  0.1132878E+001  0.2750852E+03  0.7818608E-02  0.1098404E+00
          2   -1    0    0  501    0  0.00000000000E+00  0.00000000000E+00  0.13666561898E+04  0.13666561898E+04  0.00000000000E+00 0. -1.
         -2   -1    0    0    0  501 -0.00000000000E+00 -0.00000000000E+00 -0.13842525509E+02  0.13842525509E+02  0.00000000000E+00 0. -1.
         35    2    1    2    0    0  0.00000000000E+00  0.00000000000E+00  0.13528136643E+04  0.13804987153E+04  0.27508524620E+03 0.  0.
         25    1    3    3    0    0 -0.68945576103E+01  0.32371958111E+02  0.38281762061E+03  0.40254789684E+03  0.12000000000E+03 0.  0.
         25    1    3    3    0    0  0.68945576103E+01 -0.32371958111E+02  0.96999604369E+03  0.97795081848E+03  0.12000000000E+03 0.  0.
<mgrwt>
<rscale>  0 0.27508525E+03</rscale>
<asrwt>0</asrwt>
<pdfrwt beam="1">  1        2 0.21025469E+00 0.27508525E+03</pdfrwt>
<pdfrwt beam="2">  1       -2 0.21296204E-02 0.27508525E+03</pdfrwt>
<totfact> 0.11352374E+04</totfact>
</mgrwt>
</event>
<event>
 5    1  0.1132878E+001  0.2755840E+03  0.7818608E-02  0.1098126E+00
          3   -1    0    0  501    0  0.00000000000E+00  0.00000000000E+00  0.73101831596E+02  0.73101831596E+02  0.00000000000E+00 0.  1.
         -3   -1    0    0    0  501 -0.00000000000E+00 -0.00000000000E+00 -0.25972858443E+03  0.25972858443E+03  0.00000000000E+00 0.  1.
         35    2    1    2    0    0  0.00000000000E+00  0.00000000000E+00 -0.18662675284E+03  0.33283041603E+03  0.27558399982E+03 0.  0.
         25    1    3    3    0    0  0.35824075345E+02  0.15634301775E+02 -0.16010889895E+03  0.20386921124E+03  0.12000000000E+03 0.  0.
         25    1    3    3    0    0 -0.35824075345E+02 -0.15634301775E+02 -0.26517853881E+02  0.12896120479E+03  0.12000000000E+03 0.  0.
<mgrwt>
<rscale>  0 0.27558400E+03</rscale>
<asrwt>0</asrwt>
<pdfrwt beam="1">  1        3 0.11246436E-01 0.27558400E+03</pdfrwt>
<pdfrwt beam="2">  1       -3 0.39958243E-01 0.27558400E+03</pdfrwt>
<totfact> 0.95923590E+02</totfact>
</mgrwt>
</event>
<event>
 5    1  0.1132878E+001  0.2750120E+03  0.7818608E-02  0.1098445E+00
          1   -1    0    0  501    0  0.00000000000E+00  0.00000000000E+00  0.10159908245E+03  0.10159908245E+03  0.00000000000E+00 0. -1.
         -1   -1    0    0    0  501 -0.00000000000E+00 -0.00000000000E+00 -0.18610310949E+03  0.18610310949E+03  0.00000000000E+00 0. -1.
         35    2    1    2    0    0  0.00000000000E+00  0.00000000000E+00 -0.84504027040E+02  0.28770219194E+03  0.27501203730E+03 0.  0.
         25    1    3    3    0    0  0.47226075159E+02  0.79475398568E+01 -0.91481282516E+02  0.15831074068E+03  0.12000000000E+03 0.  0.
         25    1    3    3    0    0 -0.47226075159E+02 -0.79475398568E+01  0.69772554762E+01  0.12939145126E+03  0.12000000000E+03 0.  0.
<mgrwt>
<rscale>  0 0.27501204E+03</rscale>
<asrwt>0</asrwt>
<pdfrwt beam="1">  1        1 0.15630628E-01 0.27501204E+03</pdfrwt>
<pdfrwt beam="2">  1       -1 0.28631248E-01 0.27501204E+03</pdfrwt>
<totfact> 0.38837803E+03</totfact>
</mgrwt>
</event>
<event>
 5    1  0.1132878E+001  0.2748034E+03  0.7818608E-02  0.1098562E+00
         -1   -1    0    0    0  501 -0.00000000000E+00  0.00000000000E+00  0.34849850706E+02  0.34849850706E+02  0.00000000000E+00 0. -1.
          1   -1    0    0  501    0  0.00000000000E+00 -0.00000000000E+00 -0.54173033220E+03  0.54173033220E+03  0.00000000000E+00 0. -1.
         35    2    1    2    0    0  0.00000000000E+00  0.00000000000E+00 -0.50688048149E+03  0.57658018290E+03  0.27480335660E+03 0.  0.
         25    1    3    3    0    0  0.44717894115E+02 -0.31792795170E+02 -0.33385051029E+03  0.35897999261E+03  0.12000000000E+03 0.  0.
         25    1    3    3    0    0 -0.44717894115E+02  0.31792795170E+02 -0.17302997120E+03  0.21760019029E+03  0.12000000000E+03 0.  0.
<mgrwt>
<rscale>  0 0.27480336E+03</rscale>
<asrwt>0</asrwt>
<pdfrwt beam="1">  1        1 0.83343125E-01 0.27480336E+03</pdfrwt>
<pdfrwt beam="2">  1       -1 0.53615157E-02 0.27480336E+03</pdfrwt>
<totfact> 0.63898487E+03</totfact>
</mgrwt>
</event>
<event>
 5    1  0.1132878E+001  0.2748414E+03  0.7818608E-02  0.1098540E+00
          2   -1    0    0  501    0  0.00000000000E+00  0.00000000000E+00  0.39570477664E+02  0.39570477664E+02  0.00000000000E+00 0.  1.
         -2   -1    0    0    0  501 -0.00000000000E+00 -0.00000000000E+00 -0.47723593360E+03  0.47723593360E+03  0.00000000000E+00 0.  1.
         35    2    1    2    0    0  0.00000000000E+00  0.00000000000E+00 -0.43766545593E+03  0.51680641126E+03  0.27484143684E+03 0.  0.
         25    1    3    3    0    0 -0.41786853676E+01 -0.61522027360E+01 -0.34397542937E+03  0.36438222654E+03  0.12000000000E+03 0.  0.
         25    1    3    3    0    0  0.41786853676E+01  0.61522027360E+01 -0.93690026566E+02  0.15242418472E+03  0.12000000000E+03 0.  0.
<mgrwt>
<rscale>  0 0.27484144E+03</rscale>
<asrwt>0</asrwt>
<pdfrwt beam="1">  1        2 0.60877656E-02 0.27484144E+03</pdfrwt>
<pdfrwt beam="2">  1       -2 0.73420915E-01 0.27484144E+03</pdfrwt>
<totfact> 0.20803504E+03</totfact>
</mgrwt>
</event>
<event>
 5    1  0.1132878E+001  0.2748052E+03  0.7818608E-02  0.1098561E+00
          1   -1    0    0  501    0  0.00000000000E+00  0.00000000000E+00  0.29172344819E+02  0.29172344819E+02  0.00000000000E+00 0.  1.
         -1   -1    0    0    0  501 -0.00000000000E+00 -0.00000000000E+00 -0.64717044074E+03  0.64717044074E+03  0.00000000000E+00 0.  1.
         35    2    1    2    0    0  0.00000000000E+00  0.00000000000E+00 -0.61799809592E+03  0.67634278556E+03  0.27480523469E+03 0.  0.
         25    1    3    3    0    0  0.23865983861E+02  0.20528576886E+02 -0.16363418058E+03  0.20534642122E+03  0.12000000000E+03 0.  0.
         25    1    3    3    0    0 -0.23865983861E+02 -0.20528576886E+02 -0.45436391534E+03  0.47099636433E+03  0.12000000000E+03 0.  0.
<mgrwt>
<rscale>  0 0.27480523E+03</rscale>
<asrwt>0</asrwt>
<pdfrwt beam="1">  1        1 0.44880531E-02 0.27480523E+03</pdfrwt>
<pdfrwt beam="2">  1       -1 0.99564682E-01 0.27480523E+03</pdfrwt>
<totfact> 0.19677390E+03</totfact>
</mgrwt>
</event>
<event>
 5    1  0.1132878E+001  0.2724967E+03  0.7818608E-02  0.1099859E+00
          1   -1    0    0  501    0  0.00000000000E+00  0.00000000000E+00  0.33002137460E+02  0.33002137460E+02  0.00000000000E+00 0. -1.
         -1   -1    0    0    0  501 -0.00000000000E+00 -0.00000000000E+00 -0.56249711739E+03  0.56249711739E+03  0.00000000000E+00 0. -1.
         35    2    1    2    0    0  0.00000000000E+00  0.00000000000E+00 -0.52949497993E+03  0.59549925485E+03  0.27249665825E+03 0.  0.
         25    1    3    3    0    0  0.24825058509E+02  0.58136616083E+02 -0.23646794733E+03  0.27260454833E+03  0.12000000000E+03 0.  0.
         25    1    3    3    0    0 -0.24825058509E+02 -0.58136616083E+02 -0.29302703260E+03  0.32289470652E+03  0.12000000000E+03 0.  0.
<mgrwt>
<rscale>  0 0.27249666E+03</rscale>
<asrwt>0</asrwt>
<pdfrwt beam="1">  1        1 0.50772517E-02 0.27249666E+03</pdfrwt>
<pdfrwt beam="2">  1       -1 0.86538022E-01 0.27249666E+03</pdfrwt>
<totfact> 0.22478451E+03</totfact>
</mgrwt>
</event>
<event>
 5    1  0.1132878E+001  0.2749837E+03  0.7818608E-02  0.1098461E+00
         -3   -1    0    0    0  501 -0.00000000000E+00  0.00000000000E+00  0.88380983590E+03  0.88380983590E+03  0.00000000000E+00 0. -1.
          3   -1    0    0  501    0  0.00000000000E+00 -0.00000000000E+00 -0.21389225697E+02  0.21389225697E+02  0.00000000000E+00 0. -1.
         35    2    1    2    0    0  0.00000000000E+00  0.00000000000E+00  0.86242061020E+03  0.90519906159E+03  0.27498369445E+03 0.  0.
         25    1    3    3    0    0  0.55001305718E+02  0.17904219399E+02  0.31917670061E+03  0.34586047897E+03  0.12000000000E+03 0.  0.
         25    1    3    3    0    0 -0.55001305718E+02 -0.17904219399E+02  0.54324390959E+03  0.55933858262E+03  0.12000000000E+03 0.  0.
<mgrwt>
<rscale>  0 0.27498369E+03</rscale>
<asrwt>0</asrwt>
<pdfrwt beam="1">  1        3 0.32906508E-02 0.27498369E+03</pdfrwt>
<pdfrwt beam="2">  1       -3 0.13597072E+00 0.27498369E+03</pdfrwt>
<totfact> 0.48854944E+02</totfact>
</mgrwt>
</event>
<event>
 5    1  0.1132878E+001  0.2751342E+03  0.7818608E-02  0.1098377E+00
         -1   -1    0    0    0  501 -0.00000000000E+00  0.00000000000E+00  0.22099578958E+03  0.22099578958E+03  0.00000000000E+00 0. -1.
          1   -1    0    0  501    0  0.00000000000E+00 -0.00000000000E+00 -0.85633793376E+02  0.85633793376E+02  0.00000000000E+00 0. -1.
         35    2    1    2    0    0  0.00000000000E+00  0.00000000000E+00  0.13536199620E+03  0.30662958296E+03  0.27513420567E+03 0.  0.
         25    1    3    3    0    0 -0.66834418080E+02 -0.48149081814E+01  0.61117425090E+02  0.15041729432E+03  0.12000000000E+03 0.  0.
         25    1    3    3    0    0  0.66834418080E+02  0.48149081814E+01  0.74244571113E+02  0.15621228864E+03  0.12000000000E+03 0.  0.
<mgrwt>
<rscale>  0 0.27513421E+03</rscale>
<asrwt>0</asrwt>
<pdfrwt beam="1">  1        1 0.13174430E-01 0.27513421E+03</pdfrwt>
<pdfrwt beam="2">  1       -1 0.33999352E-01 0.27513421E+03</pdfrwt>
<totfact> 0.36250019E+03</totfact>
</mgrwt>
</event>
<event>
 5    1  0.1132878E+001  0.2747477E+03  0.7818608E-02  0.1098593E+00
          2   -1    0    0  501    0  0.00000000000E+00  0.00000000000E+00  0.26819771969E+04  0.26819771969E+04  0.00000000000E+00 0.  1.
         -2   -1    0    0    0  501 -0.00000000000E+00 -0.00000000000E+00 -0.70364428663E+01  0.70364428663E+01  0.00000000000E+00 0.  1.
         35    2    1    2    0    0  0.00000000000E+00  0.00000000000E+00  0.26749407540E+04  0.26890136397E+04  0.27474773385E+03 0.  0.
         25    1    3    3    0    0  0.65003914560E+02 -0.45451248862E+01  0.14844129497E+04  0.14906803723E+04  0.12000000000E+03 0.  0.
         25    1    3    3    0    0 -0.65003914560E+02  0.45451248862E+01  0.11905278043E+04  0.11983332675E+04  0.12000000000E+03 0.  0.
<mgrwt>
<rscale>  0 0.27474773E+03</rscale>
<asrwt>0</asrwt>
<pdfrwt beam="1">  1        2 0.41261106E+00 0.27474773E+03</pdfrwt>
<pdfrwt beam="2">  1       -2 0.10825318E-02 0.27474773E+03</pdfrwt>
<totfact> 0.60384738E+03</totfact>
</mgrwt>
</event>
<event>
 5    1  0.1132878E+001  0.2744759E+03  0.7818608E-02  0.1098745E+00
         -2   -1    0    0    0  501 -0.00000000000E+00  0.00000000000E+00  0.14159109311E+02  0.14159109311E+02  0.00000000000E+00 0. -1.
          2   -1    0    0  501    0  0.00000000000E+00 -0.00000000000E+00 -0.13301866408E+04  0.13301866408E+04  0.00000000000E+00 0. -1.
         35    2    1    2    0    0  0.00000000000E+00  0.00000000000E+00 -0.13160275315E+04  0.13443457501E+04  0.27447592281E+03 0.  0.
         25    1    3    3    0    0 -0.51017148731E+02 -0.35580094649E+02 -0.77449290711E+03  0.78619842010E+03  0.12000000000E+03 0.  0.
         25    1    3    3    0    0  0.51017148731E+02  0.35580094649E+02 -0.54153462437E+03  0.55814733001E+03  0.12000000000E+03 0.  0.
<mgrwt>
<rscale>  0 0.27447592E+03</rscale>
<asrwt>0</asrwt>
<pdfrwt beam="1">  1        2 0.20464415E+00 0.27447592E+03</pdfrwt>
<pdfrwt beam="2">  1       -2 0.21783240E-02 0.27447592E+03</pdfrwt>
<totfact> 0.11496900E+04</totfact>
</mgrwt>
</event>
<event>
 5    1  0.1132878E+001  0.2755236E+03  0.7818608E-02  0.1098159E+00
         -2   -1    0    0    0  501 -0.00000000000E+00  0.00000000000E+00  0.11728990436E+03  0.11728990436E+03  0.00000000000E+00 0. -1.
          2   -1    0    0  501    0  0.00000000000E+00 -0.00000000000E+00 -0.16180690851E+03  0.16180690851E+03  0.00000000000E+00 0. -1.
         35    2    1    2    0    0  0.00000000000E+00  0.00000000000E+00 -0.44517004157E+02  0.27909681287E+03  0.27552362384E+03 0.  0.
         25    1    3    3    0    0 -0.38696675404E+01  0.67468474607E+02 -0.18846220916E+02  0.13900413460E+03  0.12000000000E+03 0.  0.
         25    1    3    3    0    0  0.38696675404E+01 -0.67468474607E+02 -0.25670783240E+02  0.14009267827E+03  0.12000000000E+03 0.  0.
<mgrwt>
<rscale>  0 0.27552362E+03</rscale>
<asrwt>0</asrwt>
<pdfrwt beam="1">  1        2 0.24893370E-01 0.27552362E+03</pdfrwt>
<pdfrwt beam="2">  1       -2 0.18044601E-01 0.27552362E+03</pdfrwt>
<totfact> 0.53820428E+03</totfact>
</mgrwt>
</event>
<event>
 5    1  0.1132878E+001  0.2758149E+03  0.7818608E-02  0.1097997E+00
          2   -1    0    0  501    0  0.00000000000E+00  0.00000000000E+00  0.23573361665E+03  0.23573361665E+03  0.00000000000E+00 0.  1.
         -2   -1    0    0    0  501 -0.00000000000E+00 -0.00000000000E+00 -0.80677777407E+02  0.80677777407E+02  0.00000000000E+00 0.  1.
         35    2    1    2    0    0  0.00000000000E+00  0.00000000000E+00  0.15505583925E+03  0.31641139406E+03  0.27581489627E+03 0.  0.
         25    1    3    3    0    0  0.16930486018E+02 -0.64636308203E+02  0.91762780799E+02  0.16518142037E+03  0.12000000000E+03 0.  0.
         25    1    3    3    0    0 -0.16930486018E+02  0.64636308203E+02  0.63293058446E+02  0.15122997369E+03  0.12000000000E+03 0.  0.
<mgrwt>
<rscale>  0 0.27581490E+03</rscale>
<asrwt>0</asrwt>
<pdfrwt beam="1">  1        2 0.36266710E-01 0.27581490E+03</pdfrwt>
<pdfrwt beam="2">  1       -2 0.12411966E-01 0.27581490E+03</pdfrwt>
<totfact> 0.66061150E+03</totfact>
</mgrwt>
</event>
<event>
 5    1  0.1132878E+001  0.2753725E+03  0.7818608E-02  0.1098244E+00
          2   -1    0    0  501    0  0.00000000000E+00  0.00000000000E+00  0.29257059919E+02  0.29257059919E+02  0.00000000000E+00 0.  1.
         -2   -1    0    0    0  501 -0.00000000000E+00 -0.00000000000E+00 -0.64796321653E+03  0.64796321653E+03  0.00000000000E+00 0.  1.
         35    2    1    2    0    0  0.00000000000E+00  0.00000000000E+00 -0.61870615661E+03  0.67722027645E+03  0.27537246523E+03 0.  0.
         25    1    3    3    0    0 -0.59567247756E+02  0.31306738313E+02 -0.29607980433E+03  0.32648371996E+03  0.12000000000E+03 0.  0.
         25    1    3    3    0    0  0.59567247756E+02 -0.31306738313E+02 -0.32262635229E+03  0.35073655649E+03  0.12000000000E+03 0.  0.
<mgrwt>
<rscale>  0 0.27537247E+03</rscale>
<asrwt>0</asrwt>
<pdfrwt beam="1">  1        2 0.45010864E-02 0.27537247E+03</pdfrwt>
<pdfrwt beam="2">  1       -2 0.99686643E-01 0.27537247E+03</pdfrwt>
<totfact> 0.15614440E+03</totfact>
</mgrwt>
</event>
<event>
 5    1  0.1132878E+001  0.2747799E+03  0.7818608E-02  0.1098575E+00
         -4   -1    0    0    0  501 -0.00000000000E+00  0.00000000000E+00  0.60617651362E+02  0.60617651362E+02  0.00000000000E+00 0.  1.
          4   -1    0    0  501    0  0.00000000000E+00 -0.00000000000E+00 -0.31139434303E+03  0.31139434303E+03  0.00000000000E+00 0.  1.
         35    2    1    2    0    0  0.00000000000E+00  0.00000000000E+00 -0.25077669167E+03  0.37201199439E+03  0.27477986623E+03 0.  0.
         25    1    3    3    0    0  0.10331410903E+02  0.28948556430E+02 -0.44936603739E+02  0.13177274121E+03  0.12000000000E+03 0.  0.
         25    1    3    3    0    0 -0.10331410903E+02 -0.28948556430E+02 -0.20584008793E+03  0.24023925318E+03  0.12000000000E+03 0.  0.
<mgrwt>
<rscale>  0 0.27477987E+03</rscale>
<asrwt>0</asrwt>
<pdfrwt beam="1">  1        4 0.47906823E-01 0.27477987E+03</pdfrwt>
<pdfrwt beam="2">  1       -4 0.93257924E-02 0.27477987E+03</pdfrwt>
<totfact> 0.67751481E+02</totfact>
</mgrwt>
</event>
<event>
 5    1  0.1132878E+001  0.2744440E+03  0.7818608E-02  0.1098763E+00
          3   -1    0    0  501    0  0.00000000000E+00  0.00000000000E+00  0.15352565860E+03  0.15352565860E+03  0.00000000000E+00 0. -1.
         -3   -1    0    0    0  501 -0.00000000000E+00 -0.00000000000E+00 -0.12264968559E+03  0.12264968559E+03  0.00000000000E+00 0. -1.
         35    2    1    2    0    0  0.00000000000E+00  0.00000000000E+00  0.30875973006E+02  0.27617534419E+03  0.27444397430E+03 0.  0.
         25    1    3    3    0    0 -0.13126280209E+02  0.29990943518E+02 -0.42876864394E+02  0.13156816266E+03  0.12000000000E+03 0.  0.
         25    1    3    3    0    0  0.13126280209E+02 -0.29990943518E+02  0.73752837400E+02  0.14460718153E+03  0.12000000000E+03 0.  0.
<mgrwt>
<rscale>  0 0.27444397E+03</rscale>
<asrwt>0</asrwt>
<pdfrwt beam="1">  1        3 0.23619332E-01 0.27444397E+03</pdfrwt>
<pdfrwt beam="2">  1       -3 0.18869182E-01 0.27444397E+03</pdfrwt>
<totfact> 0.10536662E+03</totfact>
</mgrwt>
</event>
<event>
 5    1  0.1132878E+001  0.2752694E+03  0.7818608E-02  0.1098301E+00
         -1   -1    0    0    0  501 -0.00000000000E+00  0.00000000000E+00  0.21234522873E+02  0.21234522873E+02  0.00000000000E+00 0. -1.
          1   -1    0    0  501    0  0.00000000000E+00 -0.00000000000E+00 -0.89209997449E+03  0.89209997449E+03  0.00000000000E+00 0. -1.
         35    2    1    2    0    0  0.00000000000E+00  0.00000000000E+00 -0.87086545162E+03  0.91333449737E+03  0.27526944846E+03 0.  0.
         25    1    3    3    0    0 -0.59865718896E+02 -0.20691363580E+02 -0.51191024327E+03  0.52958864602E+03  0.12000000000E+03 0.  0.
         25    1    3    3    0    0  0.59865718896E+02  0.20691363580E+02 -0.35895520835E+03  0.38374585135E+03  0.12000000000E+03 0.  0.
<mgrwt>
<rscale>  0 0.27526945E+03</rscale>
<asrwt>0</asrwt>
<pdfrwt beam="1">  1        1 0.13724615E+00 0.27526945E+03</pdfrwt>
<pdfrwt beam="2">  1       -1 0.32668496E-02 0.27526945E+03</pdfrwt>
<totfact> 0.64329896E+03</totfact>
</mgrwt>
</event>
<event>
 5    1  0.1132878E+001  0.2746767E+03  0.7818608E-02  0.1098632E+00
         -1   -1    0    0    0  501 -0.00000000000E+00  0.00000000000E+00  0.54600753879E+02  0.54600753879E+02  0.00000000000E+00 0.  1.
          1   -1    0    0  501    0  0.00000000000E+00 -0.00000000000E+00 -0.34544996309E+03  0.34544996309E+03  0.00000000000E+00 0.  1.
         35    2    1    2    0    0  0.00000000000E+00  0.00000000000E+00 -0.29084920921E+03  0.40005071697E+03  0.27467674392E+03 0.  0.
         25    1    3    3    0    0 -0.31164153385E+02  0.22223807705E+02 -0.22515367569E+03  0.25799085209E+03  0.12000000000E+03 0.  0.
         25    1    3    3    0    0  0.31164153385E+02 -0.22223807705E+02 -0.65695533524E+02  0.14205986488E+03  0.12000000000E+03 0.  0.
<mgrwt>
<rscale>  0 0.27467674E+03</rscale>
<asrwt>0</asrwt>
<pdfrwt beam="1">  1        1 0.53146148E-01 0.27467674E+03</pdfrwt>
<pdfrwt beam="2">  1       -1 0.84001159E-02 0.27467674E+03</pdfrwt>
<totfact> 0.58080302E+03</totfact>
</mgrwt>
</event>
<event>
 5    1  0.1132878E+001  0.2750075E+03  0.7818608E-02  0.1098447E+00
         -1   -1    0    0    0  501 -0.00000000000E+00  0.00000000000E+00  0.16887079822E+03  0.16887079822E+03  0.00000000000E+00 0.  1.
          1   -1    0    0  501    0  0.00000000000E+00 -0.00000000000E+00 -0.11196299060E+03  0.11196299060E+03  0.00000000000E+00 0.  1.
         35    2    1    2    0    0  0.00000000000E+00  0.00000000000E+00  0.56907807614E+02  0.28083378882E+03  0.27500748785E+03 0.  0.
         25    1    3    3    0    0  0.22506153791E+01 -0.64892210595E+02  0.11027332178E+02  0.13688559574E+03  0.12000000000E+03 0.  0.
         25    1    3    3    0    0 -0.22506153791E+01  0.64892210595E+02  0.45880475436E+02  0.14394819308E+03  0.12000000000E+03 0.  0.
<mgrwt>
<rscale>  0 0.27500749E+03</rscale>
<asrwt>0</asrwt>
<pdfrwt beam="1">  1        1 0.17225076E-01 0.27500749E+03</pdfrwt>
<pdfrwt beam="2">  1       -1 0.25980123E-01 0.27500749E+03</pdfrwt>
<totfact> 0.40284096E+03</totfact>
</mgrwt>
</event>
<event>
 5    1  0.1132878E+001  0.2754049E+03  0.7818608E-02  0.1098226E+00
          2   -1    0    0  501    0  0.00000000000E+00  0.00000000000E+00  0.33394753520E+03  0.33394753520E+03  0.00000000000E+00 0. -1.
         -2   -1    0    0    0  501 -0.00000000000E+00 -0.00000000000E+00 -0.56781253929E+02  0.56781253929E+02  0.00000000000E+00 0. -1.
         35    2    1    2    0    0  0.00000000000E+00  0.00000000000E+00  0.27716628127E+03  0.39072878913E+03  0.27540486412E+03 0.  0.
         25    1    3    3    0    0  0.16745808778E+01  0.41125632026E+02  0.62606321042E+02  0.14146969027E+03  0.12000000000E+03 0.  0.
         25    1    3    3    0    0 -0.16745808778E+01 -0.41125632026E+02  0.21455996023E+03  0.24925909886E+03  0.12000000000E+03 0.  0.
<mgrwt>
<rscale>  0 0.27540486E+03</rscale>
<asrwt>0</asrwt>
<pdfrwt beam="1">  1        2 0.51376543E-01 0.27540486E+03</pdfrwt>
<pdfrwt beam="2">  1       -2 0.87355777E-02 0.27540486E+03</pdfrwt>
<totfact> 0.79486096E+03</totfact>
</mgrwt>
</event>
<event>
 5    1  0.1132878E+001  0.2750335E+03  0.7818608E-02  0.1098433E+00
          2   -1    0    0  501    0  0.00000000000E+00  0.00000000000E+00  0.90774489697E+02  0.90774489697E+02  0.00000000000E+00 0.  1.
         -2   -1    0    0    0  501 -0.00000000000E+00 -0.00000000000E+00 -0.20832789386E+03  0.20832789386E+03  0.00000000000E+00 0.  1.
         35    2    1    2    0    0  0.00000000000E+00  0.00000000000E+00 -0.11755340416E+03  0.29910238356E+03  0.27503351254E+03 0.  0.
         25    1    3    3    0    0  0.46717323590E+02 -0.29390585365E+02 -0.10039510257E+03  0.16590808133E+03  0.12000000000E+03 0.  0.
         25    1    3    3    0    0 -0.46717323590E+02  0.29390585365E+02 -0.17158301594E+02  0.13319430222E+03  0.12000000000E+03 0.  0.
<mgrwt>
<rscale>  0 0.27503351E+03</rscale>
<asrwt>0</asrwt>
<pdfrwt beam="1">  1        2 0.13965306E-01 0.27503351E+03</pdfrwt>
<pdfrwt beam="2">  1       -2 0.32050445E-01 0.27503351E+03</pdfrwt>
<totfact> 0.38246985E+03</totfact>
</mgrwt>
</event>
<event>
 5    1  0.1132878E+001  0.2750957E+03  0.7818608E-02  0.1098398E+00
          3   -1    0    0  501    0  0.00000000000E+00  0.00000000000E+00  0.13694391809E+04  0.13694391809E+04  0.00000000000E+00 0.  1.
         -3   -1    0    0    0  501 -0.00000000000E+00 -0.00000000000E+00 -0.13815449172E+02  0.13815449172E+02  0.00000000000E+00 0.  1.
         35    2    1    2    0    0  0.00000000000E+00  0.00000000000E+00  0.13556237317E+04  0.13832546301E+04  0.27509574623E+03 0.  0.
         25    1    3    3    0    0 -0.58344265633E+02 -0.30267148517E+02  0.74879128595E+03  0.76118890134E+03  0.12000000000E+03 0.  0.
         25    1    3    3    0    0  0.58344265633E+02  0.30267148517E+02  0.60683244577E+03  0.62206572872E+03  0.12000000000E+03 0.  0.
<mgrwt>
<rscale>  0 0.27509575E+03</rscale>
<asrwt>0</asrwt>
<pdfrwt beam="1">  1        3 0.21068284E+00 0.27509575E+03</pdfrwt>
<pdfrwt beam="2">  1       -3 0.21254548E-02 0.27509575E+03</pdfrwt>
<totfact> 0.30437198E+02</totfact>
</mgrwt>
</event>
<event>
 5    1  0.1132878E+001  0.2710009E+03  0.7818608E-02  0.1100708E+00
          2   -1    0    0  501    0  0.00000000000E+00  0.00000000000E+00  0.29581040777E+03  0.29581040777E+03  0.00000000000E+00 0.  1.
         -2   -1    0    0    0  501 -0.00000000000E+00 -0.00000000000E+00 -0.62068045757E+02  0.62068045757E+02  0.00000000000E+00 0.  1.
         35    2    1    2    0    0  0.00000000000E+00  0.00000000000E+00  0.23374236201E+03  0.35787845352E+03  0.27100091457E+03 0.  0.
         25    1    3    3    0    0  0.45572261671E+02 -0.37710413917E+02  0.88502745209E+02  0.16041085456E+03  0.12000000000E+03 0.  0.
         25    1    3    3    0    0 -0.45572261671E+02  0.37710413917E+02  0.14523961680E+03  0.19746759896E+03  0.12000000000E+03 0.  0.
<mgrwt>
<rscale>  0 0.27100091E+03</rscale>
<asrwt>0</asrwt>
<pdfrwt beam="1">  1        2 0.45509293E-01 0.27100091E+03</pdfrwt>
<pdfrwt beam="2">  1       -2 0.95489303E-02 0.27100091E+03</pdfrwt>
<totfact> 0.78646263E+03</totfact>
</mgrwt>
</event>
<event>
 5    1  0.1132878E+001  0.2745839E+03  0.7818608E-02  0.1098684E+00
         -1   -1    0    0    0  501 -0.00000000000E+00  0.00000000000E+00  0.21702858299E+02  0.21702858299E+02  0.00000000000E+00 0. -1.
          1   -1    0    0  501    0  0.00000000000E+00 -0.00000000000E+00 -0.86850664831E+03  0.86850664831E+03  0.00000000000E+00 0. -1.
         35    2    1    2    0    0  0.00000000000E+00  0.00000000000E+00 -0.84680379001E+03  0.89020950661E+03  0.27458387950E+03 0.  0.
         25    1    3    3    0    0  0.56496687281E+02  0.20328138155E+02 -0.32921724215E+03  0.35551244902E+03  0.12000000000E+03 0.  0.
         25    1    3    3    0    0 -0.56496687281E+02 -0.20328138155E+02 -0.51758654786E+03  0.53469705759E+03  0.12000000000E+03 0.  0.
<mgrwt>
<rscale>  0 0.27458388E+03</rscale>
<asrwt>0</asrwt>
<pdfrwt beam="1">  1        1 0.13361638E+00 0.27458388E+03</pdfrwt>
<pdfrwt beam="2">  1       -1 0.33389020E-02 0.27458388E+03</pdfrwt>
<totfact> 0.65029771E+03</totfact>
</mgrwt>
</event>
<event>
 5    1  0.1132878E+001  0.2770828E+03  0.7818608E-02  0.1097293E+00
         -2   -1    0    0    0  501 -0.00000000000E+00  0.00000000000E+00  0.15858361099E+02  0.15858361099E+02  0.00000000000E+00 0. -1.
          2   -1    0    0  501    0  0.00000000000E+00 -0.00000000000E+00 -0.12103215918E+04  0.12103215918E+04  0.00000000000E+00 0. -1.
         35    2    1    2    0    0  0.00000000000E+00  0.00000000000E+00 -0.11944632307E+04  0.12261799529E+04  0.27708278077E+03 0.  0.
         25    1    3    3    0    0  0.46112139260E+02  0.41325819637E+01 -0.36941103789E+03  0.39116227136E+03  0.12000000000E+03 0.  0.
         25    1    3    3    0    0 -0.46112139260E+02 -0.41325819637E+01 -0.82505219285E+03  0.83501768157E+03  0.12000000000E+03 0.  0.
<mgrwt>
<rscale>  0 0.27708278E+03</rscale>
<asrwt>0</asrwt>
<pdfrwt beam="1">  1        2 0.18620338E+00 0.27708278E+03</pdfrwt>
<pdfrwt beam="2">  1       -2 0.24397471E-02 0.27708278E+03</pdfrwt>
<totfact> 0.11347003E+04</totfact>
</mgrwt>
</event>
<event>
 5    1  0.1132878E+001  0.2750267E+03  0.7818608E-02  0.1098437E+00
         -2   -1    0    0    0  501 -0.00000000000E+00  0.00000000000E+00  0.75106401281E+02  0.75106401281E+02  0.00000000000E+00 0.  1.
          2   -1    0    0  501    0  0.00000000000E+00 -0.00000000000E+00 -0.25177515079E+03  0.25177515079E+03  0.00000000000E+00 0.  1.
         35    2    1    2    0    0  0.00000000000E+00  0.00000000000E+00 -0.17666874950E+03  0.32688155207E+03  0.27502672966E+03 0.  0.
         25    1    3    3    0    0 -0.31864683013E+01 -0.66765699953E+02 -0.96047401176E+02  0.16760941365E+03  0.12000000000E+03 0.  0.
         25    1    3    3    0    0  0.31864683013E+01  0.66765699953E+02 -0.80621348329E+02  0.15927213842E+03  0.12000000000E+03 0.  0.
<mgrwt>
<rscale>  0 0.27502673E+03</rscale>
<asrwt>0</asrwt>
<pdfrwt beam="1">  1        2 0.38734638E-01 0.27502673E+03</pdfrwt>
<pdfrwt beam="2">  1       -2 0.11554831E-01 0.27502673E+03</pdfrwt>
<totfact> 0.69045183E+03</totfact>
</mgrwt>
</event>
<event>
 5    1  0.1132878E+001  0.2740161E+03  0.7818608E-02  0.1099003E+00
         -1   -1    0    0    0  501 -0.00000000000E+00  0.00000000000E+00  0.37211379018E+02  0.37211379018E+02  0.00000000000E+00 0.  1.
          1   -1    0    0  501    0  0.00000000000E+00 -0.00000000000E+00 -0.50444812651E+03  0.50444812651E+03  0.00000000000E+00 0.  1.
         35    2    1    2    0    0  0.00000000000E+00  0.00000000000E+00 -0.46723674749E+03  0.54165950553E+03  0.27401613405E+03 0.  0.
         25    1    3    3    0    0 -0.11501681067E+02  0.21636783510E+02 -0.11223328667E+03  0.16612269473E+03  0.12000000000E+03 0.  0.
         25    1    3    3    0    0  0.11501681067E+02 -0.21636783510E+02 -0.35500346082E+03  0.37553681080E+03  0.12000000000E+03 0.  0.
<mgrwt>
<rscale>  0 0.27401613E+03</rscale>
<asrwt>0</asrwt>
<pdfrwt beam="1">  1        1 0.77607399E-01 0.27401613E+03</pdfrwt>
<pdfrwt beam="2">  1       -1 0.57248279E-02 0.27401613E+03</pdfrwt>
<totfact> 0.63704840E+03</totfact>
</mgrwt>
</event>
<event>
 5    1  0.1132878E+001  0.2751968E+03  0.7818608E-02  0.1098342E+00
         -2   -1    0    0    0  501 -0.00000000000E+00  0.00000000000E+00  0.85934625132E+01  0.85934625132E+01  0.00000000000E+00 0.  1.
          2   -1    0    0  501    0  0.00000000000E+00 -0.00000000000E+00 -0.22032235217E+04  0.22032235217E+04  0.00000000000E+00 0.  1.
         35    2    1    2    0    0  0.00000000000E+00  0.00000000000E+00 -0.21946300592E+04  0.22118169842E+04  0.27519679317E+03 0.  0.
         25    1    3    3    0    0 -0.27609318878E+02 -0.48472979531E+02 -0.14003314698E+04  0.14065703429E+04  0.12000000000E+03 0.  0.
         25    1    3    3    0    0  0.27609318878E+02  0.48472979531E+02 -0.79429858942E+03  0.80524664133E+03  0.12000000000E+03 0.  0.
<mgrwt>
<rscale>  0 0.27519679E+03</rscale>
<asrwt>0</asrwt>
<pdfrwt beam="1">  1        2 0.33895793E+00 0.27519679E+03</pdfrwt>
<pdfrwt beam="2">  1       -2 0.13220693E-02 0.27519679E+03</pdfrwt>
<totfact> 0.82310724E+03</totfact>
</mgrwt>
</event>
<event>
 5    1  0.1132878E+001  0.2749337E+03  0.7818608E-02  0.1098489E+00
          3   -1    0    0  501    0  0.00000000000E+00  0.00000000000E+00  0.49316940283E+02  0.49316940283E+02  0.00000000000E+00 0. -1.
         -3   -1    0    0    0  501 -0.00000000000E+00 -0.00000000000E+00 -0.38317744745E+03  0.38317744745E+03  0.00000000000E+00 0. -1.
         35    2    1    2    0    0  0.00000000000E+00  0.00000000000E+00 -0.33386050717E+03  0.43249438774E+03  0.27493373233E+03 0.  0.
         25    1    3    3    0    0  0.17740970829E+02 -0.51588386777E+02 -0.22828132302E+03  0.26360665040E+03  0.12000000000E+03 0.  0.
         25    1    3    3    0    0 -0.17740970829E+02  0.51588386777E+02 -0.10557918415E+03  0.16888773733E+03  0.12000000000E+03 0.  0.
<mgrwt>
<rscale>  0 0.27493373E+03</rscale>
<asrwt>0</asrwt>
<pdfrwt beam="1">  1        3 0.75872214E-02 0.27493373E+03</pdfrwt>
<pdfrwt beam="2">  1       -3 0.58950378E-01 0.27493373E+03</pdfrwt>
<totfact> 0.84414041E+02</totfact>
</mgrwt>
</event>
<event>
 5    1  0.1132878E+001  0.2745601E+03  0.7818608E-02  0.1098698E+00
         -1   -1    0    0    0  501 -0.00000000000E+00  0.00000000000E+00  0.44111034672E+02  0.44111034672E+02  0.00000000000E+00 0.  1.
          1   -1    0    0  501    0  0.00000000000E+00 -0.00000000000E+00 -0.42723569931E+03  0.42723569931E+03  0.00000000000E+00 0.  1.
         35    2    1    2    0    0  0.00000000000E+00  0.00000000000E+00 -0.38312466464E+03  0.47134673398E+03  0.27456007536E+03 0.  0.
         25    1    3    3    0    0  0.29722398506E+02  0.41722488184E+02 -0.11829131549E+03  0.17611650210E+03  0.12000000000E+03 0.  0.
         25    1    3    3    0    0 -0.29722398506E+02 -0.41722488184E+02 -0.26483334915E+03  0.29523023188E+03  0.12000000000E+03 0.  0.
<mgrwt>
<rscale>  0 0.27456008E+03</rscale>
<asrwt>0</asrwt>
<pdfrwt beam="1">  1        1 0.65728570E-01 0.27456008E+03</pdfrwt>
<pdfrwt beam="2">  1       -1 0.67863129E-02 0.27456008E+03</pdfrwt>
<totfact> 0.61261410E+03</totfact>
</mgrwt>
</event>
<event>
 5    1  0.1132878E+001  0.2746899E+03  0.7818608E-02  0.1098625E+00
         -2   -1    0    0    0  501 -0.00000000000E+00  0.00000000000E+00  0.71788309849E+02  0.71788309849E+02  0.00000000000E+00 0.  1.
          2   -1    0    0  501    0  0.00000000000E+00 -0.00000000000E+00 -0.26276753491E+03  0.26276753491E+03  0.00000000000E+00 0.  1.
         35    2    1    2    0    0  0.00000000000E+00  0.00000000000E+00 -0.19097922506E+03  0.33455584476E+03  0.27468991401E+03 0.  0.
         25    1    3    3    0    0  0.50364970886E+02 -0.43373760164E+02 -0.10372525169E+03  0.17197918828E+03  0.12000000000E+03 0.  0.
         25    1    3    3    0    0 -0.50364970886E+02  0.43373760164E+02 -0.87253973375E+02  0.16257665648E+03  0.12000000000E+03 0.  0.
<mgrwt>
<rscale>  0 0.27468991E+03</rscale>
<asrwt>0</asrwt>
<pdfrwt beam="1">  1        2 0.40425775E-01 0.27468991E+03</pdfrwt>
<pdfrwt beam="2">  1       -2 0.11044355E-01 0.27468991E+03</pdfrwt>
<totfact> 0.70893550E+03</totfact>
</mgrwt>
</event>
<event>
 5    1  0.1132878E+001  0.2742990E+03  0.7818608E-02  0.1098844E+00
          2   -1    0    0  501    0  0.00000000000E+00  0.00000000000E+00  0.44337620767E+02  0.44337620767E+02  0.00000000000E+00 0. -1.
         -2   -1    0    0    0  501 -0.00000000000E+00 -0.00000000000E+00 -0.42424431758E+03  0.42424431758E+03  0.00000000000E+00 0. -1.
         35    2    1    2    0    0  0.00000000000E+00  0.00000000000E+00 -0.37990669681E+03  0.46858193835E+03  0.27429898772E+03 0.  0.
         25    1    3    3    0    0 -0.13316928481E+01  0.36815819809E+02 -0.95566622915E+02  0.15776614786E+03  0.12000000000E+03 0.  0.
         25    1    3    3    0    0  0.13316928481E+01 -0.36815819809E+02 -0.28434007390E+03  0.31081579049E+03  0.12000000000E+03 0.  0.
<mgrwt>
<rscale>  0 0.27429899E+03</rscale>
<asrwt>0</asrwt>
<pdfrwt beam="1">  1        2 0.68211724E-02 0.27429899E+03</pdfrwt>
<pdfrwt beam="2">  1       -2 0.65268357E-01 0.27429899E+03</pdfrwt>
<totfact> 0.23082040E+03</totfact>
</mgrwt>
</event>
<event>
 5    1  0.1132878E+001  0.2750757E+03  0.7818608E-02  0.1098409E+00
          2   -1    0    0  501    0  0.00000000000E+00  0.00000000000E+00  0.40396590787E+03  0.40396590787E+03  0.00000000000E+00 0.  1.
         -2   -1    0    0    0  501 -0.00000000000E+00 -0.00000000000E+00 -0.46827354522E+02  0.46827354522E+02  0.00000000000E+00 0.  1.
         35    2    1    2    0    0  0.00000000000E+00  0.00000000000E+00  0.35713855334E+03  0.45079326239E+03  0.27507566074E+03 0.  0.
         25    1    3    3    0    0 -0.27989847575E+02  0.88723909448E+01  0.79499891883E+02  0.14690944046E+03  0.12000000000E+03 0.  0.
         25    1    3    3    0    0  0.27989847575E+02 -0.88723909448E+01  0.27763866146E+03  0.30388382192E+03  0.12000000000E+03 0.  0.
<mgrwt>
<rscale>  0 0.27507566E+03</rscale>
<asrwt>0</asrwt>
<pdfrwt beam="1">  1        2 0.62148599E-01 0.27507566E+03</pdfrwt>
<pdfrwt beam="2">  1       -2 0.72042087E-02 0.27507566E+03</pdfrwt>
<totfact> 0.87407659E+03</totfact>
</mgrwt>
</event>
<event>
 5    1  0.1132878E+001  0.2783844E+03  0.7818608E-02  0.1096575E+00
         -4   -1    0    0    0  501 -0.00000000000E+00  0.00000000000E+00  0.24408256048E+02  0.24408256048E+02  0.00000000000E+00 0.  1.
          4   -1    0    0  501    0  0.00000000000E+00 -0.00000000000E+00 -0.79376720426E+03  0.79376720426E+03  0.00000000000E+00 0.  1.
         35    2    1    2    0    0  0.00000000000E+00  0.00000000000E+00 -0.76935894821E+03  0.81817546031E+03  0.27838443321E+03 0.  0.
         25    1    3    3    0    0 -0.55763456920E+02 -0.23637121914E+02 -0.49089934308E+03  0.50896998113E+03  0.12000000000E+03 0.  0.
         25    1    3    3    0    0  0.55763456920E+02  0.23637121914E+02 -0.27845960513E+03  0.30920547917E+03  0.12000000000E+03 0.  0.
<mgrwt>
<rscale>  0 0.27838443E+03</rscale>
<asrwt>0</asrwt>
<pdfrwt beam="1">  1        4 0.12211802E+00 0.27838443E+03</pdfrwt>
<pdfrwt beam="2">  1       -4 0.37551167E-02 0.27838443E+03</pdfrwt>
<totfact> 0.37567138E+02</totfact>
</mgrwt>
</event>
<event>
 5    1  0.1132878E+001  0.2743628E+03  0.7818608E-02  0.1098808E+00
         -1   -1    0    0    0  501 -0.00000000000E+00  0.00000000000E+00  0.28927771779E+02  0.28927771779E+02  0.00000000000E+00 0.  1.
          1   -1    0    0  501    0  0.00000000000E+00 -0.00000000000E+00 -0.65054234864E+03  0.65054234864E+03  0.00000000000E+00 0.  1.
         35    2    1    2    0    0  0.00000000000E+00  0.00000000000E+00 -0.62161457686E+03  0.67947012042E+03  0.27436282980E+03 0.  0.
         25    1    3    3    0    0 -0.20949452616E+00 -0.57689529098E+02 -0.22902094139E+03  0.26491265966E+03  0.12000000000E+03 0.  0.
         25    1    3    3    0    0  0.20949452616E+00  0.57689529098E+02 -0.39259363547E+03  0.41455746076E+03  0.12000000000E+03 0.  0.
<mgrwt>
<rscale>  0 0.27436283E+03</rscale>
<asrwt>0</asrwt>
<pdfrwt beam="1">  1        1 0.10008344E+00 0.27436283E+03</pdfrwt>
<pdfrwt beam="2">  1       -1 0.44504264E-02 0.27436283E+03</pdfrwt>
<totfact> 0.65524151E+03</totfact>
</mgrwt>
</event>
<event>
 5    1  0.1132878E+001  0.2746653E+03  0.7818608E-02  0.1098639E+00
         -1   -1    0    0    0  501 -0.00000000000E+00  0.00000000000E+00  0.67108742432E+02  0.67108742432E+02  0.00000000000E+00 0. -1.
          1   -1    0    0  501    0  0.00000000000E+00 -0.00000000000E+00 -0.28104025255E+03  0.28104025255E+03  0.00000000000E+00 0. -1.
         35    2    1    2    0    0  0.00000000000E+00  0.00000000000E+00 -0.21393151012E+03  0.34814899498E+03  0.27466530849E+03 0.  0.
         25    1    3    3    0    0  0.13304122961E+02 -0.31735776986E+02 -0.17951615729E+03  0.21865545947E+03  0.12000000000E+03 0.  0.
         25    1    3    3    0    0 -0.13304122961E+02  0.31735776986E+02 -0.34415352828E+02  0.12949353551E+03  0.12000000000E+03 0.  0.
<mgrwt>
<rscale>  0 0.27466531E+03</rscale>
<asrwt>0</asrwt>
<pdfrwt beam="1">  1        1 0.43236962E-01 0.27466531E+03</pdfrwt>
<pdfrwt beam="2">  1       -1 0.10324422E-01 0.27466531E+03</pdfrwt>
<totfact> 0.54833324E+03</totfact>
</mgrwt>
</event>
<event>
 5    1  0.1132878E+001  0.2750664E+03  0.7818608E-02  0.1098414E+00
          2   -1    0    0  501    0  0.00000000000E+00  0.00000000000E+00  0.13683666939E+04  0.13683666939E+04  0.00000000000E+00 0. -1.
         -2   -1    0    0    0  501 -0.00000000000E+00 -0.00000000000E+00 -0.13823326222E+02  0.13823326222E+02  0.00000000000E+00 0. -1.
         35    2    1    2    0    0  0.00000000000E+00  0.00000000000E+00  0.13545433677E+04  0.13821900201E+04  0.27506638618E+03 0.  0.
         25    1    3    3    0    0  0.26608257175E+02 -0.61537024727E+02  0.70006430300E+03  0.71343172981E+03  0.12000000000E+03 0.  0.
         25    1    3    3    0    0 -0.26608257175E+02  0.61537024727E+02  0.65447906468E+03  0.66875829031E+03  0.12000000000E+03 0.  0.
<mgrwt>
<rscale>  0 0.27506639E+03</rscale>
<asrwt>0</asrwt>
<pdfrwt beam="1">  1        2 0.21051785E+00 0.27506639E+03</pdfrwt>
<pdfrwt beam="2">  1       -2 0.21266666E-02 0.27506639E+03</pdfrwt>
<totfact> 0.11351154E+04</totfact>
</mgrwt>
</event>
<event>
 5    1  0.1132878E+001  0.2735633E+03  0.7818608E-02  0.1099257E+00
         -2   -1    0    0    0  501 -0.00000000000E+00  0.00000000000E+00  0.11964231266E+02  0.11964231266E+02  0.00000000000E+00 0. -1.
          2   -1    0    0  501    0  0.00000000000E+00 -0.00000000000E+00 -0.15637628178E+04  0.15637628178E+04  0.00000000000E+00 0. -1.
         35    2    1    2    0    0  0.00000000000E+00  0.00000000000E+00 -0.15517985865E+04  0.15757270490E+04  0.27356330161E+03 0.  0.
         25    1    3    3    0    0 -0.20485582696E+02  0.58973159073E+02 -0.89277602056E+03  0.90296540104E+03  0.12000000000E+03 0.  0.
         25    1    3    3    0    0  0.20485582696E+02 -0.58973159073E+02 -0.65902256593E+03  0.67276164798E+03  0.12000000000E+03 0.  0.
<mgrwt>
<rscale>  0 0.27356330E+03</rscale>
<asrwt>0</asrwt>
<pdfrwt beam="1">  1        2 0.24057902E+00 0.27356330E+03</pdfrwt>
<pdfrwt beam="2">  1       -2 0.18406500E-02 0.27356330E+03</pdfrwt>
<totfact> 0.11018680E+04</totfact>
</mgrwt>
</event>
<event>
 5    1  0.1132878E+001  0.2749516E+03  0.7818608E-02  0.1098479E+00
          1   -1    0    0  501    0  0.00000000000E+00  0.00000000000E+00  0.43538462821E+03  0.43538462821E+03  0.00000000000E+00 0. -1.
         -1   -1    0    0    0  501 -0.00000000000E+00 -0.00000000000E+00 -0.43408957023E+02  0.43408957023E+02  0.00000000000E+00 0. -1.
         35    2    1    2    0    0  0.00000000000E+00  0.00000000000E+00  0.39197567119E+03  0.47879358523E+03  0.27495157839E+03 0.  0.
         25    1    3    3    0    0  0.21840326143E+02 -0.41781058343E+02  0.11289424776E+03  0.17137026539E+03  0.12000000000E+03 0.  0.
         25    1    3    3    0    0 -0.21840326143E+02  0.41781058343E+02  0.27908142342E+03  0.30742331984E+03  0.12000000000E+03 0.  0.
<mgrwt>
<rscale>  0 0.27495158E+03</rscale>
<asrwt>0</asrwt>
<pdfrwt beam="1">  1        1 0.66982247E-01 0.27495158E+03</pdfrwt>
<pdfrwt beam="2">  1       -1 0.66783014E-02 0.27495158E+03</pdfrwt>
<totfact> 0.61254533E+03</totfact>
</mgrwt>
</event>
<event>
 5    1  0.1132878E+001  0.2751143E+03  0.7818608E-02  0.1098388E+00
          2   -1    0    0  501    0  0.00000000000E+00  0.00000000000E+00  0.57349466605E+03  0.57349466605E+03  0.00000000000E+00 0. -1.
         -2   -1    0    0    0  501 -0.00000000000E+00 -0.00000000000E+00 -0.32994145589E+02  0.32994145589E+02  0.00000000000E+00 0. -1.
         35    2    1    2    0    0  0.00000000000E+00  0.00000000000E+00  0.54050052046E+03  0.60648881164E+03  0.27511427812E+03 0.  0.
         25    1    3    3    0    0 -0.21706865173E+02 -0.39635101164E+02  0.16047075876E+03  0.20540933196E+03  0.12000000000E+03 0.  0.
         25    1    3    3    0    0  0.21706865173E+02  0.39635101164E+02  0.38002976170E+03  0.40107947967E+03  0.12000000000E+03 0.  0.
<mgrwt>
<rscale>  0 0.27511428E+03</rscale>
<asrwt>0</asrwt>
<pdfrwt beam="1">  1        2 0.88229941E-01 0.27511428E+03</pdfrwt>
<pdfrwt beam="2">  1       -2 0.50760228E-02 0.27511428E+03</pdfrwt>
<totfact> 0.10126997E+04</totfact>
</mgrwt>
</event>
<event>
 5    1  0.1132878E+001  0.2756445E+03  0.7818608E-02  0.1098092E+00
          1   -1    0    0  501    0  0.00000000000E+00  0.00000000000E+00  0.23939159080E+03  0.23939159080E+03  0.00000000000E+00 0. -1.
         -1   -1    0    0    0  501 -0.00000000000E+00 -0.00000000000E+00 -0.79346890178E+02  0.79346890178E+02  0.00000000000E+00 0. -1.
         35    2    1    2    0    0  0.00000000000E+00  0.00000000000E+00  0.16004470063E+03  0.31873848098E+03  0.27564454114E+03 0.  0.
         25    1    3    3    0    0  0.30398808674E+02  0.59483748698E+02  0.93336542887E+02  0.16605455178E+03  0.12000000000E+03 0.  0.
         25    1    3    3    0    0 -0.30398808674E+02 -0.59483748698E+02  0.66708157738E+02  0.15268392920E+03  0.12000000000E+03 0.  0.
<mgrwt>
<rscale>  0 0.27564454E+03</rscale>
<asrwt>0</asrwt>
<pdfrwt beam="1">  1        1 0.36829475E-01 0.27564454E+03</pdfrwt>
<pdfrwt beam="2">  1       -1 0.12207214E-01 0.27564454E+03</pdfrwt>
<totfact> 0.51681220E+03</totfact>
</mgrwt>
</event>
<event>
 5    1  0.1132878E+001  0.2754176E+03  0.7818608E-02  0.1098218E+00
         -4   -1    0    0    0  501 -0.00000000000E+00  0.00000000000E+00  0.37522049713E+02  0.37522049713E+02  0.00000000000E+00 0. -1.
          4   -1    0    0  501    0  0.00000000000E+00 -0.00000000000E+00 -0.50540200643E+03  0.50540200643E+03  0.00000000000E+00 0. -1.
         35    2    1    2    0    0  0.00000000000E+00  0.00000000000E+00 -0.46787995672E+03  0.54292405615E+03  0.27541764076E+03 0.  0.
         25    1    3    3    0    0  0.55567458246E+02  0.11336186272E+01 -0.30964033920E+03  0.33669892659E+03  0.12000000000E+03 0.  0.
         25    1    3    3    0    0 -0.55567458246E+02 -0.11336186272E+01 -0.15823961752E+03  0.20622512955E+03  0.12000000000E+03 0.  0.
<mgrwt>
<rscale>  0 0.27541764E+03</rscale>
<asrwt>0</asrwt>
<pdfrwt beam="1">  1        4 0.77754157E-01 0.27541764E+03</pdfrwt>
<pdfrwt beam="2">  1       -4 0.57726229E-02 0.27541764E+03</pdfrwt>
<totfact> 0.53616414E+02</totfact>
</mgrwt>
</event>
<event>
 5    1  0.1132878E+001  0.2746778E+03  0.7818608E-02  0.1098632E+00
          1   -1    0    0  501    0  0.00000000000E+00  0.00000000000E+00  0.18962486681E+04  0.18962486681E+04  0.00000000000E+00 0. -1.
         -1   -1    0    0    0  501 -0.00000000000E+00 -0.00000000000E+00 -0.99469928836E+01  0.99469928836E+01  0.00000000000E+00 0. -1.
         35    2    1    2    0    0  0.00000000000E+00  0.00000000000E+00  0.18863016753E+04  0.19061956610E+04  0.27467778947E+03 0.  0.
         25    1    3    3    0    0  0.60662242583E+02  0.11899027876E+02  0.11187796890E+04  0.11268937337E+04  0.12000000000E+03 0.  0.
         25    1    3    3    0    0 -0.60662242583E+02 -0.11899027876E+02  0.76752198629E+03  0.77930192736E+03  0.12000000000E+03 0.  0.
<mgrwt>
<rscale>  0 0.27467779E+03</rscale>
<asrwt>0</asrwt>
<pdfrwt beam="1">  1        1 0.29173028E+00 0.27467779E+03</pdfrwt>
<pdfrwt beam="2">  1       -1 0.15303081E-02 0.27467779E+03</pdfrwt>
<totfact> 0.39941160E+03</totfact>
</mgrwt>
</event>
<event>
 5    1  0.1132878E+001  0.2715111E+03  0.7818608E-02  0.1100418E+00
         -1   -1    0    0    0  501 -0.00000000000E+00  0.00000000000E+00  0.26703922928E+02  0.26703922928E+02  0.00000000000E+00 0.  1.
          1   -1    0    0  501    0  0.00000000000E+00 -0.00000000000E+00 -0.69014461361E+03  0.69014461361E+03  0.00000000000E+00 0.  1.
         35    2    1    2    0    0  0.00000000000E+00  0.00000000000E+00 -0.66344069069E+03  0.71684853654E+03  0.27151109422E+03 0.  0.
         25    1    3    3    0    0  0.32750563992E+01  0.21914509501E+02 -0.48877664690E+03  0.50377929918E+03  0.12000000000E+03 0.  0.
         25    1    3    3    0    0 -0.32750563992E+01 -0.21914509501E+02 -0.17466404378E+03  0.21306923737E+03  0.12000000000E+03 0.  0.
<mgrwt>
<rscale>  0 0.27151109E+03</rscale>
<asrwt>0</asrwt>
<pdfrwt beam="1">  1        1 0.10617608E+00 0.27151109E+03</pdfrwt>
<pdfrwt beam="2">  1       -1 0.41082964E-02 0.27151109E+03</pdfrwt>
<totfact> 0.67786737E+03</totfact>
</mgrwt>
</event>
<event>
 5    1  0.1132878E+001  0.2741887E+03  0.7818608E-02  0.1098906E+00
         -1   -1    0    0    0  501 -0.00000000000E+00  0.00000000000E+00  0.43079820368E+02  0.43079820368E+02  0.00000000000E+00 0.  1.
          1   -1    0    0  501    0  0.00000000000E+00 -0.00000000000E+00 -0.43627990365E+03  0.43627990365E+03  0.00000000000E+00 0.  1.
         35    2    1    2    0    0  0.00000000000E+00  0.00000000000E+00 -0.39320008329E+03  0.47935972402E+03  0.27418869327E+03 0.  0.
         25    1    3    3    0    0  0.58343231937E+02 -0.26056089577E+02 -0.22748125963E+03  0.26501052055E+03  0.12000000000E+03 0.  0.
         25    1    3    3    0    0 -0.58343231937E+02  0.26056089577E+02 -0.16571882365E+03  0.21434920347E+03  0.12000000000E+03 0.  0.
<mgrwt>
<rscale>  0 0.27418869E+03</rscale>
<asrwt>0</asrwt>
<pdfrwt beam="1">  1        1 0.67119984E-01 0.27418869E+03</pdfrwt>
<pdfrwt beam="2">  1       -1 0.66276648E-02 0.27418869E+03</pdfrwt>
<totfact> 0.61794532E+03</totfact>
</mgrwt>
</event>
<event>
 5    1  0.1132878E+001  0.2747598E+03  0.7818608E-02  0.1098586E+00
          2   -1    0    0  501    0  0.00000000000E+00  0.00000000000E+00  0.17251639956E+04  0.17251639956E+04  0.00000000000E+00 0. -1.
         -2   -1    0    0    0  501 -0.00000000000E+00 -0.00000000000E+00 -0.10939970552E+02  0.10939970552E+02  0.00000000000E+00 0. -1.
         35    2    1    2    0    0  0.00000000000E+00  0.00000000000E+00  0.17142240251E+04  0.17361039662E+04  0.27475984649E+03 0.  0.
         25    1    3    3    0    0  0.37212716130E+02  0.49313542032E+02  0.69519839829E+03  0.70817894960E+03  0.12000000000E+03 0.  0.
         25    1    3    3    0    0 -0.37212716130E+02 -0.49313542032E+02  0.10190256268E+04  0.10279250166E+04  0.12000000000E+03 0.  0.
<mgrwt>
<rscale>  0 0.27475985E+03</rscale>
<asrwt>0</asrwt>
<pdfrwt beam="1">  1        2 0.26540963E+00 0.27475985E+03</pdfrwt>
<pdfrwt beam="2">  1       -2 0.16830738E-02 0.27475985E+03</pdfrwt>
<totfact> 0.10325290E+04</totfact>
</mgrwt>
</event>
<event>
 5    1  0.1132878E+001  0.2750702E+03  0.7818608E-02  0.1098412E+00
          1   -1    0    0  501    0  0.00000000000E+00  0.00000000000E+00  0.10031096809E+04  0.10031096809E+04  0.00000000000E+00 0. -1.
         -1   -1    0    0    0  501 -0.00000000000E+00 -0.00000000000E+00 -0.18857269549E+02  0.18857269549E+02  0.00000000000E+00 0. -1.
         35    2    1    2    0    0  0.00000000000E+00  0.00000000000E+00  0.98425241139E+03  0.10219669505E+04  0.27507024296E+03 0.  0.
         25    1    3    3    0    0 -0.58886994533E+01  0.45959749323E+02  0.67295590016E+03  0.68513985354E+03  0.12000000000E+03 0.  0.
         25    1    3    3    0    0  0.58886994533E+01 -0.45959749323E+02  0.31129651122E+03  0.33682709695E+03  0.12000000000E+03 0.  0.
<mgrwt>
<rscale>  0 0.27507024E+03</rscale>
<asrwt>0</asrwt>
<pdfrwt beam="1">  1        1 0.15432452E+00 0.27507024E+03</pdfrwt>
<pdfrwt beam="2">  1       -1 0.29011192E-02 0.27507024E+03</pdfrwt>
<totfact> 0.63004210E+03</totfact>
</mgrwt>
</event>
<event>
 5    1  0.1132878E+001  0.2753025E+03  0.7818608E-02  0.1098283E+00
          3   -1    0    0  501    0  0.00000000000E+00  0.00000000000E+00  0.80555008159E+02  0.80555008159E+02  0.00000000000E+00 0. -1.
         -3   -1    0    0    0  501 -0.00000000000E+00 -0.00000000000E+00 -0.23521649186E+03  0.23521649186E+03  0.00000000000E+00 0. -1.
         35    2    1    2    0    0  0.00000000000E+00  0.00000000000E+00 -0.15466148370E+03  0.31577150002E+03  0.27530249851E+03 0.  0.
         25    1    3    3    0    0  0.73124640994E+01  0.44626338188E+02 -0.13471372979E+03  0.18599132019E+03  0.12000000000E+03 0.  0.
         25    1    3    3    0    0 -0.73124640994E+01 -0.44626338188E+02 -0.19947753910E+02  0.12978017983E+03  0.12000000000E+03 0.  0.
<mgrwt>
<rscale>  0 0.27530250E+03</rscale>
<asrwt>0</asrwt>
<pdfrwt beam="1">  1        3 0.12393078E-01 0.27530250E+03</pdfrwt>
<pdfrwt beam="2">  1       -3 0.36187152E-01 0.27530250E+03</pdfrwt>
<totfact> 0.98567149E+02</totfact>
</mgrwt>
</event>
<event>
 5    1  0.1132878E+001  0.2751252E+03  0.7818608E-02  0.1098382E+00
          2   -1    0    0  501    0  0.00000000000E+00  0.00000000000E+00  0.52589450954E+03  0.52589450954E+03  0.00000000000E+00 0. -1.
         -2   -1    0    0    0  501 -0.00000000000E+00 -0.00000000000E+00 -0.35983395431E+02  0.35983395431E+02  0.00000000000E+00 0. -1.
         35    2    1    2    0    0  0.00000000000E+00  0.00000000000E+00  0.48991111411E+03  0.56187790497E+03  0.27512520853E+03 0.  0.
         25    1    3    3    0    0 -0.39773303963E+02  0.47759902460E+02  0.29744393310E+03  0.32670448012E+03  0.12000000000E+03 0.  0.
         25    1    3    3    0    0  0.39773303963E+02 -0.47759902460E+02  0.19246718101E+03  0.23517342485E+03  0.12000000000E+03 0.  0.
<mgrwt>
<rscale>  0 0.27512521E+03</rscale>
<asrwt>0</asrwt>
<pdfrwt beam="1">  1        2 0.80906842E-01 0.27512521E+03</pdfrwt>
<pdfrwt beam="2">  1       -2 0.55359074E-02 0.27512521E+03</pdfrwt>
<totfact> 0.97931298E+03</totfact>
</mgrwt>
</event>
<event>
 5    1  0.1132878E+001  0.2747696E+03  0.7818608E-02  0.1098580E+00
          2   -1    0    0  501    0  0.00000000000E+00  0.00000000000E+00  0.53328203893E+03  0.53328203893E+03  0.00000000000E+00 0.  1.
         -2   -1    0    0    0  501 -0.00000000000E+00 -0.00000000000E+00 -0.35393258509E+02  0.35393258509E+02  0.00000000000E+00 0.  1.
         35    2    1    2    0    0  0.00000000000E+00  0.00000000000E+00  0.49788878042E+03  0.56867529744E+03  0.27476964215E+03 0.  0.
         25    1    3    3    0    0  0.35398416755E+01 -0.59890232079E+02  0.31017293047E+03  0.33794469544E+03  0.12000000000E+03 0.  0.
         25    1    3    3    0    0 -0.35398416755E+01  0.59890232079E+02  0.18771584995E+03  0.23073060200E+03  0.12000000000E+03 0.  0.
<mgrwt>
<rscale>  0 0.27476964E+03</rscale>
<asrwt>0</asrwt>
<pdfrwt beam="1">  1        2 0.82043385E-01 0.27476964E+03</pdfrwt>
<pdfrwt beam="2">  1       -2 0.54451171E-02 0.27476964E+03</pdfrwt>
<totfact> 0.98858855E+03</totfact>
</mgrwt>
</event>
<event>
 5    1  0.1132878E+001  0.2765117E+03  0.7818608E-02  0.1097610E+00
          2   -1    0    0  501    0  0.00000000000E+00  0.00000000000E+00  0.54429340787E+03  0.54429340787E+03  0.00000000000E+00 0.  1.
         -2   -1    0    0    0  501 -0.00000000000E+00 -0.00000000000E+00 -0.35118337189E+02  0.35118337189E+02  0.00000000000E+00 0.  1.
         35    2    1    2    0    0  0.00000000000E+00  0.00000000000E+00  0.50917507068E+03  0.57941174506E+03  0.27651169543E+03 0.  0.
         25    1    3    3    0    0  0.22051298939E+02  0.64816725259E+02  0.26551834113E+03  0.29931163882E+03  0.12000000000E+03 0.  0.
         25    1    3    3    0    0 -0.22051298939E+02 -0.64816725259E+02  0.24365672956E+03  0.28010010624E+03  0.12000000000E+03 0.  0.
<mgrwt>
<rscale>  0 0.27651170E+03</rscale>
<asrwt>0</asrwt>
<pdfrwt beam="1">  1        2 0.83737441E-01 0.27651170E+03</pdfrwt>
<pdfrwt beam="2">  1       -2 0.54028215E-02 0.27651170E+03</pdfrwt>
<totfact> 0.97773430E+03</totfact>
</mgrwt>
</event>
<event>
 5    1  0.1132878E+001  0.2741269E+03  0.7818608E-02  0.1098941E+00
         -1   -1    0    0    0  501 -0.00000000000E+00  0.00000000000E+00  0.24409197367E+02  0.24409197367E+02  0.00000000000E+00 0. -1.
          1   -1    0    0  501    0  0.00000000000E+00 -0.00000000000E+00 -0.76964383694E+03  0.76964383694E+03  0.00000000000E+00 0. -1.
         35    2    1    2    0    0  0.00000000000E+00  0.00000000000E+00 -0.74523463957E+03  0.79405303430E+03  0.27412689265E+03 0.  0.
         25    1    3    3    0    0 -0.16248732482E+02  0.39787653190E+02 -0.51858466160E+03  0.53401978419E+03  0.12000000000E+03 0.  0.
         25    1    3    3    0    0  0.16248732482E+02 -0.39787653190E+02 -0.22664997797E+03  0.26003325011E+03  0.12000000000E+03 0.  0.
<mgrwt>
<rscale>  0 0.27412689E+03</rscale>
<asrwt>0</asrwt>
<pdfrwt beam="1">  1        1 0.11840673E+00 0.27412689E+03</pdfrwt>
<pdfrwt beam="2">  1       -1 0.37552616E-02 0.27412689E+03</pdfrwt>
<totfact> 0.65932782E+03</totfact>
</mgrwt>
</event>
<event>
 5    1  0.1132878E+001  0.2747468E+03  0.7818608E-02  0.1098593E+00
          2   -1    0    0  501    0  0.00000000000E+00  0.00000000000E+00  0.61058155464E+03  0.61058155464E+03  0.00000000000E+00 0.  1.
         -2   -1    0    0    0  501 -0.00000000000E+00 -0.00000000000E+00 -0.30907337470E+02  0.30907337470E+02  0.00000000000E+00 0.  1.
         35    2    1    2    0    0  0.00000000000E+00  0.00000000000E+00  0.57967421717E+03  0.64148889211E+03  0.27474679370E+03 0.  0.
         25    1    3    3    0    0 -0.40041900927E+01  0.33505903358E+02  0.42462759753E+03  0.44254635427E+03  0.12000000000E+03 0.  0.
         25    1    3    3    0    0  0.40041900927E+01 -0.33505903358E+02  0.15504661964E+03  0.19894253783E+03  0.12000000000E+03 0.  0.
<mgrwt>
<rscale>  0 0.27474679E+03</rscale>
<asrwt>0</asrwt>
<pdfrwt beam="1">  1        2 0.93935615E-01 0.27474679E+03</pdfrwt>
<pdfrwt beam="2">  1       -2 0.47549754E-02 0.27474679E+03</pdfrwt>
<totfact> 0.10400093E+04</totfact>
</mgrwt>
</event>
<event>
 5    1  0.1132878E+001  0.2749371E+03  0.7818608E-02  0.1098487E+00
         -1   -1    0    0    0  501 -0.00000000000E+00  0.00000000000E+00  0.44019192244E+02  0.44019192244E+02  0.00000000000E+00 0.  1.
          1   -1    0    0  501    0  0.00000000000E+00 -0.00000000000E+00 -0.42930359830E+03  0.42930359830E+03  0.00000000000E+00 0.  1.
         35    2    1    2    0    0  0.00000000000E+00  0.00000000000E+00 -0.38528440605E+03  0.47332279054E+03  0.27493706643E+03 0.  0.
         25    1    3    3    0    0 -0.49435206110E+02 -0.45284821589E+02 -0.19564531752E+03  0.23910592828E+03  0.12000000000E+03 0.  0.
         25    1    3    3    0    0  0.49435206110E+02  0.45284821589E+02 -0.18963908854E+03  0.23421686227E+03  0.12000000000E+03 0.  0.
<mgrwt>
<rscale>  0 0.27493707E+03</rscale>
<asrwt>0</asrwt>
<pdfrwt beam="1">  1        1 0.66046709E-01 0.27493707E+03</pdfrwt>
<pdfrwt beam="2">  1       -1 0.67721833E-02 0.27493707E+03</pdfrwt>
<totfact> 0.61075151E+03</totfact>
</mgrwt>
</event>
<event>
 5    1  0.1132878E+001  0.2744084E+03  0.7818608E-02  0.1098783E+00
         -2   -1    0    0    0  501 -0.00000000000E+00  0.00000000000E+00  0.28286602406E+02  0.28286602406E+02  0.00000000000E+00 0. -1.
          2   -1    0    0  501    0  0.00000000000E+00 -0.00000000000E+00 -0.66550911454E+03  0.66550911454E+03  0.00000000000E+00 0. -1.
         35    2    1    2    0    0  0.00000000000E+00  0.00000000000E+00 -0.63722251213E+03  0.69379571694E+03  0.27440839433E+03 0.  0.
         25    1    3    3    0    0 -0.21760127521E+02  0.67908028711E+01 -0.47661432160E+03  0.49201710306E+03  0.12000000000E+03 0.  0.
         25    1    3    3    0    0  0.21760127521E+02 -0.67908028711E+01 -0.16060819054E+03  0.20177861388E+03  0.12000000000E+03 0.  0.
<mgrwt>
<rscale>  0 0.27440839E+03</rscale>
<asrwt>0</asrwt>
<pdfrwt beam="1">  1        2 0.10238601E+00 0.27440839E+03</pdfrwt>
<pdfrwt beam="2">  1       -2 0.43517855E-02 0.27440839E+03</pdfrwt>
<totfact> 0.10741830E+04</totfact>
</mgrwt>
</event>
<event>
 5    1  0.1132878E+001  0.2754757E+03  0.7818608E-02  0.1098186E+00
          1   -1    0    0  501    0  0.00000000000E+00  0.00000000000E+00  0.13126952507E+02  0.13126952507E+02  0.00000000000E+00 0.  1.
         -1   -1    0    0    0  501 -0.00000000000E+00 -0.00000000000E+00 -0.14452485710E+04  0.14452485710E+04  0.00000000000E+00 0.  1.
         35    2    1    2    0    0  0.00000000000E+00  0.00000000000E+00 -0.14321216185E+04  0.14583755236E+04  0.27547565666E+03 0.  0.
         25    1    3    3    0    0 -0.36941917407E+02 -0.32946326310E+02 -0.47221677884E+03  0.48973344984E+03  0.12000000000E+03 0.  0.
         25    1    3    3    0    0  0.36941917407E+02  0.32946326310E+02 -0.95990483970E+03  0.96864207371E+03  0.12000000000E+03 0.  0.
<mgrwt>
<rscale>  0 0.27547566E+03</rscale>
<asrwt>0</asrwt>
<pdfrwt beam="1">  1        1 0.20195321E-02 0.27547566E+03</pdfrwt>
<pdfrwt beam="2">  1       -1 0.22234583E+00 0.27547566E+03</pdfrwt>
<totfact> 0.71047262E+02</totfact>
</mgrwt>
</event>
<event>
 5    1  0.1132878E+001  0.2778615E+03  0.7818608E-02  0.1096863E+00
         -2   -1    0    0    0  501 -0.00000000000E+00  0.00000000000E+00  0.27401218674E+02  0.27401218674E+02  0.00000000000E+00 0.  1.
          2   -1    0    0  501    0  0.00000000000E+00 -0.00000000000E+00 -0.70441197998E+03  0.70441197998E+03  0.00000000000E+00 0.  1.
         35    2    1    2    0    0  0.00000000000E+00  0.00000000000E+00 -0.67701076131E+03  0.73181319866E+03  0.27786145253E+03 0.  0.
         25    1    3    3    0    0  0.36950466188E+02 -0.34045020841E+02 -0.21008966956E+03  0.24710740509E+03  0.12000000000E+03 0.  0.
         25    1    3    3    0    0 -0.36950466188E+02  0.34045020841E+02 -0.46692109175E+03  0.48470579357E+03  0.12000000000E+03 0.  0.
<mgrwt>
<rscale>  0 0.27786145E+03</rscale>
<asrwt>0</asrwt>
<pdfrwt beam="1">  1        2 0.10837108E+00 0.27786145E+03</pdfrwt>
<pdfrwt beam="2">  1       -2 0.42155718E-02 0.27786145E+03</pdfrwt>
<totfact> 0.10528732E+04</totfact>
</mgrwt>
</event>
<event>
 5    1  0.1132878E+001  0.2748680E+03  0.7818608E-02  0.1098525E+00
         -2   -1    0    0    0  501 -0.00000000000E+00  0.00000000000E+00  0.71814484868E+01  0.71814484868E+01  0.00000000000E+00 0. -1.
          2   -1    0    0  501    0  0.00000000000E+00 -0.00000000000E+00 -0.26301254575E+04  0.26301254575E+04  0.00000000000E+00 0. -1.
         35    2    1    2    0    0  0.00000000000E+00  0.00000000000E+00 -0.26229440090E+04  0.26373069060E+04  0.27486804461E+03 0.  0.
         25    1    3    3    0    0  0.28064333889E+02  0.37987121235E+02 -0.85559404766E+03  0.86525822886E+03  0.12000000000E+03 0.  0.
         25    1    3    3    0    0 -0.28064333889E+02 -0.37987121235E+02 -0.17673499613E+04  0.17720486771E+04  0.12000000000E+03 0.  0.
<mgrwt>
<rscale>  0 0.27486804E+03</rscale>
<asrwt>0</asrwt>
<pdfrwt beam="1">  1        2 0.40463490E+00 0.27486804E+03</pdfrwt>
<pdfrwt beam="2">  1       -2 0.11048376E-02 0.27486804E+03</pdfrwt>
<totfact> 0.62669261E+03</totfact>
</mgrwt>
</event>
<event>
 5    1  0.1132878E+001  0.2751474E+03  0.7818608E-02  0.1098369E+00
          2   -1    0    0  501    0  0.00000000000E+00  0.00000000000E+00  0.43133368257E+02  0.43133368257E+02  0.00000000000E+00 0.  1.
         -2   -1    0    0    0  501 -0.00000000000E+00 -0.00000000000E+00 -0.43879086529E+03  0.43879086529E+03  0.00000000000E+00 0.  1.
         35    2    1    2    0    0  0.00000000000E+00  0.00000000000E+00 -0.39565749703E+03  0.48192423355E+03  0.27514743670E+03 0.  0.
         25    1    3    3    0    0  0.66092044809E+02 -0.12562859043E+02 -0.19912079763E+03  0.24202288293E+03  0.12000000000E+03 0.  0.
         25    1    3    3    0    0 -0.66092044809E+02  0.12562859043E+02 -0.19653669941E+03  0.23990135062E+03  0.12000000000E+03 0.  0.
<mgrwt>
<rscale>  0 0.27514744E+03</rscale>
<asrwt>0</asrwt>
<pdfrwt beam="1">  1        2 0.66359026E-02 0.27514744E+03</pdfrwt>
<pdfrwt beam="2">  1       -2 0.67506289E-01 0.27514744E+03</pdfrwt>
<totfact> 0.22272471E+03</totfact>
</mgrwt>
</event>
<event>
 5    1  0.1132878E+001  0.2765793E+03  0.7818608E-02  0.1097572E+00
          1   -1    0    0  501    0  0.00000000000E+00  0.00000000000E+00  0.74435743004E+03  0.74435743004E+03  0.00000000000E+00 0. -1.
         -1   -1    0    0    0  501 -0.00000000000E+00 -0.00000000000E+00 -0.25691992284E+02  0.25691992284E+02  0.00000000000E+00 0. -1.
         35    2    1    2    0    0  0.00000000000E+00  0.00000000000E+00  0.71866543776E+03  0.77004942232E+03  0.27657928591E+03 0.  0.
         25    1    3    3    0    0  0.62191436813E+02 -0.25154925185E+02  0.40095429739E+03  0.42386895814E+03  0.12000000000E+03 0.  0.
         25    1    3    3    0    0 -0.62191436813E+02  0.25154925185E+02  0.31771114036E+03  0.34618046419E+03  0.12000000000E+03 0.  0.
<mgrwt>
<rscale>  0 0.27657929E+03</rscale>
<asrwt>0</asrwt>
<pdfrwt beam="1">  1        1 0.11451651E+00 0.27657929E+03</pdfrwt>
<pdfrwt beam="2">  1       -1 0.39526148E-02 0.27657929E+03</pdfrwt>
<totfact> 0.64264158E+03</totfact>
</mgrwt>
</event>
<event>
 5    1  0.1132878E+001  0.2747431E+03  0.7818608E-02  0.1098595E+00
          2   -1    0    0  501    0  0.00000000000E+00  0.00000000000E+00  0.15807721737E+03  0.15807721737E+03  0.00000000000E+00 0. -1.
         -2   -1    0    0    0  501 -0.00000000000E+00 -0.00000000000E+00 -0.11937803845E+03  0.11937803845E+03  0.00000000000E+00 0. -1.
         35    2    1    2    0    0  0.00000000000E+00  0.00000000000E+00  0.38699178927E+02  0.27745525582E+03  0.27474313919E+03 0.  0.
         25    1    3    3    0    0 -0.42847560101E+02 -0.47959622819E+02  0.37830769903E+02  0.14130536430E+03  0.12000000000E+03 0.  0.
         25    1    3    3    0    0  0.42847560101E+02  0.47959622819E+02  0.86840902435E+00  0.13614989152E+03  0.12000000000E+03 0.  0.
<mgrwt>
<rscale>  0 0.27474314E+03</rscale>
<asrwt>0</asrwt>
<pdfrwt beam="1">  1        2 0.24319572E-01 0.27474314E+03</pdfrwt>
<pdfrwt beam="2">  1       -2 0.18365852E-01 0.27474314E+03</pdfrwt>
<totfact> 0.53615772E+03</totfact>
</mgrwt>
</event>
<event>
 5    1  0.1132878E+001  0.2752514E+03  0.7818608E-02  0.1098311E+00
         -2   -1    0    0    0  501 -0.00000000000E+00  0.00000000000E+00  0.11337887438E+03  0.11337887438E+03  0.00000000000E+00 0.  1.
          2   -1    0    0  501    0  0.00000000000E+00 -0.00000000000E+00 -0.16705790148E+03  0.16705790148E+03  0.00000000000E+00 0.  1.
         35    2    1    2    0    0  0.00000000000E+00  0.00000000000E+00 -0.53679027099E+02  0.28043677585E+03  0.27525142561E+03 0.  0.
         25    1    3    3    0    0  0.55262553227E+02 -0.21194247903E+02  0.59805479780E+01  0.13393622694E+03  0.12000000000E+03 0.  0.
         25    1    3    3    0    0 -0.55262553227E+02  0.21194247903E+02 -0.59659575077E+02  0.14650054891E+03  0.12000000000E+03 0.  0.
<mgrwt>
<rscale>  0 0.27525143E+03</rscale>
<asrwt>0</asrwt>
<pdfrwt beam="1">  1        2 0.25701215E-01 0.27525143E+03</pdfrwt>
<pdfrwt beam="2">  1       -2 0.17442904E-01 0.27525143E+03</pdfrwt>
<totfact> 0.54986360E+03</totfact>
</mgrwt>
</event>
<event>
 5    1  0.1132878E+001  0.2754309E+03  0.7818608E-02  0.1098211E+00
          2   -1    0    0  501    0  0.00000000000E+00  0.00000000000E+00  0.17964723597E+04  0.17964723597E+04  0.00000000000E+00 0. -1.
         -2   -1    0    0    0  501 -0.00000000000E+00 -0.00000000000E+00 -0.10557104941E+02  0.10557104941E+02  0.00000000000E+00 0. -1.
         35    2    1    2    0    0  0.00000000000E+00  0.00000000000E+00  0.17859152548E+04  0.18070294647E+04  0.27543091493E+03 0.  0.
         25    1    3    3    0    0  0.63777558222E+02 -0.59424532144E+01  0.75183964044E+03  0.76404563648E+03  0.12000000000E+03 0.  0.
         25    1    3    3    0    0 -0.63777558222E+02  0.59424532144E+01  0.10340756143E+04  0.10429838282E+04  0.12000000000E+03 0.  0.
<mgrwt>
<rscale>  0 0.27543091E+03</rscale>
<asrwt>0</asrwt>
<pdfrwt beam="1">  1        2 0.27638012E+00 0.27543091E+03</pdfrwt>
<pdfrwt beam="2">  1       -2 0.16241714E-02 0.27543091E+03</pdfrwt>
<totfact> 0.99796840E+03</totfact>
</mgrwt>
</event>
<event>
 5    1  0.1132878E+001  0.2745212E+03  0.7818608E-02  0.1098720E+00
          3   -1    0    0  501    0  0.00000000000E+00  0.00000000000E+00  0.51899094721E+02  0.51899094721E+02  0.00000000000E+00 0. -1.
         -3   -1    0    0    0  501 -0.00000000000E+00 -0.00000000000E+00 -0.36302128670E+03  0.36302128670E+03  0.00000000000E+00 0. -1.
         35    2    1    2    0    0  0.00000000000E+00  0.00000000000E+00 -0.31112219198E+03  0.41492038142E+03  0.27452122792E+03 0.  0.
         25    1    3    3    0    0 -0.66698600602E+01 -0.33186177923E+02 -0.24231610900E+03  0.27251221279E+03  0.12000000000E+03 0.  0.
         25    1    3    3    0    0  0.66698600602E+01  0.33186177923E+02 -0.68806082980E+02  0.14240816863E+03  0.12000000000E+03 0.  0.
<mgrwt>
<rscale>  0 0.27452123E+03</rscale>
<asrwt>0</asrwt>
<pdfrwt beam="1">  1        3 0.79844763E-02 0.27452123E+03</pdfrwt>
<pdfrwt beam="2">  1       -3 0.55849427E-01 0.27452123E+03</pdfrwt>
<totfact> 0.86787963E+02</totfact>
</mgrwt>
</event>
<event>
 5    1  0.1132878E+001  0.2734868E+03  0.7818608E-02  0.1099300E+00
         -1   -1    0    0    0  501 -0.00000000000E+00  0.00000000000E+00  0.12794002588E+04  0.12794002588E+04  0.00000000000E+00 0.  1.
          1   -1    0    0  501    0  0.00000000000E+00 -0.00000000000E+00 -0.14615257036E+02  0.14615257036E+02  0.00000000000E+00 0.  1.
         35    2    1    2    0    0  0.00000000000E+00  0.00000000000E+00  0.12647850017E+04  0.12940155158E+04  0.27348684527E+03 0.  0.
         25    1    3    3    0    0  0.16442520802E+01 -0.44757197435E+02  0.85895664560E+03  0.86845404559E+03  0.12000000000E+03 0.  0.
         25    1    3    3    0    0 -0.16442520802E+01  0.44757197435E+02  0.40582835615E+03  0.42556147023E+03  0.12000000000E+03 0.  0.
<mgrwt>
<rscale>  0 0.27348685E+03</rscale>
<asrwt>0</asrwt>
<pdfrwt beam="1">  1        1 0.22485021E-02 0.27348685E+03</pdfrwt>
<pdfrwt beam="2">  1       -1 0.19683072E+00 0.27348685E+03</pdfrwt>
<totfact> 0.89845539E+02</totfact>
</mgrwt>
</event>
<event>
 5    1  0.1132878E+001  0.2751316E+03  0.7818608E-02  0.1098378E+00
          1   -1    0    0  501    0  0.00000000000E+00  0.00000000000E+00  0.59158562521E+03  0.59158562521E+03  0.00000000000E+00 0.  1.
         -1   -1    0    0    0  501 -0.00000000000E+00 -0.00000000000E+00 -0.31989200149E+02  0.31989200149E+02  0.00000000000E+00 0.  1.
         35    2    1    2    0    0  0.00000000000E+00  0.00000000000E+00  0.55959642506E+03  0.62357482536E+03  0.27513161192E+03 0.  0.
         25    1    3    3    0    0 -0.27247281980E+02  0.19069698143E+02  0.41230926455E+03  0.43070291083E+03  0.12000000000E+03 0.  0.
         25    1    3    3    0    0  0.27247281980E+02 -0.19069698143E+02  0.14728716051E+03  0.19287191453E+03  0.12000000000E+03 0.  0.
<mgrwt>
<rscale>  0 0.27513161E+03</rscale>
<asrwt>0</asrwt>
<pdfrwt beam="1">  1        1 0.91013165E-01 0.27513161E+03</pdfrwt>
<pdfrwt beam="2">  1       -1 0.49214158E-02 0.27513161E+03</pdfrwt>
<totfact> 0.64416872E+03</totfact>
</mgrwt>
</event>
<event>
 5    1  0.1132878E+001  0.2741032E+03  0.7818608E-02  0.1098954E+00
          1   -1    0    0  501    0  0.00000000000E+00  0.00000000000E+00  0.11617022750E+04  0.11617022750E+04  0.00000000000E+00 0.  1.
         -1   -1    0    0    0  501 -0.00000000000E+00 -0.00000000000E+00 -0.16168641602E+02  0.16168641602E+02  0.00000000000E+00 0.  1.
         35    2    1    2    0    0  0.00000000000E+00  0.00000000000E+00  0.11455336334E+04  0.11778709166E+04  0.27410324867E+03 0.  0.
         25    1    3    3    0    0  0.50936414214E+02 -0.39167689141E+02  0.50421076303E+03  0.52226154340E+03  0.12000000000E+03 0.  0.
         25    1    3    3    0    0 -0.50936414214E+02  0.39167689141E+02  0.64132287035E+03  0.65560937318E+03  0.12000000000E+03 0.  0.
<mgrwt>
<rscale>  0 0.27410325E+03</rscale>
<asrwt>0</asrwt>
<pdfrwt beam="1">  1        1 0.17872336E+00 0.27410325E+03</pdfrwt>
<pdfrwt beam="2">  1       -1 0.24874842E-02 0.27410325E+03</pdfrwt>
<totfact> 0.60607113E+03</totfact>
</mgrwt>
</event>
<event>
 5    1  0.1132878E+001  0.2747957E+03  0.7818608E-02  0.1098566E+00
         -3   -1    0    0    0  501 -0.00000000000E+00  0.00000000000E+00  0.87789738522E+03  0.87789738522E+03  0.00000000000E+00 0. -1.
          3   -1    0    0  501    0  0.00000000000E+00 -0.00000000000E+00 -0.21503848919E+02  0.21503848919E+02  0.00000000000E+00 0. -1.
         35    2    1    2    0    0  0.00000000000E+00  0.00000000000E+00  0.85639353630E+03  0.89940123414E+03  0.27479572586E+03 0.  0.
         25    1    3    3    0    0 -0.61074573674E+02  0.16981294154E+02  0.35802166773E+03  0.38288115972E+03  0.12000000000E+03 0.  0.
         25    1    3    3    0    0  0.61074573674E+02 -0.16981294154E+02  0.49837186857E+03  0.51652007442E+03  0.12000000000E+03 0.  0.
<mgrwt>
<rscale>  0 0.27479573E+03</rscale>
<asrwt>0</asrwt>
<pdfrwt beam="1">  1        3 0.33082851E-02 0.27479573E+03</pdfrwt>
<pdfrwt beam="2">  1       -3 0.13506111E+00 0.27479573E+03</pdfrwt>
<totfact> 0.49249350E+02</totfact>
</mgrwt>
</event>
<event>
 5    1  0.1132878E+001  0.2783126E+03  0.7818608E-02  0.1096614E+00
          1   -1    0    0  501    0  0.00000000000E+00  0.00000000000E+00  0.90245669413E+02  0.90245669413E+02  0.00000000000E+00 0.  1.
         -1   -1    0    0    0  501 -0.00000000000E+00 -0.00000000000E+00 -0.21457511455E+03  0.21457511455E+03  0.00000000000E+00 0.  1.
         35    2    1    2    0    0  0.00000000000E+00  0.00000000000E+00 -0.12432944514E+03  0.30482078397E+03  0.27831259298E+03 0.  0.
         25    1    3    3    0    0  0.32397082240E+02  0.37466528056E+02 -0.11704915614E+03  0.17479650058E+03  0.12000000000E+03 0.  0.
         25    1    3    3    0    0 -0.32397082240E+02 -0.37466528056E+02 -0.72802890034E+01  0.13002428339E+03  0.12000000000E+03 0.  0.
<mgrwt>
<rscale>  0 0.27831259E+03</rscale>
<asrwt>0</asrwt>
<pdfrwt beam="1">  1        1 0.13883949E-01 0.27831259E+03</pdfrwt>
<pdfrwt beam="2">  1       -1 0.33011556E-01 0.27831259E+03</pdfrwt>
<totfact> 0.35602203E+03</totfact>
</mgrwt>
</event>
<event>
 5    1  0.1132878E+001  0.2769823E+03  0.7818608E-02  0.1097349E+00
          2   -1    0    0  501    0  0.00000000000E+00  0.00000000000E+00  0.47763309654E+03  0.47763309654E+03  0.00000000000E+00 0.  1.
         -2   -1    0    0    0  501 -0.00000000000E+00 -0.00000000000E+00 -0.40155929920E+02  0.40155929920E+02  0.00000000000E+00 0.  1.
         35    2    1    2    0    0  0.00000000000E+00  0.00000000000E+00  0.43747716662E+03  0.51778902646E+03  0.27698231823E+03 0.  0.
         25    1    3    3    0    0 -0.24221735379E+02 -0.93400289224E+01  0.33852388428E+03  0.36010047047E+03  0.12000000000E+03 0.  0.
         25    1    3    3    0    0  0.24221735379E+02  0.93400289224E+01  0.98953282345E+02  0.15768855600E+03  0.12000000000E+03 0.  0.
<mgrwt>
<rscale>  0 0.27698232E+03</rscale>
<asrwt>0</asrwt>
<pdfrwt beam="1">  1        2 0.73482011E-01 0.27698232E+03</pdfrwt>
<pdfrwt beam="2">  1       -2 0.61778357E-02 0.27698232E+03</pdfrwt>
<totfact> 0.92221836E+03</totfact>
</mgrwt>
</event>
<event>
 5    1  0.1132878E+001  0.2757996E+03  0.7818608E-02  0.1098005E+00
         -1   -1    0    0    0  501 -0.00000000000E+00  0.00000000000E+00  0.68724287733E+03  0.68724287733E+03  0.00000000000E+00 0. -1.
          1   -1    0    0  501    0  0.00000000000E+00 -0.00000000000E+00 -0.27670508833E+02  0.27670508833E+02  0.00000000000E+00 0. -1.
         35    2    1    2    0    0  0.00000000000E+00  0.00000000000E+00  0.65957236850E+03  0.71491338616E+03  0.27579963820E+03 0.  0.
         25    1    3    3    0    0  0.14766918807E+02 -0.42161956043E+02  0.19708777610E+03  0.23503038935E+03  0.12000000000E+03 0.  0.
         25    1    3    3    0    0 -0.14766918807E+02  0.42161956043E+02  0.46248459240E+03  0.47988299682E+03  0.12000000000E+03 0.  0.
<mgrwt>
<rscale>  0 0.27579964E+03</rscale>
<asrwt>0</asrwt>
<pdfrwt beam="1">  1        1 0.42570019E-02 0.27579964E+03</pdfrwt>
<pdfrwt beam="2">  1       -1 0.10572966E+00 0.27579964E+03</pdfrwt>
<totfact> 0.18502198E+03</totfact>
</mgrwt>
</event>
<event>
 5    1  0.1132878E+001  0.2743793E+03  0.7818608E-02  0.1098799E+00
         -1   -1    0    0    0  501 -0.00000000000E+00  0.00000000000E+00  0.22403076729E+03  0.22403076729E+03  0.00000000000E+00 0.  1.
          1   -1    0    0  501    0  0.00000000000E+00 -0.00000000000E+00 -0.84010784205E+02  0.84010784205E+02  0.00000000000E+00 0.  1.
         35    2    1    2    0    0  0.00000000000E+00  0.00000000000E+00  0.14001998308E+03  0.30804155149E+03  0.27437930276E+03 0.  0.
         25    1    3    3    0    0 -0.36873465050E+02  0.19327636110E+02  0.11805612334E+02  0.12756403265E+03  0.12000000000E+03 0.  0.
         25    1    3    3    0    0  0.36873465050E+02 -0.19327636110E+02  0.12821437075E+03  0.18047751885E+03  0.12000000000E+03 0.  0.
<mgrwt>
<rscale>  0 0.27437930E+03</rscale>
<asrwt>0</asrwt>
<pdfrwt beam="1">  1        1 0.12924736E-01 0.27437930E+03</pdfrwt>
<pdfrwt beam="2">  1       -1 0.34466272E-01 0.27437930E+03</pdfrwt>
<totfact> 0.36308684E+03</totfact>
</mgrwt>
</event>
<event>
 5    1  0.1132878E+001  0.2766396E+03  0.7818608E-02  0.1097539E+00
         -2   -1    0    0    0  501 -0.00000000000E+00  0.00000000000E+00  0.21962568937E+03  0.21962568937E+03  0.00000000000E+00 0.  1.
          2   -1    0    0  501    0  0.00000000000E+00 -0.00000000000E+00 -0.87113539403E+02  0.87113539403E+02  0.00000000000E+00 0.  1.
         35    2    1    2    0    0  0.00000000000E+00  0.00000000000E+00  0.13251214997E+03  0.30673922877E+03  0.27663962945E+03 0.  0.
         25    1    3    3    0    0  0.36308747963E+01  0.50007042195E+02  0.11848162720E+03  0.17593118969E+03  0.12000000000E+03 0.  0.
         25    1    3    3    0    0 -0.36308747963E+01 -0.50007042195E+02  0.14030522770E+02  0.13080803909E+03  0.12000000000E+03 0.  0.
<mgrwt>
<rscale>  0 0.27663963E+03</rscale>
<asrwt>0</asrwt>
<pdfrwt beam="1">  1        2 0.13402083E-01 0.27663963E+03</pdfrwt>
<pdfrwt beam="2">  1       -2 0.33788567E-01 0.27663963E+03</pdfrwt>
<totfact> 0.36458473E+03</totfact>
</mgrwt>
</event>
<event>
 5    1  0.1132878E+001  0.2705340E+03  0.7818608E-02  0.1100974E+00
          4   -1    0    0  501    0  0.00000000000E+00  0.00000000000E+00  0.39468079809E+03  0.39468079809E+03  0.00000000000E+00 0.  1.
         -4   -1    0    0    0  501 -0.00000000000E+00 -0.00000000000E+00 -0.46359375813E+02  0.46359375813E+02  0.00000000000E+00 0.  1.
         35    2    1    2    0    0  0.00000000000E+00  0.00000000000E+00  0.34832142227E+03  0.44104017390E+03  0.27053395680E+03 0.  0.
         25    1    3    3    0    0 -0.21853941667E+02 -0.32804334825E+02  0.95241462432E+02  0.15819183075E+03  0.12000000000E+03 0.  0.
         25    1    3    3    0    0  0.21853941667E+02  0.32804334825E+02  0.25307995984E+03  0.28284834315E+03  0.12000000000E+03 0.  0.
<mgrwt>
<rscale>  0 0.27053396E+03</rscale>
<asrwt>0</asrwt>
<pdfrwt beam="1">  1        4 0.60720120E-01 0.27053396E+03</pdfrwt>
<pdfrwt beam="2">  1       -4 0.71322119E-02 0.27053396E+03</pdfrwt>
<totfact> 0.64632129E+02</totfact>
</mgrwt>
</event>
<event>
 5    1  0.1132878E+001  0.2739945E+03  0.7818608E-02  0.1099015E+00
         -1   -1    0    0    0  501 -0.00000000000E+00  0.00000000000E+00  0.22747431774E+02  0.22747431774E+02  0.00000000000E+00 0. -1.
          1   -1    0    0  501    0  0.00000000000E+00 -0.00000000000E+00 -0.82507121309E+03  0.82507121309E+03  0.00000000000E+00 0. -1.
         35    2    1    2    0    0  0.00000000000E+00  0.00000000000E+00 -0.80232378131E+03  0.84781864486E+03  0.27399453373E+03 0.  0.
         25    1    3    3    0    0  0.59529996448E+02  0.22803341415E+02 -0.45515156259E+03  0.47500185030E+03  0.12000000000E+03 0.  0.
         25    1    3    3    0    0 -0.59529996448E+02 -0.22803341415E+02 -0.34717221872E+03  0.37281679456E+03  0.12000000000E+03 0.  0.
<mgrwt>
<rscale>  0 0.27399453E+03</rscale>
<asrwt>0</asrwt>
<pdfrwt beam="1">  1        1 0.12693406E+00 0.27399453E+03</pdfrwt>
<pdfrwt beam="2">  1       -1 0.34996041E-02 0.27399453E+03</pdfrwt>
<totfact> 0.65775864E+03</totfact>
</mgrwt>
</event>
<event>
 5    1  0.1132878E+001  0.2748203E+03  0.7818608E-02  0.1098552E+00
          1   -1    0    0  501    0  0.00000000000E+00  0.00000000000E+00  0.55036907791E+02  0.55036907791E+02  0.00000000000E+00 0. -1.
         -1   -1    0    0    0  501 -0.00000000000E+00 -0.00000000000E+00 -0.34307062436E+03  0.34307062436E+03  0.00000000000E+00 0. -1.
         35    2    1    2    0    0  0.00000000000E+00  0.00000000000E+00 -0.28803371657E+03  0.39810753215E+03  0.27482027814E+03 0.  0.
         25    1    3    3    0    0  0.34561552851E+02 -0.53587156528E+02 -0.11448999633E+03  0.17769086510E+03  0.12000000000E+03 0.  0.
         25    1    3    3    0    0 -0.34561552851E+02  0.53587156528E+02 -0.17354372024E+03  0.22041666705E+03  0.12000000000E+03 0.  0.
<mgrwt>
<rscale>  0 0.27482028E+03</rscale>
<asrwt>0</asrwt>
<pdfrwt beam="1">  1        1 0.84672164E-02 0.27482028E+03</pdfrwt>
<pdfrwt beam="2">  1       -1 0.52780097E-01 0.27482028E+03</pdfrwt>
<totfact> 0.29761722E+03</totfact>
</mgrwt>
</event>
<event>
 5    1  0.1132878E+001  0.2764691E+03  0.7818608E-02  0.1097633E+00
          1   -1    0    0  501    0  0.00000000000E+00  0.00000000000E+00  0.79234419485E+03  0.79234419485E+03  0.00000000000E+00 0.  1.
         -1   -1    0    0    0  501 -0.00000000000E+00 -0.00000000000E+00 -0.24116780244E+02  0.24116780244E+02  0.00000000000E+00 0.  1.
         35    2    1    2    0    0  0.00000000000E+00  0.00000000000E+00  0.76822741461E+03  0.81646097510E+03  0.27646910008E+03 0.  0.
         25    1    3    3    0    0 -0.29078768259E+01 -0.74722435006E+01  0.58537411431E+03  0.59760115786E+03  0.12000000000E+03 0.  0.
         25    1    3    3    0    0  0.29078768259E+01  0.74722435006E+01  0.18285330030E+03  0.21885981723E+03  0.12000000000E+03 0.  0.
<mgrwt>
<rscale>  0 0.27646910E+03</rscale>
<asrwt>0</asrwt>
<pdfrwt beam="1">  1        1 0.12189909E+00 0.27646910E+03</pdfrwt>
<pdfrwt beam="2">  1       -1 0.37102745E-02 0.27646910E+03</pdfrwt>
<totfact> 0.64227582E+03</totfact>
</mgrwt>
</event>
<event>
 5    1  0.1132878E+001  0.2754703E+03  0.7818608E-02  0.1098189E+00
          2   -1    0    0  501    0  0.00000000000E+00  0.00000000000E+00  0.38343069249E+03  0.38343069249E+03  0.00000000000E+00 0. -1.
         -2   -1    0    0    0  501 -0.00000000000E+00 -0.00000000000E+00 -0.49476935175E+02  0.49476935175E+02  0.00000000000E+00 0. -1.
         35    2    1    2    0    0  0.00000000000E+00  0.00000000000E+00  0.33395375732E+03  0.43290762767E+03  0.27547032883E+03 0.  0.
         25    1    3    3    0    0  0.51842637373E+02  0.32101126474E+01  0.98964079510E+02  0.16398735593E+03  0.12000000000E+03 0.  0.
         25    1    3    3    0    0 -0.51842637373E+02 -0.32101126474E+01  0.23498967781E+03  0.26892027173E+03  0.12000000000E+03 0.  0.
<mgrwt>
<rscale>  0 0.27547033E+03</rscale>
<asrwt>0</asrwt>
<pdfrwt beam="1">  1        2 0.58989335E-01 0.27547033E+03</pdfrwt>
<pdfrwt beam="2">  1       -2 0.76118364E-02 0.27547033E+03</pdfrwt>
<totfact> 0.84921774E+03</totfact>
</mgrwt>
</event>
<event>
 5    1  0.1132878E+001  0.2750893E+03  0.7818608E-02  0.1098402E+00
         -2   -1    0    0    0  501 -0.00000000000E+00  0.00000000000E+00  0.49956603993E+02  0.49956603993E+02  0.00000000000E+00 0.  1.
          2   -1    0    0  501    0  0.00000000000E+00 -0.00000000000E+00 -0.37869932086E+03  0.37869932086E+03  0.00000000000E+00 0.  1.
         35    2    1    2    0    0  0.00000000000E+00  0.00000000000E+00 -0.32874271687E+03  0.42865592486E+03  0.27508930917E+03 0.  0.
         25    1    3    3    0    0  0.13168015285E+01  0.62674407908E+02 -0.20217975599E+03  0.24332379478E+03  0.12000000000E+03 0.  0.
         25    1    3    3    0    0 -0.13168015285E+01 -0.62674407908E+02 -0.12656296088E+03  0.18533213008E+03  0.12000000000E+03 0.  0.
<mgrwt>
<rscale>  0 0.27508931E+03</rscale>
<asrwt>0</asrwt>
<pdfrwt beam="1">  1        2 0.58261434E-01 0.27508931E+03</pdfrwt>
<pdfrwt beam="2">  1       -2 0.76856314E-02 0.27508931E+03</pdfrwt>
<totfact> 0.84782963E+03</totfact>
</mgrwt>
</event>
<event>
 5    1  0.1132878E+001  0.2749952E+03  0.7818608E-02  0.1098454E+00
          2   -1    0    0  501    0  0.00000000000E+00  0.00000000000E+00  0.29844681013E+03  0.29844681013E+03  0.00000000000E+00 0. -1.
         -2   -1    0    0    0  501 -0.00000000000E+00 -0.00000000000E+00 -0.63346575809E+02  0.63346575809E+02  0.00000000000E+00 0. -1.
         35    2    1    2    0    0  0.00000000000E+00  0.00000000000E+00  0.23510023432E+03  0.36179338594E+03  0.27499515256E+03 0.  0.
         25    1    3    3    0    0 -0.50621311565E+02  0.21311133187E+02  0.16831561235E+03  0.21388507882E+03  0.12000000000E+03 0.  0.
         25    1    3    3    0    0  0.50621311565E+02 -0.21311133187E+02  0.66784621972E+02  0.14790830712E+03  0.12000000000E+03 0.  0.
<mgrwt>
<rscale>  0 0.27499515E+03</rscale>
<asrwt>0</asrwt>
<pdfrwt beam="1">  1        2 0.45914893E-01 0.27499515E+03</pdfrwt>
<pdfrwt beam="2">  1       -2 0.97456272E-02 0.27499515E+03</pdfrwt>
<totfact> 0.75465845E+03</totfact>
</mgrwt>
</event>
<event>
 5    1  0.1132878E+001  0.2751222E+03  0.7818608E-02  0.1098383E+00
         -1   -1    0    0    0  501 -0.00000000000E+00  0.00000000000E+00  0.10817828429E+03  0.10817828429E+03  0.00000000000E+00 0. -1.
          1   -1    0    0  501    0  0.00000000000E+00 -0.00000000000E+00 -0.17492478100E+03  0.17492478100E+03  0.00000000000E+00 0. -1.
         35    2    1    2    0    0  0.00000000000E+00  0.00000000000E+00 -0.66746496717E+02  0.28310306529E+03  0.27512224692E+03 0.  0.
         25    1    3    3    0    0  0.58837440009E+02 -0.18966217321E+02 -0.61190764385E+01  0.13512588517E+03  0.12000000000E+03 0.  0.
         25    1    3    3    0    0 -0.58837440009E+02  0.18966217321E+02 -0.60627420278E+02  0.14797718012E+03  0.12000000000E+03 0.  0.
<mgrwt>
<rscale>  0 0.27512225E+03</rscale>
<asrwt>0</asrwt>
<pdfrwt beam="1">  1        1 0.26911504E-01 0.27512225E+03</pdfrwt>
<pdfrwt beam="2">  1       -1 0.16642813E-01 0.27512225E+03</pdfrwt>
<totfact> 0.47013681E+03</totfact>
</mgrwt>
</event>
<event>
 5    1  0.1132878E+001  0.2722454E+03  0.7818608E-02  0.1100001E+00
          1   -1    0    0  501    0  0.00000000000E+00  0.00000000000E+00  0.38100138564E+03  0.38100138564E+03  0.00000000000E+00 0.  1.
         -1   -1    0    0    0  501 -0.00000000000E+00 -0.00000000000E+00 -0.48633383560E+02  0.48633383560E+02  0.00000000000E+00 0.  1.
         35    2    1    2    0    0  0.00000000000E+00  0.00000000000E+00  0.33236800208E+03  0.42963476920E+03  0.27224537847E+03 0.  0.
         25    1    3    3    0    0  0.52439875776E+02 -0.69997287637E+01  0.10862170052E+03  0.17028684799E+03  0.12000000000E+03 0.  0.
         25    1    3    3    0    0 -0.52439875776E+02  0.69997287637E+01  0.22374630156E+03  0.25934792121E+03  0.12000000000E+03 0.  0.
<mgrwt>
<rscale>  0 0.27224538E+03</rscale>
<asrwt>0</asrwt>
<pdfrwt beam="1">  1        1 0.58615596E-01 0.27224538E+03</pdfrwt>
<pdfrwt beam="2">  1       -1 0.74820593E-02 0.27224538E+03</pdfrwt>
<totfact> 0.61171642E+03</totfact>
</mgrwt>
</event>
<event>
 5    1  0.1132878E+001  0.2756924E+03  0.7818608E-02  0.1098065E+00
          2   -1    0    0  501    0  0.00000000000E+00  0.00000000000E+00  0.11707758537E+04  0.11707758537E+04  0.00000000000E+00 0. -1.
         -2   -1    0    0    0  501 -0.00000000000E+00 -0.00000000000E+00 -0.16229899200E+02  0.16229899200E+02  0.00000000000E+00 0. -1.
         35    2    1    2    0    0  0.00000000000E+00  0.00000000000E+00  0.11545459545E+04  0.11870057529E+04  0.27569239447E+03 0.  0.
         25    1    3    3    0    0  0.16218156221E+02  0.63530586412E+02  0.50239981471E+03  0.52067719157E+03  0.12000000000E+03 0.  0.
         25    1    3    3    0    0 -0.16218156221E+02 -0.63530586412E+02  0.65214613979E+03  0.66632856133E+03  0.12000000000E+03 0.  0.
<mgrwt>
<rscale>  0 0.27569239E+03</rscale>
<asrwt>0</asrwt>
<pdfrwt beam="1">  1        2 0.18011930E+00 0.27569239E+03</pdfrwt>
<pdfrwt beam="2">  1       -2 0.24969085E-02 0.27569239E+03</pdfrwt>
<totfact> 0.11547334E+04</totfact>
</mgrwt>
</event>
<event>
 5    1  0.1132878E+001  0.2754068E+03  0.7818608E-02  0.1098224E+00
         -2   -1    0    0    0  501 -0.00000000000E+00  0.00000000000E+00  0.14046865269E+03  0.14046865269E+03  0.00000000000E+00 0. -1.
          2   -1    0    0  501    0  0.00000000000E+00 -0.00000000000E+00 -0.13499260509E+03  0.13499260509E+03  0.00000000000E+00 0. -1.
         35    2    1    2    0    0  0.00000000000E+00  0.00000000000E+00  0.54760476004E+01  0.27546125778E+03  0.27540682170E+03 0.  0.
         25    1    3    3    0    0 -0.11897798492E+02  0.64812350898E+02  0.17574395066E+02  0.13802556937E+03  0.12000000000E+03 0.  0.
         25    1    3    3    0    0  0.11897798492E+02 -0.64812350898E+02 -0.12098347466E+02  0.13743568841E+03  0.12000000000E+03 0.  0.
<mgrwt>
<rscale>  0 0.27540682E+03</rscale>
<asrwt>0</asrwt>
<pdfrwt beam="1">  1        2 0.20768093E-01 0.27540682E+03</pdfrwt>
<pdfrwt beam="2">  1       -2 0.21610562E-01 0.27540682E+03</pdfrwt>
<totfact> 0.48530005E+03</totfact>
</mgrwt>
</event>
<event>
 5    1  0.1132878E+001  0.2768777E+03  0.7818608E-02  0.1097407E+00
          4   -1    0    0  501    0  0.00000000000E+00  0.00000000000E+00  0.74341328309E+02  0.74341328309E+02  0.00000000000E+00 0. -1.
         -4   -1    0    0    0  501 -0.00000000000E+00 -0.00000000000E+00 -0.25780164104E+03  0.25780164104E+03  0.00000000000E+00 0. -1.
         35    2    1    2    0    0  0.00000000000E+00  0.00000000000E+00 -0.18346031273E+03  0.33214296935E+03  0.27687770900E+03 0.  0.
         25    1    3    3    0    0  0.26071929991E+02 -0.63183439425E+01 -0.16803132587E+03  0.20821669837E+03  0.12000000000E+03 0.  0.
         25    1    3    3    0    0 -0.26071929991E+02  0.63183439425E+01 -0.15428986855E+02  0.12392627098E+03  0.12000000000E+03 0.  0.
<mgrwt>
<rscale>  0 0.27687771E+03</rscale>
<asrwt>0</asrwt>
<pdfrwt beam="1">  1        4 0.11437127E-01 0.27687771E+03</pdfrwt>
<pdfrwt beam="2">  1       -4 0.39661792E-01 0.27687771E+03</pdfrwt>
<totfact> 0.70055811E+02</totfact>
</mgrwt>
</event>
<event>
 5    1  0.1132878E+001  0.2748662E+03  0.7818608E-02  0.1098526E+00
         -2   -1    0    0    0  501 -0.00000000000E+00  0.00000000000E+00  0.23166225772E+02  0.23166225772E+02  0.00000000000E+00 0. -1.
          2   -1    0    0  501    0  0.00000000000E+00 -0.00000000000E+00 -0.81531894214E+03  0.81531894214E+03  0.00000000000E+00 0. -1.
         35    2    1    2    0    0  0.00000000000E+00  0.00000000000E+00 -0.79215271637E+03  0.83848516791E+03  0.27486624158E+03 0.  0.
         25    1    3    3    0    0  0.18544506382E+01 -0.66917019657E+02 -0.38827740900E+03  0.41187458388E+03  0.12000000000E+03 0.  0.
         25    1    3    3    0    0 -0.18544506382E+01  0.66917019657E+02 -0.40387530737E+03  0.42661058404E+03  0.12000000000E+03 0.  0.
<mgrwt>
<rscale>  0 0.27486624E+03</rscale>
<asrwt>0</asrwt>
<pdfrwt beam="1">  1        2 0.12543369E+00 0.27486624E+03</pdfrwt>
<pdfrwt beam="2">  1       -2 0.35640346E-02 0.27486624E+03</pdfrwt>
<totfact> 0.11285391E+04</totfact>
</mgrwt>
</event>
<event>
 5    1  0.1132878E+001  0.2749242E+03  0.7818608E-02  0.1098494E+00
         -2   -1    0    0    0  501 -0.00000000000E+00  0.00000000000E+00  0.14121148054E+02  0.14121148054E+02  0.00000000000E+00 0.  1.
          2   -1    0    0  501    0  0.00000000000E+00 -0.00000000000E+00 -0.13381223832E+04  0.13381223832E+04  0.00000000000E+00 0.  1.
         35    2    1    2    0    0  0.00000000000E+00  0.00000000000E+00 -0.13240012351E+04  0.13522435312E+04  0.27492416618E+03 0.  0.
         25    1    3    3    0    0 -0.28248591251E+02 -0.50996857550E+02 -0.82492172551E+03  0.83564018310E+03  0.12000000000E+03 0.  0.
         25    1    3    3    0    0  0.28248591251E+02  0.50996857550E+02 -0.49907950963E+03  0.51660334815E+03  0.12000000000E+03 0.  0.
<mgrwt>
<rscale>  0 0.27492417E+03</rscale>
<asrwt>0</asrwt>
<pdfrwt beam="1">  1        2 0.20586497E+00 0.27492417E+03</pdfrwt>
<pdfrwt beam="2">  1       -2 0.21724845E-02 0.27492417E+03</pdfrwt>
<totfact> 0.11427587E+04</totfact>
</mgrwt>
</event>
<event>
 5    1  0.1132878E+001  0.2746742E+03  0.7818608E-02  0.1098634E+00
         -4   -1    0    0    0  501 -0.00000000000E+00  0.00000000000E+00  0.13173972415E+03  0.13173972415E+03  0.00000000000E+00 0. -1.
          4   -1    0    0  501    0  0.00000000000E+00 -0.00000000000E+00 -0.14317230824E+03  0.14317230824E+03  0.00000000000E+00 0. -1.
         35    2    1    2    0    0  0.00000000000E+00  0.00000000000E+00 -0.11432584088E+02  0.27491203239E+03  0.27467420988E+03 0.  0.
         25    1    3    3    0    0  0.28373981228E+01 -0.98364810138E+01 -0.71778541417E+02  0.14020330308E+03  0.12000000000E+03 0.  0.
         25    1    3    3    0    0 -0.28373981228E+01  0.98364810138E+01  0.60345957329E+02  0.13470872931E+03  0.12000000000E+03 0.  0.
<mgrwt>
<rscale>  0 0.27467421E+03</rscale>
<asrwt>0</asrwt>
<pdfrwt beam="1">  1        4 0.22026509E-01 0.27467421E+03</pdfrwt>
<pdfrwt beam="2">  1       -4 0.20267650E-01 0.27467421E+03</pdfrwt>
<totfact> 0.78160176E+02</totfact>
</mgrwt>
</event>
<event>
 5    1  0.1132878E+001  0.2749356E+03  0.7818608E-02  0.1098488E+00
         -2   -1    0    0    0  501 -0.00000000000E+00  0.00000000000E+00  0.33223179638E+02  0.33223179638E+02  0.00000000000E+00 0.  1.
          2   -1    0    0  501    0  0.00000000000E+00 -0.00000000000E+00 -0.56880148351E+03  0.56880148351E+03  0.00000000000E+00 0.  1.
         35    2    1    2    0    0  0.00000000000E+00  0.00000000000E+00 -0.53557830387E+03  0.60202466315E+03  0.27493558420E+03 0.  0.
         25    1    3    3    0    0  0.20457121580E+02  0.49216841683E+02 -0.35691270483E+03  0.38029918512E+03  0.12000000000E+03 0.  0.
         25    1    3    3    0    0 -0.20457121580E+02 -0.49216841683E+02 -0.17866559904E+03  0.22172547803E+03  0.12000000000E+03 0.  0.
<mgrwt>
<rscale>  0 0.27493558E+03</rscale>
<asrwt>0</asrwt>
<pdfrwt beam="1">  1        2 0.87507920E-01 0.27493558E+03</pdfrwt>
<pdfrwt beam="2">  1       -2 0.51112585E-02 0.27493558E+03</pdfrwt>
<totfact> 0.10115727E+04</totfact>
</mgrwt>
</event>
<event>
 5    1  0.1132878E+001  0.2762322E+03  0.7818608E-02  0.1097765E+00
          2   -1    0    0  501    0  0.00000000000E+00  0.00000000000E+00  0.75881118368E+03  0.75881118368E+03  0.00000000000E+00 0.  1.
         -2   -1    0    0    0  501 -0.00000000000E+00 -0.00000000000E+00 -0.25139401420E+02  0.25139401420E+02  0.00000000000E+00 0.  1.
         35    2    1    2    0    0  0.00000000000E+00  0.00000000000E+00  0.73367178226E+03  0.78395058510E+03  0.27623221354E+03 0.  0.
         25    1    3    3    0    0 -0.66799829180E+02 -0.11438249049E+02  0.39269270081E+03  0.41617377139E+03  0.12000000000E+03 0.  0.
         25    1    3    3    0    0  0.66799829180E+02  0.11438249049E+02  0.34097908144E+03  0.36777681371E+03  0.12000000000E+03 0.  0.
<mgrwt>
<rscale>  0 0.27623221E+03</rscale>
<asrwt>0</asrwt>
<pdfrwt beam="1">  1        2 0.11674016E+00 0.27623221E+03</pdfrwt>
<pdfrwt beam="2">  1       -2 0.38676008E-02 0.27623221E+03</pdfrwt>
<totfact> 0.10934642E+04</totfact>
</mgrwt>
</event>
<event>
 5    1  0.1132878E+001  0.2826486E+03  0.7818608E-02  0.1094251E+00
          2   -1    0    0  501    0  0.00000000000E+00  0.00000000000E+00  0.58800962359E+03  0.58800962359E+03  0.00000000000E+00 0. -1.
         -2   -1    0    0    0  501 -0.00000000000E+00 -0.00000000000E+00 -0.33966387745E+02  0.33966387745E+02  0.00000000000E+00 0. -1.
         35    2    1    2    0    0  0.00000000000E+00  0.00000000000E+00  0.55404323585E+03  0.62197601133E+03  0.28264863610E+03 0.  0.
         25    1    3    3    0    0 -0.45284024327E+02  0.15780129625E+02  0.15113092966E+03  0.19884721081E+03  0.12000000000E+03 0.  0.
         25    1    3    3    0    0  0.45284024327E+02 -0.15780129625E+02  0.40291230619E+03  0.42312880052E+03  0.12000000000E+03 0.  0.
<mgrwt>
<rscale>  0 0.28264864E+03</rscale>
<asrwt>0</asrwt>
<pdfrwt beam="1">  1        2 0.90463012E-01 0.28264864E+03</pdfrwt>
<pdfrwt beam="2">  1       -2 0.52255985E-02 0.28264864E+03</pdfrwt>
<totfact> 0.94230750E+03</totfact>
</mgrwt>
</event>
<event>
 5    1  0.1132878E+001  0.2751730E+03  0.7818608E-02  0.1098355E+00
          4   -1    0    0  501    0  0.00000000000E+00  0.00000000000E+00  0.62773523911E+02  0.62773523911E+02  0.00000000000E+00 0. -1.
         -4   -1    0    0    0  501 -0.00000000000E+00 -0.00000000000E+00 -0.30156106173E+03  0.30156106173E+03  0.00000000000E+00 0. -1.
         35    2    1    2    0    0  0.00000000000E+00  0.00000000000E+00 -0.23878753781E+03  0.36433458564E+03  0.27517304024E+03 0.  0.
         25    1    3    3    0    0 -0.44095013273E+02  0.50836351716E+02 -0.12092967053E+03  0.18317393391E+03  0.12000000000E+03 0.  0.
         25    1    3    3    0    0  0.44095013273E+02 -0.50836351716E+02 -0.11785786729E+03  0.18116065172E+03  0.12000000000E+03 0.  0.
<mgrwt>
<rscale>  0 0.27517304E+03</rscale>
<asrwt>0</asrwt>
<pdfrwt beam="1">  1        4 0.96574654E-02 0.27517304E+03</pdfrwt>
<pdfrwt beam="2">  1       -4 0.46394008E-01 0.27517304E+03</pdfrwt>
<totfact> 0.68187946E+02</totfact>
</mgrwt>
</event>
<event>
 5    1  0.1132878E+001  0.2739099E+03  0.7818608E-02  0.1099062E+00
          1   -1    0    0  501    0  0.00000000000E+00  0.00000000000E+00  0.77094748449E+03  0.77094748449E+03  0.00000000000E+00 0.  1.
         -1   -1    0    0    0  501 -0.00000000000E+00 -0.00000000000E+00 -0.24329361914E+02  0.24329361914E+02  0.00000000000E+00 0.  1.
         35    2    1    2    0    0  0.00000000000E+00  0.00000000000E+00  0.74661812258E+03  0.79527684641E+03  0.27390991487E+03 0.  0.
         25    1    3    3    0    0  0.65622389569E+02 -0.37410666574E+01  0.39081812712E+03  0.41407620323E+03  0.12000000000E+03 0.  0.
         25    1    3    3    0    0 -0.65622389569E+02  0.37410666574E+01  0.35579999546E+03  0.38120064318E+03  0.12000000000E+03 0.  0.
<mgrwt>
<rscale>  0 0.27390991E+03</rscale>
<asrwt>0</asrwt>
<pdfrwt beam="1">  1        1 0.11860729E+00 0.27390991E+03</pdfrwt>
<pdfrwt beam="2">  1       -1 0.37429794E-02 0.27390991E+03</pdfrwt>
<totfact> 0.66083093E+03</totfact>
</mgrwt>
</event>
<event>
 5    1  0.1132878E+001  0.2751150E+03  0.7818608E-02  0.1098387E+00
          1   -1    0    0  501    0  0.00000000000E+00  0.00000000000E+00  0.22365364685E+03  0.22365364685E+03  0.00000000000E+00 0. -1.
         -1   -1    0    0    0  501 -0.00000000000E+00 -0.00000000000E+00 -0.84604303136E+02  0.84604303136E+02  0.00000000000E+00 0. -1.
         35    2    1    2    0    0  0.00000000000E+00  0.00000000000E+00  0.13904934371E+03  0.30825794999E+03  0.27511496459E+03 0.  0.
         25    1    3    3    0    0 -0.41296252143E+02 -0.74477189484E+01  0.12840225116E+03  0.18068753987E+03  0.12000000000E+03 0.  0.
         25    1    3    3    0    0  0.41296252143E+02  0.74477189484E+01  0.10647092550E+02  0.12757041012E+03  0.12000000000E+03 0.  0.
<mgrwt>
<rscale>  0 0.27511496E+03</rscale>
<asrwt>0</asrwt>
<pdfrwt beam="1">  1        1 0.34408253E-01 0.27511496E+03</pdfrwt>
<pdfrwt beam="2">  1       -1 0.13016047E-01 0.27511496E+03</pdfrwt>
<totfact> 0.50903409E+03</totfact>
</mgrwt>
</event>
<event>
 5    1  0.1132878E+001  0.2747218E+03  0.7818608E-02  0.1098607E+00
          2   -1    0    0  501    0  0.00000000000E+00  0.00000000000E+00  0.20351733388E+04  0.20351733388E+04  0.00000000000E+00 0. -1.
         -2   -1    0    0    0  501 -0.00000000000E+00 -0.00000000000E+00 -0.92709616217E+01  0.92709616217E+01  0.00000000000E+00 0. -1.
         35    2    1    2    0    0  0.00000000000E+00  0.00000000000E+00  0.20259023772E+04  0.20444443005E+04  0.27472177866E+03 0.  0.
         25    1    3    3    0    0  0.29655902805E+02 -0.23327811796E+02  0.60234091847E+03  0.61533587693E+03  0.12000000000E+03 0.  0.
         25    1    3    3    0    0 -0.29655902805E+02  0.23327811796E+02  0.14235614588E+04  0.14291084235E+04  0.12000000000E+03 0.  0.
<mgrwt>
<rscale>  0 0.27472178E+03</rscale>
<asrwt>0</asrwt>
<pdfrwt beam="1">  1        2 0.31310323E+00 0.27472178E+03</pdfrwt>
<pdfrwt beam="2">  1       -2 0.14263034E-02 0.27472178E+03</pdfrwt>
<totfact> 0.90418459E+03</totfact>
</mgrwt>
</event>
<event>
 5    1  0.1132878E+001  0.2764143E+03  0.7818608E-02  0.1097664E+00
         -2   -1    0    0    0  501 -0.00000000000E+00  0.00000000000E+00  0.14700760001E+02  0.14700760001E+02  0.00000000000E+00 0.  1.
          2   -1    0    0  501    0  0.00000000000E+00 -0.00000000000E+00 -0.12993354372E+04  0.12993354372E+04  0.00000000000E+00 0.  1.
         35    2    1    2    0    0  0.00000000000E+00  0.00000000000E+00 -0.12846346772E+04  0.13140361972E+04  0.27641431528E+03 0.  0.
         25    1    3    3    0    0  0.32481445584E+02 -0.13537427329E+02 -0.36256898682E+03  0.38352910770E+03  0.12000000000E+03 0.  0.
         25    1    3    3    0    0 -0.32481445584E+02  0.13537427329E+02 -0.92206569039E+03  0.93050708952E+03  0.12000000000E+03 0.  0.
<mgrwt>
<rscale>  0 0.27641432E+03</rscale>
<asrwt>0</asrwt>
<pdfrwt beam="1">  1        2 0.19989774E+00 0.27641432E+03</pdfrwt>
<pdfrwt beam="2">  1       -2 0.22616556E-02 0.27641432E+03</pdfrwt>
<totfact> 0.11314546E+04</totfact>
</mgrwt>
</event>
<event>
 5    1  0.1132878E+001  0.2743855E+03  0.7818608E-02  0.1098796E+00
          1   -1    0    0  501    0  0.00000000000E+00  0.00000000000E+00  0.13347598875E+04  0.13347598875E+04  0.00000000000E+00 0. -1.
         -1   -1    0    0    0  501 -0.00000000000E+00 -0.00000000000E+00 -0.14101304323E+02  0.14101304323E+02  0.00000000000E+00 0. -1.
         35    2    1    2    0    0  0.00000000000E+00  0.00000000000E+00  0.13206585831E+04  0.13488611918E+04  0.27438553440E+03 0.  0.
         25    1    3    3    0    0  0.32770535790E+02 -0.28771032073E+02  0.41354278883E+03  0.43280401857E+03  0.12000000000E+03 0.  0.
         25    1    3    3    0    0 -0.32770535790E+02  0.28771032073E+02  0.90711579432E+03  0.91605717322E+03  0.12000000000E+03 0.  0.
<mgrwt>
<rscale>  0 0.27438553E+03</rscale>
<asrwt>0</asrwt>
<pdfrwt beam="1">  1        1 0.20534758E+00 0.27438553E+03</pdfrwt>
<pdfrwt beam="2">  1       -1 0.21694325E-02 0.27438553E+03</pdfrwt>
<totfact> 0.56224449E+03</totfact>
</mgrwt>
</event>
<event>
 5    1  0.1132878E+001  0.2743555E+03  0.7818608E-02  0.1098812E+00
         -2   -1    0    0    0  501 -0.00000000000E+00  0.00000000000E+00  0.66928579233E+01  0.66928579233E+01  0.00000000000E+00 0. -1.
          2   -1    0    0  501    0  0.00000000000E+00 -0.00000000000E+00 -0.28116149333E+04  0.28116149333E+04  0.00000000000E+00 0. -1.
         35    2    1    2    0    0  0.00000000000E+00  0.00000000000E+00 -0.28049220753E+04  0.28183077912E+04  0.27435553053E+03 0.  0.
         25    1    3    3    0    0 -0.39057364764E+02  0.42679050453E+02 -0.17386015137E+04  0.17436978530E+04  0.12000000000E+03 0.  0.
         25    1    3    3    0    0  0.39057364764E+02 -0.42679050453E+02 -0.10663205616E+04  0.10746099382E+04  0.12000000000E+03 0.  0.
<mgrwt>
<rscale>  0 0.27435553E+03</rscale>
<asrwt>0</asrwt>
<pdfrwt beam="1">  1        2 0.43255580E+00 0.27435553E+03</pdfrwt>
<pdfrwt beam="2">  1       -2 0.10296713E-02 0.27435553E+03</pdfrwt>
<totfact> 0.54826353E+03</totfact>
</mgrwt>
</event>
<event>
 5    1  0.1132878E+001  0.2706727E+03  0.7818608E-02  0.1100895E+00
          3   -1    0    0  501    0  0.00000000000E+00  0.00000000000E+00  0.12343997702E+03  0.12343997702E+03  0.00000000000E+00 0.  1.
         -3   -1    0    0    0  501 -0.00000000000E+00 -0.00000000000E+00 -0.14837916665E+03  0.14837916665E+03  0.00000000000E+00 0.  1.
         35    2    1    2    0    0  0.00000000000E+00  0.00000000000E+00 -0.24939189628E+02  0.27181914367E+03  0.27067265042E+03 0.  0.
         25    1    3    3    0    0 -0.31699323961E+02  0.30456298710E+02  0.32255411946E+02  0.13180608814E+03  0.12000000000E+03 0.  0.
         25    1    3    3    0    0  0.31699323961E+02 -0.30456298710E+02 -0.57194601575E+02  0.14001305553E+03  0.12000000000E+03 0.  0.
<mgrwt>
<rscale>  0 0.27067265E+03</rscale>
<asrwt>0</asrwt>
<pdfrwt beam="1">  1        3 0.18990766E-01 0.27067265E+03</pdfrwt>
<pdfrwt beam="2">  1       -3 0.22827564E-01 0.27067265E+03</pdfrwt>
<totfact> 0.11063289E+03</totfact>
</mgrwt>
</event>
<event>
 5    1  0.1132878E+001  0.2747935E+03  0.7818608E-02  0.1098567E+00
          2   -1    0    0  501    0  0.00000000000E+00  0.00000000000E+00  0.78170976656E+03  0.78170976656E+03  0.00000000000E+00 0.  1.
         -2   -1    0    0    0  501 -0.00000000000E+00 -0.00000000000E+00 -0.24149449385E+02  0.24149449385E+02  0.00000000000E+00 0.  1.
         35    2    1    2    0    0  0.00000000000E+00  0.00000000000E+00  0.75756031718E+03  0.80585921595E+03  0.27479345292E+03 0.  0.
         25    1    3    3    0    0 -0.58446560272E+02  0.32492859503E+02  0.38600776180E+03  0.40972402724E+03  0.12000000000E+03 0.  0.
         25    1    3    3    0    0  0.58446560272E+02 -0.32492859503E+02  0.37155255537E+03  0.39613518871E+03  0.12000000000E+03 0.  0.
<mgrwt>
<rscale>  0 0.27479345E+03</rscale>
<asrwt>0</asrwt>
<pdfrwt beam="1">  1        2 0.12026302E+00 0.27479345E+03</pdfrwt>
<pdfrwt beam="2">  1       -2 0.37153005E-02 0.27479345E+03</pdfrwt>
<totfact> 0.11187029E+04</totfact>
</mgrwt>
</event>
<event>
 5    1  0.1132878E+001  0.2754395E+03  0.7818608E-02  0.1098206E+00
          1   -1    0    0  501    0  0.00000000000E+00  0.00000000000E+00  0.67529121099E+02  0.67529121099E+02  0.00000000000E+00 0. -1.
         -1   -1    0    0    0  501 -0.00000000000E+00 -0.00000000000E+00 -0.28086742336E+03  0.28086742336E+03  0.00000000000E+00 0. -1.
         35    2    1    2    0    0  0.00000000000E+00  0.00000000000E+00 -0.21333830227E+03  0.34839654446E+03  0.27543950512E+03 0.  0.
         25    1    3    3    0    0 -0.12081401286E+01  0.30502985108E+01 -0.21292746479E+02  0.12191859980E+03  0.12000000000E+03 0.  0.
         25    1    3    3    0    0  0.12081401286E+01 -0.30502985108E+01 -0.19204555579E+03  0.22647794467E+03  0.12000000000E+03 0.  0.
<mgrwt>
<rscale>  0 0.27543951E+03</rscale>
<asrwt>0</asrwt>
<pdfrwt beam="1">  1        1 0.10389096E-01 0.27543951E+03</pdfrwt>
<pdfrwt beam="2">  1       -1 0.43210373E-01 0.27543951E+03</pdfrwt>
<totfact> 0.32594056E+03</totfact>
</mgrwt>
</event>
<event>
 5    1  0.1132878E+001  0.2750337E+03  0.7818608E-02  0.1098433E+00
          2   -1    0    0  501    0  0.00000000000E+00  0.00000000000E+00  0.15482146074E+04  0.15482146074E+04  0.00000000000E+00 0.  1.
         -2   -1    0    0    0  501 -0.00000000000E+00 -0.00000000000E+00 -0.12214637534E+02  0.12214637534E+02  0.00000000000E+00 0.  1.
         35    2    1    2    0    0  0.00000000000E+00  0.00000000000E+00  0.15359999699E+04  0.15604292449E+04  0.27503367252E+03 0.  0.
         25    1    3    3    0    0  0.16853459433E+02  0.22374203479E+02  0.11143326080E+04  0.11211252407E+04  0.12000000000E+03 0.  0.
         25    1    3    3    0    0 -0.16853459433E+02 -0.22374203479E+02  0.42166736189E+03  0.43930400426E+03  0.12000000000E+03 0.  0.
<mgrwt>
<rscale>  0 0.27503367E+03</rscale>
<asrwt>0</asrwt>
<pdfrwt beam="1">  1        2 0.23818671E+00 0.27503367E+03</pdfrwt>
<pdfrwt beam="2">  1       -2 0.18791762E-02 0.27503367E+03</pdfrwt>
<totfact> 0.10895204E+04</totfact>
</mgrwt>
</event>
<event>
 5    1  0.1132878E+001  0.2749279E+03  0.7818608E-02  0.1098492E+00
         -2   -1    0    0    0  501 -0.00000000000E+00  0.00000000000E+00  0.64006758675E+01  0.64006758675E+01  0.00000000000E+00 0. -1.
          2   -1    0    0  501    0  0.00000000000E+00 -0.00000000000E+00 -0.29522409741E+04  0.29522409741E+04  0.00000000000E+00 0. -1.
         35    2    1    2    0    0  0.00000000000E+00  0.00000000000E+00 -0.29458402982E+04  0.29586416499E+04  0.27492790006E+03 0.  0.
         25    1    3    3    0    0  0.59440339922E+02 -0.27141889957E+02 -0.13109597061E+04  0.13180611470E+04  0.12000000000E+03 0.  0.
         25    1    3    3    0    0 -0.59440339922E+02  0.27141889957E+02 -0.16348805921E+04  0.16405805030E+04  0.12000000000E+03 0.  0.
<mgrwt>
<rscale>  0 0.27492790E+03</rscale>
<asrwt>0</asrwt>
<pdfrwt beam="1">  1        2 0.45419111E+00 0.27492790E+03</pdfrwt>
<pdfrwt beam="2">  1       -2 0.98471896E-03 0.27492790E+03</pdfrwt>
<totfact> 0.48476987E+03</totfact>
</mgrwt>
</event>
<event>
 5    1  0.1132878E+001  0.2757562E+03  0.7818608E-02  0.1098030E+00
         -1   -1    0    0    0  501 -0.00000000000E+00  0.00000000000E+00  0.54593849997E+02  0.54593849997E+02  0.00000000000E+00 0. -1.
          1   -1    0    0  501    0  0.00000000000E+00 -0.00000000000E+00 -0.34821454329E+03  0.34821454329E+03  0.00000000000E+00 0. -1.
         35    2    1    2    0    0  0.00000000000E+00  0.00000000000E+00 -0.29362069330E+03  0.40280839329E+03  0.27575621511E+03 0.  0.
         25    1    3    3    0    0  0.60016042813E+02  0.30972282607E+02 -0.13656797339E+03  0.19393818356E+03  0.12000000000E+03 0.  0.
         25    1    3    3    0    0 -0.60016042813E+02 -0.30972282607E+02 -0.15705271991E+03  0.20887020974E+03  0.12000000000E+03 0.  0.
<mgrwt>
<rscale>  0 0.27575622E+03</rscale>
<asrwt>0</asrwt>
<pdfrwt beam="1">  1        1 0.53571470E-01 0.27575622E+03</pdfrwt>
<pdfrwt beam="2">  1       -1 0.83990535E-02 0.27575622E+03</pdfrwt>
<totfact> 0.57514953E+03</totfact>
</mgrwt>
</event>
<event>
 5    1  0.1132878E+001  0.2733163E+03  0.7818608E-02  0.1099396E+00
         -1   -1    0    0    0  501 -0.00000000000E+00  0.00000000000E+00  0.24519115964E+03  0.24519115964E+03  0.00000000000E+00 0. -1.
          1   -1    0    0  501    0  0.00000000000E+00 -0.00000000000E+00 -0.76166908164E+02  0.76166908164E+02  0.00000000000E+00 0. -1.
         35    2    1    2    0    0  0.00000000000E+00  0.00000000000E+00  0.16902425148E+03  0.32135806781E+03  0.27331631886E+03 0.  0.
         25    1    3    3    0    0 -0.71325446836E+01  0.64995360280E+02  0.84009852179E+02  0.16041485378E+03  0.12000000000E+03 0.  0.
         25    1    3    3    0    0  0.71325446836E+01 -0.64995360280E+02  0.85014399301E+02  0.16094321402E+03  0.12000000000E+03 0.  0.
<mgrwt>
<rscale>  0 0.27331632E+03</rscale>
<asrwt>0</asrwt>
<pdfrwt beam="1">  1        1 0.11717986E-01 0.27331632E+03</pdfrwt>
<pdfrwt beam="2">  1       -1 0.37721717E-01 0.27331632E+03</pdfrwt>
<totfact> 0.35324670E+03</totfact>
</mgrwt>
</event>
<event>
 5    1  0.1132878E+001  0.2719602E+03  0.7818608E-02  0.1100163E+00
          2   -1    0    0  501    0  0.00000000000E+00  0.00000000000E+00  0.13535384347E+03  0.13535384347E+03  0.00000000000E+00 0. -1.
         -2   -1    0    0    0  501 -0.00000000000E+00 -0.00000000000E+00 -0.13660921503E+03  0.13660921503E+03  0.00000000000E+00 0. -1.
         35    2    1    2    0    0  0.00000000000E+00  0.00000000000E+00 -0.12553715584E+01  0.27196305851E+03  0.27196016112E+03 0.  0.
         25    1    3    3    0    0  0.56719673700E+02 -0.25460927414E+02 -0.15634580790E+02  0.13605080053E+03  0.12000000000E+03 0.  0.
         25    1    3    3    0    0 -0.56719673700E+02  0.25460927414E+02  0.14379209232E+02  0.13591225797E+03  0.12000000000E+03 0.  0.
<mgrwt>
<rscale>  0 0.27196016E+03</rscale>
<asrwt>0</asrwt>
<pdfrwt beam="1">  1        2 0.20823668E-01 0.27196016E+03</pdfrwt>
<pdfrwt beam="2">  1       -2 0.21016802E-01 0.27196016E+03</pdfrwt>
<totfact> 0.50741962E+03</totfact>
</mgrwt>
</event>
<event>
 5    1  0.1132878E+001  0.2759581E+03  0.7818608E-02  0.1097917E+00
          2   -1    0    0  501    0  0.00000000000E+00  0.00000000000E+00  0.64477011791E+02  0.64477011791E+02  0.00000000000E+00 0.  1.
         -2   -1    0    0    0  501 -0.00000000000E+00 -0.00000000000E+00 -0.29527148443E+03  0.29527148443E+03  0.00000000000E+00 0.  1.
         35    2    1    2    0    0  0.00000000000E+00  0.00000000000E+00 -0.23079447264E+03  0.35974849622E+03  0.27595813438E+03 0.  0.
         25    1    3    3    0    0 -0.26691498416E+02 -0.13566416158E+01 -0.19705873035E+03  0.23226368586E+03  0.12000000000E+03 0.  0.
         25    1    3    3    0    0  0.26691498416E+02  0.13566416158E+01 -0.33735742289E+02  0.12748481036E+03  0.12000000000E+03 0.  0.
<mgrwt>
<rscale>  0 0.27595813E+03</rscale>
<asrwt>0</asrwt>
<pdfrwt beam="1">  1        2 0.99195403E-02 0.27595813E+03</pdfrwt>
<pdfrwt beam="2">  1       -2 0.45426382E-01 0.27595813E+03</pdfrwt>
<totfact> 0.29984066E+03</totfact>
</mgrwt>
</event>
<event>
 5    1  0.1132878E+001  0.2741845E+03  0.7818608E-02  0.1098908E+00
          2   -1    0    0  501    0  0.00000000000E+00  0.00000000000E+00  0.14140068927E+03  0.14140068927E+03  0.00000000000E+00 0.  1.
         -2   -1    0    0    0  501 -0.00000000000E+00 -0.00000000000E+00 -0.13291507644E+03  0.13291507644E+03  0.00000000000E+00 0.  1.
         35    2    1    2    0    0  0.00000000000E+00  0.00000000000E+00  0.84856128290E+01  0.27431576570E+03  0.27418448842E+03 0.  0.
         25    1    3    3    0    0 -0.63394779379E+02  0.16807993481E+02  0.13884677779E+02  0.13745614200E+03  0.12000000000E+03 0.  0.
         25    1    3    3    0    0  0.63394779379E+02 -0.16807993481E+02 -0.53990649495E+01  0.13685962370E+03  0.12000000000E+03 0.  0.
<mgrwt>
<rscale>  0 0.27418449E+03</rscale>
<asrwt>0</asrwt>
<pdfrwt beam="1">  1        2 0.21753952E-01 0.27418449E+03</pdfrwt>
<pdfrwt beam="2">  1       -2 0.20448473E-01 0.27418449E+03</pdfrwt>
<totfact> 0.50626150E+03</totfact>
</mgrwt>
</event>
<event>
 5    1  0.1132878E+001  0.2748635E+03  0.7818608E-02  0.1098528E+00
         -2   -1    0    0    0  501 -0.00000000000E+00  0.00000000000E+00  0.97132702085E+01  0.97132702085E+01  0.00000000000E+00 0. -1.
          2   -1    0    0  501    0  0.00000000000E+00 -0.00000000000E+00 -0.19445039508E+04  0.19445039508E+04  0.00000000000E+00 0. -1.
         35    2    1    2    0    0  0.00000000000E+00  0.00000000000E+00 -0.19347906806E+04  0.19542172210E+04  0.27486354648E+03 0.  0.
         25    1    3    3    0    0  0.49142108858E+02 -0.39290350981E+02 -0.80389936710E+03  0.81523792292E+03  0.12000000000E+03 0.  0.
         25    1    3    3    0    0 -0.49142108858E+02  0.39290350981E+02 -0.11308913135E+04  0.11389792981E+04  0.12000000000E+03 0.  0.
<mgrwt>
<rscale>  0 0.27486355E+03</rscale>
<asrwt>0</asrwt>
<pdfrwt beam="1">  1        2 0.29915467E+00 0.27486355E+03</pdfrwt>
<pdfrwt beam="2">  1       -2 0.14943482E-02 0.27486355E+03</pdfrwt>
<totfact> 0.94265942E+03</totfact>
</mgrwt>
</event>
<event>
 5    1  0.1132878E+001  0.2759431E+03  0.7818608E-02  0.1097926E+00
         -2   -1    0    0    0  501 -0.00000000000E+00  0.00000000000E+00  0.20721295420E+02  0.20721295420E+02  0.00000000000E+00 0. -1.
          2   -1    0    0  501    0  0.00000000000E+00 -0.00000000000E+00 -0.91867589486E+03  0.91867589486E+03  0.00000000000E+00 0. -1.
         35    2    1    2    0    0  0.00000000000E+00  0.00000000000E+00 -0.89795459944E+03  0.93939719028E+03  0.27594314351E+03 0.  0.
         25    1    3    3    0    0  0.60314500350E+02  0.34882484991E+01 -0.55588294783E+03  0.57188797724E+03  0.12000000000E+03 0.  0.
         25    1    3    3    0    0 -0.60314500350E+02 -0.34882484991E+01 -0.34207165161E+03  0.36750921304E+03  0.12000000000E+03 0.  0.
<mgrwt>
<rscale>  0 0.27594314E+03</rscale>
<asrwt>0</asrwt>
<pdfrwt beam="1">  1        2 0.14133472E+00 0.27594314E+03</pdfrwt>
<pdfrwt beam="2">  1       -2 0.31878924E-02 0.27594314E+03</pdfrwt>
<totfact> 0.11395825E+04</totfact>
</mgrwt>
</event>
<event>
 5    1  0.1132878E+001  0.2743972E+03  0.7818608E-02  0.1098789E+00
         -2   -1    0    0    0  501 -0.00000000000E+00  0.00000000000E+00  0.20066274951E+02  0.20066274951E+02  0.00000000000E+00 0. -1.
          2   -1    0    0  501    0  0.00000000000E+00 -0.00000000000E+00 -0.93806407134E+03  0.93806407134E+03  0.00000000000E+00 0. -1.
         35    2    1    2    0    0  0.00000000000E+00  0.00000000000E+00 -0.91799779639E+03  0.95813034629E+03  0.27439716892E+03 0.  0.
         25    1    3    3    0    0  0.48501143670E+02 -0.44140914718E+02 -0.42032529282E+03  0.44201146260E+03  0.12000000000E+03 0.  0.
         25    1    3    3    0    0 -0.48501143670E+02  0.44140914718E+02 -0.49767250357E+03  0.51611888369E+03  0.12000000000E+03 0.  0.
<mgrwt>
<rscale>  0 0.27439717E+03</rscale>
<asrwt>0</asrwt>
<pdfrwt beam="1">  1        2 0.14431751E+00 0.27439717E+03</pdfrwt>
<pdfrwt beam="2">  1       -2 0.30871201E-02 0.27439717E+03</pdfrwt>
<totfact> 0.11618168E+04</totfact>
</mgrwt>
</event>
<event>
 5    1  0.1132878E+001  0.2753325E+03  0.7818608E-02  0.1098266E+00
         -2   -1    0    0    0  501 -0.00000000000E+00  0.00000000000E+00  0.12253070852E+02  0.12253070852E+02  0.00000000000E+00 0.  1.
          2   -1    0    0  501    0  0.00000000000E+00 -0.00000000000E+00 -0.15467136796E+04  0.15467136796E+04  0.00000000000E+00 0.  1.
         35    2    1    2    0    0  0.00000000000E+00  0.00000000000E+00 -0.15344606088E+04  0.15589667505E+04  0.27533247033E+03 0.  0.
         25    1    3    3    0    0  0.19291176075E+02  0.46551506183E+02 -0.10212572254E+04  0.10295171259E+04  0.12000000000E+03 0.  0.
         25    1    3    3    0    0 -0.19291176075E+02 -0.46551506183E+02 -0.51320338337E+03  0.52944962452E+03  0.12000000000E+03 0.  0.
<mgrwt>
<rscale>  0 0.27533247E+03</rscale>
<asrwt>0</asrwt>
<pdfrwt beam="1">  1        2 0.23795598E+00 0.27533247E+03</pdfrwt>
<pdfrwt beam="2">  1       -2 0.18850876E-02 0.27533247E+03</pdfrwt>
<totfact> 0.10865238E+04</totfact>
</mgrwt>
</event>
<event>
 5    1  0.1132878E+001  0.2714416E+03  0.7818608E-02  0.1100457E+00
         -3   -1    0    0    0  501 -0.00000000000E+00  0.00000000000E+00  0.44399193221E+02  0.44399193221E+02  0.00000000000E+00 0. -1.
          3   -1    0    0  501    0  0.00000000000E+00 -0.00000000000E+00 -0.41487539077E+03  0.41487539077E+03  0.00000000000E+00 0. -1.
         35    2    1    2    0    0  0.00000000000E+00  0.00000000000E+00 -0.37047619755E+03  0.45927458400E+03  0.27144157852E+03 0.  0.
         25    1    3    3    0    0  0.33208983571E+02 -0.48478774417E+00 -0.27662181136E+03  0.30335243221E+03  0.12000000000E+03 0.  0.
         25    1    3    3    0    0 -0.33208983571E+02  0.48478774417E+00 -0.93854386194E+02  0.15592215178E+03  0.12000000000E+03 0.  0.
<mgrwt>
<rscale>  0 0.27144158E+03</rscale>
<asrwt>0</asrwt>
<pdfrwt beam="1">  1        3 0.63826984E-01 0.27144158E+03</pdfrwt>
<pdfrwt beam="2">  1       -3 0.68306450E-02 0.27144158E+03</pdfrwt>
<totfact> 0.84827511E+02</totfact>
</mgrwt>
</event>
<event>
 5    1  0.1132878E+001  0.2739276E+03  0.7818608E-02  0.1099053E+00
          2   -1    0    0  501    0  0.00000000000E+00  0.00000000000E+00  0.14916801807E+04  0.14916801807E+04  0.00000000000E+00 0.  1.
         -2   -1    0    0    0  501 -0.00000000000E+00 -0.00000000000E+00 -0.12575808904E+02  0.12575808904E+02  0.00000000000E+00 0.  1.
         35    2    1    2    0    0  0.00000000000E+00  0.00000000000E+00  0.14791043718E+04  0.15042559896E+04  0.27392761743E+03 0.  0.
         25    1    3    3    0    0  0.22258409294E+02 -0.19734604714E+02  0.10632299984E+04  0.10703938158E+04  0.12000000000E+03 0.  0.
         25    1    3    3    0    0 -0.22258409294E+02  0.19734604714E+02  0.41587437333E+03  0.43386217373E+03  0.12000000000E+03 0.  0.
<mgrwt>
<rscale>  0 0.27392762E+03</rscale>
<asrwt>0</asrwt>
<pdfrwt beam="1">  1        2 0.22948912E+00 0.27392762E+03</pdfrwt>
<pdfrwt beam="2">  1       -2 0.19347410E-02 0.27392762E+03</pdfrwt>
<totfact> 0.11189037E+04</totfact>
</mgrwt>
</event>
<event>
 5    1  0.1132878E+001  0.2754898E+03  0.7818608E-02  0.1098178E+00
         -1   -1    0    0    0  501 -0.00000000000E+00  0.00000000000E+00  0.29792462512E+02  0.29792462512E+02  0.00000000000E+00 0. -1.
          1   -1    0    0  501    0  0.00000000000E+00 -0.00000000000E+00 -0.63686090746E+03  0.63686090746E+03  0.00000000000E+00 0. -1.
         35    2    1    2    0    0  0.00000000000E+00  0.00000000000E+00 -0.60706844495E+03  0.66665336998E+03  0.27548977993E+03 0.  0.
         25    1    3    3    0    0 -0.13442344418E+02  0.36954752656E+02 -0.43667853782E+03  0.45457067191E+03  0.12000000000E+03 0.  0.
         25    1    3    3    0    0  0.13442344418E+02 -0.36954752656E+02 -0.17038990713E+03  0.21208269807E+03  0.12000000000E+03 0.  0.
<mgrwt>
<rscale>  0 0.27548978E+03</rscale>
<asrwt>0</asrwt>
<pdfrwt beam="1">  1        1 0.97978601E-01 0.27548978E+03</pdfrwt>
<pdfrwt beam="2">  1       -1 0.45834558E-02 0.27548978E+03</pdfrwt>
<totfact> 0.64631803E+03</totfact>
</mgrwt>
</event>
<event>
 5    1  0.1132878E+001  0.2752422E+03  0.7818608E-02  0.1098316E+00
         -1   -1    0    0    0  501 -0.00000000000E+00  0.00000000000E+00  0.47702001074E+02  0.47702001074E+02  0.00000000000E+00 0.  1.
          1   -1    0    0  501    0  0.00000000000E+00 -0.00000000000E+00 -0.39703940062E+03  0.39703940062E+03  0.00000000000E+00 0.  1.
         35    2    1    2    0    0  0.00000000000E+00  0.00000000000E+00 -0.34933739954E+03  0.44474140169E+03  0.27524224904E+03 0.  0.
         25    1    3    3    0    0 -0.48758185564E+02  0.37579371701E+02 -0.13041757898E+03  0.18761213912E+03  0.12000000000E+03 0.  0.
         25    1    3    3    0    0  0.48758185564E+02 -0.37579371701E+02 -0.21891982056E+03  0.25712926257E+03  0.12000000000E+03 0.  0.
<mgrwt>
<rscale>  0 0.27524225E+03</rscale>
<asrwt>0</asrwt>
<pdfrwt beam="1">  1        1 0.61082985E-01 0.27524225E+03</pdfrwt>
<pdfrwt beam="2">  1       -1 0.73387693E-02 0.27524225E+03</pdfrwt>
<totfact> 0.59784137E+03</totfact>
</mgrwt>
</event>
<event>
 5    1  0.1132878E+001  0.2723867E+03  0.7818608E-02  0.1099921E+00
         -2   -1    0    0    0  501 -0.00000000000E+00  0.00000000000E+00  0.45665389996E+02  0.45665389996E+02  0.00000000000E+00 0.  1.
          2   -1    0    0  501    0  0.00000000000E+00 -0.00000000000E+00 -0.40618565096E+03  0.40618565096E+03  0.00000000000E+00 0.  1.
         35    2    1    2    0    0  0.00000000000E+00  0.00000000000E+00 -0.36052026096E+03  0.45185104096E+03  0.27238668222E+03 0.  0.
         25    1    3    3    0    0 -0.23157673253E+02  0.38207022590E+02 -0.10329602323E+03  0.16451784955E+03  0.12000000000E+03 0.  0.
         25    1    3    3    0    0  0.23157673253E+02 -0.38207022590E+02 -0.25722423773E+03  0.28733319141E+03  0.12000000000E+03 0.  0.
<mgrwt>
<rscale>  0 0.27238668E+03</rscale>
<asrwt>0</asrwt>
<pdfrwt beam="1">  1        2 0.62490100E-01 0.27238668E+03</pdfrwt>
<pdfrwt beam="2">  1       -2 0.70254446E-02 0.27238668E+03</pdfrwt>
<totfact> 0.90304214E+03</totfact>
</mgrwt>
</event>
<event>
 5    1  0.1132878E+001  0.2745875E+03  0.7818608E-02  0.1098682E+00
          1   -1    0    0  501    0  0.00000000000E+00  0.00000000000E+00  0.53092527552E+02  0.53092527552E+02  0.00000000000E+00 0.  1.
         -1   -1    0    0    0  501 -0.00000000000E+00 -0.00000000000E+00 -0.35503252378E+03  0.35503252378E+03  0.00000000000E+00 0.  1.
         35    2    1    2    0    0  0.00000000000E+00  0.00000000000E+00 -0.30193999623E+03  0.40812505133E+03  0.27458750190E+03 0.  0.
         25    1    3    3    0    0  0.37561552966E+01 -0.47874865352E+01 -0.24970180309E+03  0.27710651237E+03  0.12000000000E+03 0.  0.
         25    1    3    3    0    0 -0.37561552966E+01  0.47874865352E+01 -0.52238193138E+02  0.13101853896E+03  0.12000000000E+03 0.  0.
<mgrwt>
<rscale>  0 0.27458750E+03</rscale>
<asrwt>0</asrwt>
<pdfrwt beam="1">  1        1 0.81680813E-02 0.27458750E+03</pdfrwt>
<pdfrwt beam="2">  1       -1 0.54620387E-01 0.27458750E+03</pdfrwt>
<totfact> 0.29303705E+03</totfact>
</mgrwt>
</event>
<event>
 5    1  0.1132878E+001  0.2726306E+03  0.7818608E-02  0.1099783E+00
         -2   -1    0    0    0  501 -0.00000000000E+00  0.00000000000E+00  0.29616808330E+02  0.29616808330E+02  0.00000000000E+00 0.  1.
          2   -1    0    0  501    0  0.00000000000E+00 -0.00000000000E+00 -0.62740940825E+03  0.62740940825E+03  0.00000000000E+00 0.  1.
         35    2    1    2    0    0  0.00000000000E+00  0.00000000000E+00 -0.59779259992E+03  0.65702621658E+03  0.27263062329E+03 0.  0.
         25    1    3    3    0    0 -0.34366981289E+02 -0.72418668377E+01 -0.42975304683E+03  0.44757258104E+03  0.12000000000E+03 0.  0.
         25    1    3    3    0    0  0.34366981289E+02  0.72418668377E+01 -0.16803955309E+03  0.20945363554E+03  0.12000000000E+03 0.  0.
<mgrwt>
<rscale>  0 0.27263062E+03</rscale>
<asrwt>0</asrwt>
<pdfrwt beam="1">  1        2 0.96524513E-01 0.27263062E+03</pdfrwt>
<pdfrwt beam="2">  1       -2 0.45564326E-02 0.27263062E+03</pdfrwt>
<totfact> 0.10743317E+04</totfact>
</mgrwt>
</event>
<event>
 5    1  0.1132878E+001  0.2755164E+03  0.7818608E-02  0.1098163E+00
         -1   -1    0    0    0  501 -0.00000000000E+00  0.00000000000E+00  0.16729973471E+02  0.16729973471E+02  0.00000000000E+00 0. -1.
          1   -1    0    0  501    0  0.00000000000E+00 -0.00000000000E+00 -0.11343309904E+04  0.11343309904E+04  0.00000000000E+00 0. -1.
         35    2    1    2    0    0  0.00000000000E+00  0.00000000000E+00 -0.11176010170E+04  0.11510609639E+04  0.27551644145E+03 0.  0.
         25    1    3    3    0    0 -0.41482695133E+02  0.52447351673E+02 -0.60177100918E+03  0.61725188229E+03  0.12000000000E+03 0.  0.
         25    1    3    3    0    0  0.41482695133E+02 -0.52447351673E+02 -0.51583000778E+03  0.53380908161E+03  0.12000000000E+03 0.  0.
<mgrwt>
<rscale>  0 0.27551644E+03</rscale>
<asrwt>0</asrwt>
<pdfrwt beam="1">  1        1 0.17451244E+00 0.27551644E+03</pdfrwt>
<pdfrwt beam="2">  1       -1 0.25738424E-02 0.27551644E+03</pdfrwt>
<totfact> 0.60285794E+03</totfact>
</mgrwt>
</event>
<event>
 5    1  0.1132878E+001  0.2729753E+03  0.7818608E-02  0.1099589E+00
         -2   -1    0    0    0  501 -0.00000000000E+00  0.00000000000E+00  0.26382019374E+03  0.26382019374E+03  0.00000000000E+00 0.  1.
          2   -1    0    0  501    0  0.00000000000E+00 -0.00000000000E+00 -0.70612042466E+02  0.70612042466E+02  0.00000000000E+00 0.  1.
         35    2    1    2    0    0  0.00000000000E+00  0.00000000000E+00  0.19320815127E+03  0.33443223621E+03  0.27297533020E+03 0.  0.
         25    1    3    3    0    0  0.25074378098E+02  0.55459108873E+02  0.68547482980E+02  0.15100726677E+03  0.12000000000E+03 0.  0.
         25    1    3    3    0    0 -0.25074378098E+02 -0.55459108873E+02  0.12466066829E+03  0.18342496944E+03  0.12000000000E+03 0.  0.
<mgrwt>
<rscale>  0 0.27297533E+03</rscale>
<asrwt>0</asrwt>
<pdfrwt beam="1">  1        2 0.10863391E-01 0.27297533E+03</pdfrwt>
<pdfrwt beam="2">  1       -2 0.40587722E-01 0.27297533E+03</pdfrwt>
<totfact> 0.33312147E+03</totfact>
</mgrwt>
</event>
<event>
 5    1  0.1132878E+001  0.2746881E+03  0.7818608E-02  0.1098626E+00
         -1   -1    0    0    0  501 -0.00000000000E+00  0.00000000000E+00  0.64407564130E+02  0.64407564130E+02  0.00000000000E+00 0.  1.
          1   -1    0    0  501    0  0.00000000000E+00 -0.00000000000E+00 -0.29287528531E+03  0.29287528531E+03  0.00000000000E+00 0.  1.
         35    2    1    2    0    0  0.00000000000E+00  0.00000000000E+00 -0.22846772118E+03  0.35728284943E+03  0.27468806833E+03 0.  0.
         25    1    3    3    0    0 -0.61648268063E+02 -0.15476787689E+02 -0.14099588608E+03  0.19575464184E+03  0.12000000000E+03 0.  0.
         25    1    3    3    0    0  0.61648268063E+02  0.15476787689E+02 -0.87471835097E+02  0.16152820759E+03  0.12000000000E+03 0.  0.
<mgrwt>
<rscale>  0 0.27468807E+03</rscale>
<asrwt>0</asrwt>
<pdfrwt beam="1">  1        1 0.45057735E-01 0.27468807E+03</pdfrwt>
<pdfrwt beam="2">  1       -1 0.99088562E-02 0.27468807E+03</pdfrwt>
<totfact> 0.55480075E+03</totfact>
</mgrwt>
</event>
<event>
 5    1  0.1132878E+001  0.2756845E+03  0.7818608E-02  0.1098070E+00
          3   -1    0    0  501    0  0.00000000000E+00  0.00000000000E+00  0.57653615230E+03  0.57653615230E+03  0.00000000000E+00 0. -1.
         -3   -1    0    0    0  501 -0.00000000000E+00 -0.00000000000E+00 -0.32956279498E+02  0.32956279498E+02  0.00000000000E+00 0. -1.
         35    2    1    2    0    0  0.00000000000E+00  0.00000000000E+00  0.54357987280E+03  0.60949243180E+03  0.27568450501E+03 0.  0.
         25    1    3    3    0    0  0.10579456922E+02 -0.45286892634E+02  0.38094463597E+03  0.40209655958E+03  0.12000000000E+03 0.  0.
         25    1    3    3    0    0 -0.10579456922E+02  0.45286892634E+02  0.16263523683E+03  0.20739587222E+03  0.12000000000E+03 0.  0.
<mgrwt>
<rscale>  0 0.27568451E+03</rscale>
<asrwt>0</asrwt>
<pdfrwt beam="1">  1        3 0.88697862E-01 0.27568451E+03</pdfrwt>
<pdfrwt beam="2">  1       -3 0.50701973E-02 0.27568451E+03</pdfrwt>
<totfact> 0.67306010E+02</totfact>
</mgrwt>
</event>
<event>
 5    1  0.1132878E+001  0.2749724E+03  0.7818608E-02  0.1098467E+00
          1   -1    0    0  501    0  0.00000000000E+00  0.00000000000E+00  0.14569994436E+03  0.14569994436E+03  0.00000000000E+00 0. -1.
         -1   -1    0    0    0  501 -0.00000000000E+00 -0.00000000000E+00 -0.12973547642E+03  0.12973547642E+03  0.00000000000E+00 0. -1.
         35    2    1    2    0    0  0.00000000000E+00  0.00000000000E+00  0.15964467948E+02  0.27543542078E+03  0.27497237458E+03 0.  0.
         25    1    3    3    0    0 -0.32998721271E+02  0.55207623179E+02 -0.11172059923E+02  0.13660751145E+03  0.12000000000E+03 0.  0.
         25    1    3    3    0    0  0.32998721271E+02 -0.55207623179E+02  0.27136527871E+02  0.13882790932E+03  0.12000000000E+03 0.  0.
<mgrwt>
<rscale>  0 0.27497237E+03</rscale>
<asrwt>0</asrwt>
<pdfrwt beam="1">  1        1 0.22415376E-01 0.27497237E+03</pdfrwt>
<pdfrwt beam="2">  1       -1 0.19959304E-01 0.27497237E+03</pdfrwt>
<totfact> 0.44273302E+03</totfact>
</mgrwt>
</event>
<event>
 5    1  0.1132878E+001  0.2729456E+03  0.7818608E-02  0.1099605E+00
          1   -1    0    0  501    0  0.00000000000E+00  0.00000000000E+00  0.21751974960E+03  0.21751974960E+03  0.00000000000E+00 0. -1.
         -1   -1    0    0    0  501 -0.00000000000E+00 -0.00000000000E+00 -0.85623622566E+02  0.85623622566E+02  0.00000000000E+00 0. -1.
         35    2    1    2    0    0  0.00000000000E+00  0.00000000000E+00  0.13189612703E+03  0.30314337217E+03  0.27294562785E+03 0.  0.
         25    1    3    3    0    0  0.54652895137E+02  0.34918386108E+02  0.61158617678E+02  0.14948782275E+03  0.12000000000E+03 0.  0.
         25    1    3    3    0    0 -0.54652895137E+02 -0.34918386108E+02  0.70737509354E+02  0.15365554941E+03  0.12000000000E+03 0.  0.
<mgrwt>
<rscale>  0 0.27294563E+03</rscale>
<asrwt>0</asrwt>
<pdfrwt beam="1">  1        1 0.33464577E-01 0.27294563E+03</pdfrwt>
<pdfrwt beam="2">  1       -1 0.13172865E-01 0.27294563E+03</pdfrwt>
<totfact> 0.51718651E+03</totfact>
</mgrwt>
</event>
<event>
 5    1  0.1132878E+001  0.2768236E+03  0.7818608E-02  0.1097437E+00
          2   -1    0    0  501    0  0.00000000000E+00  0.00000000000E+00  0.54997147832E+02  0.54997147832E+02  0.00000000000E+00 0.  1.
         -2   -1    0    0    0  501 -0.00000000000E+00 -0.00000000000E+00 -0.34834228373E+03  0.34834228373E+03  0.00000000000E+00 0.  1.
         35    2    1    2    0    0  0.00000000000E+00  0.00000000000E+00 -0.29334513589E+03  0.40333943156E+03  0.27682364114E+03 0.  0.
         25    1    3    3    0    0 -0.37275639803E+01 -0.29093180084E+02 -0.55710166769E+02  0.13551358066E+03  0.12000000000E+03 0.  0.
         25    1    3    3    0    0  0.37275639803E+01  0.29093180084E+02 -0.23763496912E+03  0.26782585090E+03  0.12000000000E+03 0.  0.
<mgrwt>
<rscale>  0 0.27682364E+03</rscale>
<asrwt>0</asrwt>
<pdfrwt beam="1">  1        2 0.84610996E-02 0.27682364E+03</pdfrwt>
<pdfrwt beam="2">  1       -2 0.53591121E-01 0.27682364E+03</pdfrwt>
<totfact> 0.26344142E+03</totfact>
</mgrwt>
</event>
<event>
 5    1  0.1132878E+001  0.2776532E+03  0.7818608E-02  0.1096978E+00
          1   -1    0    0  501    0  0.00000000000E+00  0.00000000000E+00  0.23389624358E+02  0.23389624358E+02  0.00000000000E+00 0.  1.
         -1   -1    0    0    0  501 -0.00000000000E+00 -0.00000000000E+00 -0.82399016612E+03  0.82399016612E+03  0.00000000000E+00 0.  1.
         35    2    1    2    0    0  0.00000000000E+00  0.00000000000E+00 -0.80060054176E+03  0.84737979047E+03  0.27765316825E+03 0.  0.
         25    1    3    3    0    0 -0.34939386522E+02 -0.56045627189E+02 -0.33131385752E+03  0.35851184812E+03  0.12000000000E+03 0.  0.
         25    1    3    3    0    0  0.34939386522E+02  0.56045627189E+02 -0.46928668424E+03  0.48886794236E+03  0.12000000000E+03 0.  0.
<mgrwt>
<rscale>  0 0.27765317E+03</rscale>
<asrwt>0</asrwt>
<pdfrwt beam="1">  1        1 0.35984042E-02 0.27765317E+03</pdfrwt>
<pdfrwt beam="2">  1       -1 0.12676770E+00 0.27765317E+03</pdfrwt>
<totfact> 0.15273995E+03</totfact>
</mgrwt>
</event>
<event>
 5    1  0.1132878E+001  0.2745051E+03  0.7818608E-02  0.1098729E+00
         -1   -1    0    0    0  501 -0.00000000000E+00  0.00000000000E+00  0.16657823984E+02  0.16657823984E+02  0.00000000000E+00 0.  1.
          1   -1    0    0  501    0  0.00000000000E+00 -0.00000000000E+00 -0.11308953567E+04  0.11308953567E+04  0.00000000000E+00 0.  1.
         35    2    1    2    0    0  0.00000000000E+00  0.00000000000E+00 -0.11142375327E+04  0.11475531807E+04  0.27450505129E+03 0.  0.
         25    1    3    3    0    0 -0.41386515040E+02  0.49961622102E+02 -0.62041468669E+03  0.63523490992E+03  0.12000000000E+03 0.  0.
         25    1    3    3    0    0  0.41386515040E+02 -0.49961622102E+02 -0.49382284603E+03  0.51231827078E+03  0.12000000000E+03 0.  0.
<mgrwt>
<rscale>  0 0.27450505E+03</rscale>
<asrwt>0</asrwt>
<pdfrwt beam="1">  1        1 0.17398394E+00 0.27450505E+03</pdfrwt>
<pdfrwt beam="2">  1       -1 0.25627416E-02 0.27450505E+03</pdfrwt>
<totfact> 0.61009344E+03</totfact>
</mgrwt>
</event>
<event>
 5    1  0.1132878E+001  0.2749155E+03  0.7818608E-02  0.1098499E+00
         -4   -1    0    0    0  501 -0.00000000000E+00  0.00000000000E+00  0.64670650442E+02  0.64670650442E+02  0.00000000000E+00 0.  1.
          4   -1    0    0  501    0  0.00000000000E+00 -0.00000000000E+00 -0.29216702371E+03  0.29216702371E+03  0.00000000000E+00 0.  1.
         35    2    1    2    0    0  0.00000000000E+00  0.00000000000E+00 -0.22749637327E+03  0.35683767415E+03  0.27491548855E+03 0.  0.
         25    1    3    3    0    0  0.25516559020E+02  0.93924700257E+01 -0.19328988535E+03  0.22912942425E+03  0.12000000000E+03 0.  0.
         25    1    3    3    0    0 -0.25516559020E+02 -0.93924700257E+01 -0.34206487914E+02  0.12770824990E+03  0.12000000000E+03 0.  0.
<mgrwt>
<rscale>  0 0.27491549E+03</rscale>
<asrwt>0</asrwt>
<pdfrwt beam="1">  1        4 0.44948774E-01 0.27491549E+03</pdfrwt>
<pdfrwt beam="2">  1       -4 0.99493306E-02 0.27491549E+03</pdfrwt>
<totfact> 0.69114924E+02</totfact>
</mgrwt>
</event>
<event>
 5    1  0.1132878E+001  0.2745417E+03  0.7818608E-02  0.1098708E+00
          2   -1    0    0  501    0  0.00000000000E+00  0.00000000000E+00  0.75846613378E+03  0.75846613378E+03  0.00000000000E+00 0.  1.
         -2   -1    0    0    0  501 -0.00000000000E+00 -0.00000000000E+00 -0.24843938196E+02  0.24843938196E+02  0.00000000000E+00 0.  1.
         35    2    1    2    0    0  0.00000000000E+00  0.00000000000E+00  0.73362219558E+03  0.78331007197E+03  0.27454169629E+03 0.  0.
         25    1    3    3    0    0 -0.18777764506E+01  0.29858406953E+02  0.53676518001E+03  0.55082838433E+03  0.12000000000E+03 0.  0.
         25    1    3    3    0    0  0.18777764506E+01 -0.29858406953E+02  0.19685701557E+03  0.23248168764E+03  0.12000000000E+03 0.  0.
<mgrwt>
<rscale>  0 0.27454170E+03</rscale>
<asrwt>0</asrwt>
<pdfrwt beam="1">  1        2 0.11668708E+00 0.27454170E+03</pdfrwt>
<pdfrwt beam="2">  1       -2 0.38221449E-02 0.27454170E+03</pdfrwt>
<totfact> 0.11134408E+04</totfact>
</mgrwt>
</event>
<event>
 5    1  0.1132878E+001  0.2748094E+03  0.7818608E-02  0.1098558E+00
         -1   -1    0    0    0  501 -0.00000000000E+00  0.00000000000E+00  0.22156358883E+02  0.22156358883E+02  0.00000000000E+00 0.  1.
          1   -1    0    0  501    0  0.00000000000E+00 -0.00000000000E+00 -0.85212783295E+03  0.85212783295E+03  0.00000000000E+00 0.  1.
         35    2    1    2    0    0  0.00000000000E+00  0.00000000000E+00 -0.82997147407E+03  0.87428419183E+03  0.27480938908E+03 0.  0.
         25    1    3    3    0    0  0.24066016493E+02 -0.57522090090E+02 -0.49239866354E+03  0.51063138158E+03  0.12000000000E+03 0.  0.
         25    1    3    3    0    0 -0.24066016493E+02  0.57522090090E+02 -0.33757281052E+03  0.36365281025E+03  0.12000000000E+03 0.  0.
<mgrwt>
<rscale>  0 0.27480939E+03</rscale>
<asrwt>0</asrwt>
<pdfrwt beam="1">  1        1 0.13109659E+00 0.27480939E+03</pdfrwt>
<pdfrwt beam="2">  1       -1 0.34086706E-02 0.27480939E+03</pdfrwt>
<totfact> 0.65011571E+03</totfact>
</mgrwt>
</event>
<event>
 5    1  0.1132878E+001  0.2749062E+03  0.7818608E-02  0.1098504E+00
         -2   -1    0    0    0  501 -0.00000000000E+00  0.00000000000E+00  0.35925882884E+02  0.35925882884E+02  0.00000000000E+00 0. -1.
          2   -1    0    0  501    0  0.00000000000E+00 -0.00000000000E+00 -0.52589808699E+03  0.52589808699E+03  0.00000000000E+00 0. -1.
         35    2    1    2    0    0  0.00000000000E+00  0.00000000000E+00 -0.48997220410E+03  0.56182396987E+03  0.27490618823E+03 0.  0.
         25    1    3    3    0    0 -0.39335756497E+01 -0.14943674600E+02 -0.37829017349E+03  0.39716777536E+03  0.12000000000E+03 0.  0.
         25    1    3    3    0    0  0.39335756497E+01  0.14943674600E+02 -0.11168203062E+03  0.16465619451E+03  0.12000000000E+03 0.  0.
<mgrwt>
<rscale>  0 0.27490619E+03</rscale>
<asrwt>0</asrwt>
<pdfrwt beam="1">  1        2 0.80907395E-01 0.27490619E+03</pdfrwt>
<pdfrwt beam="2">  1       -2 0.55270591E-02 0.27490619E+03</pdfrwt>
<totfact> 0.98167100E+03</totfact>
</mgrwt>
</event>
<event>
 5    1  0.1132878E+001  0.2744082E+03  0.7818608E-02  0.1098783E+00
         -2   -1    0    0    0  501 -0.00000000000E+00  0.00000000000E+00  0.39902388841E+02  0.39902388841E+02  0.00000000000E+00 0. -1.
          2   -1    0    0  501    0  0.00000000000E+00 -0.00000000000E+00 -0.47177540359E+03  0.47177540359E+03  0.00000000000E+00 0. -1.
         35    2    1    2    0    0  0.00000000000E+00  0.00000000000E+00 -0.43187301475E+03  0.51167779244E+03  0.27440820396E+03 0.  0.
         25    1    3    3    0    0  0.43553220936E+02  0.14968541226E+02 -0.30544064258E+03  0.33138335266E+03  0.12000000000E+03 0.  0.
         25    1    3    3    0    0 -0.43553220936E+02 -0.14968541226E+02 -0.12643237217E+03  0.18029443977E+03  0.12000000000E+03 0.  0.
<mgrwt>
<rscale>  0 0.27440820E+03</rscale>
<asrwt>0</asrwt>
<pdfrwt beam="1">  1        2 0.72580826E-01 0.27440820E+03</pdfrwt>
<pdfrwt beam="2">  1       -2 0.61388295E-02 0.27440820E+03</pdfrwt>
<totfact> 0.94373886E+03</totfact>
</mgrwt>
</event>
<event>
 5    1  0.1132878E+001  0.2745452E+03  0.7818608E-02  0.1098706E+00
         -2   -1    0    0    0  501 -0.00000000000E+00  0.00000000000E+00  0.50636069070E+03  0.50636069070E+03  0.00000000000E+00 0.  1.
          2   -1    0    0  501    0  0.00000000000E+00 -0.00000000000E+00 -0.37214109092E+02  0.37214109092E+02  0.00000000000E+00 0.  1.
         35    2    1    2    0    0  0.00000000000E+00  0.00000000000E+00  0.46914658161E+03  0.54357479979E+03  0.27454516556E+03 0.  0.
         25    1    3    3    0    0  0.61003654026E+02 -0.15958738878E+02  0.27738858577E+03  0.30874027056E+03  0.12000000000E+03 0.  0.
         25    1    3    3    0    0 -0.61003654026E+02  0.15958738878E+02  0.19175799584E+03  0.23483452923E+03  0.12000000000E+03 0.  0.
<mgrwt>
<rscale>  0 0.27454517E+03</rscale>
<asrwt>0</asrwt>
<pdfrwt beam="1">  1        2 0.57252479E-02 0.27454517E+03</pdfrwt>
<pdfrwt beam="2">  1       -2 0.77901640E-01 0.27454517E+03</pdfrwt>
<totfact> 0.19810162E+03</totfact>
</mgrwt>
</event>
<event>
 5    1  0.1132878E+001  0.2740792E+03  0.7818608E-02  0.1098967E+00
          2   -1    0    0  501    0  0.00000000000E+00  0.00000000000E+00  0.49221311418E+03  0.49221311418E+03  0.00000000000E+00 0.  1.
         -2   -1    0    0    0  501 -0.00000000000E+00 -0.00000000000E+00 -0.38153910442E+02  0.38153910442E+02  0.00000000000E+00 0.  1.
         35    2    1    2    0    0  0.00000000000E+00  0.00000000000E+00  0.45405920374E+03  0.53036702463E+03  0.27407922269E+03 0.  0.
         25    1    3    3    0    0 -0.27610085976E+02 -0.60122171430E+02  0.23030369288E+03  0.26798653567E+03  0.12000000000E+03 0.  0.
         25    1    3    3    0    0  0.27610085976E+02  0.60122171430E+02  0.22375551086E+03  0.26238048896E+03  0.12000000000E+03 0.  0.
<mgrwt>
<rscale>  0 0.27407922E+03</rscale>
<asrwt>0</asrwt>
<pdfrwt beam="1">  1        2 0.75725090E-01 0.27407922E+03</pdfrwt>
<pdfrwt beam="2">  1       -2 0.58698327E-02 0.27407922E+03</pdfrwt>
<totfact> 0.96428109E+03</totfact>
</mgrwt>
</event>
<event>
 5    1  0.1132878E+001  0.2752765E+03  0.7818608E-02  0.1098297E+00
          2   -1    0    0  501    0  0.00000000000E+00  0.00000000000E+00  0.26153620859E+03  0.26153620859E+03  0.00000000000E+00 0.  1.
         -2   -1    0    0    0  501 -0.00000000000E+00 -0.00000000000E+00 -0.72434662110E+02  0.72434662110E+02  0.00000000000E+00 0.  1.
         35    2    1    2    0    0  0.00000000000E+00  0.00000000000E+00  0.18910154648E+03  0.33397087070E+03  0.27527649300E+03 0.  0.
         25    1    3    3    0    0  0.63097607907E+02  0.23353539151E+02  0.89462334671E+02  0.16410425113E+03  0.12000000000E+03 0.  0.
         25    1    3    3    0    0 -0.63097607907E+02 -0.23353539151E+02  0.99639211811E+02  0.16986661957E+03  0.12000000000E+03 0.  0.
<mgrwt>
<rscale>  0 0.27527649E+03</rscale>
<asrwt>0</asrwt>
<pdfrwt beam="1">  1        2 0.40236339E-01 0.27527649E+03</pdfrwt>
<pdfrwt beam="2">  1       -2 0.11143794E-01 0.27527649E+03</pdfrwt>
<totfact> 0.70242158E+03</totfact>
</mgrwt>
</event>
<event>
 5    1  0.1132878E+001  0.2750903E+03  0.7818608E-02  0.1098401E+00
          4   -1    0    0  501    0  0.00000000000E+00  0.00000000000E+00  0.48003750607E+03  0.48003750607E+03  0.00000000000E+00 0.  1.
         -4   -1    0    0    0  501 -0.00000000000E+00 -0.00000000000E+00 -0.39410817037E+02  0.39410817037E+02  0.00000000000E+00 0.  1.
         35    2    1    2    0    0  0.00000000000E+00  0.00000000000E+00  0.44062668903E+03  0.51944832310E+03  0.27509031479E+03 0.  0.
         25    1    3    3    0    0 -0.44221244525E+02 -0.58906242217E+01  0.12536346030E+03  0.17918207248E+03  0.12000000000E+03 0.  0.
         25    1    3    3    0    0  0.44221244525E+02  0.58906242217E+01  0.31526322874E+03  0.34026625062E+03  0.12000000000E+03 0.  0.
<mgrwt>
<rscale>  0 0.27509031E+03</rscale>
<asrwt>0</asrwt>
<pdfrwt beam="1">  1        4 0.73851920E-01 0.27509031E+03</pdfrwt>
<pdfrwt beam="2">  1       -4 0.60632030E-02 0.27509031E+03</pdfrwt>
<totfact> 0.55435305E+02</totfact>
</mgrwt>
</event>
<event>
 5    1  0.1132878E+001  0.2762798E+03  0.7818608E-02  0.1097738E+00
         -2   -1    0    0    0  501 -0.00000000000E+00  0.00000000000E+00  0.11137373277E+03  0.11137373277E+03  0.00000000000E+00 0.  1.
          2   -1    0    0  501    0  0.00000000000E+00 -0.00000000000E+00 -0.17133873915E+03  0.17133873915E+03  0.00000000000E+00 0.  1.
         35    2    1    2    0    0  0.00000000000E+00  0.00000000000E+00 -0.59965006376E+02  0.28271247192E+03  0.27627982153E+03 0.  0.
         25    1    3    3    0    0 -0.31451431518E+02  0.37499217470E+02  0.18956229964E+02  0.13097603792E+03  0.12000000000E+03 0.  0.
         25    1    3    3    0    0  0.31451431518E+02 -0.37499217470E+02 -0.78921236340E+02  0.15173643399E+03  0.12000000000E+03 0.  0.
<mgrwt>
<rscale>  0 0.27627982E+03</rscale>
<asrwt>0</asrwt>
<pdfrwt beam="1">  1        2 0.26359806E-01 0.27627982E+03</pdfrwt>
<pdfrwt beam="2">  1       -2 0.17134420E-01 0.27627982E+03</pdfrwt>
<totfact> 0.55092492E+03</totfact>
</mgrwt>
</event>
<event>
 5    1  0.1132878E+001  0.2745529E+03  0.7818608E-02  0.1098702E+00
         -4   -1    0    0    0  501 -0.00000000000E+00  0.00000000000E+00  0.28954483425E+02  0.28954483425E+02  0.00000000000E+00 0.  1.
          4   -1    0    0  501    0  0.00000000000E+00 -0.00000000000E+00 -0.65084289545E+03  0.65084289545E+03  0.00000000000E+00 0.  1.
         35    2    1    2    0    0  0.00000000000E+00  0.00000000000E+00 -0.62188841203E+03  0.67979737888E+03  0.27455287162E+03 0.  0.
         25    1    3    3    0    0  0.19292462673E+02 -0.15145305808E+02 -0.15744636473E+03  0.19947665821E+03  0.12000000000E+03 0.  0.
         25    1    3    3    0    0 -0.19292462673E+02  0.15145305808E+02 -0.46444204730E+03  0.48032072067E+03  0.12000000000E+03 0.  0.
<mgrwt>
<rscale>  0 0.27455287E+03</rscale>
<asrwt>0</asrwt>
<pdfrwt beam="1">  1        4 0.10012967E+00 0.27455287E+03</pdfrwt>
<pdfrwt beam="2">  1       -4 0.44545361E-02 0.27455287E+03</pdfrwt>
<totfact> 0.45863947E+02</totfact>
</mgrwt>
</event>
<event>
 5    1  0.1132878E+001  0.2744287E+03  0.7818608E-02  0.1098771E+00
         -2   -1    0    0    0  501 -0.00000000000E+00  0.00000000000E+00  0.65263295152E+02  0.65263295152E+02  0.00000000000E+00 0.  1.
          2   -1    0    0  501    0  0.00000000000E+00 -0.00000000000E+00 -0.28848945043E+03  0.28848945043E+03  0.00000000000E+00 0.  1.
         35    2    1    2    0    0  0.00000000000E+00  0.00000000000E+00 -0.22322615528E+03  0.35375274558E+03  0.27442865850E+03 0.  0.
         25    1    3    3    0    0  0.56098326964E+02  0.17868259701E+02 -0.15158356011E+03  0.20209867068E+03  0.12000000000E+03 0.  0.
         25    1    3    3    0    0 -0.56098326964E+02 -0.17868259701E+02 -0.71642595164E+02  0.15165407490E+03  0.12000000000E+03 0.  0.
<mgrwt>
<rscale>  0 0.27442866E+03</rscale>
<asrwt>0</asrwt>
<pdfrwt beam="1">  1        2 0.44382993E-01 0.27442866E+03</pdfrwt>
<pdfrwt beam="2">  1       -2 0.10040507E-01 0.27442866E+03</pdfrwt>
<totfact> 0.74645838E+03</totfact>
</mgrwt>
</event>
<event>
 5    1  0.1132878E+001  0.2752111E+03  0.7818608E-02  0.1098334E+00
          1   -1    0    0  501    0  0.00000000000E+00  0.00000000000E+00  0.57753338180E+02  0.57753338180E+02  0.00000000000E+00 0.  1.
         -1   -1    0    0    0  501 -0.00000000000E+00 -0.00000000000E+00 -0.32786476630E+03  0.32786476630E+03  0.00000000000E+00 0.  1.
         35    2    1    2    0    0  0.00000000000E+00  0.00000000000E+00 -0.27011142812E+03  0.38561810448E+03  0.27521108063E+03 0.  0.
         25    1    3    3    0    0 -0.17998310853E+01 -0.34879633944E+02 -0.54376220205E+02  0.13629600720E+03  0.12000000000E+03 0.  0.
         25    1    3    3    0    0  0.17998310853E+01  0.34879633944E+02 -0.21573520792E+03  0.24932209728E+03  0.12000000000E+03 0.  0.
<mgrwt>
<rscale>  0 0.27521108E+03</rscale>
<asrwt>0</asrwt>
<pdfrwt beam="1">  1        1 0.88851288E-02 0.27521108E+03</pdfrwt>
<pdfrwt beam="2">  1       -1 0.50440734E-01 0.27521108E+03</pdfrwt>
<totfact> 0.30337168E+03</totfact>
</mgrwt>
</event>
<event>
 5    1  0.1132878E+001  0.2751306E+03  0.7818608E-02  0.1098379E+00
          1   -1    0    0  501    0  0.00000000000E+00  0.00000000000E+00  0.35612751897E+03  0.35612751897E+03  0.00000000000E+00 0. -1.
         -1   -1    0    0    0  501 -0.00000000000E+00 -0.00000000000E+00 -0.53138857175E+02  0.53138857175E+02  0.00000000000E+00 0. -1.
         35    2    1    2    0    0  0.00000000000E+00  0.00000000000E+00  0.30298866179E+03  0.40926637614E+03  0.27513058257E+03 0.  0.
         25    1    3    3    0    0  0.36338355508E+02 -0.50831857741E+02  0.18852933835E+03  0.23205099711E+03  0.12000000000E+03 0.  0.
         25    1    3    3    0    0 -0.36338355508E+02  0.50831857741E+02  0.11445932345E+03  0.17721537904E+03  0.12000000000E+03 0.  0.
<mgrwt>
<rscale>  0 0.27513058E+03</rscale>
<asrwt>0</asrwt>
<pdfrwt beam="1">  1        1 0.54788848E-01 0.27513058E+03</pdfrwt>
<pdfrwt beam="2">  1       -1 0.81752090E-02 0.27513058E+03</pdfrwt>
<totfact> 0.58252873E+03</totfact>
</mgrwt>
</event>
<event>
 5    1  0.1132878E+001  0.2758806E+03  0.7818608E-02  0.1097960E+00
          1   -1    0    0  501    0  0.00000000000E+00  0.00000000000E+00  0.38052143987E+02  0.38052143987E+02  0.00000000000E+00 0.  1.
         -1   -1    0    0    0  501 -0.00000000000E+00 -0.00000000000E+00 -0.50003805946E+03  0.50003805946E+03  0.00000000000E+00 0.  1.
         35    2    1    2    0    0  0.00000000000E+00  0.00000000000E+00 -0.46198591547E+03  0.53809020345E+03  0.27588055559E+03 0.  0.
         25    1    3    3    0    0 -0.43438993455E+00  0.50855499573E+02 -0.14287573838E+03  0.19339065942E+03  0.12000000000E+03 0.  0.
         25    1    3    3    0    0  0.43438993455E+00 -0.50855499573E+02 -0.31911017709E+03  0.34469954403E+03  0.12000000000E+03 0.  0.
<mgrwt>
<rscale>  0 0.27588056E+03</rscale>
<asrwt>0</asrwt>
<pdfrwt beam="1">  1        1 0.58541764E-02 0.27588056E+03</pdfrwt>
<pdfrwt beam="2">  1       -1 0.76928926E-01 0.27588056E+03</pdfrwt>
<totfact> 0.23608563E+03</totfact>
</mgrwt>
</event>
<event>
 5    1  0.1132878E+001  0.2753057E+03  0.7818608E-02  0.1098281E+00
          2   -1    0    0  501    0  0.00000000000E+00  0.00000000000E+00  0.66726992954E+03  0.66726992954E+03  0.00000000000E+00 0.  1.
         -2   -1    0    0    0  501 -0.00000000000E+00 -0.00000000000E+00 -0.28396767483E+02  0.28396767483E+02  0.00000000000E+00 0.  1.
         35    2    1    2    0    0  0.00000000000E+00  0.00000000000E+00  0.63887316206E+03  0.69566669702E+03  0.27530571398E+03 0.  0.
         25    1    3    3    0    0 -0.98952592658E+01  0.65913092512E+02  0.34543494498E+03  0.37170923197E+03  0.12000000000E+03 0.  0.
         25    1    3    3    0    0  0.98952592658E+01 -0.65913092512E+02  0.29343821708E+03  0.32395746505E+03  0.12000000000E+03 0.  0.
<mgrwt>
<rscale>  0 0.27530571E+03</rscale>
<asrwt>0</asrwt>
<pdfrwt beam="1">  1        2 0.10265690E+00 0.27530571E+03</pdfrwt>
<pdfrwt beam="2">  1       -2 0.43687340E-02 0.27530571E+03</pdfrwt>
<totfact> 0.10646579E+04</totfact>
</mgrwt>
</event>
<event>
 5    1  0.1132878E+001  0.2751838E+03  0.7818608E-02  0.1098349E+00
         -1   -1    0    0    0  501 -0.00000000000E+00  0.00000000000E+00  0.19149311128E+02  0.19149311128E+02  0.00000000000E+00 0.  1.
          1   -1    0    0  501    0  0.00000000000E+00 -0.00000000000E+00 -0.98862742029E+03  0.98862742029E+03  0.00000000000E+00 0.  1.
         35    2    1    2    0    0  0.00000000000E+00  0.00000000000E+00 -0.96947810916E+03  0.10077767314E+04  0.27518382264E+03 0.  0.
         25    1    3    3    0    0 -0.57734840864E+02 -0.29397707600E+02 -0.41781030520E+03  0.43950311511E+03  0.12000000000E+03 0.  0.
         25    1    3    3    0    0  0.57734840864E+02  0.29397707600E+02 -0.55166780396E+03  0.56827361631E+03  0.12000000000E+03 0.  0.
<mgrwt>
<rscale>  0 0.27518382E+03</rscale>
<asrwt>0</asrwt>
<pdfrwt beam="1">  1        1 0.15209653E+00 0.27518382E+03</pdfrwt>
<pdfrwt beam="2">  1       -1 0.29460477E-02 0.27518382E+03</pdfrwt>
<totfact> 0.63152615E+03</totfact>
</mgrwt>
</event>
<event>
 5    1  0.1132878E+001  0.2749381E+03  0.7818608E-02  0.1098486E+00
          2   -1    0    0  501    0  0.00000000000E+00  0.00000000000E+00  0.21697259951E+04  0.21697259951E+04  0.00000000000E+00 0. -1.
         -2   -1    0    0    0  501 -0.00000000000E+00 -0.00000000000E+00 -0.87097345909E+01  0.87097345909E+01  0.00000000000E+00 0. -1.
         35    2    1    2    0    0  0.00000000000E+00  0.00000000000E+00  0.21610162606E+04  0.21784357297E+04  0.27493808432E+03 0.  0.
         25    1    3    3    0    0 -0.35519792576E+02  0.34523423808E+02  0.72226889860E+03  0.73384322872E+03  0.12000000000E+03 0.  0.
         25    1    3    3    0    0  0.35519792576E+02 -0.34523423808E+02  0.14387473620E+04  0.14445925010E+04  0.12000000000E+03 0.  0.
<mgrwt>
<rscale>  0 0.27493808E+03</rscale>
<asrwt>0</asrwt>
<pdfrwt beam="1">  1        2 0.33380357E+00 0.27493808E+03</pdfrwt>
<pdfrwt beam="2">  1       -2 0.13399609E-02 0.27493808E+03</pdfrwt>
<totfact> 0.84089057E+03</totfact>
</mgrwt>
</event>
<event>
 5    1  0.1132878E+001  0.2754042E+03  0.7818608E-02  0.1098226E+00
          1   -1    0    0  501    0  0.00000000000E+00  0.00000000000E+00  0.10458576016E+03  0.10458576016E+03  0.00000000000E+00 0.  1.
         -1   -1    0    0    0  501 -0.00000000000E+00 -0.00000000000E+00 -0.18130454806E+03  0.18130454806E+03  0.00000000000E+00 0.  1.
         35    2    1    2    0    0  0.00000000000E+00  0.00000000000E+00 -0.76718787904E+02  0.28589030822E+03  0.27540424092E+03 0.  0.
         25    1    3    3    0    0  0.14832767507E+02  0.18395165684E+01 -0.10673442985E+03  0.16129362458E+03  0.12000000000E+03 0.  0.
         25    1    3    3    0    0 -0.14832767507E+02 -0.18395165684E+01  0.30015641947E+02  0.12459668364E+03  0.12000000000E+03 0.  0.
<mgrwt>
<rscale>  0 0.27540424E+03</rscale>
<asrwt>0</asrwt>
<pdfrwt beam="1">  1        1 0.16090117E-01 0.27540424E+03</pdfrwt>
<pdfrwt beam="2">  1       -1 0.27893007E-01 0.27540424E+03</pdfrwt>
<totfact> 0.39081667E+03</totfact>
</mgrwt>
</event>
<event>
 5    1  0.1132878E+001  0.2750318E+03  0.7818608E-02  0.1098434E+00
         -2   -1    0    0    0  501 -0.00000000000E+00  0.00000000000E+00  0.58764739873E+01  0.58764739873E+01  0.00000000000E+00 0.  1.
          2   -1    0    0  501    0  0.00000000000E+00 -0.00000000000E+00 -0.32180220428E+04  0.32180220428E+04  0.00000000000E+00 0.  1.
         35    2    1    2    0    0  0.00000000000E+00  0.00000000000E+00 -0.32121455688E+04  0.32238985168E+04  0.27503180052E+03 0.  0.
         25    1    3    3    0    0 -0.13064156447E+02 -0.35740985585E+02 -0.22547651846E+04  0.22582768050E+04  0.12000000000E+03 0.  0.
         25    1    3    3    0    0  0.13064156447E+02  0.35740985585E+02 -0.95738038417E+03  0.96562171177E+03  0.12000000000E+03 0.  0.
<mgrwt>
<rscale>  0 0.27503180E+03</rscale>
<asrwt>0</asrwt>
<pdfrwt beam="1">  1        2 0.49508126E+00 0.27503180E+03</pdfrwt>
<pdfrwt beam="2">  1       -2 0.90407119E-03 0.27503180E+03</pdfrwt>
<totfact> 0.37940348E+03</totfact>
</mgrwt>
</event>
<event>
 5    1  0.1132878E+001  0.2750325E+03  0.7818608E-02  0.1098433E+00
          2   -1    0    0  501    0  0.00000000000E+00  0.00000000000E+00  0.66423390730E+02  0.66423390730E+02  0.00000000000E+00 0. -1.
         -2   -1    0    0    0  501 -0.00000000000E+00 -0.00000000000E+00 -0.28469971432E+03  0.28469971432E+03  0.00000000000E+00 0. -1.
         35    2    1    2    0    0  0.00000000000E+00  0.00000000000E+00 -0.21827632359E+03  0.35112310505E+03  0.27503250982E+03 0.  0.
         25    1    3    3    0    0 -0.50215529832E+02  0.44518674358E+02 -0.10571048634E+03  0.17343073178E+03  0.12000000000E+03 0.  0.
         25    1    3    3    0    0  0.50215529832E+02 -0.44518674358E+02 -0.11256583725E+03  0.17769237327E+03  0.12000000000E+03 0.  0.
<mgrwt>
<rscale>  0 0.27503251E+03</rscale>
<asrwt>0</asrwt>
<pdfrwt beam="1">  1        2 0.10218983E-01 0.27503251E+03</pdfrwt>
<pdfrwt beam="2">  1       -2 0.43799956E-01 0.27503251E+03</pdfrwt>
<totfact> 0.31023692E+03</totfact>
</mgrwt>
</event>
<event>
 5    1  0.1132878E+001  0.2743235E+03  0.7818608E-02  0.1098830E+00
         -2   -1    0    0    0  501 -0.00000000000E+00  0.00000000000E+00  0.61072622086E+01  0.61072622086E+01  0.00000000000E+00 0. -1.
          2   -1    0    0  501    0  0.00000000000E+00 -0.00000000000E+00 -0.30804878675E+04  0.30804878675E+04  0.00000000000E+00 0. -1.
         35    2    1    2    0    0  0.00000000000E+00  0.00000000000E+00 -0.30743806053E+04  0.30865951297E+04  0.27432351075E+03 0.  0.
         25    1    3    3    0    0  0.47563535049E+02 -0.21326564021E+02 -0.10737864517E+04  0.10817275331E+04  0.12000000000E+03 0.  0.
         25    1    3    3    0    0 -0.47563535049E+02  0.21326564021E+02 -0.20005941536E+04  0.20048675966E+04  0.12000000000E+03 0.  0.
<mgrwt>
<rscale>  0 0.27432351E+03</rscale>
<asrwt>0</asrwt>
<pdfrwt beam="1">  1        2 0.47392057E+00 0.27432351E+03</pdfrwt>
<pdfrwt beam="2">  1       -2 0.93958007E-03 0.27432351E+03</pdfrwt>
<totfact> 0.43538284E+03</totfact>
</mgrwt>
</event>
<event>
 5    1  0.1132878E+001  0.2749024E+03  0.7818608E-02  0.1098506E+00
         -2   -1    0    0    0  501 -0.00000000000E+00  0.00000000000E+00  0.48376725521E+03  0.48376725521E+03  0.00000000000E+00 0.  1.
          2   -1    0    0  501    0  0.00000000000E+00 -0.00000000000E+00 -0.39053550392E+02  0.39053550392E+02  0.00000000000E+00 0.  1.
         35    2    1    2    0    0  0.00000000000E+00  0.00000000000E+00  0.44471370482E+03  0.52282080560E+03  0.27490237452E+03 0.  0.
         25    1    3    3    0    0 -0.50334262010E+02 -0.29001560358E+02  0.15876020805E+03  0.20731481398E+03  0.12000000000E+03 0.  0.
         25    1    3    3    0    0  0.50334262010E+02  0.29001560358E+02  0.28595349677E+03  0.31550599162E+03  0.12000000000E+03 0.  0.
<mgrwt>
<rscale>  0 0.27490237E+03</rscale>
<asrwt>0</asrwt>
<pdfrwt beam="1">  1        2 0.60082389E-02 0.27490237E+03</pdfrwt>
<pdfrwt beam="2">  1       -2 0.74425727E-01 0.27490237E+03</pdfrwt>
<totfact> 0.20548751E+03</totfact>
</mgrwt>
</event>
<event>
 5    1  0.1132878E+001  0.2741975E+03  0.7818608E-02  0.1098901E+00
          2   -1    0    0  501    0  0.00000000000E+00  0.00000000000E+00  0.65472960586E+03  0.65472960586E+03  0.00000000000E+00 0. -1.
         -2   -1    0    0    0  501 -0.00000000000E+00 -0.00000000000E+00 -0.28708135477E+02  0.28708135477E+02  0.00000000000E+00 0. -1.
         35    2    1    2    0    0  0.00000000000E+00  0.00000000000E+00  0.62602147039E+03  0.68343774134E+03  0.27419749252E+03 0.  0.
         25    1    3    3    0    0 -0.15954069136E+02  0.55707184943E+02  0.23269787754E+03  0.26815317449E+03  0.12000000000E+03 0.  0.
         25    1    3    3    0    0  0.15954069136E+02 -0.55707184943E+02  0.39332359284E+03  0.41528456685E+03  0.12000000000E+03 0.  0.
<mgrwt>
<rscale>  0 0.27419749E+03</rscale>
<asrwt>0</asrwt>
<pdfrwt beam="1">  1        2 0.10072762E+00 0.27419749E+03</pdfrwt>
<pdfrwt beam="2">  1       -2 0.44166367E-02 0.27419749E+03</pdfrwt>
<totfact> 0.10710654E+04</totfact>
</mgrwt>
</event>
<event>
 5    1  0.1132878E+001  0.2751913E+03  0.7818608E-02  0.1098345E+00
         -3   -1    0    0    0  501 -0.00000000000E+00  0.00000000000E+00  0.18254632621E+03  0.18254632621E+03  0.00000000000E+00 0. -1.
          3   -1    0    0  501    0  0.00000000000E+00 -0.00000000000E+00 -0.10371373145E+03  0.10371373145E+03  0.00000000000E+00 0. -1.
         35    2    1    2    0    0  0.00000000000E+00  0.00000000000E+00  0.78832594760E+02  0.28626005766E+03  0.27519128368E+03 0.  0.
         25    1    3    3    0    0  0.51118482804E+02 -0.20152941454E+02  0.79882412455E+02  0.15427391274E+03  0.12000000000E+03 0.  0.
         25    1    3    3    0    0 -0.51118482804E+02  0.20152941454E+02 -0.10498176955E+01  0.13198614492E+03  0.12000000000E+03 0.  0.
<mgrwt>
<rscale>  0 0.27519128E+03</rscale>
<asrwt>0</asrwt>
<pdfrwt beam="1">  1        3 0.15955959E-01 0.27519128E+03</pdfrwt>
<pdfrwt beam="2">  1       -3 0.28084050E-01 0.27519128E+03</pdfrwt>
<totfact> 0.10296000E+03</totfact>
</mgrwt>
</event>
<event>
 5    1  0.1132878E+001  0.2734845E+03  0.7818608E-02  0.1099302E+00
         -1   -1    0    0    0  501 -0.00000000000E+00  0.00000000000E+00  0.21045582508E+02  0.21045582508E+02  0.00000000000E+00 0.  1.
          1   -1    0    0  501    0  0.00000000000E+00 -0.00000000000E+00 -0.88847344360E+03  0.88847344360E+03  0.00000000000E+00 0.  1.
         35    2    1    2    0    0  0.00000000000E+00  0.00000000000E+00 -0.86742786109E+03  0.90951902611E+03  0.27348448704E+03 0.  0.
         25    1    3    3    0    0  0.51124945465E+02 -0.17640874814E+02 -0.55696490581E+03  0.57230661958E+03  0.12000000000E+03 0.  0.
         25    1    3    3    0    0 -0.51124945465E+02  0.17640874814E+02 -0.31046295529E+03  0.33721240653E+03  0.12000000000E+03 0.  0.
<mgrwt>
<rscale>  0 0.27348449E+03</rscale>
<asrwt>0</asrwt>
<pdfrwt beam="1">  1        1 0.13668823E+00 0.27348449E+03</pdfrwt>
<pdfrwt beam="2">  1       -1 0.32377816E-02 0.27348449E+03</pdfrwt>
<totfact> 0.65607007E+03</totfact>
</mgrwt>
</event>
<event>
 5    1  0.1132878E+001  0.2748633E+03  0.7818608E-02  0.1098528E+00
          2   -1    0    0  501    0  0.00000000000E+00  0.00000000000E+00  0.16210686943E+03  0.16210686943E+03  0.00000000000E+00 0. -1.
         -2   -1    0    0    0  501 -0.00000000000E+00 -0.00000000000E+00 -0.11651238358E+03  0.11651238358E+03  0.00000000000E+00 0. -1.
         35    2    1    2    0    0  0.00000000000E+00  0.00000000000E+00  0.45594485848E+02  0.27861925301E+03  0.27486329513E+03 0.  0.
         25    1    3    3    0    0 -0.56182948297E+02 -0.19502088532E+02  0.54050398754E+02  0.14442403104E+03  0.12000000000E+03 0.  0.
         25    1    3    3    0    0  0.56182948297E+02  0.19502088532E+02 -0.84559129054E+01  0.13419522197E+03  0.12000000000E+03 0.  0.
<mgrwt>
<rscale>  0 0.27486330E+03</rscale>
<asrwt>0</asrwt>
<pdfrwt beam="1">  1        2 0.24939518E-01 0.27486330E+03</pdfrwt>
<pdfrwt beam="2">  1       -2 0.17924982E-01 0.27486330E+03</pdfrwt>
<totfact> 0.54310488E+03</totfact>
</mgrwt>
</event>
<event>
 5    1  0.1132878E+001  0.2742040E+03  0.7818608E-02  0.1098897E+00
          2   -1    0    0  501    0  0.00000000000E+00  0.00000000000E+00  0.52154771384E+03  0.52154771384E+03  0.00000000000E+00 0. -1.
         -2   -1    0    0    0  501 -0.00000000000E+00 -0.00000000000E+00 -0.36040722209E+02  0.36040722209E+02  0.00000000000E+00 0. -1.
         35    2    1    2    0    0  0.00000000000E+00  0.00000000000E+00  0.48550699163E+03  0.55758843605E+03  0.27420398446E+03 0.  0.
         25    1    3    3    0    0 -0.31338387451E+02 -0.32715706811E+02  0.34121562346E+03  0.36452779550E+03  0.12000000000E+03 0.  0.
         25    1    3    3    0    0  0.31338387451E+02  0.32715706811E+02  0.14429136818E+03  0.19306064055E+03  0.12000000000E+03 0.  0.
<mgrwt>
<rscale>  0 0.27420398E+03</rscale>
<asrwt>0</asrwt>
<pdfrwt beam="1">  1        2 0.80238104E-01 0.27420398E+03</pdfrwt>
<pdfrwt beam="2">  1       -2 0.55447269E-02 0.27420398E+03</pdfrwt>
<totfact> 0.98599735E+03</totfact>
</mgrwt>
</event>
<event>
 5    1  0.1132878E+001  0.2751519E+03  0.7818608E-02  0.1098367E+00
         -1   -1    0    0    0  501 -0.00000000000E+00  0.00000000000E+00  0.96515025310E+02  0.96515025310E+02  0.00000000000E+00 0. -1.
          1   -1    0    0  501    0  0.00000000000E+00 -0.00000000000E+00 -0.19610558640E+03  0.19610558640E+03  0.00000000000E+00 0. -1.
         35    2    1    2    0    0  0.00000000000E+00  0.00000000000E+00 -0.99590561087E+02  0.29262061171E+03  0.27515185360E+03 0.  0.
         25    1    3    3    0    0  0.65557987253E+02  0.95229883622E+01 -0.62315500160E+02  0.15057144006E+03  0.12000000000E+03 0.  0.
         25    1    3    3    0    0 -0.65557987253E+02 -0.95229883622E+01 -0.37275060927E+02  0.14204917165E+03  0.12000000000E+03 0.  0.
<mgrwt>
<rscale>  0 0.27515185E+03</rscale>
<asrwt>0</asrwt>
<pdfrwt beam="1">  1        1 0.30170090E-01 0.27515185E+03</pdfrwt>
<pdfrwt beam="2">  1       -1 0.14848466E-01 0.27515185E+03</pdfrwt>
<totfact> 0.48793067E+03</totfact>
</mgrwt>
</event>
<event>
 5    1  0.1132878E+001  0.2758126E+03  0.7818608E-02  0.1097998E+00
         -1   -1    0    0    0  501 -0.00000000000E+00  0.00000000000E+00  0.26227209921E+03  0.26227209921E+03  0.00000000000E+00 0.  1.
          1   -1    0    0  501    0  0.00000000000E+00 -0.00000000000E+00 -0.72513028910E+02  0.72513028910E+02  0.00000000000E+00 0.  1.
         35    2    1    2    0    0  0.00000000000E+00  0.00000000000E+00  0.18975907030E+03  0.33478512812E+03  0.27581257631E+03 0.  0.
         25    1    3    3    0    0 -0.51452798433E+02  0.23103744948E+02  0.48867010158E+02  0.14131227186E+03  0.12000000000E+03 0.  0.
         25    1    3    3    0    0  0.51452798433E+02 -0.23103744948E+02  0.14089206014E+03  0.19347285626E+03  0.12000000000E+03 0.  0.
<mgrwt>
<rscale>  0 0.27581258E+03</rscale>
<asrwt>0</asrwt>
<pdfrwt beam="1">  1        1 0.11155851E-01 0.27581258E+03</pdfrwt>
<pdfrwt beam="2">  1       -1 0.40349553E-01 0.27581258E+03</pdfrwt>
<totfact> 0.33494259E+03</totfact>
</mgrwt>
</event>
<event>
 5    1  0.1132878E+001  0.2762339E+03  0.7818608E-02  0.1097764E+00
         -1   -1    0    0    0  501 -0.00000000000E+00  0.00000000000E+00  0.23204107945E+02  0.23204107945E+02  0.00000000000E+00 0. -1.
          1   -1    0    0  501    0  0.00000000000E+00 -0.00000000000E+00 -0.82210850325E+03  0.82210850325E+03  0.00000000000E+00 0. -1.
         35    2    1    2    0    0  0.00000000000E+00  0.00000000000E+00 -0.79890439530E+03  0.84531261119E+03  0.27623391864E+03 0.  0.
         25    1    3    3    0    0 -0.40538922623E+02  0.22427816806E+01 -0.56783907720E+03  0.58179863519E+03  0.12000000000E+03 0.  0.
         25    1    3    3    0    0  0.40538922623E+02 -0.22427816806E+01 -0.23106531810E+03  0.26351397600E+03  0.12000000000E+03 0.  0.
<mgrwt>
<rscale>  0 0.27623392E+03</rscale>
<asrwt>0</asrwt>
<pdfrwt beam="1">  1        1 0.12647823E+00 0.27623392E+03</pdfrwt>
<pdfrwt beam="2">  1       -1 0.35698627E-02 0.27623392E+03</pdfrwt>
<totfact> 0.64238979E+03</totfact>
</mgrwt>
</event>
<event>
 5    1  0.1132878E+001  0.2755219E+03  0.7818608E-02  0.1098160E+00
         -1   -1    0    0    0  501 -0.00000000000E+00  0.00000000000E+00  0.45982579004E+01  0.45982579004E+01  0.00000000000E+00 0. -1.
          1   -1    0    0  501    0  0.00000000000E+00 -0.00000000000E+00 -0.41272338005E+04  0.41272338005E+04  0.00000000000E+00 0. -1.
         35    2    1    2    0    0  0.00000000000E+00  0.00000000000E+00 -0.41226355426E+04  0.41318320584E+04  0.27552194417E+03 0.  0.
         25    1    3    3    0    0  0.54319918364E+02  0.17321630019E+02 -0.15149485408E+04  0.15207628920E+04  0.12000000000E+03 0.  0.
         25    1    3    3    0    0 -0.54319918364E+02 -0.17321630019E+02 -0.26076870018E+04  0.26110691664E+04  0.12000000000E+03 0.  0.
<mgrwt>
<rscale>  0 0.27552194E+03</rscale>
<asrwt>0</asrwt>
<pdfrwt beam="1">  1        1 0.63495969E+00 0.27552194E+03</pdfrwt>
<pdfrwt beam="2">  1       -1 0.70742357E-03 0.27552194E+03</pdfrwt>
<totfact> 0.30256558E+02</totfact>
</mgrwt>
</event>
<event>
 5    1  0.1132878E+001  0.2752061E+03  0.7818608E-02  0.1098336E+00
          1   -1    0    0  501    0  0.00000000000E+00  0.00000000000E+00  0.44815319203E+03  0.44815319203E+03  0.00000000000E+00 0. -1.
         -1   -1    0    0    0  501 -0.00000000000E+00 -0.00000000000E+00 -0.42250283205E+02  0.42250283205E+02  0.00000000000E+00 0. -1.
         35    2    1    2    0    0  0.00000000000E+00  0.00000000000E+00  0.40590290882E+03  0.49040347523E+03  0.27520609937E+03 0.  0.
         25    1    3    3    0    0  0.35474840085E+02 -0.13693297232E+02  0.10391882057E+03  0.16323324397E+03  0.12000000000E+03 0.  0.
         25    1    3    3    0    0 -0.35474840085E+02  0.13693297232E+02  0.30198408825E+03  0.32717023126E+03  0.12000000000E+03 0.  0.
<mgrwt>
<rscale>  0 0.27520610E+03</rscale>
<asrwt>0</asrwt>
<pdfrwt beam="1">  1        1 0.68946641E-01 0.27520610E+03</pdfrwt>
<pdfrwt beam="2">  1       -1 0.65000439E-02 0.27520610E+03</pdfrwt>
<totfact> 0.61464501E+03</totfact>
</mgrwt>
</event>
<event>
 5    1  0.1132878E+001  0.2751985E+03  0.7818608E-02  0.1098341E+00
         -2   -1    0    0    0  501 -0.00000000000E+00  0.00000000000E+00  0.19166579340E+02  0.19166579340E+02  0.00000000000E+00 0.  1.
          2   -1    0    0  501    0  0.00000000000E+00 -0.00000000000E+00 -0.98784227967E+03  0.98784227967E+03  0.00000000000E+00 0.  1.
         35    2    1    2    0    0  0.00000000000E+00  0.00000000000E+00 -0.96867570033E+03  0.10070088590E+04  0.27519852782E+03 0.  0.
         25    1    3    3    0    0  0.75058711763E+01  0.54275850904E+02 -0.34114392114E+03  0.36576137169E+03  0.12000000000E+03 0.  0.
         25    1    3    3    0    0 -0.75058711763E+01 -0.54275850904E+02 -0.62753177920E+03  0.64124748732E+03  0.12000000000E+03 0.  0.
<mgrwt>
<rscale>  0 0.27519853E+03</rscale>
<asrwt>0</asrwt>
<pdfrwt beam="1">  1        2 0.15197576E+00 0.27519853E+03</pdfrwt>
<pdfrwt beam="2">  1       -2 0.29487040E-02 0.27519853E+03</pdfrwt>
<totfact> 0.11581822E+04</totfact>
</mgrwt>
</event>
<event>
 5    1  0.1132878E+001  0.2754036E+03  0.7818608E-02  0.1098226E+00
          1   -1    0    0  501    0  0.00000000000E+00  0.00000000000E+00  0.16293146490E+02  0.16293146490E+02  0.00000000000E+00 0.  1.
         -1   -1    0    0    0  501 -0.00000000000E+00 -0.00000000000E+00 -0.11637886537E+04  0.11637886537E+04  0.00000000000E+00 0.  1.
         35    2    1    2    0    0  0.00000000000E+00  0.00000000000E+00 -0.11474955072E+04  0.11800818002E+04  0.27540355130E+03 0.  0.
         25    1    3    3    0    0 -0.40089027628E+01  0.29510120193E+02 -0.31399329757E+03  0.33745919667E+03  0.12000000000E+03 0.  0.
         25    1    3    3    0    0  0.40089027628E+01 -0.29510120193E+02 -0.83350220964E+03  0.84262260352E+03  0.12000000000E+03 0.  0.
<mgrwt>
<rscale>  0 0.27540355E+03</rscale>
<asrwt>0</asrwt>
<pdfrwt beam="1">  1        1 0.25066381E-02 0.27540355E+03</pdfrwt>
<pdfrwt beam="2">  1       -1 0.17904440E+00 0.27540355E+03</pdfrwt>
<totfact> 0.10202177E+03</totfact>
</mgrwt>
</event>
<event>
 5    1  0.1132878E+001  0.2736208E+03  0.7818608E-02  0.1099225E+00
         -1   -1    0    0    0  501 -0.00000000000E+00  0.00000000000E+00  0.20192234100E+03  0.20192234100E+03  0.00000000000E+00 0. -1.
          1   -1    0    0  501    0  0.00000000000E+00 -0.00000000000E+00 -0.92694501495E+02  0.92694501495E+02  0.00000000000E+00 0. -1.
         35    2    1    2    0    0  0.00000000000E+00  0.00000000000E+00  0.10922783950E+03  0.29461684249E+03  0.27362083795E+03 0.  0.
         25    1    3    3    0    0  0.40113584974E+02  0.20094471471E+02  0.10629942847E+03  0.16647058592E+03  0.12000000000E+03 0.  0.
         25    1    3    3    0    0 -0.40113584974E+02 -0.20094471471E+02  0.29284110364E+01  0.12814625658E+03  0.12000000000E+03 0.  0.
<mgrwt>
<rscale>  0 0.27362084E+03</rscale>
<asrwt>0</asrwt>
<pdfrwt beam="1">  1        1 0.14260693E-01 0.27362084E+03</pdfrwt>
<pdfrwt beam="2">  1       -1 0.31064976E-01 0.27362084E+03</pdfrwt>
<totfact> 0.38128140E+03</totfact>
</mgrwt>
</event>
<event>
 5    1  0.1132878E+001  0.2753155E+03  0.7818608E-02  0.1098275E+00
          2   -1    0    0  501    0  0.00000000000E+00  0.00000000000E+00  0.11122123318E+04  0.11122123318E+04  0.00000000000E+00 0. -1.
         -2   -1    0    0    0  501 -0.00000000000E+00 -0.00000000000E+00 -0.17037800208E+02  0.17037800208E+02  0.00000000000E+00 0. -1.
         35    2    1    2    0    0  0.00000000000E+00  0.00000000000E+00  0.10951745316E+04  0.11292501320E+04  0.27531546631E+03 0.  0.
         25    1    3    3    0    0 -0.57716011686E+02 -0.11741394614E+01  0.69068372791E+03  0.70340353184E+03  0.12000000000E+03 0.  0.
         25    1    3    3    0    0  0.57716011686E+02  0.11741394614E+01  0.40449080366E+03  0.42584660015E+03  0.12000000000E+03 0.  0.
<mgrwt>
<rscale>  0 0.27531547E+03</rscale>
<asrwt>0</asrwt>
<pdfrwt beam="1">  1        2 0.17110953E+00 0.27531547E+03</pdfrwt>
<pdfrwt beam="2">  1       -2 0.26212009E-02 0.27531547E+03</pdfrwt>
<totfact> 0.11617786E+04</totfact>
</mgrwt>
</event>
<event>
 5    1  0.1132878E+001  0.2751392E+03  0.7818608E-02  0.1098374E+00
         -2   -1    0    0    0  501 -0.00000000000E+00  0.00000000000E+00  0.13779229017E+03  0.13779229017E+03  0.00000000000E+00 0. -1.
          2   -1    0    0  501    0  0.00000000000E+00 -0.00000000000E+00 -0.13734728196E+03  0.13734728196E+03  0.00000000000E+00 0. -1.
         35    2    1    2    0    0  0.00000000000E+00  0.00000000000E+00  0.44500820663E+00  0.27513957213E+03  0.27513921226E+03 0.  0.
         25    1    3    3    0    0  0.18729523317E+00  0.67113519121E+02  0.48200096472E+01  0.13757722203E+03  0.12000000000E+03 0.  0.
         25    1    3    3    0    0 -0.18729523317E+00 -0.67113519121E+02 -0.43750014406E+01  0.13756235010E+03  0.12000000000E+03 0.  0.
<mgrwt>
<rscale>  0 0.27513921E+03</rscale>
<asrwt>0</asrwt>
<pdfrwt beam="1">  1        2 0.21130351E-01 0.27513921E+03</pdfrwt>
<pdfrwt beam="2">  1       -2 0.21198814E-01 0.27513921E+03</pdfrwt>
<totfact> 0.49188396E+03</totfact>
</mgrwt>
</event>
<event>
 4    1  0.1132878E+001  0.3048344E+03  0.7818608E-02  0.1082849E+00
          2   -1    0    0  501    0  0.00000000000E+00  0.00000000000E+00  0.22365125272E+04  0.22365125272E+04  0.00000000000E+00 0. -1.
         -2   -1    0    0    0  501 -0.00000000000E+00 -0.00000000000E+00 -0.10387155598E+02  0.10387155598E+02  0.00000000000E+00 0. -1.
         25    1    1    2    0    0  0.42460839468E+02 -0.90094708529E+00  0.17309552814E+04  0.17356295460E+04  0.12000000000E+03 0.  0.
         25    1    1    2    0    0 -0.42460839468E+02  0.90094708529E+00  0.49517009018E+03  0.51127013682E+03  0.12000000000E+03 0.  0.
<mgrwt>
<rscale>  0 0.30483440E+03</rscale>
<asrwt>0</asrwt>
<pdfrwt beam="1">  1        2 0.34407847E+00 0.30483440E+03</pdfrwt>
<pdfrwt beam="2">  1       -2 0.15980257E-02 0.30483440E+03</pdfrwt>
<totfact> 0.59862269E+03</totfact>
</mgrwt>
</event>
<event>
 5    1  0.1132878E+001  0.2759130E+03  0.7818608E-02  0.1097942E+00
          3   -1    0    0  501    0  0.00000000000E+00  0.00000000000E+00  0.15475216946E+03  0.15475216946E+03  0.00000000000E+00 0. -1.
         -3   -1    0    0    0  501 -0.00000000000E+00 -0.00000000000E+00 -0.12298373897E+03  0.12298373897E+03  0.00000000000E+00 0. -1.
         35    2    1    2    0    0  0.00000000000E+00  0.00000000000E+00  0.31768430483E+02  0.27773590843E+03  0.27591303278E+03 0.  0.
         25    1    3    3    0    0 -0.50969953716E+02  0.45097430538E+02  0.16422529939E+02  0.13892952858E+03  0.12000000000E+03 0.  0.
         25    1    3    3    0    0  0.50969953716E+02 -0.45097430538E+02  0.15345900544E+02  0.13880637985E+03  0.12000000000E+03 0.  0.
<mgrwt>
<rscale>  0 0.27591303E+03</rscale>
<asrwt>0</asrwt>
<pdfrwt beam="1">  1        3 0.23808026E-01 0.27591303E+03</pdfrwt>
<pdfrwt beam="2">  1       -3 0.18920575E-01 0.27591303E+03</pdfrwt>
<totfact> 0.10341844E+03</totfact>
</mgrwt>
</event>
<event>
 5    1  0.1132878E+001  0.2721202E+03  0.7818608E-02  0.1100072E+00
          1   -1    0    0  501    0  0.00000000000E+00  0.00000000000E+00  0.10845008762E+04  0.10845008762E+04  0.00000000000E+00 0.  1.
         -1   -1    0    0    0  501 -0.00000000000E+00 -0.00000000000E+00 -0.17069932976E+02  0.17069932976E+02  0.00000000000E+00 0.  1.
         35    2    1    2    0    0  0.00000000000E+00  0.00000000000E+00  0.10674309432E+04  0.11015708092E+04  0.27212024746E+03 0.  0.
         25    1    3    3    0    0 -0.11982176225E+02 -0.24263912957E+02  0.76906479136E+03  0.77884078176E+03  0.12000000000E+03 0.  0.
         25    1    3    3    0    0  0.11982176225E+02  0.24263912957E+02  0.29836615186E+03  0.32273002741E+03  0.12000000000E+03 0.  0.
<mgrwt>
<rscale>  0 0.27212025E+03</rscale>
<asrwt>0</asrwt>
<pdfrwt beam="1">  1        1 0.16684623E+00 0.27212025E+03</pdfrwt>
<pdfrwt beam="2">  1       -1 0.26261444E-02 0.27212025E+03</pdfrwt>
<totfact> 0.63543850E+03</totfact>
</mgrwt>
</event>
<event>
 5    1  0.1132878E+001  0.2744260E+03  0.7818608E-02  0.1098773E+00
          1   -1    0    0  501    0  0.00000000000E+00  0.00000000000E+00  0.58458684868E+03  0.58458684868E+03  0.00000000000E+00 0. -1.
         -1   -1    0    0    0  501 -0.00000000000E+00 -0.00000000000E+00 -0.32206358345E+02  0.32206358345E+02  0.00000000000E+00 0. -1.
         35    2    1    2    0    0  0.00000000000E+00  0.00000000000E+00  0.55238049034E+03  0.61679320703E+03  0.27442604492E+03 0.  0.
         25    1    3    3    0    0  0.25910115947E+02  0.14204301290E+02  0.14219408599E+03  0.18839388093E+03  0.12000000000E+03 0.  0.
         25    1    3    3    0    0 -0.25910115947E+02 -0.14204301290E+02  0.41018640435E+03  0.42839932609E+03  0.12000000000E+03 0.  0.
<mgrwt>
<rscale>  0 0.27442604E+03</rscale>
<asrwt>0</asrwt>
<pdfrwt beam="1">  1        1 0.89936431E-01 0.27442604E+03</pdfrwt>
<pdfrwt beam="2">  1       -1 0.49548248E-02 0.27442604E+03</pdfrwt>
<totfact> 0.64819419E+03</totfact>
</mgrwt>
</event>
<event>
 5    1  0.1132878E+001  0.2761213E+03  0.7818608E-02  0.1097826E+00
         -1   -1    0    0    0  501 -0.00000000000E+00  0.00000000000E+00  0.81263944098E+01  0.81263944098E+01  0.00000000000E+00 0. -1.
          1   -1    0    0  501    0  0.00000000000E+00 -0.00000000000E+00 -0.23455350716E+04  0.23455350716E+04  0.00000000000E+00 0. -1.
         35    2    1    2    0    0  0.00000000000E+00  0.00000000000E+00 -0.23374086772E+04  0.23536614660E+04  0.27612130011E+03 0.  0.
         25    1    3    3    0    0 -0.32873285750E+01 -0.92995943325E+00 -0.17499064876E+04  0.17540194944E+04  0.12000000000E+03 0.  0.
         25    1    3    3    0    0  0.32873285750E+01  0.92995943325E+00 -0.58750218952E+03  0.59964197155E+03  0.12000000000E+03 0.  0.
<mgrwt>
<rscale>  0 0.27612130E+03</rscale>
<asrwt>0</asrwt>
<pdfrwt beam="1">  1        1 0.36085175E+00 0.27612130E+03</pdfrwt>
<pdfrwt beam="2">  1       -1 0.12502138E-02 0.27612130E+03</pdfrwt>
<totfact> 0.27297227E+03</totfact>
</mgrwt>
</event>
<event>
 5    1  0.1132878E+001  0.2732936E+03  0.7818608E-02  0.1099409E+00
         -1   -1    0    0    0  501 -0.00000000000E+00  0.00000000000E+00  0.94071542392E+01  0.94071542392E+01  0.00000000000E+00 0. -1.
          1   -1    0    0  501    0  0.00000000000E+00 -0.00000000000E+00 -0.19849095075E+04  0.19849095075E+04  0.00000000000E+00 0. -1.
         35    2    1    2    0    0  0.00000000000E+00  0.00000000000E+00 -0.19755023532E+04  0.19943166617E+04  0.27329361418E+03 0.  0.
         25    1    3    3    0    0  0.52218712293E+01  0.61164384481E+02 -0.11515760761E+04  0.11594377124E+04  0.12000000000E+03 0.  0.
         25    1    3    3    0    0 -0.52218712293E+01 -0.61164384481E+02 -0.82392627710E+03  0.83487894929E+03  0.12000000000E+03 0.  0.
<mgrwt>
<rscale>  0 0.27329361E+03</rscale>
<asrwt>0</asrwt>
<pdfrwt beam="1">  1        1 0.30537067E+00 0.27329361E+03</pdfrwt>
<pdfrwt beam="2">  1       -1 0.14472546E-02 0.27329361E+03</pdfrwt>
<totfact> 0.37944391E+03</totfact>
</mgrwt>
</event>
<event>
 5    1  0.1132878E+001  0.2751799E+03  0.7818608E-02  0.1098351E+00
         -2   -1    0    0    0  501 -0.00000000000E+00  0.00000000000E+00  0.12355401912E+02  0.12355401912E+02  0.00000000000E+00 0. -1.
          2   -1    0    0  501    0  0.00000000000E+00 -0.00000000000E+00 -0.15322033413E+04  0.15322033413E+04  0.00000000000E+00 0. -1.
         35    2    1    2    0    0  0.00000000000E+00  0.00000000000E+00 -0.15198479394E+04  0.15445587432E+04  0.27517985459E+03 0.  0.
         25    1    3    3    0    0 -0.28412507980E+02 -0.60834922363E+02 -0.73310525635E+03  0.74588972059E+03  0.12000000000E+03 0.  0.
         25    1    3    3    0    0  0.28412507980E+02  0.60834922363E+02 -0.78674268307E+03  0.79866902266E+03  0.12000000000E+03 0.  0.
<mgrwt>
<rscale>  0 0.27517985E+03</rscale>
<asrwt>0</asrwt>
<pdfrwt beam="1">  1        2 0.23572358E+00 0.27517985E+03</pdfrwt>
<pdfrwt beam="2">  1       -2 0.19008312E-02 0.27517985E+03</pdfrwt>
<totfact> 0.10925975E+04</totfact>
</mgrwt>
</event>
<event>
 5    1  0.1132878E+001  0.2749516E+03  0.7818608E-02  0.1098479E+00
          2   -1    0    0  501    0  0.00000000000E+00  0.00000000000E+00  0.13343771970E+03  0.13343771970E+03  0.00000000000E+00 0. -1.
         -2   -1    0    0    0  501 -0.00000000000E+00 -0.00000000000E+00 -0.14163604298E+03  0.14163604298E+03  0.00000000000E+00 0. -1.
         35    2    1    2    0    0  0.00000000000E+00  0.00000000000E+00 -0.81983232814E+01  0.27507376268E+03  0.27495156375E+03 0.  0.
         25    1    3    3    0    0 -0.25099823665E+02 -0.28396077415E+02 -0.59470415000E+02  0.13918717118E+03  0.12000000000E+03 0.  0.
         25    1    3    3    0    0  0.25099823665E+02  0.28396077415E+02  0.51272091719E+02  0.13588659150E+03  0.12000000000E+03 0.  0.
<mgrwt>
<rscale>  0 0.27495156E+03</rscale>
<asrwt>0</asrwt>
<pdfrwt beam="1">  1        2 0.20528880E-01 0.27495156E+03</pdfrwt>
<pdfrwt beam="2">  1       -2 0.21790160E-01 0.27495156E+03</pdfrwt>
<totfact> 0.48474104E+03</totfact>
</mgrwt>
</event>
<event>
 5    1  0.1132878E+001  0.2752590E+03  0.7818608E-02  0.1098307E+00
          2   -1    0    0  501    0  0.00000000000E+00  0.00000000000E+00  0.16877620308E+04  0.16877620308E+04  0.00000000000E+00 0.  1.
         -2   -1    0    0    0  501 -0.00000000000E+00 -0.00000000000E+00 -0.11223076598E+02  0.11223076598E+02  0.00000000000E+00 0.  1.
         35    2    1    2    0    0  0.00000000000E+00  0.00000000000E+00  0.16765389542E+04  0.16989851074E+04  0.27525902384E+03 0.  0.
         25    1    3    3    0    0  0.78612050508E+01 -0.56972949677E+02  0.10551072678E+04  0.10634655904E+04  0.12000000000E+03 0.  0.
         25    1    3    3    0    0 -0.78612050508E+01  0.56972949677E+02  0.62143168646E+03  0.63551951700E+03  0.12000000000E+03 0.  0.
<mgrwt>
<rscale>  0 0.27525902E+03</rscale>
<asrwt>0</asrwt>
<pdfrwt beam="1">  1        2 0.25965550E+00 0.27525902E+03</pdfrwt>
<pdfrwt beam="2">  1       -2 0.17266285E-02 0.27525902E+03</pdfrwt>
<totfact> 0.10407316E+04</totfact>
</mgrwt>
</event>
<event>
 5    1  0.1132878E+001  0.2760685E+03  0.7818608E-02  0.1097856E+00
          2   -1    0    0  501    0  0.00000000000E+00  0.00000000000E+00  0.39586818342E+03  0.39586818342E+03  0.00000000000E+00 0. -1.
         -2   -1    0    0    0  501 -0.00000000000E+00 -0.00000000000E+00 -0.48130800803E+02  0.48130800803E+02  0.00000000000E+00 0. -1.
         35    2    1    2    0    0  0.00000000000E+00  0.00000000000E+00  0.34773738261E+03  0.44399898422E+03  0.27606848918E+03 0.  0.
         25    1    3    3    0    0 -0.21102195141E+01 -0.43862704636E+02  0.25782501151E+03  0.28775358633E+03  0.12000000000E+03 0.  0.
         25    1    3    3    0    0  0.21102195141E+01  0.43862704636E+02  0.89912371100E+02  0.15624539789E+03  0.12000000000E+03 0.  0.
<mgrwt>
<rscale>  0 0.27606849E+03</rscale>
<asrwt>0</asrwt>
<pdfrwt beam="1">  1        2 0.60902795E-01 0.27606849E+03</pdfrwt>
<pdfrwt beam="2">  1       -2 0.74047389E-02 0.27606849E+03</pdfrwt>
<totfact> 0.85635498E+03</totfact>
</mgrwt>
</event>
<event>
 5    1  0.1132878E+001  0.2750870E+03  0.7818608E-02  0.1098403E+00
          2   -1    0    0  501    0  0.00000000000E+00  0.00000000000E+00  0.44898470437E+03  0.44898470437E+03  0.00000000000E+00 0.  1.
         -2   -1    0    0    0  501 -0.00000000000E+00 -0.00000000000E+00 -0.42135556632E+02  0.42135556632E+02  0.00000000000E+00 0.  1.
         35    2    1    2    0    0  0.00000000000E+00  0.00000000000E+00  0.40684914774E+03  0.49112026100E+03  0.27508704395E+03 0.  0.
         25    1    3    3    0    0 -0.40596773645E+02 -0.47886671402E+02  0.16053995816E+03  0.21003406746E+03  0.12000000000E+03 0.  0.
         25    1    3    3    0    0  0.40596773645E+02  0.47886671402E+02  0.24630918958E+03  0.28108619354E+03  0.12000000000E+03 0.  0.
<mgrwt>
<rscale>  0 0.27508704E+03</rscale>
<asrwt>0</asrwt>
<pdfrwt beam="1">  1        2 0.69074567E-01 0.27508704E+03</pdfrwt>
<pdfrwt beam="2">  1       -2 0.64823936E-02 0.27508704E+03</pdfrwt>
<totfact> 0.91674892E+03</totfact>
</mgrwt>
</event>
<event>
 5    1  0.1132878E+001  0.2747767E+03  0.7818608E-02  0.1098576E+00
         -1   -1    0    0    0  501 -0.00000000000E+00  0.00000000000E+00  0.11674197586E+02  0.11674197586E+02  0.00000000000E+00 0. -1.
          1   -1    0    0  501    0  0.00000000000E+00 -0.00000000000E+00 -0.16168618416E+04  0.16168618416E+04  0.00000000000E+00 0. -1.
         35    2    1    2    0    0  0.00000000000E+00  0.00000000000E+00 -0.16051876440E+04  0.16285360392E+04  0.27477674290E+03 0.  0.
         25    1    3    3    0    0  0.59358472145E+01 -0.22061718814E+02 -0.11752551822E+04  0.11815865169E+04  0.12000000000E+03 0.  0.
         25    1    3    3    0    0 -0.59358472145E+01  0.22061718814E+02 -0.42993246185E+03  0.44694952229E+03  0.12000000000E+03 0.  0.
<mgrwt>
<rscale>  0 0.27477674E+03</rscale>
<asrwt>0</asrwt>
<pdfrwt beam="1">  1        1 0.24874787E+00 0.27477674E+03</pdfrwt>
<pdfrwt beam="2">  1       -1 0.17960311E-02 0.27477674E+03</pdfrwt>
<totfact> 0.48091159E+03</totfact>
</mgrwt>
</event>
<event>
 5    1  0.1132878E+001  0.2750994E+03  0.7818608E-02  0.1098396E+00
          2   -1    0    0  501    0  0.00000000000E+00  0.00000000000E+00  0.12656100401E+03  0.12656100401E+03  0.00000000000E+00 0. -1.
         -2   -1    0    0    0  501 -0.00000000000E+00 -0.00000000000E+00 -0.14949245643E+03  0.14949245643E+03  0.00000000000E+00 0. -1.
         35    2    1    2    0    0  0.00000000000E+00  0.00000000000E+00 -0.22931452428E+02  0.27605346044E+03  0.27509936661E+03 0.  0.
         25    1    3    3    0    0  0.20651845094E+02  0.39926818087E+02  0.38700315423E+02  0.13385949321E+03  0.12000000000E+03 0.  0.
         25    1    3    3    0    0 -0.20651845094E+02 -0.39926818087E+02 -0.61631767851E+02  0.14219396723E+03  0.12000000000E+03 0.  0.
<mgrwt>
<rscale>  0 0.27509937E+03</rscale>
<asrwt>0</asrwt>
<pdfrwt beam="1">  1        2 0.19470924E-01 0.27509937E+03</pdfrwt>
<pdfrwt beam="2">  1       -2 0.22998839E-01 0.27509937E+03</pdfrwt>
<totfact> 0.46893317E+03</totfact>
</mgrwt>
</event>
<event>
 5    1  0.1132878E+001  0.2753065E+03  0.7818608E-02  0.1098280E+00
          2   -1    0    0  501    0  0.00000000000E+00  0.00000000000E+00  0.10905313455E+02  0.10905313455E+02  0.00000000000E+00 0.  1.
         -2   -1    0    0    0  501 -0.00000000000E+00 -0.00000000000E+00 -0.17375399136E+04  0.17375399136E+04  0.00000000000E+00 0.  1.
         35    2    1    2    0    0  0.00000000000E+00  0.00000000000E+00 -0.17266346001E+04  0.17484452271E+04  0.27530650118E+03 0.  0.
         25    1    3    3    0    0 -0.19540367754E+01  0.20217580211E+02 -0.12717475314E+04  0.12775579644E+04  0.12000000000E+03 0.  0.
         25    1    3    3    0    0  0.19540367754E+01 -0.20217580211E+02 -0.45488706877E+03  0.47088726267E+03  0.12000000000E+03 0.  0.
<mgrwt>
<rscale>  0 0.27530650E+03</rscale>
<asrwt>0</asrwt>
<pdfrwt beam="1">  1        2 0.16777407E-02 0.27530650E+03</pdfrwt>
<pdfrwt beam="2">  1       -2 0.26731380E+00 0.27530650E+03</pdfrwt>
<totfact> 0.39699866E+02</totfact>
</mgrwt>
</event>
<event>
 5    1  0.1132878E+001  0.2776867E+03  0.7818608E-02  0.1096959E+00
         -1   -1    0    0    0  501 -0.00000000000E+00  0.00000000000E+00  0.25146530512E+02  0.25146530512E+02  0.00000000000E+00 0.  1.
          1   -1    0    0  501    0  0.00000000000E+00 -0.00000000000E+00 -0.76660576555E+03  0.76660576555E+03  0.00000000000E+00 0.  1.
         35    2    1    2    0    0  0.00000000000E+00  0.00000000000E+00 -0.74145923504E+03  0.79175229607E+03  0.27768669593E+03 0.  0.
         25    1    3    3    0    0 -0.51095716228E+01 -0.57240529179E+02 -0.48388084886E+03  0.50183987665E+03  0.12000000000E+03 0.  0.
         25    1    3    3    0    0  0.51095716228E+01  0.57240529179E+02 -0.25757838618E+03  0.28991241942E+03  0.12000000000E+03 0.  0.
<mgrwt>
<rscale>  0 0.27768670E+03</rscale>
<asrwt>0</asrwt>
<pdfrwt beam="1">  1        1 0.11793935E+00 0.27768670E+03</pdfrwt>
<pdfrwt beam="2">  1       -1 0.38686971E-02 0.27768670E+03</pdfrwt>
<totfact> 0.63481679E+03</totfact>
</mgrwt>
</event>
<event>
 5    1  0.1132878E+001  0.2749770E+03  0.7818608E-02  0.1098464E+00
          2   -1    0    0  501    0  0.00000000000E+00  0.00000000000E+00  0.66355258438E+02  0.66355258438E+02  0.00000000000E+00 0. -1.
         -2   -1    0    0    0  501 -0.00000000000E+00 -0.00000000000E+00 -0.28487708784E+03  0.28487708784E+03  0.00000000000E+00 0. -1.
         35    2    1    2    0    0  0.00000000000E+00  0.00000000000E+00 -0.21852182940E+03  0.35123234628E+03  0.27497703749E+03 0.  0.
         25    1    3    3    0    0  0.43229979389E+02  0.18865772220E+01 -0.17477488877E+03  0.21637618177E+03  0.12000000000E+03 0.  0.
         25    1    3    3    0    0 -0.43229979389E+02 -0.18865772220E+01 -0.43746940631E+02  0.13485616451E+03  0.12000000000E+03 0.  0.
<mgrwt>
<rscale>  0 0.27497704E+03</rscale>
<asrwt>0</asrwt>
<pdfrwt beam="1">  1        2 0.10208501E-01 0.27497704E+03</pdfrwt>
<pdfrwt beam="2">  1       -2 0.43827244E-01 0.27497704E+03</pdfrwt>
<totfact> 0.31025413E+03</totfact>
</mgrwt>
</event>
<event>
 5    1  0.1132878E+001  0.2758021E+03  0.7818608E-02  0.1098004E+00
          3   -1    0    0  501    0  0.00000000000E+00  0.00000000000E+00  0.58553336558E+02  0.58553336558E+02  0.00000000000E+00 0. -1.
         -3   -1    0    0    0  501 -0.00000000000E+00 -0.00000000000E+00 -0.32477559202E+03  0.32477559202E+03  0.00000000000E+00 0. -1.
         35    2    1    2    0    0  0.00000000000E+00  0.00000000000E+00 -0.26622225546E+03  0.38332892857E+03  0.27580206341E+03 0.  0.
         25    1    3    3    0    0  0.61238251364E+02  0.19924369838E+02 -0.10299259696E+03  0.17074711995E+03  0.12000000000E+03 0.  0.
         25    1    3    3    0    0 -0.61238251364E+02 -0.19924369838E+02 -0.16322965850E+03  0.21258180862E+03  0.12000000000E+03 0.  0.
<mgrwt>
<rscale>  0 0.27580206E+03</rscale>
<asrwt>0</asrwt>
<pdfrwt beam="1">  1        3 0.90082057E-02 0.27580206E+03</pdfrwt>
<pdfrwt beam="2">  1       -3 0.49965475E-01 0.27580206E+03</pdfrwt>
<totfact> 0.89265152E+02</totfact>
</mgrwt>
</event>
<event>
 5    1  0.1132878E+001  0.2749321E+03  0.7818608E-02  0.1098490E+00
          1   -1    0    0  501    0  0.00000000000E+00  0.00000000000E+00  0.28896758938E+02  0.28896758938E+02  0.00000000000E+00 0. -1.
         -1   -1    0    0    0  501 -0.00000000000E+00 -0.00000000000E+00 -0.65394606057E+03  0.65394606057E+03  0.00000000000E+00 0. -1.
         35    2    1    2    0    0  0.00000000000E+00  0.00000000000E+00 -0.62504930163E+03  0.68284281950E+03  0.27493214923E+03 0.  0.
         25    1    3    3    0    0 -0.20670193341E+02  0.47637971149E+02 -0.41790661071E+03  0.43788419527E+03  0.12000000000E+03 0.  0.
         25    1    3    3    0    0  0.20670193341E+02 -0.47637971149E+02 -0.20714269091E+03  0.24495862423E+03  0.12000000000E+03 0.  0.
<mgrwt>
<rscale>  0 0.27493215E+03</rscale>
<asrwt>0</asrwt>
<pdfrwt beam="1">  1        1 0.44456552E-02 0.27493215E+03</pdfrwt>
<pdfrwt beam="2">  1       -1 0.10060709E+00 0.27493215E+03</pdfrwt>
<totfact> 0.19481340E+03</totfact>
</mgrwt>
</event>
<event>
 5    1  0.1132878E+001  0.2741227E+03  0.7818608E-02  0.1098943E+00
         -1   -1    0    0    0  501 -0.00000000000E+00  0.00000000000E+00  0.44475635746E+03  0.44475635746E+03  0.00000000000E+00 0.  1.
          1   -1    0    0  501    0  0.00000000000E+00 -0.00000000000E+00 -0.42238438323E+02  0.42238438323E+02  0.00000000000E+00 0.  1.
         35    2    1    2    0    0  0.00000000000E+00  0.00000000000E+00  0.40251791913E+03  0.48699479578E+03  0.27412270226E+03 0.  0.
         25    1    3    3    0    0  0.12483767092E+02 -0.40354463400E+02  0.11064603858E+03  0.16860270760E+03  0.12000000000E+03 0.  0.
         25    1    3    3    0    0 -0.12483767092E+02  0.40354463400E+02  0.29187188055E+03  0.31839208818E+03  0.12000000000E+03 0.  0.
<mgrwt>
<rscale>  0 0.27412270E+03</rscale>
<asrwt>0</asrwt>
<pdfrwt beam="1">  1        1 0.64982216E-02 0.27412270E+03</pdfrwt>
<pdfrwt beam="2">  1       -1 0.68424052E-01 0.27412270E+03</pdfrwt>
<totfact> 0.25902416E+03</totfact>
</mgrwt>
</event>
