<event>
 9    1  0.8122655E-001  0.2741608E+03  0.7818608E-02  0.1098922E+00
          1   -1    0    0  501    0  0.00000000000E+00  0.00000000000E+00  0.41674991547E+02  0.41674991547E+02  0.00000000000E+00 0.  1.
         -1   -1    0    0    0  501 -0.00000000000E+00 -0.00000000000E+00 -0.45089476541E+03  0.45089476541E+03  0.00000000000E+00 0.  1.
         35    2    1    2    0    0  0.00000000000E+00  0.71054273576E-14 -0.40921977386E+03  0.49256975695E+03  0.27416079615E+03 0.  0.
         25    2    3    3    0    0  0.53171446401E+01  0.38945784749E+02 -0.15359458456E+03  0.20416813324E+03  0.12864013389E+03 0.  0.
         25    2    3    3    0    0 -0.53171446401E+01 -0.38945784749E+02 -0.25562518930E+03  0.28840162371E+03  0.12761744779E+03 0.  0.
          5    1    4    4  502    0 -0.22033384145E+02  0.28010498461E+02 -0.16746011681E+03  0.17127474643E+03  0.47000000000E+01 0.  1.
         -5    1    4    4    0  502  0.27350528785E+02  0.10935286287E+02  0.13865532256E+02  0.32893386808E+02  0.47000000000E+01 0.  1.
          5    1    5    5  503    0 -0.59983334766E+02  0.81448767774E+01 -0.10418537712E+03  0.12058616120E+03  0.47000000000E+01 0.  1.
         -5    1    5    5    0  503  0.54666190125E+02 -0.47090661526E+02 -0.15143981218E+03  0.16781546252E+03  0.47000000000E+01 0.  1.
<mgrwt>
<rscale>  0 0.27416080E+03</rscale>
<asrwt>0</asrwt>
<pdfrwt beam="1">  1        1 0.64115370E-02 0.27416080E+03</pdfrwt>
<pdfrwt beam="2">  1       -1 0.69368428E-01 0.27416080E+03</pdfrwt>
<totfact> 0.25674346E+03</totfact>
</mgrwt>
</event>
<event>
 9    1  0.8122655E-001  0.2673748E+03  0.7818608E-02  0.1102792E+00
         -2   -1    0    0    0  501 -0.00000000000E+00  0.00000000000E+00  0.10527228746E+02  0.10527228746E+02  0.00000000000E+00 0.  1.
          2   -1    0    0  501    0  0.00000000000E+00 -0.00000000000E+00 -0.16977232690E+04  0.16977232690E+04  0.00000000000E+00 0.  1.
         35    2    1    2    0    0 -0.17763568394E-14 -0.35527136788E-14 -0.16871960403E+04  0.17082504977E+04  0.26737480211E+03 0.  0.
         25    2    3    3    0    0 -0.72041045743E+01 -0.65708138646E+01 -0.10978235193E+04  0.11047402062E+04  0.12304214262E+03 0.  0.
         25    2    3    3    0    0  0.72041045743E+01  0.65708138646E+01 -0.58937252091E+03  0.60351029155E+03  0.12949760182E+03 0.  0.
          5    1    4    4  502    0 -0.23443689083E+02  0.16035214615E+02 -0.60169314394E+02  0.66702106865E+02  0.47000000000E+01 0. -1.
         -5    1    4    4    0  502  0.16239584509E+02 -0.22606028479E+02 -0.10376542049E+04  0.10380380993E+04  0.47000000000E+01 0. -1.
          5    1    5    5  503    0 -0.60132504276E+01 -0.40879642017E+02 -0.49685326567E+03  0.49859057544E+03  0.47000000000E+01 0. -1.
         -5    1    5    5    0  503  0.13217355002E+02  0.47450455882E+02 -0.92519255243E+02  0.10491971610E+03  0.47000000000E+01 0. -1.
<mgrwt>
<rscale>  0 0.26737480E+03</rscale>
<asrwt>0</asrwt>
<pdfrwt beam="1">  1        2 0.26118825E+00 0.26737480E+03</pdfrwt>
<pdfrwt beam="2">  1       -2 0.16195733E-02 0.26737480E+03</pdfrwt>
<totfact> 0.11287461E+04</totfact>
</mgrwt>
</event>
<event>
 9    1  0.8122655E-001  0.2747991E+03  0.7818608E-02  0.1098564E+00
          1   -1    0    0  501    0  0.00000000000E+00  0.00000000000E+00  0.43654837085E+03  0.43654837085E+03  0.00000000000E+00 0.  1.
         -1   -1    0    0    0  501 -0.00000000000E+00 -0.00000000000E+00 -0.43245247959E+02  0.43245247959E+02  0.00000000000E+00 0.  1.
         35    2    1    2    0    0  0.00000000000E+00  0.00000000000E+00  0.39330312289E+03  0.47979361880E+03  0.27479914515E+03 0.  0.
         25    2    3    3    0    0 -0.26137950591E+02 -0.48068301195E+02  0.16519435855E+03  0.21426988315E+03  0.12501460990E+03 0.  0.
         25    2    3    3    0    0  0.26137950591E+02  0.48068301195E+02  0.22810876434E+03  0.26552373565E+03  0.12440052969E+03 0.  0.
          5    1    4    4  502    0  0.15860063338E+02  0.84816526700E+01 -0.12944492717E+02  0.22652371460E+02  0.47000000000E+01 0.  1.
         -5    1    4    4    0  502 -0.41998013928E+02 -0.56549953865E+02  0.17813885127E+03  0.19161751169E+03  0.47000000000E+01 0.  1.
          5    1    5    5  503    0 -0.26577773698E+02  0.72435733757E+02  0.12075427470E+03  0.14337711965E+03  0.47000000000E+01 0. -1.
         -5    1    5    5    0  503  0.52715724288E+02 -0.24367432563E+02  0.10735448964E+03  0.12214661601E+03  0.47000000000E+01 0. -1.
<mgrwt>
<rscale>  0 0.27479915E+03</rscale>
<asrwt>0</asrwt>
<pdfrwt beam="1">  1        1 0.67161285E-01 0.27479915E+03</pdfrwt>
<pdfrwt beam="2">  1       -1 0.66531154E-02 0.27479915E+03</pdfrwt>
<totfact> 0.61392127E+03</totfact>
</mgrwt>
</event>
<event>
 9    1  0.8122655E-001  0.2609435E+03  0.7818608E-02  0.1106578E+00
         -2   -1    0    0    0  501 -0.00000000000E+00  0.00000000000E+00  0.78030371826E+02  0.78030371826E+02  0.00000000000E+00 0.  1.
          2   -1    0    0  501    0  0.00000000000E+00 -0.00000000000E+00 -0.21815709955E+03  0.21815709955E+03  0.00000000000E+00 0.  1.
         35    2    1    2    0    0  0.35527136788E-14  0.35527136788E-14 -0.14012672772E+03  0.29618747137E+03  0.26094351568E+03 0.  0.
         25    2    3    3    0    0 -0.77827800371E+01  0.20886711790E+02 -0.40840041596E+02  0.13424401341E+03  0.12592346781E+03 0.  0.
         25    2    3    3    0    0  0.77827800371E+01 -0.20886711790E+02 -0.99286686127E+02  0.16194345796E+03  0.12598020138E+03 0.  0.
          5    1    4    4  502    0 -0.14859730271E+02 -0.51847106014E+02 -0.23327424078E+02  0.58950765049E+02  0.47000000000E+01 0. -1.
         -5    1    4    4    0  502  0.70769502335E+01  0.72733817804E+02 -0.17512617518E+02  0.75293248364E+02  0.47000000000E+01 0. -1.
          5    1    5    5  503    0  0.66458377922E+02 -0.10300718457E+02 -0.44057212243E+02  0.80535388168E+02  0.47000000000E+01 0. -1.
         -5    1    5    5    0  503 -0.58675597885E+02 -0.10585993333E+02 -0.55229473884E+02  0.81408069793E+02  0.47000000000E+01 0. -1.
<mgrwt>
<rscale>  0 0.26094352E+03</rscale>
<asrwt>0</asrwt>
<pdfrwt beam="1">  1        2 0.33562630E-01 0.26094352E+03</pdfrwt>
<pdfrwt beam="2">  1       -2 0.12004673E-01 0.26094352E+03</pdfrwt>
<totfact> 0.75676051E+03</totfact>
</mgrwt>
</event>
<event>
 9    1  0.8122655E-001  0.2733223E+03  0.7818608E-02  0.1099393E+00
         -1   -1    0    0    0  501 -0.00000000000E+00  0.00000000000E+00  0.33855069221E+02  0.33855069221E+02  0.00000000000E+00 0.  1.
          1   -1    0    0  501    0  0.00000000000E+00 -0.00000000000E+00 -0.55165339501E+03  0.55165339501E+03  0.00000000000E+00 0.  1.
         35    2    1    2    0    0  0.00000000000E+00  0.71054273576E-14 -0.51779832579E+03  0.58550846423E+03  0.27332225576E+03 0.  0.
         25    2    3    3    0    0  0.41901247341E+02 -0.21453096275E+01 -0.32540285738E+03  0.35223683332E+03  0.12815400997E+03 0.  0.
         25    2    3    3    0    0 -0.41901247341E+02  0.21453096275E+01 -0.19239546840E+03  0.23327163091E+03  0.12505726946E+03 0.  0.
          5    1    4    4  502    0  0.61050867030E+02  0.41606194256E+02 -0.11757070046E+03  0.13893611256E+03  0.47000000000E+01 0.  1.
         -5    1    4    4    0  502 -0.19149619689E+02 -0.43751503883E+02 -0.20783215692E+03  0.21330072076E+03  0.47000000000E+01 0.  1.
          5    1    5    5  503    0 -0.49040970798E+02  0.57489250338E+02 -0.11684758701E+03  0.13923174678E+03  0.47000000000E+01 0.  1.
         -5    1    5    5    0  503  0.71397234574E+01 -0.55343940710E+02 -0.75547881390E+02  0.94039884128E+02  0.47000000000E+01 0.  1.
<mgrwt>
<rscale>  0 0.27332226E+03</rscale>
<asrwt>0</asrwt>
<pdfrwt beam="1">  1        1 0.84869756E-01 0.27332226E+03</pdfrwt>
<pdfrwt beam="2">  1       -1 0.52084720E-02 0.27332226E+03</pdfrwt>
<totfact> 0.65104760E+03</totfact>
</mgrwt>
</event>
<event>
 9    1  0.8122655E-001  0.2759485E+03  0.7818608E-02  0.1097923E+00
          1   -1    0    0  501    0  0.00000000000E+00  0.00000000000E+00  0.46215201140E+03  0.46215201140E+03  0.00000000000E+00 0.  1.
         -1   -1    0    0    0  501 -0.00000000000E+00 -0.00000000000E+00 -0.41191831837E+02  0.41191831837E+02  0.00000000000E+00 0.  1.
         35    2    1    2    0    0 -0.71054273576E-14  0.71054273576E-14  0.42096017956E+03  0.50334384324E+03  0.27594845850E+03 0.  0.
         25    2    3    3    0    0  0.56543257376E+01 -0.41383736710E+02  0.13432645856E+03  0.18802627355E+03  0.12476256254E+03 0.  0.
         25    2    3    3    0    0 -0.56543257376E+01  0.41383736710E+02  0.28663372100E+03  0.31531756969E+03  0.12458609342E+03 0.  0.
          5    1    4    4  502    0  0.51570757211E+02  0.40699496117E+00  0.15803779503E+02  0.54143864757E+02  0.47000000000E+01 0. -1.
         -5    1    4    4    0  502 -0.45916431474E+02 -0.41790731671E+02  0.11852267906E+03  0.13388240879E+03  0.47000000000E+01 0. -1.
          5    1    5    5  503    0  0.58211320742E+02  0.11498876989E+02  0.15254855829E+03  0.16374960968E+03  0.47000000000E+01 0.  1.
         -5    1    5    5    0  503 -0.63865646480E+02  0.29884859721E+02  0.13408516271E+03  0.15156796000E+03  0.47000000000E+01 0.  1.
<mgrwt>
<rscale>  0 0.27594846E+03</rscale>
<asrwt>0</asrwt>
<pdfrwt beam="1">  1        1 0.71100306E-01 0.27594846E+03</pdfrwt>
<pdfrwt beam="2">  1       -1 0.63372052E-02 0.27594846E+03</pdfrwt>
<totfact> 0.61359290E+03</totfact>
</mgrwt>
</event>
<event>
 9    1  0.8122655E-001  0.2733216E+03  0.7818608E-02  0.1099393E+00
          4   -1    0    0  501    0  0.00000000000E+00  0.00000000000E+00  0.77966794869E+03  0.77966794869E+03  0.00000000000E+00 0. -1.
         -4   -1    0    0    0  501 -0.00000000000E+00 -0.00000000000E+00 -0.23954016817E+02  0.23954016817E+02  0.00000000000E+00 0. -1.
         35    2    1    2    0    0  0.53290705182E-14 -0.14210854715E-13  0.75571393187E+03  0.80362196551E+03  0.27332163584E+03 0.  0.
         25    2    3    3    0    0 -0.19359150500E+01 -0.45236093507E+02  0.44320813861E+03  0.46259139584E+03  0.12452828372E+03 0.  0.
         25    2    3    3    0    0  0.19359150500E+01  0.45236093507E+02  0.31250579326E+03  0.34103056967E+03  0.12880965300E+03 0.  0.
          5    1    4    4  502    0  0.13968887152E+02  0.40065313338E+02  0.10380872784E+03  0.11224393577E+03  0.47000000000E+01 0. -1.
         -5    1    4    4    0  502 -0.15904802202E+02 -0.85301406844E+02  0.33939941077E+03  0.35034746007E+03  0.47000000000E+01 0. -1.
          5    1    5    5  503    0 -0.36417576045E+02 -0.97452951817E+01  0.23668705394E+03  0.23971662881E+03  0.47000000000E+01 0.  1.
         -5    1    5    5    0  503  0.38353491095E+02  0.54981388688E+02  0.75818739316E+02  0.10131394086E+03  0.47000000000E+01 0.  1.
<mgrwt>
<rscale>  0 0.27332164E+03</rscale>
<asrwt>0</asrwt>
<pdfrwt beam="1">  1        4 0.11994890E+00 0.27332164E+03</pdfrwt>
<pdfrwt beam="2">  1       -4 0.36852340E-02 0.27332164E+03</pdfrwt>
<totfact> 0.40356115E+02</totfact>
</mgrwt>
</event>
<event>
 9    1  0.8122655E-001  0.2882709E+03  0.7818608E-02  0.1091255E+00
         -1   -1    0    0    0  501 -0.00000000000E+00  0.00000000000E+00  0.45210740177E+02  0.45210740177E+02  0.00000000000E+00 0.  1.
          1   -1    0    0  501    0  0.00000000000E+00 -0.00000000000E+00 -0.45951536345E+03  0.45951536345E+03  0.00000000000E+00 0.  1.
         35    2    1    2    0    0  0.00000000000E+00  0.00000000000E+00 -0.41430462327E+03  0.50472610363E+03  0.28827091219E+03 0.  0.
         25    2    3    3    0    0 -0.57976640160E+02  0.18118341453E+01 -0.13377039847E+03  0.19224413322E+03  0.12529450787E+03 0.  0.
         25    2    3    3    0    0  0.57976640160E+02 -0.18118341453E+01 -0.28053422481E+03  0.31248197041E+03  0.12482370367E+03 0.  0.
          5    1    4    4  502    0  0.10161148126E+02  0.19123504765E+02  0.15592927533E+02  0.27095880772E+02  0.47000000000E+01 0.  1.
         -5    1    4    4    0  502 -0.68137788286E+02 -0.17311670620E+02 -0.14936332600E+03  0.16514825244E+03  0.47000000000E+01 0.  1.
          5    1    5    5  503    0  0.32693811825E+02  0.68901312282E+01 -0.28320010396E+03  0.28520299459E+03  0.47000000000E+01 0.  1.
         -5    1    5    5    0  503  0.25282828335E+02 -0.87019653735E+01  0.26658791572E+01  0.27278975818E+02  0.47000000000E+01 0.  1.
<mgrwt>
<rscale>  0 0.28827091E+03</rscale>
<asrwt>0</asrwt>
<pdfrwt beam="1">  1        1 0.70694673E-01 0.28827091E+03</pdfrwt>
<pdfrwt beam="2">  1       -1 0.69554984E-02 0.28827091E+03</pdfrwt>
<totfact> 0.53750966E+03</totfact>
</mgrwt>
</event>
<event>
 9    1  0.8122655E-001  0.2953678E+03  0.7818608E-02  0.1087579E+00
         -1   -1    0    0    0  501 -0.00000000000E+00  0.00000000000E+00  0.66107178673E+03  0.66107178673E+03  0.00000000000E+00 0.  1.
          1   -1    0    0  501    0  0.00000000000E+00 -0.00000000000E+00 -0.32992686905E+02  0.32992686905E+02  0.00000000000E+00 0.  1.
         35    2    1    2    0    0  0.00000000000E+00  0.71054273576E-14  0.62807909982E+03  0.69406447363E+03  0.29536780110E+03 0.  0.
         25    2    3    3    0    0  0.15723929576E+02  0.27412157291E+02  0.13577448748E+03  0.18541605115E+03  0.12225273921E+03 0.  0.
         25    2    3    3    0    0 -0.15723929576E+02 -0.27412157291E+02  0.49230461234E+03  0.50864842248E+03  0.12393836386E+03 0.  0.
          5    1    4    4  502    0  0.27532399034E+02  0.72874581309E+02  0.95746725263E+02  0.12352434172E+03  0.47000000000E+01 0. -1.
         -5    1    4    4    0  502 -0.11808469458E+02 -0.45462424018E+02  0.40027762221E+02  0.61891709436E+02  0.47000000000E+01 0. -1.
          5    1    5    5  503    0  0.41634891277E+02 -0.50487821144E+02  0.23597417484E+03  0.24492526503E+03  0.47000000000E+01 0.  1.
         -5    1    5    5    0  503 -0.57358820853E+02  0.23075663852E+02  0.25633043750E+03  0.26372315746E+03  0.47000000000E+01 0.  1.
<mgrwt>
<rscale>  0 0.29536780E+03</rscale>
<asrwt>0</asrwt>
<pdfrwt beam="1">  1        1 0.50757985E-02 0.29536780E+03</pdfrwt>
<pdfrwt beam="2">  1       -1 0.10170334E+00 0.29536780E+03</pdfrwt>
<totfact> 0.15833098E+03</totfact>
</mgrwt>
</event>
<event>
 9    1  0.8122655E-001  0.2730778E+03  0.7818608E-02  0.1099531E+00
         -2   -1    0    0    0  501 -0.00000000000E+00  0.00000000000E+00  0.17580959444E+02  0.17580959444E+02  0.00000000000E+00 0. -1.
          2   -1    0    0  501    0  0.00000000000E+00 -0.00000000000E+00 -0.10604014704E+04  0.10604014704E+04  0.00000000000E+00 0. -1.
         35    2    1    2    0    0  0.00000000000E+00  0.00000000000E+00 -0.10428205110E+04  0.10779824299E+04  0.27307782953E+03 0.  0.
         25    2    3    3    0    0  0.46885185939E+02  0.19176061642E+02 -0.43425911681E+03  0.45436963783E+03  0.12371275298E+03 0.  0.
         25    2    3    3    0    0 -0.46885185939E+02 -0.19176061642E+02 -0.60856139415E+03  0.62361279202E+03  0.12641203233E+03 0.  0.
          5    1    4    4  502    0  0.27226375899E+02  0.74194504319E+01 -0.11290742978E+02  0.30755400604E+02  0.47000000000E+01 0.  1.
         -5    1    4    4    0  502  0.19658810040E+02  0.11756611210E+02 -0.42296837383E+03  0.42361423723E+03  0.47000000000E+01 0.  1.
          5    1    5    5  503    0  0.35860087786E+01 -0.52893383701E+02 -0.45989077305E+03  0.46296023872E+03  0.47000000000E+01 0. -1.
         -5    1    5    5    0  503 -0.50471194718E+02  0.33717322058E+02 -0.14867062110E+03  0.16065255330E+03  0.47000000000E+01 0. -1.
<mgrwt>
<rscale>  0 0.27307783E+03</rscale>
<asrwt>0</asrwt>
<pdfrwt beam="1">  1        2 0.16313871E+00 0.27307783E+03</pdfrwt>
<pdfrwt beam="2">  1       -2 0.27047627E-02 0.27307783E+03</pdfrwt>
<totfact> 0.11896048E+04</totfact>
</mgrwt>
</event>
<event>
 9    1  0.8122655E-001  0.2731164E+03  0.7818608E-02  0.1099509E+00
         -2   -1    0    0    0  501 -0.00000000000E+00  0.00000000000E+00  0.14297876172E+03  0.14297876172E+03  0.00000000000E+00 0. -1.
          2   -1    0    0  501    0  0.00000000000E+00 -0.00000000000E+00 -0.13042595933E+03  0.13042595933E+03  0.00000000000E+00 0. -1.
         35    2    1    2    0    0  0.00000000000E+00 -0.26645352591E-14  0.12552802385E+02  0.27340472105E+03  0.27311640127E+03 0.  0.
         25    2    3    3    0    0 -0.25284858470E+01 -0.12738596701E+01 -0.47028333738E+02  0.13382182349E+03  0.12525414288E+03 0.  0.
         25    2    3    3    0    0  0.25284858470E+01  0.12738596701E+01  0.59581136123E+02  0.13958289756E+03  0.12619610751E+03 0.  0.
          5    1    4    4  502    0 -0.28052977700E+02 -0.56961783145E+01  0.36280473675E+02  0.46451897435E+02  0.47000000000E+01 0. -1.
         -5    1    4    4    0  502  0.25524491853E+02  0.44223186444E+01 -0.83308807413E+02  0.87369926057E+02  0.47000000000E+01 0. -1.
          5    1    5    5  503    0  0.12958286529E+02  0.62211244528E+02  0.36436058535E+02  0.73401856223E+02  0.47000000000E+01 0. -1.
         -5    1    5    5    0  503 -0.10429800682E+02 -0.60937384858E+02  0.23145077588E+02  0.66181041335E+02  0.47000000000E+01 0. -1.
<mgrwt>
<rscale>  0 0.27311640E+03</rscale>
<asrwt>0</asrwt>
<pdfrwt beam="1">  1        2 0.20065532E-01 0.27311640E+03</pdfrwt>
<pdfrwt beam="2">  1       -2 0.21996733E-01 0.27311640E+03</pdfrwt>
<totfact> 0.48938072E+03</totfact>
</mgrwt>
</event>
<event>
 9    1  0.8122655E-001  0.2788264E+03  0.7818608E-02  0.1096332E+00
          1   -1    0    0  501    0  0.00000000000E+00  0.00000000000E+00  0.10710076793E+04  0.10710076793E+04  0.00000000000E+00 0. -1.
         -1   -1    0    0    0  501 -0.00000000000E+00 -0.00000000000E+00 -0.18147429681E+02  0.18147429681E+02  0.00000000000E+00 0. -1.
         35    2    1    2    0    0  0.00000000000E+00  0.00000000000E+00  0.10528602496E+04  0.10891551090E+04  0.27882637284E+03 0.  0.
         25    2    3    3    0    0 -0.41523891779E+02  0.19436635813E+02  0.36829387145E+03  0.39186242901E+03  0.12575281755E+03 0.  0.
         25    2    3    3    0    0  0.41523891779E+02 -0.19436635813E+02  0.68456637817E+03  0.69729267997E+03  0.12443447683E+03 0.  0.
          5    1    4    4  502    0 -0.45756105171E+02 -0.25328608345E+02  0.32517416415E+03  0.32938653068E+03  0.47000000000E+01 0. -1.
         -5    1    4    4    0  502  0.42322133918E+01  0.44765244158E+02  0.43119707303E+02  0.62475898334E+02  0.47000000000E+01 0. -1.
          5    1    5    5  503    0 -0.35530925933E+02  0.29709769008E+01  0.84059691859E+02  0.91429728190E+02  0.47000000000E+01 0.  1.
         -5    1    5    5    0  503  0.77054817712E+02 -0.22407612714E+02  0.60050668631E+03  0.60586295178E+03  0.47000000000E+01 0.  1.
<mgrwt>
<rscale>  0 0.27882637E+03</rscale>
<asrwt>0</asrwt>
<pdfrwt beam="1">  1        1 0.16477036E+00 0.27882637E+03</pdfrwt>
<pdfrwt beam="2">  1       -1 0.27919131E-02 0.27882637E+03</pdfrwt>
<totfact> 0.59422350E+03</totfact>
</mgrwt>
</event>
<event>
 9    1  0.8122655E-001  0.2759342E+03  0.7818608E-02  0.1097931E+00
         -1   -1    0    0    0  501 -0.00000000000E+00  0.00000000000E+00  0.27287832206E+02  0.27287832206E+02  0.00000000000E+00 0. -1.
          1   -1    0    0  501    0  0.00000000000E+00 -0.00000000000E+00 -0.69756089715E+03  0.69756089715E+03  0.00000000000E+00 0. -1.
         35    2    1    2    0    0 -0.71054273576E-14  0.00000000000E+00 -0.67027306494E+03  0.72484872936E+03  0.27593422923E+03 0.  0.
         25    2    3    3    0    0 -0.20015847836E+02  0.51289501156E+02 -0.30291134620E+03  0.33287503336E+03  0.12656720381E+03 0.  0.
         25    2    3    3    0    0  0.20015847836E+02 -0.51289501156E+02 -0.36736171874E+03  0.39197369600E+03  0.12512992793E+03 0.  0.
          5    1    4    4  502    0  0.35559630538E+02  0.12845945235E+02 -0.23085320315E+03  0.23397606082E+03  0.47000000000E+01 0. -1.
         -5    1    4    4    0  502 -0.55575478374E+02  0.38443555921E+02 -0.72058143051E+02  0.98898972534E+02  0.47000000000E+01 0. -1.
          5    1    5    5  503    0 -0.42719267452E+02 -0.56167765934E+02 -0.15373117074E+03  0.16921913780E+03  0.47000000000E+01 0. -1.
         -5    1    5    5    0  503  0.62735115288E+02  0.48782647782E+01 -0.21363054800E+03  0.22275455820E+03  0.47000000000E+01 0. -1.
<mgrwt>
<rscale>  0 0.27593423E+03</rscale>
<asrwt>0</asrwt>
<pdfrwt beam="1">  1        1 0.10731706E+00 0.27593423E+03</pdfrwt>
<pdfrwt beam="2">  1       -1 0.41981279E-02 0.27593423E+03</pdfrwt>
<totfact> 0.64654941E+03</totfact>
</mgrwt>
</event>
<event>
 9    1  0.8122655E-001  0.2804539E+03  0.7818608E-02  0.1095441E+00
          2   -1    0    0  501    0  0.00000000000E+00  0.00000000000E+00  0.11770333964E+04  0.11770333964E+04  0.00000000000E+00 0.  1.
         -2   -1    0    0    0  501 -0.00000000000E+00 -0.00000000000E+00 -0.16706070490E+02  0.16706070490E+02  0.00000000000E+00 0.  1.
         35    2    1    2    0    0  0.00000000000E+00  0.00000000000E+00  0.11603273259E+04  0.11937394669E+04  0.28045393838E+03 0.  0.
         25    2    3    3    0    0  0.48286431503E+02 -0.31908716998E+02  0.69259644453E+03  0.70617502125E+03  0.12507429782E+03 0.  0.
         25    2    3    3    0    0 -0.48286431503E+02  0.31908716998E+02  0.46773088134E+03  0.48756444560E+03  0.12488861263E+03 0.  0.
          5    1    4    4  502    0 -0.31135289336E+02  0.18570335252E+02  0.30995671806E+03  0.31210498341E+03  0.47000000000E+01 0.  1.
         -5    1    4    4    0  502  0.79421720840E+02 -0.50479052250E+02  0.38263972647E+03  0.39407003785E+03  0.47000000000E+01 0.  1.
          5    1    5    5  503    0  0.40923155856E+02  0.52894495325E+00  0.18003900639E+03  0.18469195513E+03  0.47000000000E+01 0.  1.
         -5    1    5    5    0  503 -0.89209587359E+02  0.31379772045E+02  0.28769187495E+03  0.30287249047E+03  0.47000000000E+01 0.  1.
<mgrwt>
<rscale>  0 0.28045394E+03</rscale>
<asrwt>0</asrwt>
<pdfrwt beam="1">  1        2 0.18108200E+00 0.28045394E+03</pdfrwt>
<pdfrwt beam="2">  1       -2 0.25701656E-02 0.28045394E+03</pdfrwt>
<totfact> 0.10977449E+04</totfact>
</mgrwt>
</event>
<event>
 9    1  0.8122655E-001  0.2770135E+03  0.7818608E-02  0.1097331E+00
         -1   -1    0    0    0  501 -0.00000000000E+00  0.00000000000E+00  0.38217945788E+02  0.38217945788E+02  0.00000000000E+00 0. -1.
          1   -1    0    0  501    0  0.00000000000E+00 -0.00000000000E+00 -0.50196616771E+03  0.50196616771E+03  0.00000000000E+00 0. -1.
         35    2    1    2    0    0  0.71054273576E-14 -0.35527136788E-14 -0.46374822192E+03  0.54018411350E+03  0.27701347104E+03 0.  0.
         25    2    3    3    0    0  0.31023629651E+02  0.14436290765E+02 -0.30843550275E+03  0.33451387287E+03  0.12488474566E+03 0.  0.
         25    2    3    3    0    0 -0.31023629651E+02 -0.14436290765E+02 -0.15531271917E+03  0.20567024063E+03  0.13041217372E+03 0.  0.
          5    1    4    4  502    0  0.79484443769E+02  0.13474783515E+02 -0.18864041483E+03  0.20519903191E+03  0.47000000000E+01 0.  1.
         -5    1    4    4    0  502 -0.48460814118E+02  0.96150724966E+00 -0.11979508792E+03  0.12931484096E+03  0.47000000000E+01 0.  1.
          5    1    5    5  503    0 -0.37250960807E+02 -0.41550684487E+02 -0.90708404038E+01  0.56731504545E+02  0.47000000000E+01 0. -1.
         -5    1    5    5    0  503  0.62273311563E+01  0.27114393722E+02 -0.14624187877E+03  0.14893873608E+03  0.47000000000E+01 0. -1.
<mgrwt>
<rscale>  0 0.27701347E+03</rscale>
<asrwt>0</asrwt>
<pdfrwt beam="1">  1        1 0.77225557E-01 0.27701347E+03</pdfrwt>
<pdfrwt beam="2">  1       -1 0.58796845E-02 0.27701347E+03</pdfrwt>
<totfact> 0.61617666E+03</totfact>
</mgrwt>
</event>
<event>
 9    1  0.8122655E-001  0.2713787E+03  0.7818608E-02  0.1100493E+00
          1   -1    0    0  501    0  0.00000000000E+00  0.00000000000E+00  0.10555732977E+04  0.10555732977E+04  0.00000000000E+00 0.  1.
         -1   -1    0    0    0  501 -0.00000000000E+00 -0.00000000000E+00 -0.17442280019E+02  0.17442280019E+02  0.00000000000E+00 0.  1.
         35    2    1    2    0    0  0.35527136788E-14  0.00000000000E+00  0.10381310177E+04  0.10730155777E+04  0.27137873932E+03 0.  0.
         25    2    3    3    0    0  0.21489698882E+02 -0.47028654704E+02  0.47384014025E+03  0.49282051904E+03  0.12519618185E+03 0.  0.
         25    2    3    3    0    0 -0.21489698882E+02  0.47028654704E+02  0.56429087746E+03  0.58019505871E+03  0.12461384452E+03 0.  0.
          5    1    4    4  502    0 -0.21609226288E+02  0.33892687100E+02  0.10011592447E+03  0.10798593072E+03  0.47000000000E+01 0.  1.
         -5    1    4    4    0  502  0.43098925169E+02 -0.80921341805E+02  0.37372421578E+03  0.38483458832E+03  0.47000000000E+01 0.  1.
          5    1    5    5  503    0 -0.47164365846E+02  0.20287324496E+02  0.51865809484E+03  0.52121431511E+03  0.47000000000E+01 0. -1.
         -5    1    5    5    0  503  0.25674666964E+02  0.26741330208E+02  0.45632782619E+02  0.58980743591E+02  0.47000000000E+01 0. -1.
<mgrwt>
<rscale>  0 0.27137874E+03</rscale>
<asrwt>0</asrwt>
<pdfrwt beam="1">  1        1 0.16239584E+00 0.27137874E+03</pdfrwt>
<pdfrwt beam="2">  1       -1 0.26834285E-02 0.27137874E+03</pdfrwt>
<totfact> 0.64614352E+03</totfact>
</mgrwt>
</event>
<event>
 9    1  0.8122655E-001  0.2739604E+03  0.7818608E-02  0.1099034E+00
          2   -1    0    0  501    0  0.00000000000E+00  0.00000000000E+00  0.94675640568E+03  0.94675640568E+03  0.00000000000E+00 0. -1.
         -2   -1    0    0    0  501 -0.00000000000E+00 -0.00000000000E+00 -0.19818796031E+02  0.19818796031E+02  0.00000000000E+00 0. -1.
         35    2    1    2    0    0 -0.17763568394E-14  0.71054273576E-14  0.92693760965E+03  0.96657520171E+03  0.27396037739E+03 0.  0.
         25    2    3    3    0    0 -0.71840002227E+00 -0.44061359901E+02  0.57944579900E+03  0.59444220957E+03  0.12514865960E+03 0.  0.
         25    2    3    3    0    0  0.71840002227E+00  0.44061359901E+02  0.34749181064E+03  0.37213299214E+03  0.12566019990E+03 0.  0.
          5    1    4    4  502    0 -0.43100981338E+02 -0.34793864723E+02  0.11274114483E+03  0.12570188285E+03  0.47000000000E+01 0.  1.
         -5    1    4    4    0  502  0.42382581316E+02 -0.92674951781E+01  0.46670465417E+03  0.46874032671E+03  0.47000000000E+01 0.  1.
          5    1    5    5  503    0 -0.87987307625E+01  0.84953769171E+02  0.17844569991E+03  0.19788764078E+03  0.47000000000E+01 0. -1.
         -5    1    5    5    0  503  0.95171307848E+01 -0.40892409270E+02  0.16904611074E+03  0.17424535136E+03  0.47000000000E+01 0. -1.
<mgrwt>
<rscale>  0 0.27396038E+03</rscale>
<asrwt>0</asrwt>
<pdfrwt beam="1">  1        2 0.14565480E+00 0.27396038E+03</pdfrwt>
<pdfrwt beam="2">  1       -2 0.30490463E-02 0.27396038E+03</pdfrwt>
<totfact> 0.11685860E+04</totfact>
</mgrwt>
</event>
<event>
 9    1  0.8122655E-001  0.2709783E+03  0.7818608E-02  0.1100721E+00
          2   -1    0    0  501    0  0.00000000000E+00  0.00000000000E+00  0.23048825667E+04  0.23048825667E+04  0.00000000000E+00 0.  1.
         -2   -1    0    0    0  501 -0.00000000000E+00 -0.00000000000E+00 -0.79645303233E+01  0.79645303233E+01  0.00000000000E+00 0.  1.
         35    2    1    2    0    0  0.35527136788E-14  0.00000000000E+00  0.22969180364E+04  0.23128470971E+04  0.27097828027E+03 0.  0.
         25    2    3    3    0    0 -0.25220519205E+02 -0.19722357168E+02  0.15035411267E+04  0.15090819096E+04  0.12516886265E+03 0.  0.
         25    2    3    3    0    0  0.25220519205E+02  0.19722357168E+02  0.79337690972E+03  0.80376518749E+03  0.12476581976E+03 0.  0.
          5    1    4    4  502    0 -0.42679437371E+02 -0.51966408139E+02  0.13270395267E+04  0.13287505550E+04  0.47000000000E+01 0. -1.
         -5    1    4    4    0  502  0.17458918166E+02  0.32244050971E+02  0.17650159997E+03  0.18033135456E+03  0.47000000000E+01 0. -1.
          5    1    5    5  503    0 -0.28934485466E+02 -0.16179397011E+02  0.71461679444E+02  0.78916658354E+02  0.47000000000E+01 0. -1.
         -5    1    5    5    0  503  0.54155004670E+02  0.35901754180E+02  0.72191523027E+03  0.72484852913E+03  0.47000000000E+01 0. -1.
<mgrwt>
<rscale>  0 0.27097828E+03</rscale>
<asrwt>0</asrwt>
<pdfrwt beam="1">  1        2 0.35459679E+00 0.27097828E+03</pdfrwt>
<pdfrwt beam="2">  1       -2 0.12253142E-02 0.27097828E+03</pdfrwt>
<totfact> 0.81146640E+03</totfact>
</mgrwt>
</event>
<event>
 9    1  0.8122655E-001  0.2758469E+03  0.7818608E-02  0.1097979E+00
         -1   -1    0    0    0  501 -0.00000000000E+00  0.00000000000E+00  0.12324949965E+03  0.12324949965E+03  0.00000000000E+00 0.  1.
          1   -1    0    0  501    0  0.00000000000E+00 -0.00000000000E+00 -0.15434447327E+03  0.15434447327E+03  0.00000000000E+00 0.  1.
         35    2    1    2    0    0  0.00000000000E+00  0.00000000000E+00 -0.31094973624E+02  0.27759397292E+03  0.27584690757E+03 0.  0.
         25    2    3    3    0    0  0.32593949870E+02  0.10632121369E+02 -0.58938085780E+02  0.14485674190E+03  0.12780598635E+03 0.  0.
         25    2    3    3    0    0 -0.32593949870E+02 -0.10632121369E+02  0.27843112155E+02  0.13273723102E+03  0.12517398304E+03 0.  0.
          5    1    4    4  502    0  0.86530348594E+01  0.19745981583E+02 -0.96588086273E+02  0.99076370597E+02  0.47000000000E+01 0. -1.
         -5    1    4    4    0  502  0.23940915010E+02 -0.91138602139E+01  0.37650000493E+02  0.45780371303E+02  0.47000000000E+01 0. -1.
          5    1    5    5  503    0  0.39460410049E+02 -0.20228628590E+02 -0.16399368454E+02  0.47511584498E+02  0.47000000000E+01 0.  1.
         -5    1    5    5    0  503 -0.72054359919E+02  0.95965072215E+01  0.44242480609E+02  0.85225646519E+02  0.47000000000E+01 0.  1.
<mgrwt>
<rscale>  0 0.27584691E+03</rscale>
<asrwt>0</asrwt>
<pdfrwt beam="1">  1        1 0.23745303E-01 0.27584691E+03</pdfrwt>
<pdfrwt beam="2">  1       -1 0.18961462E-01 0.27584691E+03</pdfrwt>
<totfact> 0.44700313E+03</totfact>
</mgrwt>
</event>
<event>
 9    1  0.8122655E-001  0.2747493E+03  0.7818608E-02  0.1098592E+00
         -2   -1    0    0    0  501 -0.00000000000E+00  0.00000000000E+00  0.12610298321E+02  0.12610298321E+02  0.00000000000E+00 0. -1.
          2   -1    0    0  501    0  0.00000000000E+00 -0.00000000000E+00 -0.14965383786E+04  0.14965383786E+04  0.00000000000E+00 0. -1.
         35    2    1    2    0    0 -0.71054273576E-14  0.00000000000E+00 -0.14839280802E+04  0.15091486769E+04  0.27474930684E+03 0.  0.
         25    2    3    3    0    0  0.48502637459E+02  0.12571438061E+02 -0.59451006607E+03  0.60950284853E+03  0.12466337397E+03 0.  0.
         25    2    3    3    0    0 -0.48502637459E+02 -0.12571438061E+02 -0.88941801418E+03  0.89964582836E+03  0.12564897790E+03 0.  0.
          5    1    4    4  502    0  0.47789403380E+02  0.26555509306E+02 -0.94513788950E+02  0.10928846440E+03  0.47000000000E+01 0. -1.
         -5    1    4    4    0  502  0.71323407934E+00 -0.13984071245E+02 -0.49999627712E+03  0.50021438413E+03  0.47000000000E+01 0. -1.
          5    1    5    5  503    0 -0.54805049864E+02  0.13345276228E+02 -0.84964012299E+03  0.85152341042E+03  0.47000000000E+01 0.  1.
         -5    1    5    5    0  503  0.63024124045E+01 -0.25916714290E+02 -0.39777891183E+02  0.48122417943E+02  0.47000000000E+01 0.  1.
<mgrwt>
<rscale>  0 0.27474931E+03</rscale>
<asrwt>0</asrwt>
<pdfrwt beam="1">  1        2 0.23023672E+00 0.27474931E+03</pdfrwt>
<pdfrwt beam="2">  1       -2 0.19400455E-02 0.27474931E+03</pdfrwt>
<totfact> 0.11078213E+04</totfact>
</mgrwt>
</event>
<event>
 9    1  0.8122655E-001  0.2867587E+03  0.7818608E-02  0.1092054E+00
          2   -1    0    0  501    0  0.00000000000E+00  0.00000000000E+00  0.15180325674E+03  0.15180325674E+03  0.00000000000E+00 0. -1.
         -2   -1    0    0    0  501 -0.00000000000E+00 -0.00000000000E+00 -0.13542288394E+03  0.13542288394E+03  0.00000000000E+00 0. -1.
         35    2    1    2    0    0 -0.35527136788E-14 -0.44408920985E-14  0.16380372798E+02  0.28722614068E+03  0.28675867778E+03 0.  0.
         25    2    3    3    0    0  0.23769713963E+02  0.79148190898E+01  0.71003674319E+02  0.14645119804E+03  0.12561364566E+03 0.  0.
         25    2    3    3    0    0 -0.23769713963E+02 -0.79148190898E+01 -0.54623301521E+02  0.14077494265E+03  0.12730371458E+03 0.  0.
          5    1    4    4  502    0 -0.56233986878E+01  0.96852726388E+01 -0.34625409687E+02  0.36693815758E+02  0.47000000000E+01 0. -1.
         -5    1    4    4    0  502  0.29393112650E+02 -0.17704535490E+01  0.10562908401E+03  0.10975738228E+03  0.47000000000E+01 0. -1.
          5    1    5    5  503    0 -0.63386635921E+02 -0.32749201283E+02 -0.60177651550E+02  0.93454885074E+02  0.47000000000E+01 0. -1.
         -5    1    5    5    0  503  0.39616921959E+02  0.24834382193E+02  0.55543500285E+01  0.47320057572E+02  0.47000000000E+01 0. -1.
<mgrwt>
<rscale>  0 0.28675868E+03</rscale>
<asrwt>0</asrwt>
<pdfrwt beam="1">  1        2 0.23354347E-01 0.28675868E+03</pdfrwt>
<pdfrwt beam="2">  1       -2 0.20834290E-01 0.28675868E+03</pdfrwt>
<totfact> 0.45311220E+03</totfact>
</mgrwt>
</event>
<event>
 9    1  0.8122655E-001  0.2827924E+03  0.7818608E-02  0.1094173E+00
          4   -1    0    0  501    0  0.00000000000E+00  0.00000000000E+00  0.26341600570E+03  0.26341600570E+03  0.00000000000E+00 0.  1.
         -4   -1    0    0    0  501 -0.00000000000E+00 -0.00000000000E+00 -0.75898520619E+02  0.75898520619E+02  0.00000000000E+00 0.  1.
         35    2    1    2    0    0 -0.71054273576E-14 -0.14210854715E-13  0.18751748508E+03  0.33931452631E+03  0.28279239834E+03 0.  0.
         25    2    3    3    0    0  0.51644150755E+02  0.39781159099E+02  0.73261341902E+02  0.15826922354E+03  0.12422666371E+03 0.  0.
         25    2    3    3    0    0 -0.51644150755E+02 -0.39781159099E+02  0.11425614317E+03  0.18104530277E+03  0.12439162543E+03 0.  0.
          5    1    4    4  502    0 -0.25784690674E+02 -0.14465888133E+02  0.53894426512E+02  0.61650721016E+02  0.47000000000E+01 0.  1.
         -5    1    4    4    0  502  0.77428841429E+02  0.54247047233E+02  0.19366915390E+02  0.96618502525E+02  0.47000000000E+01 0.  1.
          5    1    5    5  503    0 -0.15673323289E+02 -0.70528526355E+02  0.11209263437E+03  0.13344202776E+03  0.47000000000E+01 0. -1.
         -5    1    5    5    0  503 -0.35970827465E+02  0.30747367255E+02  0.21635088052E+01  0.47603275014E+02  0.47000000000E+01 0. -1.
<mgrwt>
<rscale>  0 0.28279240E+03</rscale>
<asrwt>0</asrwt>
<pdfrwt beam="1">  1        4 0.40525539E-01 0.28279240E+03</pdfrwt>
<pdfrwt beam="2">  1       -4 0.11676696E-01 0.28279240E+03</pdfrwt>
<totfact> 0.64952745E+02</totfact>
</mgrwt>
</event>
<event>
 9    1  0.8122655E-001  0.2908466E+03  0.7818608E-02  0.1089908E+00
         -2   -1    0    0    0  501 -0.00000000000E+00  0.00000000000E+00  0.11468256407E+03  0.11468256407E+03  0.00000000000E+00 0. -1.
          2   -1    0    0  501    0  0.00000000000E+00 -0.00000000000E+00 -0.18440404824E+03  0.18440404824E+03  0.00000000000E+00 0. -1.
         35    2    1    2    0    0 -0.35527136788E-14 -0.35527136788E-14 -0.69721484169E+02  0.29908661232E+03  0.29084655114E+03 0.  0.
         25    2    3    3    0    0  0.10067276893E+02  0.27195905744E+02  0.35884346782E+02  0.13308491117E+03  0.12483164616E+03 0.  0.
         25    2    3    3    0    0 -0.10067276893E+02 -0.27195905744E+02 -0.10560583095E+03  0.16600170115E+03  0.12475177714E+03 0.  0.
          5    1    4    4  502    0  0.27261344994E+02  0.83135620307E+01 -0.42006530303E+02  0.50979749240E+02  0.47000000000E+01 0. -1.
         -5    1    4    4    0  502 -0.17194068101E+02  0.18882343713E+02  0.77890877085E+02  0.82105161926E+02  0.47000000000E+01 0. -1.
          5    1    5    5  503    0  0.26898835189E+02 -0.63705305050E+02 -0.33444519831E+02  0.76958034882E+02  0.47000000000E+01 0. -1.
         -5    1    5    5    0  503 -0.36966112082E+02  0.36509399306E+02 -0.72161311120E+02  0.89043666269E+02  0.47000000000E+01 0. -1.
<mgrwt>
<rscale>  0 0.29084655E+03</rscale>
<asrwt>0</asrwt>
<pdfrwt beam="1">  1        2 0.28369854E-01 0.29084655E+03</pdfrwt>
<pdfrwt beam="2">  1       -2 0.17643471E-01 0.29084655E+03</pdfrwt>
<totfact> 0.48424975E+03</totfact>
</mgrwt>
</event>
<event>
 9    1  0.8122655E-001  0.2742599E+03  0.7818608E-02  0.1098866E+00
          4   -1    0    0  501    0  0.00000000000E+00  0.00000000000E+00  0.12765756449E+03  0.12765756449E+03  0.00000000000E+00 0.  1.
         -4   -1    0    0    0  501 -0.00000000000E+00 -0.00000000000E+00 -0.14730516223E+03  0.14730516223E+03  0.00000000000E+00 0.  1.
         35    2    1    2    0    0 -0.35527136788E-14  0.00000000000E+00 -0.19647597747E+02  0.27496272672E+03  0.27425986398E+03 0.  0.
         25    2    3    3    0    0  0.26877060292E+02 -0.44761276080E+01 -0.56067919120E+02  0.13991709560E+03  0.12526280373E+03 0.  0.
         25    2    3    3    0    0 -0.26877060292E+02  0.44761276080E+01  0.36420321373E+02  0.13504563112E+03  0.12715530106E+03 0.  0.
          5    1    4    4  502    0  0.32900871033E+02  0.56851681420E+02 -0.35307734295E+02  0.74721530338E+02  0.47000000000E+01 0. -1.
         -5    1    4    4    0  502 -0.60238107405E+01 -0.61327809028E+02 -0.20760184825E+02  0.65195565263E+02  0.47000000000E+01 0. -1.
          5    1    5    5  503    0 -0.76879187004E+02 -0.89154144570E+01  0.15817123302E+02  0.79133844838E+02  0.47000000000E+01 0. -1.
         -5    1    5    5    0  503  0.50002126712E+02  0.13391542065E+02  0.20603198071E+02  0.55911786283E+02  0.47000000000E+01 0. -1.
<mgrwt>
<rscale>  0 0.27425986E+03</rscale>
<asrwt>0</asrwt>
<pdfrwt beam="1">  1        4 0.19639625E-01 0.27425986E+03</pdfrwt>
<pdfrwt beam="2">  1       -4 0.22662333E-01 0.27425986E+03</pdfrwt>
<totfact> 0.78520646E+02</totfact>
</mgrwt>
</event>
<event>
 9    1  0.8122655E-001  0.2787564E+03  0.7818608E-02  0.1096370E+00
         -1   -1    0    0    0  501 -0.00000000000E+00  0.00000000000E+00  0.14788329165E+02  0.14788329165E+02  0.00000000000E+00 0.  1.
          1   -1    0    0  501    0  0.00000000000E+00 -0.00000000000E+00 -0.13136221420E+04  0.13136221420E+04  0.00000000000E+00 0.  1.
         35    2    1    2    0    0  0.10658141036E-13  0.00000000000E+00 -0.12988338128E+04  0.13284104712E+04  0.27875635695E+03 0.  0.
         25    2    3    3    0    0  0.23964814705E+02  0.86344483251E+01 -0.92900360063E+03  0.93775122058E+03  0.12522298384E+03 0.  0.
         25    2    3    3    0    0 -0.23964814705E+02 -0.86344483251E+01 -0.36983021222E+03  0.39065925060E+03  0.12325339007E+03 0.  0.
          5    1    4    4  502    0  0.42915355770E+02 -0.40046458968E+02 -0.25504024718E+03  0.26175000347E+03  0.47000000000E+01 0. -1.
         -5    1    4    4    0  502 -0.18950541065E+02  0.48680907293E+02 -0.67396335345E+03  0.67600121711E+03  0.47000000000E+01 0. -1.
          5    1    5    5  503    0 -0.70642896714E+02  0.15399663344E+02 -0.19356861587E+03  0.20668446370E+03  0.47000000000E+01 0.  1.
         -5    1    5    5    0  503  0.46678082009E+02 -0.24034111670E+02 -0.17626159635E+03  0.18397478689E+03  0.47000000000E+01 0.  1.
<mgrwt>
<rscale>  0 0.27875636E+03</rscale>
<asrwt>0</asrwt>
<pdfrwt beam="1">  1        1 0.20209576E+00 0.27875636E+03</pdfrwt>
<pdfrwt beam="2">  1       -1 0.22751271E-02 0.27875636E+03</pdfrwt>
<totfact> 0.54214721E+03</totfact>
</mgrwt>
</event>
<event>
 9    1  0.8122655E-001  0.2566587E+03  0.7818608E-02  0.1109168E+00
         -2   -1    0    0    0  501 -0.00000000000E+00  0.00000000000E+00  0.27677421065E+02  0.27677421065E+02  0.00000000000E+00 0. -1.
          2   -1    0    0  501    0  0.00000000000E+00 -0.00000000000E+00 -0.59501278460E+03  0.59501278460E+03  0.00000000000E+00 0. -1.
         35    2    1    2    0    0 -0.17763568394E-14  0.35527136788E-14 -0.56733536354E+03  0.62269020567E+03  0.25665867902E+03 0.  0.
         25    2    3    3    0    0 -0.13624654236E+02  0.23786971112E+02 -0.29135794298E+03  0.31836612280E+03  0.12536381459E+03 0.  0.
         25    2    3    3    0    0  0.13624654236E+02 -0.23786971112E+02 -0.27597742055E+03  0.30432408287E+03  0.12529229650E+03 0.  0.
          5    1    4    4  502    0 -0.65456774044E+02  0.45585609021E+01 -0.10482805544E+03  0.12375936713E+03  0.47000000000E+01 0.  1.
         -5    1    4    4    0  502  0.51832119808E+02  0.19228410210E+02 -0.18652988755E+03  0.19460675567E+03  0.47000000000E+01 0.  1.
          5    1    5    5  503    0  0.16749474389E+02 -0.40820740148E+02 -0.28194342740E+03  0.28541384685E+03  0.47000000000E+01 0.  1.
         -5    1    5    5    0  503 -0.31248201524E+01  0.17033769036E+02  0.59660068499E+01  0.18910236019E+02  0.47000000000E+01 0.  1.
<mgrwt>
<rscale>  0 0.25665868E+03</rscale>
<asrwt>0</asrwt>
<pdfrwt beam="1">  1        2 0.91540430E-01 0.25665868E+03</pdfrwt>
<pdfrwt beam="2">  1       -2 0.42580647E-02 0.25665868E+03</pdfrwt>
<totfact> 0.12627016E+04</totfact>
</mgrwt>
</event>
<event>
 9    1  0.8122655E-001  0.2745031E+03  0.7818608E-02  0.1098730E+00
          2   -1    0    0  501    0  0.00000000000E+00  0.00000000000E+00  0.19210007480E+04  0.19210007480E+04  0.00000000000E+00 0. -1.
         -2   -1    0    0    0  501 -0.00000000000E+00 -0.00000000000E+00 -0.98063434701E+01  0.98063434701E+01  0.00000000000E+00 0. -1.
         35    2    1    2    0    0  0.35527136788E-14  0.00000000000E+00  0.19111944045E+04  0.19308070915E+04  0.27450313762E+03 0.  0.
         25    2    3    3    0    0  0.12435785313E+02 -0.14498904139E+02  0.60896168574E+03  0.62244971128E+03  0.12745368335E+03 0.  0.
         25    2    3    3    0    0 -0.12435785313E+02  0.14498904139E+02  0.13022327188E+04  0.13083573802E+04  0.12499645364E+03 0.  0.
          5    1    4    4  502    0  0.19655316838E+02  0.53849819451E+02  0.33853707380E+03  0.34338837323E+03  0.47000000000E+01 0. -1.
         -5    1    4    4    0  502 -0.72195315252E+01 -0.68348723589E+02  0.27042461195E+03  0.27906133806E+03  0.47000000000E+01 0. -1.
          5    1    5    5  503    0  0.13237089605E+02 -0.50796377337E+02  0.41308376278E+03  0.41643220044E+03  0.47000000000E+01 0. -1.
         -5    1    5    5    0  503 -0.25672874918E+02  0.65295281476E+02  0.88914895600E+03  0.89192517974E+03  0.47000000000E+01 0. -1.
<mgrwt>
<rscale>  0 0.27450314E+03</rscale>
<asrwt>0</asrwt>
<pdfrwt beam="1">  1        2 0.29553828E+00 0.27450314E+03</pdfrwt>
<pdfrwt beam="2">  1       -2 0.15086698E-02 0.27450314E+03</pdfrwt>
<totfact> 0.95638854E+03</totfact>
</mgrwt>
</event>
<event>
 9    1  0.8122655E-001  0.2684434E+03  0.7818608E-02  0.1102174E+00
          1   -1    0    0  501    0  0.00000000000E+00  0.00000000000E+00  0.23974662246E+02  0.23974662246E+02  0.00000000000E+00 0.  1.
         -1   -1    0    0    0  501 -0.00000000000E+00 -0.00000000000E+00 -0.75143767711E+03  0.75143767711E+03  0.00000000000E+00 0.  1.
         35    2    1    2    0    0  0.00000000000E+00 -0.71054273576E-14 -0.72746301486E+03  0.77541233935E+03  0.26844339819E+03 0.  0.
         25    2    3    3    0    0 -0.16174851353E+02 -0.13418579755E+02 -0.48991838540E+03  0.50612939580E+03  0.12532061619E+03 0.  0.
         25    2    3    3    0    0  0.16174851353E+02  0.13418579755E+02 -0.23754462946E+03  0.26928294355E+03  0.12507665091E+03 0.  0.
          5    1    4    4  502    0 -0.22158253464E+02  0.53216003800E+02 -0.18105454063E+03  0.19006779828E+03  0.47000000000E+01 0. -1.
         -5    1    4    4    0  502  0.59834021110E+01 -0.66634583555E+02 -0.30886384477E+03  0.31606159752E+03  0.47000000000E+01 0. -1.
          5    1    5    5  503    0 -0.28170411758E+02  0.52630525990E+02 -0.16502567333E+03  0.17555371606E+03  0.47000000000E+01 0.  1.
         -5    1    5    5    0  503  0.44345263111E+02 -0.39211946236E+02 -0.72518956130E+02  0.93729227492E+02  0.47000000000E+01 0.  1.
<mgrwt>
<rscale>  0 0.26844340E+03</rscale>
<asrwt>0</asrwt>
<pdfrwt beam="1">  1        1 0.36884101E-02 0.26844340E+03</pdfrwt>
<pdfrwt beam="2">  1       -1 0.11560578E+00 0.26844340E+03</pdfrwt>
<totfact> 0.18382208E+03</totfact>
</mgrwt>
</event>
<event>
 9    1  0.8122655E-001  0.2757661E+03  0.7818608E-02  0.1098024E+00
          2   -1    0    0  501    0  0.00000000000E+00  0.00000000000E+00  0.61340142262E+03  0.61340142262E+03  0.00000000000E+00 0.  1.
         -2   -1    0    0    0  501 -0.00000000000E+00 -0.00000000000E+00 -0.30993950482E+02  0.30993950482E+02  0.00000000000E+00 0.  1.
         35    2    1    2    0    0  0.00000000000E+00  0.71054273576E-14  0.58240747214E+03  0.64439537310E+03  0.27576608434E+03 0.  0.
         25    2    3    3    0    0  0.25242240795E+02 -0.41907227852E+02  0.21247813973E+03  0.25044394311E+03  0.12321453775E+03 0.  0.
         25    2    3    3    0    0 -0.25242240795E+02  0.41907227852E+02  0.36992933241E+03  0.39395142999E+03  0.12631956201E+03 0.  0.
          5    1    4    4  502    0  0.19876640046E+02  0.11770958205E+02  0.19058202963E+03  0.19203446642E+03  0.47000000000E+01 0. -1.
         -5    1    4    4    0  502  0.53656007490E+01 -0.53678186057E+02  0.21896110098E+02  0.58409476689E+02  0.47000000000E+01 0. -1.
          5    1    5    5  503    0  0.31562734560E+02  0.23937449381E+02  0.33025856261E+02  0.51788076596E+02  0.47000000000E+01 0. -1.
         -5    1    5    5    0  503 -0.56804975355E+02  0.17969778471E+02  0.33690347615E+03  0.34216335339E+03  0.47000000000E+01 0. -1.
<mgrwt>
<rscale>  0 0.27576608E+03</rscale>
<asrwt>0</asrwt>
<pdfrwt beam="1">  1        2 0.94369440E-01 0.27576608E+03</pdfrwt>
<pdfrwt beam="2">  1       -2 0.47683005E-02 0.27576608E+03</pdfrwt>
<totfact> 0.10301938E+04</totfact>
</mgrwt>
</event>
<event>
 9    1  0.8122655E-001  0.2734902E+03  0.7818608E-02  0.1099299E+00
          2   -1    0    0  501    0  0.00000000000E+00  0.00000000000E+00  0.10148087640E+04  0.10148087640E+04  0.00000000000E+00 0.  1.
         -2   -1    0    0    0  501 -0.00000000000E+00 -0.00000000000E+00 -0.18426354938E+02  0.18426354938E+02  0.00000000000E+00 0.  1.
         35    2    1    2    0    0  0.35527136788E-14  0.00000000000E+00  0.99638240911E+03  0.10332351190E+04  0.27349023003E+03 0.  0.
         25    2    3    3    0    0  0.11831796874E+02 -0.43228582663E+02  0.62507366324E+03  0.63905214591E+03  0.12514734891E+03 0.  0.
         25    2    3    3    0    0 -0.11831796874E+02  0.43228582663E+02  0.37130874587E+03  0.39418297307E+03  0.12450433618E+03 0.  0.
          5    1    4    4  502    0  0.67845603692E+02 -0.25677296750E+02  0.29950172124E+03  0.30819753493E+03  0.47000000000E+01 0.  1.
         -5    1    4    4    0  502 -0.56013806818E+02 -0.17551285913E+02  0.32557194200E+03  0.33085461098E+03  0.47000000000E+01 0.  1.
          5    1    5    5  503    0 -0.23561220087E+02  0.15823364822E+02  0.36121918488E+03  0.36236293890E+03  0.47000000000E+01 0.  1.
         -5    1    5    5    0  503  0.11729423213E+02  0.27405217841E+02  0.10089560992E+02  0.31820034174E+02  0.47000000000E+01 0.  1.
<mgrwt>
<rscale>  0 0.27349023E+03</rscale>
<asrwt>0</asrwt>
<pdfrwt beam="1">  1        2 0.15612438E+00 0.27349023E+03</pdfrwt>
<pdfrwt beam="2">  1       -2 0.28348246E-02 0.27349023E+03</pdfrwt>
<totfact> 0.11819714E+04</totfact>
</mgrwt>
</event>
<event>
 9    1  0.8122655E-001  0.2737327E+03  0.7818608E-02  0.1099162E+00
         -1   -1    0    0    0  501 -0.00000000000E+00  0.00000000000E+00  0.10248716124E+02  0.10248716124E+02  0.00000000000E+00 0. -1.
          1   -1    0    0  501    0  0.00000000000E+00 -0.00000000000E+00 -0.18277803294E+04  0.18277803294E+04  0.00000000000E+00 0. -1.
         35    2    1    2    0    0  0.00000000000E+00 -0.71054273576E-14 -0.18175316133E+04  0.18380290455E+04  0.27373272901E+03 0.  0.
         25    2    3    3    0    0  0.40851875496E+02  0.38318763425E+02 -0.88164958632E+03  0.89222430320E+03  0.12498404221E+03 0.  0.
         25    2    3    3    0    0 -0.40851875496E+02 -0.38318763425E+02 -0.93588202697E+03  0.94580474234E+03  0.12463642668E+03 0.  0.
          5    1    4    4  502    0 -0.32227913633E+02  0.52829867654E+01 -0.79684600500E+02  0.86245428419E+02  0.47000000000E+01 0.  1.
         -5    1    4    4    0  502  0.73079789129E+02  0.33035776660E+02 -0.80196498582E+03  0.80597887478E+03  0.47000000000E+01 0.  1.
          5    1    5    5  503    0 -0.43865252277E+02 -0.45773301990E+02 -0.93417564113E+03  0.93633625051E+03  0.47000000000E+01 0. -1.
         -5    1    5    5    0  503  0.30133767807E+01  0.74545385649E+01 -0.17063858392E+01  0.94684918266E+01  0.47000000000E+01 0. -1.
<mgrwt>
<rscale>  0 0.27373273E+03</rscale>
<asrwt>0</asrwt>
<pdfrwt beam="1">  1        1 0.28119693E+00 0.27373273E+03</pdfrwt>
<pdfrwt beam="2">  1       -1 0.15767258E-02 0.27373273E+03</pdfrwt>
<totfact> 0.42362070E+03</totfact>
</mgrwt>
</event>
<event>
 9    1  0.8122655E-001  0.2758105E+03  0.7818608E-02  0.1097999E+00
         -2   -1    0    0    0  501 -0.00000000000E+00  0.00000000000E+00  0.75835426085E+02  0.75835426085E+02  0.00000000000E+00 0.  1.
          2   -1    0    0  501    0  0.00000000000E+00 -0.00000000000E+00 -0.25077794038E+03  0.25077794038E+03  0.00000000000E+00 0.  1.
         35    2    1    2    0    0  0.71054273576E-14 -0.71054273576E-14 -0.17494251430E+03  0.32661336646E+03  0.27581045637E+03 0.  0.
         25    2    3    3    0    0  0.37156799220E+02 -0.20706083899E+02 -0.39020328210E+02  0.13732602481E+03  0.12460530260E+03 0.  0.
         25    2    3    3    0    0 -0.37156799220E+02  0.20706083899E+02 -0.13592218609E+03  0.18928734166E+03  0.12468154396E+03 0.  0.
          5    1    4    4  502    0 -0.38499852970E+02  0.20690043455E+02 -0.22530508508E+02  0.49396663759E+02  0.47000000000E+01 0. -1.
         -5    1    4    4    0  502  0.75656652190E+02 -0.41396127354E+02 -0.16489819702E+02  0.87929361048E+02  0.47000000000E+01 0. -1.
          5    1    5    5  503    0 -0.38698271970E+02 -0.30143230793E+02 -0.12854701868E+03  0.13766843004E+03  0.47000000000E+01 0.  1.
         -5    1    5    5    0  503  0.15414727497E+01  0.50849314691E+02 -0.73751674006E+01  0.51618911622E+02  0.47000000000E+01 0.  1.
<mgrwt>
<rscale>  0 0.27581046E+03</rscale>
<asrwt>0</asrwt>
<pdfrwt beam="1">  1        2 0.38581221E-01 0.27581046E+03</pdfrwt>
<pdfrwt beam="2">  1       -2 0.11666989E-01 0.27581046E+03</pdfrwt>
<totfact> 0.68279200E+03</totfact>
</mgrwt>
</event>
<event>
 9    1  0.8122655E-001  0.2709593E+03  0.7818608E-02  0.1100732E+00
         -1   -1    0    0    0  501 -0.00000000000E+00  0.00000000000E+00  0.46558724416E+02  0.46558724416E+02  0.00000000000E+00 0. -1.
          1   -1    0    0  501    0  0.00000000000E+00 -0.00000000000E+00 -0.39422753551E+03  0.39422753551E+03  0.00000000000E+00 0. -1.
         35    2    1    2    0    0 -0.17763568394E-14 -0.35527136788E-14 -0.34766881110E+03  0.44078625993E+03  0.27095926766E+03 0.  0.
         25    2    3    3    0    0  0.11886445295E+02  0.18469139961E+02 -0.23881960315E+03  0.27038335248E+03  0.12485975226E+03 0.  0.
         25    2    3    3    0    0 -0.11886445295E+02 -0.18469139961E+02 -0.10884920795E+03  0.17040290745E+03  0.12925402928E+03 0.  0.
          5    1    4    4  502    0  0.46929828397E+01 -0.28278599233E+02 -0.23043414604E+01  0.29139376316E+02  0.47000000000E+01 0.  1.
         -5    1    4    4    0  502  0.71934624552E+01  0.46747739194E+02 -0.23651526169E+03  0.24124397616E+03  0.47000000000E+01 0.  1.
          5    1    5    5  503    0 -0.21163012565E+02 -0.48447077361E+02  0.39526921032E+01  0.53223173341E+02  0.47000000000E+01 0.  1.
         -5    1    5    5    0  503  0.92765672702E+01  0.29977937400E+02 -0.11280190005E+03  0.11717973411E+03  0.47000000000E+01 0.  1.
<mgrwt>
<rscale>  0 0.27095927E+03</rscale>
<asrwt>0</asrwt>
<pdfrwt beam="1">  1        1 0.60650388E-01 0.27095927E+03</pdfrwt>
<pdfrwt beam="2">  1       -1 0.71628810E-02 0.27095927E+03</pdfrwt>
<totfact> 0.62565662E+03</totfact>
</mgrwt>
</event>
<event>
 9    1  0.8122655E-001  0.2746425E+03  0.7818608E-02  0.1098652E+00
          1   -1    0    0  501    0  0.00000000000E+00  0.00000000000E+00  0.31801549361E+04  0.31801549361E+04  0.00000000000E+00 0. -1.
         -1   -1    0    0    0  501 -0.00000000000E+00 -0.00000000000E+00 -0.59296262851E+01  0.59296262851E+01  0.00000000000E+00 0. -1.
         35    2    1    2    0    0  0.00000000000E+00  0.00000000000E+00  0.31742253098E+04  0.31860845624E+04  0.27464253348E+03 0.  0.
         25    2    3    3    0    0  0.59146458216E+01 -0.44581707807E+02  0.22427007787E+04  0.22465033232E+04  0.12266982840E+03 0.  0.
         25    2    3    3    0    0 -0.59146458216E+01  0.44581707807E+02  0.93152453111E+03  0.93958123915E+03  0.11424728091E+03 0.  0.
          5    1    4    4  502    0  0.49601945607E+02 -0.45840426338E+02  0.18690426422E+04  0.18702684796E+04  0.47000000000E+01 0.  1.
         -5    1    4    4    0  502 -0.43687299785E+02  0.12587185306E+01  0.37365813654E+03  0.37623484360E+03  0.47000000000E+01 0.  1.
          5    1    5    5  503    0  0.16677091133E+02 -0.35732083168E+01  0.75381303754E+03  0.75402060897E+03  0.47000000000E+01 0. -1.
         -5    1    5    5    0  503 -0.22591736955E+02  0.48154916124E+02  0.17771149356E+03  0.18556063017E+03  0.47000000000E+01 0. -1.
<mgrwt>
<rscale>  0 0.27464253E+03</rscale>
<asrwt>0</asrwt>
<pdfrwt beam="1">  1        1 0.48925324E+00 0.27464253E+03</pdfrwt>
<pdfrwt beam="2">  1       -1 0.91225274E-03 0.27464253E+03</pdfrwt>
<totfact> 0.11589482E+03</totfact>
</mgrwt>
</event>
<event>
 9    1  0.8122655E-001  0.2743043E+03  0.7818608E-02  0.1098841E+00
          2   -1    0    0  501    0  0.00000000000E+00  0.00000000000E+00  0.84574332306E+02  0.84574332306E+02  0.00000000000E+00 0. -1.
         -2   -1    0    0    0  501 -0.00000000000E+00 -0.00000000000E+00 -0.22241634306E+03  0.22241634306E+03  0.00000000000E+00 0. -1.
         35    2    1    2    0    0 -0.14210854715E-13  0.00000000000E+00 -0.13784201076E+03  0.30699067537E+03  0.27430431064E+03 0.  0.
         25    2    3    3    0    0 -0.46729595798E+02 -0.40524312380E+02 -0.70294256303E+02  0.15667165682E+03  0.12561389479E+03 0.  0.
         25    2    3    3    0    0  0.46729595798E+02  0.40524312380E+02 -0.67547754454E+02  0.15031901855E+03  0.11919409880E+03 0.  0.
          5    1    4    4  502    0  0.27504734690E+02  0.17022933463E+02 -0.51143583854E+02  0.60696349672E+02  0.47000000000E+01 0. -1.
         -5    1    4    4    0  502 -0.74234330488E+02 -0.57547245843E+02 -0.19150672449E+02  0.95975307149E+02  0.47000000000E+01 0. -1.
          5    1    5    5  503    0  0.37594851085E+02  0.40020636854E+02  0.22616301179E+02  0.59570221431E+02  0.47000000000E+01 0. -1.
         -5    1    5    5    0  503  0.91347447132E+01  0.50367552617E+00 -0.90164055633E+02  0.90748797117E+02  0.47000000000E+01 0. -1.
<mgrwt>
<rscale>  0 0.27430431E+03</rscale>
<asrwt>0</asrwt>
<pdfrwt beam="1">  1        2 0.13011436E-01 0.27430431E+03</pdfrwt>
<pdfrwt beam="2">  1       -2 0.34217899E-01 0.27430431E+03</pdfrwt>
<totfact> 0.36895433E+03</totfact>
</mgrwt>
</event>
<event>
 9    1  0.8122655E-001  0.2745671E+03  0.7818608E-02  0.1098694E+00
          1   -1    0    0  501    0  0.00000000000E+00  0.00000000000E+00  0.98154537779E+02  0.98154537779E+02  0.00000000000E+00 0. -1.
         -1   -1    0    0    0  501 -0.00000000000E+00 -0.00000000000E+00 -0.19201120981E+03  0.19201120981E+03  0.00000000000E+00 0. -1.
         35    2    1    2    0    0  0.00000000000E+00  0.00000000000E+00 -0.93856672032E+02  0.29016574759E+03  0.27456708869E+03 0.  0.
         25    2    3    3    0    0 -0.19453713567E+02  0.39931322759E+01  0.10711865917E+02  0.12649991998E+03  0.12447125614E+03 0.  0.
         25    2    3    3    0    0  0.19453713567E+02 -0.39931322759E+01 -0.10456853795E+03  0.16366582761E+03  0.12432832309E+03 0.  0.
          5    1    4    4  502    0  0.28244675446E+02 -0.24483196608E+02  0.46806955338E+02  0.60084687527E+02  0.47000000000E+01 0. -1.
         -5    1    4    4    0  502 -0.47698389012E+02  0.28476328884E+02 -0.36095089421E+02  0.66415232450E+02  0.47000000000E+01 0. -1.
          5    1    5    5  503    0 -0.41178760504E+02  0.33656061327E+02 -0.54943069112E+02  0.76611041138E+02  0.47000000000E+01 0. -1.
         -5    1    5    5    0  503  0.60632474071E+02 -0.37649193603E+02 -0.49625468836E+02  0.87054786474E+02  0.47000000000E+01 0. -1.
<mgrwt>
<rscale>  0 0.27456709E+03</rscale>
<asrwt>0</asrwt>
<pdfrwt beam="1">  1        1 0.15100698E-01 0.27456709E+03</pdfrwt>
<pdfrwt beam="2">  1       -1 0.29540186E-01 0.27456709E+03</pdfrwt>
<totfact> 0.38535581E+03</totfact>
</mgrwt>
</event>
<event>
 9    1  0.8122655E-001  0.2772818E+03  0.7818608E-02  0.1097183E+00
         -2   -1    0    0    0  501 -0.00000000000E+00  0.00000000000E+00  0.75581655243E+01  0.75581655243E+01  0.00000000000E+00 0.  1.
          2   -1    0    0  501    0  0.00000000000E+00 -0.00000000000E+00 -0.25431175832E+04  0.25431175832E+04  0.00000000000E+00 0.  1.
         35    2    1    2    0    0 -0.71054273576E-14 -0.35527136788E-14 -0.25355594177E+04  0.25506757487E+04  0.27728183238E+03 0.  0.
         25    2    3    3    0    0 -0.28313662305E+02  0.10993576088E+02 -0.17501563510E+04  0.17548399019E+04  0.12447211001E+03 0.  0.
         25    2    3    3    0    0  0.28313662305E+02 -0.10993576088E+02 -0.78540306665E+03  0.79583584680E+03  0.12479661757E+03 0.  0.
          5    1    4    4  502    0  0.42819227139E+02 -0.19497904112E+02 -0.48137589204E+03  0.48369256136E+03  0.47000000000E+01 0. -1.
         -5    1    4    4    0  502 -0.71132889444E+02  0.30491480201E+02 -0.12687804590E+04  0.12711473406E+04  0.47000000000E+01 0. -1.
          5    1    5    5  503    0 -0.29709440428E+02  0.17320537499E+02 -0.56648820574E+03  0.56755055203E+03  0.47000000000E+01 0. -1.
         -5    1    5    5    0  503  0.58023102733E+02 -0.28314113588E+02 -0.21891486091E+03  0.22828529477E+03  0.47000000000E+01 0. -1.
<mgrwt>
<rscale>  0 0.27728183E+03</rscale>
<asrwt>0</asrwt>
<pdfrwt beam="1">  1        2 0.39124853E+00 0.27728183E+03</pdfrwt>
<pdfrwt beam="2">  1       -2 0.11627957E-02 0.27728183E+03</pdfrwt>
<totfact> 0.65002609E+03</totfact>
</mgrwt>
</event>
<event>
 9    1  0.8122655E-001  0.2707548E+03  0.7818608E-02  0.1100848E+00
         -1   -1    0    0    0  501 -0.00000000000E+00  0.00000000000E+00  0.72526687663E+01  0.72526687663E+01  0.00000000000E+00 0. -1.
          1   -1    0    0  501    0  0.00000000000E+00 -0.00000000000E+00 -0.25269380535E+04  0.25269380535E+04  0.00000000000E+00 0. -1.
         35    2    1    2    0    0  0.71054273576E-14  0.71054273576E-14 -0.25196853848E+04  0.25341907223E+04  0.27075483150E+03 0.  0.
         25    2    3    3    0    0 -0.43120393560E+02  0.24413850100E+02 -0.14126513718E+04  0.14190426042E+04  0.12507041916E+03 0.  0.
         25    2    3    3    0    0  0.43120393560E+02 -0.24413850100E+02 -0.11070340129E+04  0.11151481181E+04  0.12480230411E+03 0.  0.
          5    1    4    4  502    0 -0.37552859674E+02 -0.44790979932E+02 -0.43762269179E+03  0.44153387132E+03  0.47000000000E+01 0. -1.
         -5    1    4    4    0  502 -0.55675338869E+01  0.69204830032E+02 -0.97502868004E+03  0.97750873287E+03  0.47000000000E+01 0. -1.
          5    1    5    5  503    0  0.76990581653E+02 -0.11159985331E+01 -0.43100936484E+03  0.43785837630E+03  0.47000000000E+01 0. -1.
         -5    1    5    5    0  503 -0.33870188093E+02 -0.23297851567E+02 -0.67602464809E+03  0.67728974181E+03  0.47000000000E+01 0. -1.
<mgrwt>
<rscale>  0 0.27075483E+03</rscale>
<asrwt>0</asrwt>
<pdfrwt beam="1">  1        1 0.38876009E+00 0.27075483E+03</pdfrwt>
<pdfrwt beam="2">  1       -1 0.11157941E-02 0.27075483E+03</pdfrwt>
<totfact> 0.24423364E+03</totfact>
</mgrwt>
</event>
<event>
 9    1  0.8122655E-001  0.2776886E+03  0.7818608E-02  0.1096958E+00
          3   -1    0    0  501    0  0.00000000000E+00  0.00000000000E+00  0.35602492171E+02  0.35602492171E+02  0.00000000000E+00 0. -1.
         -3   -1    0    0    0  501 -0.00000000000E+00 -0.00000000000E+00 -0.54147155989E+03  0.54147155989E+03  0.00000000000E+00 0. -1.
         35    2    1    2    0    0  0.35527136788E-14 -0.71054273576E-14 -0.50586906772E+03  0.57707405206E+03  0.27768858077E+03 0.  0.
         25    2    3    3    0    0 -0.17502831179E+02 -0.18626099900E+02 -0.36092774151E+03  0.38251385706E+03  0.12407552359E+03 0.  0.
         25    2    3    3    0    0  0.17502831179E+02  0.18626099900E+02 -0.14494132621E+03  0.19456019500E+03  0.12724936439E+03 0.  0.
          5    1    4    4  502    0 -0.51405990498E+02 -0.43937282897E+02 -0.30379217570E+03  0.31126329161E+03  0.47000000000E+01 0. -1.
         -5    1    4    4    0  502  0.33903159320E+02  0.25311182997E+02 -0.57135565815E+02  0.71250565454E+02  0.47000000000E+01 0. -1.
          5    1    5    5  503    0  0.85944373289E+01 -0.42013933344E+02 -0.72169968421E+01  0.43740255960E+02  0.47000000000E+01 0. -1.
         -5    1    5    5    0  503  0.89083938497E+01  0.60640033244E+02 -0.13772432936E+03  0.15081993904E+03  0.47000000000E+01 0. -1.
<mgrwt>
<rscale>  0 0.27768858E+03</rscale>
<asrwt>0</asrwt>
<pdfrwt beam="1">  1        3 0.54773068E-02 0.27768858E+03</pdfrwt>
<pdfrwt beam="2">  1       -3 0.83303313E-01 0.27768858E+03</pdfrwt>
<totfact> 0.68321172E+02</totfact>
</mgrwt>
</event>
<event>
 9    1  0.8122655E-001  0.2786599E+03  0.7818608E-02  0.1096423E+00
          3   -1    0    0  501    0  0.00000000000E+00  0.00000000000E+00  0.13387272708E+03  0.13387272708E+03  0.00000000000E+00 0. -1.
         -3   -1    0    0    0  501 -0.00000000000E+00 -0.00000000000E+00 -0.14500967519E+03  0.14500967519E+03  0.00000000000E+00 0. -1.
         35    2    1    2    0    0  0.00000000000E+00  0.00000000000E+00 -0.11136948104E+02  0.27888240227E+03  0.27865994094E+03 0.  0.
         25    2    3    3    0    0 -0.32960314118E+02 -0.32571383333E+02 -0.44758344555E+02  0.14110904641E+03  0.12554352334E+03 0.  0.
         25    2    3    3    0    0  0.32960314118E+02  0.32571383333E+02  0.33621396451E+02  0.13777335586E+03  0.12531489124E+03 0.  0.
          5    1    4    4  502    0  0.19015059269E+02 -0.57123173495E+02  0.10431868541E+02  0.61282487796E+02  0.47000000000E+01 0.  1.
         -5    1    4    4    0  502 -0.51975373387E+02  0.24551790162E+02 -0.55190213096E+02  0.79826558616E+02  0.47000000000E+01 0.  1.
          5    1    5    5  503    0  0.40947050585E+02 -0.29372403960E+02 -0.20878345218E+02  0.54748464499E+02  0.47000000000E+01 0.  1.
         -5    1    5    5    0  503 -0.79867364669E+01  0.61943787294E+02  0.54499741668E+02  0.83024891361E+02  0.47000000000E+01 0.  1.
<mgrwt>
<rscale>  0 0.27865994E+03</rscale>
<asrwt>0</asrwt>
<pdfrwt beam="1">  1        3 0.20595804E-01 0.27865994E+03</pdfrwt>
<pdfrwt beam="2">  1       -3 0.22309181E-01 0.27865994E+03</pdfrwt>
<totfact> 0.10014608E+03</totfact>
</mgrwt>
</event>
<event>
 9    1  0.8122655E-001  0.2758677E+03  0.7818608E-02  0.1097968E+00
         -1   -1    0    0    0  501 -0.00000000000E+00  0.00000000000E+00  0.24248189271E+03  0.24248189271E+03  0.00000000000E+00 0. -1.
          1   -1    0    0  501    0  0.00000000000E+00 -0.00000000000E+00 -0.78462519182E+02  0.78462519182E+02  0.00000000000E+00 0. -1.
         35    2    1    2    0    0 -0.71054273576E-14 -0.35527136788E-14  0.16401937353E+03  0.32094441189E+03  0.27586765057E+03 0.  0.
         25    2    3    3    0    0 -0.35284173111E+02 -0.14809283179E+02  0.13322016193E+03  0.18676676338E+03  0.12517956949E+03 0.  0.
         25    2    3    3    0    0  0.35284173111E+02  0.14809283179E+02  0.30799211592E+02  0.13417764851E+03  0.12486297363E+03 0.  0.
          5    1    4    4  502    0 -0.21695928607E+01 -0.63080310762E+02  0.34989120251E+02  0.72319853947E+02  0.47000000000E+01 0. -1.
         -5    1    4    4    0  502 -0.33114580251E+02  0.48271027583E+02  0.98231041684E+02  0.11444690944E+03  0.47000000000E+01 0. -1.
          5    1    5    5  503    0 -0.46085193771E+02  0.37936363658E+01  0.36337495205E+00  0.46480735829E+02  0.47000000000E+01 0. -1.
         -5    1    5    5    0  503  0.81369366883E+02  0.11015646813E+02  0.30435836640E+02  0.87696912680E+02  0.47000000000E+01 0. -1.
<mgrwt>
<rscale>  0 0.27586765E+03</rscale>
<asrwt>0</asrwt>
<pdfrwt beam="1">  1        1 0.12071157E-01 0.27586765E+03</pdfrwt>
<pdfrwt beam="2">  1       -1 0.37304906E-01 0.27586765E+03</pdfrwt>
<totfact> 0.34634087E+03</totfact>
</mgrwt>
</event>
<event>
 9    1  0.8122655E-001  0.2714267E+03  0.7818608E-02  0.1100466E+00
          1   -1    0    0  501    0  0.00000000000E+00  0.00000000000E+00  0.24267794709E+03  0.24267794709E+03  0.00000000000E+00 0. -1.
         -1   -1    0    0    0  501 -0.00000000000E+00 -0.00000000000E+00 -0.75895262870E+02  0.75895262870E+02  0.00000000000E+00 0. -1.
         35    2    1    2    0    0 -0.35527136788E-14  0.00000000000E+00  0.16678268422E+03  0.31857320996E+03  0.27142665003E+03 0.  0.
         25    2    3    3    0    0  0.14183083571E+02  0.51103964144E+02  0.94931535341E+02  0.16530289655E+03  0.12450010520E+03 0.  0.
         25    2    3    3    0    0 -0.14183083571E+02 -0.51103964144E+02  0.71851148880E+02  0.15327031341E+03  0.12456494838E+03 0.  0.
          5    1    4    4  502    0  0.17413128068E+01  0.54477547386E+02 -0.13221771946E+02  0.56282684663E+02  0.47000000000E+01 0.  1.
         -5    1    4    4    0  502  0.12441770765E+02 -0.33735832419E+01  0.10815330729E+03  0.10902021189E+03  0.47000000000E+01 0.  1.
          5    1    5    5  503    0 -0.35260323358E+02  0.13322945502E+02 -0.16832418183E+02  0.41547702488E+02  0.47000000000E+01 0.  1.
         -5    1    5    5    0  503  0.21077239787E+02 -0.64426909646E+02  0.88683567062E+02  0.11172261092E+03  0.47000000000E+01 0.  1.
<mgrwt>
<rscale>  0 0.27142665E+03</rscale>
<asrwt>0</asrwt>
<pdfrwt beam="1">  1        1 0.37335068E-01 0.27142665E+03</pdfrwt>
<pdfrwt beam="2">  1       -1 0.11676194E-01 0.27142665E+03</pdfrwt>
<totfact> 0.54429854E+03</totfact>
</mgrwt>
</event>
<event>
 9    1  0.8122655E-001  0.2600092E+03  0.7818608E-02  0.1107138E+00
          2   -1    0    0  501    0  0.00000000000E+00  0.00000000000E+00  0.45319667157E+02  0.45319667157E+02  0.00000000000E+00 0.  1.
         -2   -1    0    0    0  501 -0.00000000000E+00 -0.00000000000E+00 -0.37293284748E+03  0.37293284748E+03  0.00000000000E+00 0.  1.
         35    2    1    2    0    0  0.71054273576E-14  0.00000000000E+00 -0.32761318032E+03  0.41825251464E+03  0.26000917307E+03 0.  0.
         25    2    3    3    0    0 -0.12945768431E+02  0.32609255457E+02 -0.15370805400E+03  0.20143224616E+03  0.12537076002E+03 0.  0.
         25    2    3    3    0    0  0.12945768431E+02 -0.32609255457E+02 -0.17390512632E+03  0.21682026848E+03  0.12464782148E+03 0.  0.
          5    1    4    4  502    0 -0.18386322201E+02 -0.20330588850E+02  0.97450173999E+01  0.29469391768E+02  0.47000000000E+01 0.  1.
         -5    1    4    4    0  502  0.54405537702E+01  0.52939844307E+02 -0.16345307140E+03  0.17196285439E+03  0.47000000000E+01 0.  1.
          5    1    5    5  503    0 -0.21780983996E+02 -0.61535145243E+02 -0.43138257054E+02  0.78383573442E+02  0.47000000000E+01 0.  1.
         -5    1    5    5    0  503  0.34726752427E+02  0.28925889786E+02 -0.13076686927E+03  0.13843669503E+03  0.47000000000E+01 0.  1.
<mgrwt>
<rscale>  0 0.26000917E+03</rscale>
<asrwt>0</asrwt>
<pdfrwt beam="1">  1        2 0.69722567E-02 0.26000917E+03</pdfrwt>
<pdfrwt beam="2">  1       -2 0.57374282E-01 0.26000917E+03</pdfrwt>
<totfact> 0.29287717E+03</totfact>
</mgrwt>
</event>
<event>
 9    1  0.8122655E-001  0.2787183E+03  0.7818608E-02  0.1096391E+00
         -1   -1    0    0    0  501 -0.00000000000E+00  0.00000000000E+00  0.36919850000E+02  0.36919850000E+02  0.00000000000E+00 0.  1.
          1   -1    0    0  501    0  0.00000000000E+00 -0.00000000000E+00 -0.52603046662E+03  0.52603046662E+03  0.00000000000E+00 0.  1.
         35    2    1    2    0    0  0.00000000000E+00 -0.71054273576E-14 -0.48911061662E+03  0.56295031662E+03  0.27871825145E+03 0.  0.
         25    2    3    3    0    0 -0.17009156339E+02  0.20097618118E+02 -0.35429447330E+03  0.37683813419E+03  0.12565500352E+03 0.  0.
         25    2    3    3    0    0  0.17009156339E+02 -0.20097618118E+02 -0.13481614332E+03  0.18611218244E+03  0.12557518186E+03 0.  0.
          5    1    4    4  502    0 -0.43219999864E+02  0.47148476892E+02 -0.94020440361E+02  0.11381072211E+03  0.47000000000E+01 0.  1.
         -5    1    4    4    0  502  0.26210843525E+02 -0.27050858774E+02 -0.26027403294E+03  0.26302741208E+03  0.47000000000E+01 0.  1.
          5    1    5    5  503    0 -0.10347401693E+02 -0.60736515336E+02 -0.11956786317E+03  0.13459032997E+03  0.47000000000E+01 0.  1.
         -5    1    5    5    0  503  0.27356558031E+02  0.40638897218E+02 -0.15248280145E+02  0.51521852469E+02  0.47000000000E+01 0.  1.
<mgrwt>
<rscale>  0 0.27871825E+03</rscale>
<asrwt>0</asrwt>
<pdfrwt beam="1">  1        1 0.80927759E-01 0.27871825E+03</pdfrwt>
<pdfrwt beam="2">  1       -1 0.56799773E-02 0.27871825E+03</pdfrwt>
<totfact> 0.60982888E+03</totfact>
</mgrwt>
</event>
<event>
 9    1  0.8122655E-001  0.2739544E+03  0.7818608E-02  0.1099038E+00
         -2   -1    0    0    0  501 -0.00000000000E+00  0.00000000000E+00  0.40116845267E+02  0.40116845267E+02  0.00000000000E+00 0.  1.
          2   -1    0    0  501    0  0.00000000000E+00 -0.00000000000E+00 -0.46770247905E+03  0.46770247905E+03  0.00000000000E+00 0.  1.
         35    2    1    2    0    0 -0.35527136788E-14  0.35527136788E-14 -0.42758563378E+03  0.50781932432E+03  0.27395436104E+03 0.  0.
         25    2    3    3    0    0 -0.23260898808E+02  0.14159189145E+02 -0.31247249947E+03  0.33699434569E+03  0.12322570368E+03 0.  0.
         25    2    3    3    0    0  0.23260898808E+02 -0.14159189145E+02 -0.11511313431E+03  0.17082497863E+03  0.12324198790E+03 0.  0.
          5    1    4    4  502    0 -0.15847354280E+02  0.14425430324E+02  0.23362907446E+01  0.22063089815E+02  0.47000000000E+01 0.  1.
         -5    1    4    4    0  502 -0.74135445272E+01 -0.26624117961E+00 -0.31480879022E+03  0.31493125587E+03  0.47000000000E+01 0.  1.
          5    1    5    5  503    0  0.24512828111E+02  0.46851735877E+02 -0.18038033727E+02  0.56066251501E+02  0.47000000000E+01 0.  1.
         -5    1    5    5    0  503 -0.12519293029E+01 -0.61010925022E+02 -0.97075100581E+02  0.11475872713E+03  0.47000000000E+01 0.  1.
<mgrwt>
<rscale>  0 0.27395436E+03</rscale>
<asrwt>0</asrwt>
<pdfrwt beam="1">  1        2 0.71954227E-01 0.27395436E+03</pdfrwt>
<pdfrwt beam="2">  1       -2 0.61718224E-02 0.27395436E+03</pdfrwt>
<totfact> 0.94496956E+03</totfact>
</mgrwt>
</event>
<event>
 9    1  0.8122655E-001  0.3210215E+03  0.7818608E-02  0.1075180E+00
          2   -1    0    0  501    0  0.00000000000E+00  0.00000000000E+00  0.10969305922E+04  0.10969305922E+04  0.00000000000E+00 0.  1.
         -2   -1    0    0    0  501 -0.00000000000E+00 -0.00000000000E+00 -0.23487090111E+02  0.23487090111E+02  0.00000000000E+00 0.  1.
         35    2    1    2    0    0 -0.71054273576E-14  0.00000000000E+00  0.10734435021E+04  0.11204176824E+04  0.32102154237E+03 0.  0.
         25    2    3    3    0    0  0.33044339407E+02 -0.67234407306E+02  0.77099194970E+03  0.78467789741E+03  0.12521350679E+03 0.  0.
         25    2    3    3    0    0 -0.33044339407E+02  0.67234407306E+02  0.30245155243E+03  0.33573978495E+03  0.12502746793E+03 0.  0.
          5    1    4    4  502    0  0.10941491917E+02 -0.89310020824E+02  0.31609790979E+03  0.32868826361E+03  0.47000000000E+01 0. -1.
         -5    1    4    4    0  502  0.22102847490E+02  0.22075613518E+02  0.45489403992E+03  0.45598963380E+03  0.47000000000E+01 0. -1.
          5    1    5    5  503    0  0.19585746208E+02 -0.29365489298E+02  0.77236263021E+02  0.85049772144E+02  0.47000000000E+01 0.  1.
         -5    1    5    5    0  503 -0.52630085614E+02  0.96599896604E+02  0.22521528941E+03  0.25069001280E+03  0.47000000000E+01 0.  1.
<mgrwt>
<rscale>  0 0.32102154E+03</rscale>
<asrwt>0</asrwt>
<pdfrwt beam="1">  1        2 0.16875851E+00 0.32102154E+03</pdfrwt>
<pdfrwt beam="2">  1       -2 0.36133993E-02 0.32102154E+03</pdfrwt>
<totfact> 0.73708337E+03</totfact>
</mgrwt>
</event>
<event>
 9    1  0.8122655E-001  0.2735527E+03  0.7818608E-02  0.1099263E+00
          1   -1    0    0  501    0  0.00000000000E+00  0.00000000000E+00  0.23765376867E+03  0.23765376867E+03  0.00000000000E+00 0.  1.
         -1   -1    0    0    0  501 -0.00000000000E+00 -0.00000000000E+00 -0.78718614531E+02  0.78718614531E+02  0.00000000000E+00 0.  1.
         35    2    1    2    0    0 -0.71054273576E-14  0.71054273576E-14  0.15893515413E+03  0.31637238320E+03  0.27355274013E+03 0.  0.
         25    2    3    3    0    0 -0.11735099179E+02 -0.51492332054E+02  0.10143527574E+03  0.16998179966E+03  0.12575978784E+03 0.  0.
         25    2    3    3    0    0  0.11735099179E+02  0.51492332054E+02  0.57499878397E+02  0.14639058354E+03  0.12383373579E+03 0.  0.
          5    1    4    4  502    0 -0.46248861072E+02 -0.78868617446E+02  0.75345788208E+02  0.11856767590E+03  0.47000000000E+01 0. -1.
         -5    1    4    4    0  502  0.34513761892E+02  0.27376285392E+02  0.26089487530E+02  0.51414123754E+02  0.47000000000E+01 0. -1.
          5    1    5    5  503    0 -0.45310313011E+02  0.96775212001E+01 -0.10961383310E+02  0.47842667210E+02  0.47000000000E+01 0. -1.
         -5    1    5    5    0  503  0.57045412190E+02  0.41814810854E+02  0.68461261707E+02  0.98547916331E+02  0.47000000000E+01 0. -1.
<mgrwt>
<rscale>  0 0.27355274E+03</rscale>
<asrwt>0</asrwt>
<pdfrwt beam="1">  1        1 0.36562118E-01 0.27355274E+03</pdfrwt>
<pdfrwt beam="2">  1       -1 0.12110556E-01 0.27355274E+03</pdfrwt>
<totfact> 0.52795442E+03</totfact>
</mgrwt>
</event>
<event>
 9    1  0.8122655E-001  0.2757154E+03  0.7818608E-02  0.1098052E+00
          2   -1    0    0  501    0  0.00000000000E+00  0.00000000000E+00  0.94852622409E+03  0.94852622409E+03  0.00000000000E+00 0.  1.
         -2   -1    0    0    0  501 -0.00000000000E+00 -0.00000000000E+00 -0.20036079544E+02  0.20036079544E+02  0.00000000000E+00 0.  1.
         35    2    1    2    0    0  0.00000000000E+00  0.71054273576E-14  0.92849014454E+03  0.96856230363E+03  0.27571541034E+03 0.  0.
         25    2    3    3    0    0  0.35361888404E+02 -0.46774110677E+02  0.47487502078E+03  0.49452605624E+03  0.12494580568E+03 0.  0.
         25    2    3    3    0    0 -0.35361888404E+02  0.46774110677E+02  0.45361512376E+03  0.47403624739E+03  0.12452069208E+03 0.  0.
          5    1    4    4  502    0  0.47405882833E+02 -0.74595655423E+02  0.43656102422E+03  0.44544297884E+03  0.47000000000E+01 0.  1.
         -5    1    4    4    0  502 -0.12043994429E+02  0.27821544745E+02  0.38313996561E+02  0.49083077392E+02  0.47000000000E+01 0.  1.
          5    1    5    5  503    0 -0.31516120844E+02  0.60644206848E+02  0.10675119642E+03  0.12684200264E+03  0.47000000000E+01 0.  1.
         -5    1    5    5    0  503 -0.38457675597E+01 -0.13870096171E+02  0.34686392735E+03  0.34719424475E+03  0.47000000000E+01 0.  1.
<mgrwt>
<rscale>  0 0.27571541E+03</rscale>
<asrwt>0</asrwt>
<pdfrwt beam="1">  1        2 0.14592708E+00 0.27571541E+03</pdfrwt>
<pdfrwt beam="2">  1       -2 0.30824745E-02 0.27571541E+03</pdfrwt>
<totfact> 0.11470568E+04</totfact>
</mgrwt>
</event>
<event>
 9    1  0.8122655E-001  0.2738709E+03  0.7818608E-02  0.1099084E+00
          2   -1    0    0  501    0  0.00000000000E+00  0.00000000000E+00  0.71029256131E+03  0.71029256131E+03  0.00000000000E+00 0. -1.
         -2   -1    0    0    0  501 -0.00000000000E+00 -0.00000000000E+00 -0.26399431386E+02  0.26399431386E+02  0.00000000000E+00 0. -1.
         35    2    1    2    0    0  0.71054273576E-14  0.00000000000E+00  0.68389312992E+03  0.73669199270E+03  0.27387091657E+03 0.  0.
         25    2    3    3    0    0 -0.34440882941E+02 -0.40079266991E+02  0.30395272410E+03  0.33313674663E+03  0.12569928961E+03 0.  0.
         25    2    3    3    0    0  0.34440882941E+02  0.40079266991E+02  0.37994040582E+03  0.40355524606E+03  0.12533795351E+03 0.  0.
          5    1    4    4  502    0 -0.10702237761E+02 -0.62448215648E+02  0.29079240437E+03  0.29765186035E+03  0.47000000000E+01 0. -1.
         -5    1    4    4    0  502 -0.23738645180E+02  0.22368948657E+02  0.13160319732E+02  0.35484886282E+02  0.47000000000E+01 0. -1.
          5    1    5    5  503    0 -0.10677029680E+02  0.76482759092E+02  0.19971540440E+03  0.21417736611E+03  0.47000000000E+01 0. -1.
         -5    1    5    5    0  503  0.45117912620E+02 -0.36403492101E+02  0.18022500143E+03  0.18937787995E+03  0.47000000000E+01 0. -1.
<mgrwt>
<rscale>  0 0.27387092E+03</rscale>
<asrwt>0</asrwt>
<pdfrwt beam="1">  1        2 0.10927576E+00 0.27387092E+03</pdfrwt>
<pdfrwt beam="2">  1       -2 0.40614515E-02 0.27387092E+03</pdfrwt>
<totfact> 0.11018396E+04</totfact>
</mgrwt>
</event>
<event>
 9    1  0.8122655E-001  0.3001424E+03  0.7818608E-02  0.1085169E+00
          1   -1    0    0  501    0  0.00000000000E+00  0.00000000000E+00  0.84952053887E+03  0.84952053887E+03  0.00000000000E+00 0.  1.
         -1   -1    0    0    0  501 -0.00000000000E+00 -0.00000000000E+00 -0.26510671088E+02  0.26510671088E+02  0.00000000000E+00 0.  1.
         35    2    1    2    0    0 -0.71054273576E-14  0.00000000000E+00  0.82300986778E+03  0.87603120996E+03  0.30014236348E+03 0.  0.
         25    2    3    3    0    0  0.34427424375E+02  0.21694797916E+02  0.20051726596E+03  0.23985444290E+03  0.12516815898E+03 0.  0.
         25    2    3    3    0    0 -0.34427424375E+02 -0.21694797916E+02  0.62249260182E+03  0.63617676706E+03  0.12477150244E+03 0.  0.
          5    1    4    4  502    0  0.79960433372E+02  0.25156461904E+02  0.11017024031E+03  0.13851386332E+03  0.47000000000E+01 0. -1.
         -5    1    4    4    0  502 -0.45533008997E+02 -0.34616639879E+01  0.90347025650E+02  0.10134057958E+03  0.47000000000E+01 0. -1.
          5    1    5    5  503    0  0.32456650354E+02  0.12784131028E+02  0.67883969425E+02  0.76466930520E+02  0.47000000000E+01 0.  1.
         -5    1    5    5    0  503 -0.66884074728E+02 -0.34478928943E+02  0.55460863240E+03  0.55970983654E+03  0.47000000000E+01 0.  1.
<mgrwt>
<rscale>  0 0.30014236E+03</rscale>
<asrwt>0</asrwt>
<pdfrwt beam="1">  1        1 0.13069545E+00 0.30014236E+03</pdfrwt>
<pdfrwt beam="2">  1       -1 0.40785654E-02 0.30014236E+03</pdfrwt>
<totfact> 0.50129148E+03</totfact>
</mgrwt>
</event>
<event>
 9    1  0.8122655E-001  0.2758623E+03  0.7818608E-02  0.1097971E+00
          1   -1    0    0  501    0  0.00000000000E+00  0.00000000000E+00  0.80178990595E+03  0.80178990595E+03  0.00000000000E+00 0. -1.
         -1   -1    0    0    0  501 -0.00000000000E+00 -0.00000000000E+00 -0.23728160622E+02  0.23728160622E+02  0.00000000000E+00 0. -1.
         35    2    1    2    0    0  0.00000000000E+00  0.00000000000E+00  0.77806174533E+03  0.82551806657E+03  0.27586228211E+03 0.  0.
         25    2    3    3    0    0  0.27621728582E+02  0.38133454595E+02  0.28758446435E+03  0.31707219360E+03  0.12495131679E+03 0.  0.
         25    2    3    3    0    0 -0.27621728582E+02 -0.38133454595E+02  0.49047728098E+03  0.50844587298E+03  0.12542775746E+03 0.  0.
          5    1    4    4  502    0  0.41571278593E+02  0.45882643686E+02  0.52252354583E+02  0.81152860423E+02  0.47000000000E+01 0.  1.
         -5    1    4    4    0  502 -0.13949550011E+02 -0.77491890911E+01  0.23533210977E+03  0.23591933317E+03  0.47000000000E+01 0.  1.
          5    1    5    5  503    0 -0.24564791057E+02  0.42093843613E+02  0.12550591868E+03  0.13471876726E+03  0.47000000000E+01 0. -1.
         -5    1    5    5    0  503 -0.30569375247E+01 -0.80227298208E+02  0.36497136230E+03  0.37372710571E+03  0.47000000000E+01 0. -1.
<mgrwt>
<rscale>  0 0.27586228E+03</rscale>
<asrwt>0</asrwt>
<pdfrwt beam="1">  1        1 0.12335227E+00 0.27586228E+03</pdfrwt>
<pdfrwt beam="2">  1       -1 0.36504869E-02 0.27586228E+03</pdfrwt>
<totfact> 0.64602736E+03</totfact>
</mgrwt>
</event>
<event>
 9    1  0.8122655E-001  0.2755049E+03  0.7818608E-02  0.1098170E+00
         -1   -1    0    0    0  501 -0.00000000000E+00  0.00000000000E+00  0.49797982745E+03  0.49797982745E+03  0.00000000000E+00 0. -1.
          1   -1    0    0  501    0  0.00000000000E+00 -0.00000000000E+00 -0.38105438897E+02  0.38105438897E+02  0.00000000000E+00 0. -1.
         35    2    1    2    0    0  0.10658141036E-13 -0.14210854715E-13  0.45987438855E+03  0.53608526634E+03  0.27550491746E+03 0.  0.
         25    2    3    3    0    0  0.20343888537E+02 -0.65461162397E+02  0.21448855017E+03  0.25295453166E+03  0.11524590815E+03 0.  0.
         25    2    3    3    0    0 -0.20343888537E+02  0.65461162397E+02  0.24538583838E+03  0.28313073469E+03  0.12348994156E+03 0.  0.
          5    1    4    4  502    0 -0.36276768334E+02 -0.22139870871E+02  0.15244605139E+03  0.15832898152E+03  0.47000000000E+01 0. -1.
         -5    1    4    4    0  502  0.56620656871E+02 -0.43321291527E+02  0.62042498781E+02  0.94625550139E+02  0.47000000000E+01 0. -1.
          5    1    5    5  503    0  0.28631866229E+02  0.28955914166E+02  0.20658534624E+03  0.21061297208E+03  0.47000000000E+01 0.  1.
         -5    1    5    5    0  503 -0.48975754766E+02  0.36505248232E+02  0.38800492139E+02  0.72517762607E+02  0.47000000000E+01 0.  1.
<mgrwt>
<rscale>  0 0.27550492E+03</rscale>
<asrwt>0</asrwt>
<pdfrwt beam="1">  1        1 0.58623756E-02 0.27550492E+03</pdfrwt>
<pdfrwt beam="2">  1       -1 0.76612277E-01 0.27550492E+03</pdfrwt>
<totfact> 0.23762340E+03</totfact>
</mgrwt>
</event>
<event>
 9    1  0.8122655E-001  0.2694151E+03  0.7818608E-02  0.1101615E+00
          3   -1    0    0  501    0  0.00000000000E+00  0.00000000000E+00  0.26423772356E+02  0.26423772356E+02  0.00000000000E+00 0.  1.
         -3   -1    0    0    0  501 -0.00000000000E+00 -0.00000000000E+00 -0.68673465519E+03  0.68673465519E+03  0.00000000000E+00 0.  1.
         35    2    1    2    0    0  0.00000000000E+00 -0.71054273576E-14 -0.66031088283E+03  0.71315842754E+03  0.26941507157E+03 0.  0.
         25    2    3    3    0    0 -0.89890014891E+01 -0.48976445665E+02 -0.32317814763E+03  0.35000731189E+03  0.12482591436E+03 0.  0.
         25    2    3    3    0    0  0.89890014891E+01  0.48976445665E+02 -0.33713273520E+03  0.36315111565E+03  0.12546217468E+03 0.  0.
          5    1    4    4  502    0 -0.24430249424E+02  0.38085066565E+02 -0.12200873006E+03  0.13021340020E+03  0.47000000000E+01 0.  1.
         -5    1    4    4    0  502  0.15441247935E+02 -0.87061512231E+02 -0.20116941757E+03  0.21979391169E+03  0.47000000000E+01 0.  1.
          5    1    5    5  503    0 -0.10953658508E+01  0.37624633167E+02 -0.34382041318E+03  0.34590660498E+03  0.47000000000E+01 0.  1.
         -5    1    5    5    0  503  0.10084367340E+02  0.11351812499E+02  0.66876779773E+01  0.17244510674E+02  0.47000000000E+01 0.  1.
<mgrwt>
<rscale>  0 0.26941507E+03</rscale>
<asrwt>0</asrwt>
<pdfrwt beam="1">  1        3 0.40651956E-02 0.26941507E+03</pdfrwt>
<pdfrwt beam="2">  1       -3 0.10565149E+00 0.26941507E+03</pdfrwt>
<totfact> 0.63893263E+02</totfact>
</mgrwt>
</event>
<event>
 9    1  0.8122655E-001  0.2690064E+03  0.7818608E-02  0.1101850E+00
          1   -1    0    0  501    0  0.00000000000E+00  0.00000000000E+00  0.68839653768E+03  0.68839653768E+03  0.00000000000E+00 0.  1.
         -1   -1    0    0    0  501 -0.00000000000E+00 -0.00000000000E+00 -0.26280065588E+02  0.26280065588E+02  0.00000000000E+00 0.  1.
         35    2    1    2    0    0 -0.71054273576E-14 -0.35527136788E-14  0.66211647209E+03  0.71467660327E+03  0.26900636543E+03 0.  0.
         25    2    3    3    0    0 -0.13690508754E+02  0.11725004339E+02  0.43402120934E+03  0.45205539593E+03  0.12511900366E+03 0.  0.
         25    2    3    3    0    0  0.13690508754E+02 -0.11725004339E+02  0.22809526275E+03  0.26262120734E+03  0.12890905281E+03 0.  0.
          5    1    4    4  502    0 -0.55620407685E+02  0.34176516258E+02  0.34361865077E+03  0.34979641389E+03  0.47000000000E+01 0.  1.
         -5    1    4    4    0  502  0.41929898931E+02 -0.22451511919E+02  0.90402558572E+02  0.10225898204E+03  0.47000000000E+01 0.  1.
          5    1    5    5  503    0  0.70236588769E+02  0.61612360881E+01  0.12248046697E+03  0.14140259552E+03  0.47000000000E+01 0. -1.
         -5    1    5    5    0  503 -0.56546080015E+02 -0.17886240427E+02  0.10561479578E+03  0.12121861181E+03  0.47000000000E+01 0. -1.
<mgrwt>
<rscale>  0 0.26900637E+03</rscale>
<asrwt>0</asrwt>
<pdfrwt beam="1">  1        1 0.10590715E+00 0.26900637E+03</pdfrwt>
<pdfrwt beam="2">  1       -1 0.40430875E-02 0.26900637E+03</pdfrwt>
<totfact> 0.69656524E+03</totfact>
</mgrwt>
</event>
<event>
 9    1  0.8122655E-001  0.2746921E+03  0.7818608E-02  0.1098624E+00
          2   -1    0    0  501    0  0.00000000000E+00  0.00000000000E+00  0.66002571227E+03  0.66002571227E+03  0.00000000000E+00 0. -1.
         -2   -1    0    0    0  501 -0.00000000000E+00 -0.00000000000E+00 -0.28580619852E+02  0.28580619852E+02  0.00000000000E+00 0. -1.
         35    2    1    2    0    0 -0.35527136788E-14  0.00000000000E+00  0.63144509241E+03  0.68860633212E+03  0.27469214750E+03 0.  0.
         25    2    3    3    0    0 -0.20244567736E+02  0.35361877643E+02  0.41456450600E+03  0.43484695870E+03  0.12477116232E+03 0.  0.
         25    2    3    3    0    0  0.20244567736E+02 -0.35361877643E+02  0.21688058641E+03  0.25375937341E+03  0.12528497882E+03 0.  0.
          5    1    4    4  502    0  0.76498041390E+01  0.56178389090E+02  0.38428966129E+03  0.38847801054E+03  0.47000000000E+01 0. -1.
         -5    1    4    4    0  502 -0.27894371875E+02 -0.20816511447E+02  0.30274844715E+02  0.46368948161E+02  0.47000000000E+01 0. -1.
          5    1    5    5  503    0 -0.16760808287E+02 -0.11501642548E+02  0.20743581569E+03  0.20848242158E+03  0.47000000000E+01 0.  1.
         -5    1    5    5    0  503  0.37005376022E+02 -0.23860235095E+02  0.94447707201E+01  0.45276951833E+02  0.47000000000E+01 0.  1.
<mgrwt>
<rscale>  0 0.27469215E+03</rscale>
<asrwt>0</asrwt>
<pdfrwt beam="1">  1        2 0.10154241E+00 0.27469215E+03</pdfrwt>
<pdfrwt beam="2">  1       -2 0.43970189E-02 0.27469215E+03</pdfrwt>
<totfact> 0.10680722E+04</totfact>
</mgrwt>
</event>
<event>
 9    1  0.8122655E-001  0.2739189E+03  0.7818608E-02  0.1099057E+00
          1   -1    0    0  501    0  0.00000000000E+00  0.00000000000E+00  0.30381362249E+03  0.30381362249E+03  0.00000000000E+00 0.  1.
         -1   -1    0    0    0  501 -0.00000000000E+00 -0.00000000000E+00 -0.61741431921E+02  0.61741431921E+02  0.00000000000E+00 0.  1.
         35    2    1    2    0    0  0.00000000000E+00  0.35527136788E-14  0.24207219056E+03  0.36555505441E+03  0.27391887915E+03 0.  0.
         25    2    3    3    0    0 -0.23495730438E+02  0.61451121751E+01  0.18771801109E+03  0.22680293657E+03  0.12494682307E+03 0.  0.
         25    2    3    3    0    0  0.23495730438E+02 -0.61451121751E+01  0.54354179475E+02  0.13875211784E+03  0.12533140718E+03 0.  0.
          5    1    4    4  502    0  0.35716948006E+02 -0.22458887677E+02  0.20671886290E+02  0.47217781538E+02  0.47000000000E+01 0.  1.
         -5    1    4    4    0  502 -0.59212678445E+02  0.28603999852E+02  0.16704612480E+03  0.17958515503E+03  0.47000000000E+01 0.  1.
          5    1    5    5  503    0 -0.18029373907E+02 -0.47198962944E+02 -0.10008624797E+02  0.51721011173E+02  0.47000000000E+01 0.  1.
         -5    1    5    5    0  503  0.41525104346E+02  0.41053850769E+02  0.64362804272E+02  0.87031106667E+02  0.47000000000E+01 0.  1.
<mgrwt>
<rscale>  0 0.27391888E+03</rscale>
<asrwt>0</asrwt>
<pdfrwt beam="1">  1        1 0.46740557E-01 0.27391888E+03</pdfrwt>
<pdfrwt beam="2">  1       -1 0.94986820E-02 0.27391888E+03</pdfrwt>
<totfact> 0.56545790E+03</totfact>
</mgrwt>
</event>
<event>
 9    1  0.8122655E-001  0.2671957E+03  0.7818608E-02  0.1102895E+00
          2   -1    0    0  501    0  0.00000000000E+00  0.00000000000E+00  0.83507289758E+02  0.83507289758E+02  0.00000000000E+00 0.  1.
         -2   -1    0    0    0  501 -0.00000000000E+00 -0.00000000000E+00 -0.21373450280E+03  0.21373450280E+03  0.00000000000E+00 0.  1.
         35    2    1    2    0    0  0.71054273576E-14 -0.71054273576E-14 -0.13022721305E+03  0.29724179256E+03  0.26719572644E+03 0.  0.
         25    2    3    3    0    0 -0.35368602783E+02  0.27759814925E+02 -0.55154690547E+02  0.14399377082E+03  0.12518235002E+03 0.  0.
         25    2    3    3    0    0  0.35368602783E+02 -0.27759814925E+02 -0.75072522499E+02  0.15324802174E+03  0.12580750036E+03 0.  0.
          5    1    4    4  502    0 -0.41989210496E+02  0.25939743564E+01  0.31904259700E+02  0.53007492754E+02  0.47000000000E+01 0. -1.
         -5    1    4    4    0  502  0.66206077124E+01  0.25165840569E+02 -0.87058950247E+02  0.90986278065E+02  0.47000000000E+01 0. -1.
          5    1    5    5  503    0 -0.26334549114E+02 -0.40030599864E+02  0.81349837357E+01  0.48828530215E+02  0.47000000000E+01 0.  1.
         -5    1    5    5    0  503  0.61703151898E+02  0.12270784939E+02 -0.83207506235E+02  0.10441949153E+03  0.47000000000E+01 0.  1.
<mgrwt>
<rscale>  0 0.26719573E+03</rscale>
<asrwt>0</asrwt>
<pdfrwt beam="1">  1        2 0.12847276E-01 0.26719573E+03</pdfrwt>
<pdfrwt beam="2">  1       -2 0.32882231E-01 0.26719573E+03</pdfrwt>
<totfact> 0.40293994E+03</totfact>
</mgrwt>
</event>
<event>
 9    1  0.8122655E-001  0.2729626E+03  0.7818608E-02  0.1099596E+00
          1   -1    0    0  501    0  0.00000000000E+00  0.00000000000E+00  0.17170735835E+02  0.17170735835E+02  0.00000000000E+00 0.  1.
         -1   -1    0    0    0  501 -0.00000000000E+00 -0.00000000000E+00 -0.10848193277E+04  0.10848193277E+04  0.00000000000E+00 0.  1.
         35    2    1    2    0    0  0.00000000000E+00 -0.71054273576E-14 -0.10676485919E+04  0.11019900635E+04  0.27296260627E+03 0.  0.
         25    2    3    3    0    0  0.27314260562E+02  0.45147590019E+02 -0.47223212811E+03  0.49146151011E+03  0.12548649085E+03 0.  0.
         25    2    3    3    0    0 -0.27314260562E+02 -0.45147590019E+02 -0.59541646377E+03  0.61052855344E+03  0.12425769805E+03 0.  0.
          5    1    4    4  502    0 -0.16065816023E+02 -0.35643580499E+02 -0.20892110602E+03  0.21259984435E+03  0.47000000000E+01 0.  1.
         -5    1    4    4    0  502  0.43380076586E+02  0.80791170518E+02 -0.26331102209E+03  0.27886166576E+03  0.47000000000E+01 0.  1.
          5    1    5    5  503    0 -0.59870144108E+02  0.32236438044E+01 -0.44655195700E+03  0.45058358418E+03  0.47000000000E+01 0. -1.
         -5    1    5    5    0  503  0.32555883545E+02 -0.48371233824E+02 -0.14886450677E+03  0.15994496925E+03  0.47000000000E+01 0. -1.
<mgrwt>
<rscale>  0 0.27296261E+03</rscale>
<asrwt>0</asrwt>
<pdfrwt beam="1">  1        1 0.26416514E-02 0.27296261E+03</pdfrwt>
<pdfrwt beam="2">  1       -1 0.16689530E+00 0.27296261E+03</pdfrwt>
<totfact> 0.11553504E+03</totfact>
</mgrwt>
</event>
<event>
 9    1  0.8122655E-001  0.2744398E+03  0.7818608E-02  0.1098765E+00
         -2   -1    0    0    0  501 -0.00000000000E+00  0.00000000000E+00  0.15044520530E+02  0.15044520530E+02  0.00000000000E+00 0. -1.
          2   -1    0    0  501    0  0.00000000000E+00 -0.00000000000E+00 -0.12515717828E+04  0.12515717828E+04  0.00000000000E+00 0. -1.
         35    2    1    2    0    0  0.53290705182E-14 -0.10658141036E-13 -0.12365272623E+04  0.12666163034E+04  0.27443977395E+03 0.  0.
         25    2    3    3    0    0  0.11909705064E+02 -0.23336848877E+02 -0.48319212372E+03  0.50252785547E+03  0.13554765768E+03 0.  0.
         25    2    3    3    0    0 -0.11909705064E+02  0.23336848877E+02 -0.75333513858E+03  0.76408844789E+03  0.12502350019E+03 0.  0.
          5    1    4    4  502    0  0.65286836889E+02 -0.40428500489E+02 -0.34198241410E+03  0.35052945137E+03  0.47000000000E+01 0.  1.
         -5    1    4    4    0  502 -0.53377131825E+02  0.17091651612E+02 -0.14120970962E+03  0.15199840410E+03  0.47000000000E+01 0.  1.
          5    1    5    5  503    0 -0.25147643773E+01  0.74409171159E+02 -0.48929234246E+03  0.49494659831E+03  0.47000000000E+01 0.  1.
         -5    1    5    5    0  503 -0.93949406862E+01 -0.51072322282E+02 -0.26404279612E+03  0.26914184958E+03  0.47000000000E+01 0.  1.
<mgrwt>
<rscale>  0 0.27443977E+03</rscale>
<asrwt>0</asrwt>
<pdfrwt beam="1">  1        2 0.19254954E+00 0.27443977E+03</pdfrwt>
<pdfrwt beam="2">  1       -2 0.23145412E-02 0.27443977E+03</pdfrwt>
<totfact> 0.11623648E+04</totfact>
</mgrwt>
</event>
<event>
 9    1  0.8122655E-001  0.2725646E+03  0.7818608E-02  0.1099821E+00
          3   -1    0    0  501    0  0.00000000000E+00  0.00000000000E+00  0.86214764539E+03  0.86214764539E+03  0.00000000000E+00 0.  1.
         -3   -1    0    0    0  501 -0.00000000000E+00 -0.00000000000E+00 -0.21542557467E+02  0.21542557467E+02  0.00000000000E+00 0.  1.
         35    2    1    2    0    0  0.24424906542E-14  0.00000000000E+00  0.84060508792E+03  0.88369020285E+03  0.27256459928E+03 0.  0.
         25    2    3    3    0    0 -0.10090527661E+01  0.48210052563E+02  0.45898496537E+03  0.47840541410E+03  0.12601315187E+03 0.  0.
         25    2    3    3    0    0  0.10090527661E+01 -0.48210052563E+02  0.38162012255E+03  0.40528478875E+03  0.12765819483E+03 0.  0.
          5    1    4    4  502    0 -0.72992296054E+00 -0.11974665798E+02  0.37367068818E+03  0.37389276352E+03  0.47000000000E+01 0.  1.
         -5    1    4    4    0  502 -0.27912980552E+00  0.60184718361E+02  0.85314277192E+02  0.10451265058E+03  0.47000000000E+01 0.  1.
          5    1    5    5  503    0 -0.39034164700E+02  0.24353733479E+02  0.79557698172E+02  0.92023299694E+02  0.47000000000E+01 0. -1.
         -5    1    5    5    0  503  0.40043217466E+02 -0.72563786042E+02  0.30206242437E+03  0.31326148906E+03  0.47000000000E+01 0. -1.
<mgrwt>
<rscale>  0 0.27256460E+03</rscale>
<asrwt>0</asrwt>
<pdfrwt beam="1">  1        3 0.13263807E+00 0.27256460E+03</pdfrwt>
<pdfrwt beam="2">  1       -3 0.33142403E-02 0.27256460E+03</pdfrwt>
<totfact> 0.51465837E+02</totfact>
</mgrwt>
</event>
<event>
 9    1  0.8122655E-001  0.2649029E+03  0.7818608E-02  0.1104233E+00
          1   -1    0    0  501    0  0.00000000000E+00  0.00000000000E+00  0.13816544618E+03  0.13816544618E+03  0.00000000000E+00 0. -1.
         -1   -1    0    0    0  501 -0.00000000000E+00 -0.00000000000E+00 -0.12697375335E+03  0.12697375335E+03  0.00000000000E+00 0. -1.
         35    2    1    2    0    0 -0.71054273576E-14 -0.35527136788E-14  0.11191692832E+02  0.26513919953E+03  0.26490289002E+03 0.  0.
         25    2    3    3    0    0 -0.31045885182E+02 -0.25971001333E+02  0.99037494967E+01  0.13244182229E+03  0.12571560023E+03 0.  0.
         25    2    3    3    0    0  0.31045885182E+02  0.25971001333E+02  0.12879433350E+01  0.13269737724E+03  0.12636690718E+03 0.  0.
          5    1    4    4  502    0 -0.69172084528E+02 -0.27049257968E+02 -0.26994392092E+02  0.79165818628E+02  0.47000000000E+01 0. -1.
         -5    1    4    4    0  502  0.38126199346E+02  0.10782566351E+01  0.36898141589E+02  0.53276003666E+02  0.47000000000E+01 0. -1.
          5    1    5    5  503    0  0.50768526432E+02 -0.37024032433E+02 -0.14512082216E+02  0.64659978224E+02  0.47000000000E+01 0. -1.
         -5    1    5    5    0  503 -0.19722641249E+02  0.62995033766E+02  0.15800025551E+02  0.68037399013E+02  0.47000000000E+01 0. -1.
<mgrwt>
<rscale>  0 0.26490289E+03</rscale>
<asrwt>0</asrwt>
<pdfrwt beam="1">  1        1 0.21256222E-01 0.26490289E+03</pdfrwt>
<pdfrwt beam="2">  1       -1 0.19534424E-01 0.26490289E+03</pdfrwt>
<totfact> 0.49015909E+03</totfact>
</mgrwt>
</event>
<event>
 9    1  0.8122655E-001  0.2806457E+03  0.7818608E-02  0.1095337E+00
         -2   -1    0    0    0  501 -0.00000000000E+00  0.00000000000E+00  0.85278344944E+02  0.85278344944E+02  0.00000000000E+00 0. -1.
          2   -1    0    0  501    0  0.00000000000E+00 -0.00000000000E+00 -0.23089683170E+03  0.23089683170E+03  0.00000000000E+00 0. -1.
         35    2    1    2    0    0  0.00000000000E+00  0.00000000000E+00 -0.14561848676E+03  0.31617517665E+03  0.28064568167E+03 0.  0.
         25    2    3    3    0    0 -0.37458184534E+02  0.46106773385E+02 -0.93630203884E+02  0.16713640965E+03  0.12505604428E+03 0.  0.
         25    2    3    3    0    0  0.37458184534E+02 -0.46106773385E+02 -0.51988282875E+02  0.14903876699E+03  0.12641527744E+03 0.  0.
          5    1    4    4  502    0  0.20039022425E+02  0.23794546014E+02 -0.10011670362E+03  0.10494373342E+03  0.47000000000E+01 0.  1.
         -5    1    4    4    0  502 -0.57497206958E+02  0.22312227371E+02  0.64864997392E+01  0.62192676234E+02  0.47000000000E+01 0.  1.
          5    1    5    5  503    0  0.80568089609E+02 -0.72702352915E+01 -0.24450786092E+02  0.84640441426E+02  0.47000000000E+01 0.  1.
         -5    1    5    5    0  503 -0.43109905075E+02 -0.38836538094E+02 -0.27537496784E+02  0.64398325567E+02  0.47000000000E+01 0.  1.
<mgrwt>
<rscale>  0 0.28064568E+03</rscale>
<asrwt>0</asrwt>
<pdfrwt beam="1">  1        2 0.35522589E-01 0.28064568E+03</pdfrwt>
<pdfrwt beam="2">  1       -2 0.13119746E-01 0.28064568E+03</pdfrwt>
<totfact> 0.61780852E+03</totfact>
</mgrwt>
</event>
<event>
 9    1  0.8122655E-001  0.2713902E+03  0.7818608E-02  0.1100487E+00
         -2   -1    0    0    0  501 -0.00000000000E+00  0.00000000000E+00  0.72745967506E+02  0.72745967506E+02  0.00000000000E+00 0. -1.
          2   -1    0    0  501    0  0.00000000000E+00 -0.00000000000E+00 -0.25311594562E+03  0.25311594562E+03  0.00000000000E+00 0. -1.
         35    2    1    2    0    0  0.14210854715E-13 -0.35527136788E-14 -0.18036997812E+03  0.32586191313E+03  0.27139023089E+03 0.  0.
         25    2    3    3    0    0 -0.40408723471E+02  0.68470721289E+01 -0.50205159664E+02  0.14047735917E+03  0.12463379580E+03 0.  0.
         25    2    3    3    0    0  0.40408723471E+02 -0.68470721289E+01 -0.13016481845E+03  0.18538455395E+03  0.12547830710E+03 0.  0.
          5    1    4    4  502    0 -0.35662558802E+02 -0.35408021912E+02  0.23172976700E+02  0.55539382110E+02  0.47000000000E+01 0.  1.
         -5    1    4    4    0  502 -0.47461646694E+01  0.42255094041E+02 -0.73378136364E+02  0.84937977064E+02  0.47000000000E+01 0.  1.
          5    1    5    5  503    0  0.20568381081E+02 -0.61733397911E+01  0.22445049367E+02  0.31417171508E+02  0.47000000000E+01 0.  1.
         -5    1    5    5    0  503  0.19840342390E+02 -0.67373233777E+00 -0.15260986782E+03  0.15396738245E+03  0.47000000000E+01 0.  1.
<mgrwt>
<rscale>  0 0.27139023E+03</rscale>
<asrwt>0</asrwt>
<pdfrwt beam="1">  1        2 0.38940915E-01 0.27139023E+03</pdfrwt>
<pdfrwt beam="2">  1       -2 0.11191687E-01 0.27139023E+03</pdfrwt>
<totfact> 0.72227497E+03</totfact>
</mgrwt>
</event>
<event>
 9    1  0.8122655E-001  0.2730631E+03  0.7818608E-02  0.1099539E+00
          2   -1    0    0  501    0  0.00000000000E+00  0.00000000000E+00  0.11053413214E+04  0.11053413214E+04  0.00000000000E+00 0.  1.
         -2   -1    0    0    0  501 -0.00000000000E+00 -0.00000000000E+00 -0.16864345934E+02  0.16864345934E+02  0.00000000000E+00 0.  1.
         35    2    1    2    0    0  0.00000000000E+00  0.71054273576E-14  0.10884769755E+04  0.11222056673E+04  0.27306305806E+03 0.  0.
         25    2    3    3    0    0 -0.18172817164E+02  0.40091021247E+02  0.67368582291E+03  0.68691682605E+03  0.12674618987E+03 0.  0.
         25    2    3    3    0    0  0.18172817164E+02 -0.40091021247E+02  0.41479115255E+03  0.43528884128E+03  0.12444731352E+03 0.  0.
          5    1    4    4  502    0 -0.85238658171E+01 -0.39637588772E+02  0.38735198691E+03  0.38949640114E+03  0.47000000000E+01 0. -1.
         -5    1    4    4    0  502 -0.96489513467E+01  0.79728610018E+02  0.28633383600E+03  0.29742042491E+03  0.47000000000E+01 0. -1.
          5    1    5    5  503    0  0.31013010882E+02 -0.61185034748E+02  0.11175869740E+03  0.13121551648E+03  0.47000000000E+01 0.  1.
         -5    1    5    5    0  503 -0.12840193718E+02  0.21094013501E+02  0.30303245515E+03  0.30407332480E+03  0.47000000000E+01 0.  1.
<mgrwt>
<rscale>  0 0.27306306E+03</rscale>
<asrwt>0</asrwt>
<pdfrwt beam="1">  1        2 0.17005245E+00 0.27306306E+03</pdfrwt>
<pdfrwt beam="2">  1       -2 0.25945156E-02 0.27306306E+03</pdfrwt>
<totfact> 0.11902109E+04</totfact>
</mgrwt>
</event>
<event>
 9    1  0.8122655E-001  0.2875230E+03  0.7818608E-02  0.1091650E+00
         -2   -1    0    0    0  501 -0.00000000000E+00  0.00000000000E+00  0.34034867696E+02  0.34034867696E+02  0.00000000000E+00 0.  1.
          2   -1    0    0  501    0  0.00000000000E+00 -0.00000000000E+00 -0.60724085289E+03  0.60724085289E+03  0.00000000000E+00 0.  1.
         35    2    1    2    0    0  0.00000000000E+00  0.00000000000E+00 -0.57320598520E+03  0.64127572059E+03  0.28752295274E+03 0.  0.
         25    2    3    3    0    0  0.27042268314E+02  0.70446293496E+02 -0.30636317542E+03  0.33716901473E+03  0.11887213591E+03 0.  0.
         25    2    3    3    0    0 -0.27042268314E+02 -0.70446293496E+02 -0.26684280977E+03  0.30410670586E+03  0.12482723612E+03 0.  0.
          5    1    4    4  502    0  0.66814624954E+02  0.70884186217E+02 -0.18152732782E+03  0.20606557866E+03  0.47000000000E+01 0.  1.
         -5    1    4    4    0  502 -0.39772356639E+02 -0.43789272124E+00 -0.12483584761E+03  0.13110343607E+03  0.47000000000E+01 0.  1.
          5    1    5    5  503    0 -0.68002570665E+02 -0.76531609335E+02 -0.20943581129E+03  0.23316707721E+03  0.47000000000E+01 0. -1.
         -5    1    5    5    0  503  0.40960302350E+02  0.60853158395E+01 -0.57406998486E+02  0.70939628647E+02  0.47000000000E+01 0. -1.
<mgrwt>
<rscale>  0 0.28752295E+03</rscale>
<asrwt>0</asrwt>
<pdfrwt beam="1">  1        2 0.93421667E-01 0.28752295E+03</pdfrwt>
<pdfrwt beam="2">  1       -2 0.52361336E-02 0.28752295E+03</pdfrwt>
<totfact> 0.90544940E+03</totfact>
</mgrwt>
</event>
<event>
 9    1  0.8122655E-001  0.2723355E+03  0.7818608E-02  0.1099950E+00
          1   -1    0    0  501    0  0.00000000000E+00  0.00000000000E+00  0.36156919303E+03  0.36156919303E+03  0.00000000000E+00 0. -1.
         -1   -1    0    0    0  501 -0.00000000000E+00 -0.00000000000E+00 -0.51281085572E+02  0.51281085572E+02  0.00000000000E+00 0. -1.
         35    2    1    2    0    0  0.35527136788E-14 -0.35527136788E-14  0.31028810746E+03  0.41285027860E+03  0.27233553369E+03 0.  0.
         25    2    3    3    0    0  0.65297068388E+01 -0.20693870588E+02  0.81917934085E+02  0.15162260408E+03  0.12572984049E+03 0.  0.
         25    2    3    3    0    0 -0.65297068388E+01  0.20693870588E+02  0.22837017337E+03  0.26122767453E+03  0.12496434892E+03 0.  0.
          5    1    4    4  502    0 -0.47332502328E+02 -0.40107716776E+02  0.68677568460E+02  0.92669807009E+02  0.47000000000E+01 0.  1.
         -5    1    4    4    0  502  0.53862209166E+02  0.19413846188E+02  0.13240365625E+02  0.58952797067E+02  0.47000000000E+01 0.  1.
          5    1    5    5  503    0 -0.24804794290E+02  0.11321680907E+02 -0.39544012902E+01  0.27949697098E+02  0.47000000000E+01 0. -1.
         -5    1    5    5    0  503  0.18275087451E+02  0.93721896805E+01  0.23232457466E+03  0.23327797743E+03  0.47000000000E+01 0. -1.
<mgrwt>
<rscale>  0 0.27233553E+03</rscale>
<asrwt>0</asrwt>
<pdfrwt beam="1">  1        1 0.55626028E-01 0.27233553E+03</pdfrwt>
<pdfrwt beam="2">  1       -1 0.78893980E-02 0.27233553E+03</pdfrwt>
<totfact> 0.60313441E+03</totfact>
</mgrwt>
</event>
<event>
 9    1  0.8122655E-001  0.2734014E+03  0.7818608E-02  0.1099349E+00
         -2   -1    0    0    0  501 -0.00000000000E+00  0.00000000000E+00  0.15040554661E+02  0.15040554661E+02  0.00000000000E+00 0. -1.
          2   -1    0    0  501    0  0.00000000000E+00 -0.00000000000E+00 -0.12424462081E+04  0.12424462081E+04  0.00000000000E+00 0. -1.
         35    2    1    2    0    0  0.00000000000E+00 -0.71054273576E-14 -0.12274056534E+04  0.12574867627E+04  0.27340139067E+03 0.  0.
         25    2    3    3    0    0  0.69238572219E+01  0.55530884473E+02 -0.67720100212E+03  0.69036165213E+03  0.12192782506E+03 0.  0.
         25    2    3    3    0    0 -0.69238572219E+01 -0.55530884473E+02 -0.55020465129E+03  0.56712511060E+03  0.12559503911E+03 0.  0.
          5    1    4    4  502    0  0.85850699885E+01 -0.20347815636E+02 -0.45403123676E+03  0.45459233493E+03  0.47000000000E+01 0.  1.
         -5    1    4    4    0  502 -0.16612127666E+01  0.75878700110E+02 -0.22316976537E+03  0.23576931720E+03  0.47000000000E+01 0.  1.
          5    1    5    5  503    0 -0.50953894359E+02 -0.54751598177E+02 -0.46596992357E+03  0.47195772747E+03  0.47000000000E+01 0.  1.
         -5    1    5    5    0  503  0.44030037137E+02 -0.77928629606E+00 -0.84234727719E+02  0.95167383127E+02  0.47000000000E+01 0.  1.
<mgrwt>
<rscale>  0 0.27340139E+03</rscale>
<asrwt>0</asrwt>
<pdfrwt beam="1">  1        2 0.19114555E+00 0.27340139E+03</pdfrwt>
<pdfrwt beam="2">  1       -2 0.23139318E-02 0.27340139E+03</pdfrwt>
<totfact> 0.11764827E+04</totfact>
</mgrwt>
</event>
<event>
 9    1  0.8122655E-001  0.2746137E+03  0.7818608E-02  0.1098668E+00
          1   -1    0    0  501    0  0.00000000000E+00  0.00000000000E+00  0.10367027565E+04  0.10367027565E+04  0.00000000000E+00 0.  1.
         -1   -1    0    0    0  501 -0.00000000000E+00 -0.00000000000E+00 -0.18185709968E+02  0.18185709968E+02  0.00000000000E+00 0.  1.
         35    2    1    2    0    0  0.17763568394E-14  0.00000000000E+00  0.10185170466E+04  0.10548884665E+04  0.27461373348E+03 0.  0.
         25    2    3    3    0    0  0.13556868884E+02 -0.54171189248E+02  0.47361827847E+03  0.49300597716E+03  0.12498925304E+03 0.  0.
         25    2    3    3    0    0 -0.13556868884E+02  0.54171189248E+02  0.54489876810E+03  0.56188248935E+03  0.12521564567E+03 0.  0.
          5    1    4    4  502    0  0.11010871953E+02 -0.61104963200E+02  0.90865065841E+02  0.11015264872E+03  0.47000000000E+01 0. -1.
         -5    1    4    4    0  502  0.25459969315E+01  0.69337739520E+01  0.38275321263E+03  0.38285332844E+03  0.47000000000E+01 0. -1.
          5    1    5    5  503    0  0.44324404313E+02  0.64215534249E+02  0.31022858376E+03  0.31992522851E+03  0.47000000000E+01 0. -1.
         -5    1    5    5    0  503 -0.57881273198E+02 -0.10044345001E+02  0.23467018434E+03  0.24195726084E+03  0.47000000000E+01 0. -1.
<mgrwt>
<rscale>  0 0.27461373E+03</rscale>
<asrwt>0</asrwt>
<pdfrwt beam="1">  1        1 0.15949269E+00 0.27461373E+03</pdfrwt>
<pdfrwt beam="2">  1       -1 0.27978023E-02 0.27461373E+03</pdfrwt>
<totfact> 0.62750481E+03</totfact>
</mgrwt>
</event>
<event>
 9    1  0.8122655E-001  0.2875056E+03  0.7818608E-02  0.1091659E+00
          1   -1    0    0  501    0  0.00000000000E+00  0.00000000000E+00  0.11546447294E+04  0.11546447294E+04  0.00000000000E+00 0. -1.
         -1   -1    0    0    0  501 -0.00000000000E+00 -0.00000000000E+00 -0.17897169521E+02  0.17897169521E+02  0.00000000000E+00 0. -1.
         35    2    1    2    0    0  0.00000000000E+00  0.00000000000E+00  0.11367475599E+04  0.11725418989E+04  0.28750563444E+03 0.  0.
         25    2    3    3    0    0 -0.46189942652E+02 -0.38635111995E+02  0.72855714791E+03  0.74174688709E+03  0.12556569619E+03 0.  0.
         25    2    3    3    0    0  0.46189942652E+02  0.38635111995E+02  0.40819041198E+03  0.43079501184E+03  0.12384969565E+03 0.  0.
          5    1    4    4  502    0  0.14037351901E+02 -0.64193819552E+02  0.24271274698E+03  0.25149445573E+03  0.47000000000E+01 0. -1.
         -5    1    4    4    0  502 -0.60227294552E+02  0.25558707557E+02  0.48584440093E+03  0.49025243136E+03  0.47000000000E+01 0. -1.
          5    1    5    5  503    0  0.17251303978E+02  0.48843267445E+01  0.37413837928E+03  0.37459722501E+03  0.47000000000E+01 0. -1.
         -5    1    5    5    0  503  0.28938638674E+02  0.33750785250E+02  0.34052032702E+02  0.56197786828E+02  0.47000000000E+01 0. -1.
<mgrwt>
<rscale>  0 0.28750563E+03</rscale>
<asrwt>0</asrwt>
<pdfrwt beam="1">  1        1 0.17763759E+00 0.28750563E+03</pdfrwt>
<pdfrwt beam="2">  1       -1 0.27534116E-02 0.28750563E+03</pdfrwt>
<totfact> 0.52836650E+03</totfact>
</mgrwt>
</event>
<event>
 9    1  0.8122655E-001  0.2749336E+03  0.7818608E-02  0.1098489E+00
         -2   -1    0    0    0  501 -0.00000000000E+00  0.00000000000E+00  0.15709816295E+02  0.15709816295E+02  0.00000000000E+00 0.  1.
          2   -1    0    0  501    0  0.00000000000E+00 -0.00000000000E+00 -0.12028865801E+04  0.12028865801E+04  0.00000000000E+00 0.  1.
         35    2    1    2    0    0  0.17763568394E-14  0.00000000000E+00 -0.11871767638E+04  0.12185963964E+04  0.27493364433E+03 0.  0.
         25    2    3    3    0    0 -0.76459737037E+01 -0.45256146230E+02 -0.49142423764E+03  0.51004479854E+03  0.12861312331E+03 0.  0.
         25    2    3    3    0    0  0.76459737037E+01  0.45256146230E+02 -0.69575252616E+03  0.70855159785E+03  0.12596511214E+03 0.  0.
          5    1    4    4  502    0 -0.33846928537E+02  0.33878213172E+02 -0.11867306486E+03  0.12805754262E+03  0.47000000000E+01 0.  1.
         -5    1    4    4    0  502  0.26200954833E+02 -0.79134359402E+02 -0.37275117278E+03  0.38198725592E+03  0.47000000000E+01 0.  1.
          5    1    5    5  503    0  0.14121761312E+02  0.47939902017E+02 -0.92520928388E+02  0.10526096398E+03  0.47000000000E+01 0. -1.
         -5    1    5    5    0  503 -0.64757876079E+01 -0.26837557868E+01 -0.60323159777E+03  0.60329063387E+03  0.47000000000E+01 0. -1.
<mgrwt>
<rscale>  0 0.27493364E+03</rscale>
<asrwt>0</asrwt>
<pdfrwt beam="1">  1        2 0.18505951E+00 0.27493364E+03</pdfrwt>
<pdfrwt beam="2">  1       -2 0.24168944E-02 0.27493364E+03</pdfrwt>
<totfact> 0.11615858E+04</totfact>
</mgrwt>
</event>
<event>
 9    1  0.8122655E-001  0.2760579E+03  0.7818608E-02  0.1097862E+00
         -3   -1    0    0    0  501 -0.00000000000E+00  0.00000000000E+00  0.21566609783E+03  0.21566609783E+03  0.00000000000E+00 0.  1.
          3   -1    0    0  501    0  0.00000000000E+00 -0.00000000000E+00 -0.88340199223E+02  0.88340199223E+02  0.00000000000E+00 0.  1.
         35    2    1    2    0    0  0.00000000000E+00 -0.14210854715E-13  0.12732589861E+03  0.30400629705E+03  0.27605786385E+03 0.  0.
         25    2    3    3    0    0 -0.21769706390E+01 -0.56683524776E+02  0.63941689370E+02  0.15622011525E+03  0.13076094060E+03 0.  0.
         25    2    3    3    0    0  0.21769706390E+01  0.56683524776E+02  0.63384209236E+02  0.14778618181E+03  0.12085295350E+03 0.  0.
          5    1    4    4  502    0  0.21419115900E+02 -0.68276186734E+02  0.92551374554E+02  0.11708229214E+03  0.47000000000E+01 0. -1.
         -5    1    4    4    0  502 -0.23596086539E+02  0.11592661958E+02 -0.28609685184E+02  0.39137823107E+02  0.47000000000E+01 0. -1.
          5    1    5    5  503    0 -0.19365675778E+02  0.90669582866E+02  0.47402254385E+02  0.10423562911E+03  0.47000000000E+01 0.  1.
         -5    1    5    5    0  503  0.21542646417E+02 -0.33986058090E+02  0.15981954851E+02  0.43550552694E+02  0.47000000000E+01 0.  1.
<mgrwt>
<rscale>  0 0.27605786E+03</rscale>
<asrwt>0</asrwt>
<pdfrwt beam="1">  1        3 0.13590800E-01 0.27605786E+03</pdfrwt>
<pdfrwt beam="2">  1       -3 0.33179400E-01 0.27605786E+03</pdfrwt>
<totfact> 0.99395785E+02</totfact>
</mgrwt>
</event>
<event>
 9    1  0.8122655E-001  0.2774176E+03  0.7818608E-02  0.1097108E+00
          1   -1    0    0  501    0  0.00000000000E+00  0.00000000000E+00  0.54585281765E+03  0.54585281765E+03  0.00000000000E+00 0. -1.
         -1   -1    0    0    0  501 -0.00000000000E+00 -0.00000000000E+00 -0.35247842493E+02  0.35247842493E+02  0.00000000000E+00 0. -1.
         35    2    1    2    0    0  0.00000000000E+00  0.00000000000E+00  0.51060497516E+03  0.58110066015E+03  0.27741762122E+03 0.  0.
         25    2    3    3    0    0  0.17443229668E+01  0.58059997678E+02  0.27415887788E+03  0.30714797464E+03  0.12570911667E+03 0.  0.
         25    2    3    3    0    0 -0.17443229668E+01 -0.58059997678E+02  0.23644609728E+03  0.27395268550E+03  0.12557591720E+03 0.  0.
          5    1    4    4  502    0  0.67920821787E+01  0.20767692517E+02  0.26775522947E+03  0.26868640148E+03  0.47000000000E+01 0. -1.
         -5    1    4    4    0  502 -0.50477592118E+01  0.37292305160E+02  0.64036484099E+01  0.38461573163E+02  0.47000000000E+01 0. -1.
          5    1    5    5  503    0 -0.18619259977E+02 -0.84572438381E+02  0.22332559658E+03  0.23957375955E+03  0.47000000000E+01 0.  1.
         -5    1    5    5    0  503  0.16874937010E+02  0.26512440704E+02  0.13120500700E+02  0.34378925954E+02  0.47000000000E+01 0.  1.
<mgrwt>
<rscale>  0 0.27741762E+03</rscale>
<asrwt>0</asrwt>
<pdfrwt beam="1">  1        1 0.83977350E-01 0.27741762E+03</pdfrwt>
<pdfrwt beam="2">  1       -1 0.54227454E-02 0.27741762E+03</pdfrwt>
<totfact> 0.62193611E+03</totfact>
</mgrwt>
</event>
<event>
 9    1  0.8122655E-001  0.2718617E+03  0.7818608E-02  0.1100219E+00
         -2   -1    0    0    0  501 -0.00000000000E+00  0.00000000000E+00  0.99157485478E+02  0.99157485478E+02  0.00000000000E+00 0.  1.
          2   -1    0    0  501    0  0.00000000000E+00 -0.00000000000E+00 -0.18634185178E+03  0.18634185178E+03  0.00000000000E+00 0.  1.
         35    2    1    2    0    0  0.71054273576E-14  0.35527136788E-14 -0.87184366298E+02  0.28549933725E+03  0.27186165203E+03 0.  0.
         25    2    3    3    0    0 -0.44485431723E+02 -0.23107764770E+02 -0.27352569703E+02  0.13804187819E+03  0.12567607026E+03 0.  0.
         25    2    3    3    0    0  0.44485431723E+02  0.23107764770E+02 -0.59831796594E+02  0.14745745906E+03  0.12510370067E+03 0.  0.
          5    1    4    4  502    0  0.43552862226E+02 -0.16793925202E+02 -0.97094813802E+01  0.47908785837E+02  0.47000000000E+01 0. -1.
         -5    1    4    4    0  502 -0.88038293949E+02 -0.63138395679E+01 -0.17643088323E+02  0.90133092353E+02  0.47000000000E+01 0. -1.
          5    1    5    5  503    0  0.79706127638E+02  0.86987299983E+01 -0.48990392941E+01  0.80466298987E+02  0.47000000000E+01 0.  1.
         -5    1    5    5    0  503 -0.35220695915E+02  0.14409034771E+02 -0.54932757300E+02  0.66991160076E+02  0.47000000000E+01 0.  1.
<mgrwt>
<rscale>  0 0.27186165E+03</rscale>
<asrwt>0</asrwt>
<pdfrwt beam="1">  1        2 0.28667977E-01 0.27186165E+03</pdfrwt>
<pdfrwt beam="2">  1       -2 0.15254998E-01 0.27186165E+03</pdfrwt>
<totfact> 0.60892183E+03</totfact>
</mgrwt>
</event>
<event>
 9    1  0.8122655E-001  0.2761002E+03  0.7818608E-02  0.1097838E+00
         -1   -1    0    0    0  501 -0.00000000000E+00  0.00000000000E+00  0.12115970312E+03  0.12115970312E+03  0.00000000000E+00 0. -1.
          1   -1    0    0  501    0  0.00000000000E+00 -0.00000000000E+00 -0.15729508043E+03  0.15729508043E+03  0.00000000000E+00 0. -1.
         35    2    1    2    0    0  0.00000000000E+00  0.00000000000E+00 -0.36135377311E+02  0.27845478356E+03  0.27610016478E+03 0.  0.
         25    2    3    3    0    0 -0.35520343321E+02 -0.10692438738E+02 -0.44993167158E+02  0.14646619599E+03  0.13435750236E+03 0.  0.
         25    2    3    3    0    0  0.35520343321E+02  0.10692438738E+02  0.88577898468E+01  0.13198858757E+03  0.12635863157E+03 0.  0.
          5    1    4    4  502    0 -0.63424113449E+02  0.40668616578E+01 -0.77885849006E+02  0.10063524733E+03  0.47000000000E+01 0.  1.
         -5    1    4    4    0  502  0.27903770129E+02 -0.14759300396E+02  0.32892681848E+02  0.45830948656E+02  0.47000000000E+01 0.  1.
          5    1    5    5  503    0 -0.53184583088E+01 -0.50436146225E+02 -0.17339262803E+02  0.53803632585E+02  0.47000000000E+01 0. -1.
         -5    1    5    5    0  503  0.40838801629E+02  0.61128584963E+02  0.26197052650E+02  0.78184954982E+02  0.47000000000E+01 0. -1.
<mgrwt>
<rscale>  0 0.27610016E+03</rscale>
<asrwt>0</asrwt>
<pdfrwt beam="1">  1        1 0.24199243E-01 0.27610016E+03</pdfrwt>
<pdfrwt beam="2">  1       -1 0.18639955E-01 0.27610016E+03</pdfrwt>
<totfact> 0.44857839E+03</totfact>
</mgrwt>
</event>
<event>
 9    1  0.8122655E-001  0.2746389E+03  0.7818608E-02  0.1098654E+00
         -2   -1    0    0    0  501 -0.00000000000E+00  0.00000000000E+00  0.22762042250E+03  0.22762042250E+03  0.00000000000E+00 0. -1.
          2   -1    0    0  501    0  0.00000000000E+00 -0.00000000000E+00 -0.82842444360E+02  0.82842444360E+02  0.00000000000E+00 0. -1.
         35    2    1    2    0    0  0.00000000000E+00  0.35527136788E-14  0.14477797814E+03  0.31046286686E+03  0.27463890610E+03 0.  0.
         25    2    3    3    0    0  0.54810687585E+02  0.31675776728E+01  0.60324722521E+02  0.14862773762E+03  0.12424527042E+03 0.  0.
         25    2    3    3    0    0 -0.54810687585E+02 -0.31675776728E+01  0.84453255617E+02  0.16183512923E+03  0.12666495825E+03 0.  0.
          5    1    4    4  502    0  0.56707486383E+02  0.54991439878E+02  0.54821264793E+02  0.96266601400E+02  0.47000000000E+01 0. -1.
         -5    1    4    4    0  502 -0.18967987979E+01 -0.51823862206E+02  0.55034577284E+01  0.52361136223E+02  0.47000000000E+01 0. -1.
          5    1    5    5  503    0 -0.62405621412E+02  0.19515913385E+02  0.10902877871E+03  0.12721909073E+03  0.47000000000E+01 0. -1.
         -5    1    5    5    0  503  0.75949338275E+01 -0.22683491057E+02 -0.24575523093E+02  0.34616038504E+02  0.47000000000E+01 0. -1.
<mgrwt>
<rscale>  0 0.27463891E+03</rscale>
<asrwt>0</asrwt>
<pdfrwt beam="1">  1        2 0.12744992E-01 0.27463891E+03</pdfrwt>
<pdfrwt beam="2">  1       -2 0.35018526E-01 0.27463891E+03</pdfrwt>
<totfact> 0.36236689E+03</totfact>
</mgrwt>
</event>
<event>
 9    1  0.8122655E-001  0.2772181E+03  0.7818608E-02  0.1097218E+00
          2   -1    0    0  501    0  0.00000000000E+00  0.00000000000E+00  0.76457845843E+03  0.76457845843E+03  0.00000000000E+00 0.  1.
         -2   -1    0    0    0  501 -0.00000000000E+00 -0.00000000000E+00 -0.25128178791E+02  0.25128178791E+02  0.00000000000E+00 0.  1.
         35    2    1    2    0    0  0.71054273576E-14  0.10658141036E-13  0.73945027964E+03  0.78970663722E+03  0.27721806726E+03 0.  0.
         25    2    3    3    0    0 -0.40525810803E+02 -0.30732103743E+02  0.28422589128E+03  0.31474365841E+03  0.12526934860E+03 0.  0.
         25    2    3    3    0    0  0.40525810803E+02  0.30732103743E+02  0.45522438836E+03  0.47496297881E+03  0.12559372569E+03 0.  0.
          5    1    4    4  502    0 -0.50076414743E+02 -0.66220357928E+02  0.11748536632E+03  0.14393639017E+03  0.47000000000E+01 0.  1.
         -5    1    4    4    0  502  0.95506039401E+01  0.35488254184E+02  0.16674052496E+03  0.17080726824E+03  0.47000000000E+01 0.  1.
          5    1    5    5  503    0 -0.44403249832E+02  0.50273031436E+01  0.11918419857E+03  0.12737301740E+03  0.47000000000E+01 0.  1.
         -5    1    5    5    0  503  0.84929060636E+02  0.25704800600E+02  0.33604018979E+03  0.34758996140E+03  0.47000000000E+01 0.  1.
<mgrwt>
<rscale>  0 0.27721807E+03</rscale>
<asrwt>0</asrwt>
<pdfrwt beam="1">  1        2 0.11762744E+00 0.27721807E+03</pdfrwt>
<pdfrwt beam="2">  1       -2 0.38658742E-02 0.27721807E+03</pdfrwt>
<totfact> 0.10840311E+04</totfact>
</mgrwt>
</event>
<event>
 9    1  0.8122655E-001  0.2826473E+03  0.7818608E-02  0.1094252E+00
         -4   -1    0    0    0  501 -0.00000000000E+00  0.00000000000E+00  0.11408297344E+03  0.11408297344E+03  0.00000000000E+00 0.  1.
          4   -1    0    0  501    0  0.00000000000E+00 -0.00000000000E+00 -0.17506885070E+03  0.17506885070E+03  0.00000000000E+00 0.  1.
         35    2    1    2    0    0  0.71054273576E-14  0.35527136788E-14 -0.60985877258E+02  0.28915182414E+03  0.28264730704E+03 0.  0.
         25    2    3    3    0    0 -0.52676193696E+02 -0.97039059576E+01 -0.66936792312E+02  0.15280884827E+03  0.12649530731E+03 0.  0.
         25    2    3    3    0    0  0.52676193696E+02  0.97039059576E+01  0.59509150535E+01  0.13634297587E+03  0.12523995570E+03 0.  0.
          5    1    4    4  502    0 -0.14145843535E+02  0.38601085529E+02  0.20070445821E+02  0.45989797660E+02  0.47000000000E+01 0.  1.
         -5    1    4    4    0  502 -0.38530350161E+02 -0.48304991487E+02 -0.87007238133E+02  0.10681905061E+03  0.47000000000E+01 0.  1.
          5    1    5    5  503    0  0.16622473496E+02 -0.68146278082E+01  0.63576024997E+02  0.66232520198E+02  0.47000000000E+01 0.  1.
         -5    1    5    5    0  503  0.36053720200E+02  0.16518533766E+02 -0.57625109944E+02  0.70110455668E+02  0.47000000000E+01 0.  1.
<mgrwt>
<rscale>  0 0.28264731E+03</rscale>
<asrwt>0</asrwt>
<pdfrwt beam="1">  1        4 0.26933669E-01 0.28264731E+03</pdfrwt>
<pdfrwt beam="2">  1       -4 0.17551227E-01 0.28264731E+03</pdfrwt>
<totfact> 0.70010597E+02</totfact>
</mgrwt>
</event>
<event>
 9    1  0.8122655E-001  0.2778747E+03  0.7818608E-02  0.1096855E+00
          1   -1    0    0  501    0  0.00000000000E+00  0.00000000000E+00  0.80779973398E+02  0.80779973398E+02  0.00000000000E+00 0. -1.
         -1   -1    0    0    0  501 -0.00000000000E+00 -0.00000000000E+00 -0.23896494201E+03  0.23896494201E+03  0.00000000000E+00 0. -1.
         35    2    1    2    0    0 -0.35527136788E-14  0.00000000000E+00 -0.15818496861E+03  0.31974491540E+03  0.27787465993E+03 0.  0.
         25    2    3    3    0    0 -0.28603602982E+02  0.38361642738E+02 -0.36478015076E+02  0.13855308422E+03  0.12480596871E+03 0.  0.
         25    2    3    3    0    0  0.28603602982E+02 -0.38361642738E+02 -0.12170695353E+03  0.18119183119E+03  0.12541178339E+03 0.  0.
          5    1    4    4  502    0  0.10789526560E+02  0.41213898060E+02 -0.72935810190E+02  0.84597409444E+02  0.47000000000E+01 0. -1.
         -5    1    4    4    0  502 -0.39393129542E+02 -0.28522553221E+01  0.36457795114E+02  0.53955674772E+02  0.47000000000E+01 0. -1.
          5    1    5    5  503    0 -0.97564850316E+01 -0.45910774066E+02  0.60009844201E+01  0.47550919965E+02  0.47000000000E+01 0. -1.
         -5    1    5    5    0  503  0.38360088014E+02  0.75491313283E+01 -0.12770793795E+03  0.13364091122E+03  0.47000000000E+01 0. -1.
<mgrwt>
<rscale>  0 0.27787466E+03</rscale>
<asrwt>0</asrwt>
<pdfrwt beam="1">  1        1 0.12427689E-01 0.27787466E+03</pdfrwt>
<pdfrwt beam="2">  1       -1 0.36763836E-01 0.27787466E+03</pdfrwt>
<totfact> 0.34191299E+03</totfact>
</mgrwt>
</event>
<event>
 9    1  0.8122655E-001  0.2748788E+03  0.7818608E-02  0.1098519E+00
         -2   -1    0    0    0  501 -0.00000000000E+00  0.00000000000E+00  0.19874309011E+02  0.19874309011E+02  0.00000000000E+00 0. -1.
          2   -1    0    0  501    0  0.00000000000E+00 -0.00000000000E+00 -0.95045264911E+03  0.95045264911E+03  0.00000000000E+00 0. -1.
         35    2    1    2    0    0  0.00000000000E+00 -0.35527136788E-14 -0.93057834010E+03  0.97032695812E+03  0.27487880710E+03 0.  0.
         25    2    3    3    0    0 -0.34401760281E+02 -0.42707946232E+01 -0.30688214415E+03  0.33346762672E+03  0.12578667210E+03 0.  0.
         25    2    3    3    0    0  0.34401760281E+02  0.42707946232E+01 -0.62369619595E+03  0.63685933140E+03  0.12406104282E+03 0.  0.
          5    1    4    4  502    0 -0.73815296055E+02  0.22223372275E+02 -0.23342456361E+03  0.24586926019E+03  0.47000000000E+01 0.  1.
         -5    1    4    4    0  502  0.39413535774E+02 -0.26494166898E+02 -0.73457580533E+02  0.87598366534E+02  0.47000000000E+01 0.  1.
          5    1    5    5  503    0 -0.28462064149E+02  0.35784383917E+02 -0.12452240934E+03  0.13273481705E+03  0.47000000000E+01 0. -1.
         -5    1    5    5    0  503  0.62863824430E+02 -0.31513589294E+02 -0.49917378661E+03  0.50412451435E+03  0.47000000000E+01 0. -1.
<mgrwt>
<rscale>  0 0.27487881E+03</rscale>
<asrwt>0</asrwt>
<pdfrwt beam="1">  1        2 0.14622348E+00 0.27487881E+03</pdfrwt>
<pdfrwt beam="2">  1       -2 0.30575862E-02 0.27487881E+03</pdfrwt>
<totfact> 0.11576468E+04</totfact>
</mgrwt>
</event>
<event>
 9    1  0.8122655E-001  0.2746113E+03  0.7818608E-02  0.1098669E+00
          1   -1    0    0  501    0  0.00000000000E+00  0.00000000000E+00  0.18576203132E+03  0.18576203132E+03  0.00000000000E+00 0. -1.
         -1   -1    0    0    0  501 -0.00000000000E+00 -0.00000000000E+00 -0.10148921627E+03  0.10148921627E+03  0.00000000000E+00 0. -1.
         35    2    1    2    0    0 -0.35527136788E-14 -0.71054273576E-14  0.84272815060E+02  0.28725124759E+03  0.27461131055E+03 0.  0.
         25    2    3    3    0    0  0.25284417137E+01  0.54393307479E+02  0.52729399157E+02  0.14729658333E+03  0.12629674980E+03 0.  0.
         25    2    3    3    0    0 -0.25284417137E+01 -0.54393307479E+02  0.31543415903E+02  0.13995466426E+03  0.12500918384E+03 0.  0.
          5    1    4    4  502    0 -0.24442522965E+02 -0.31099597258E+02 -0.56231237968E+01  0.40228489901E+02  0.47000000000E+01 0. -1.
         -5    1    4    4    0  502  0.26970964679E+02  0.85492904736E+02  0.58352522953E+02  0.10706809343E+03  0.47000000000E+01 0. -1.
          5    1    5    5  503    0 -0.34674075106E+02 -0.81896472557E+02  0.38137988844E+02  0.96880957338E+02  0.47000000000E+01 0. -1.
         -5    1    5    5    0  503  0.32145633392E+02  0.27503165078E+02 -0.65945729408E+01  0.43073706919E+02  0.47000000000E+01 0. -1.
<mgrwt>
<rscale>  0 0.27461131E+03</rscale>
<asrwt>0</asrwt>
<pdfrwt beam="1">  1        1 0.28578774E-01 0.27461131E+03</pdfrwt>
<pdfrwt beam="2">  1       -1 0.15613726E-01 0.27461131E+03</pdfrwt>
<totfact> 0.48236887E+03</totfact>
</mgrwt>
</event>
<event>
 9    1  0.8122655E-001  0.2717653E+03  0.7818608E-02  0.1100274E+00
         -4   -1    0    0    0  501 -0.00000000000E+00  0.00000000000E+00  0.73162824719E+02  0.73162824719E+02  0.00000000000E+00 0. -1.
          4   -1    0    0  501    0  0.00000000000E+00 -0.00000000000E+00 -0.25236990289E+03  0.25236990289E+03  0.00000000000E+00 0. -1.
         35    2    1    2    0    0  0.00000000000E+00  0.00000000000E+00 -0.17920707817E+03  0.32553272761E+03  0.27176530293E+03 0.  0.
         25    2    3    3    0    0 -0.20963238270E+02 -0.16719039244E+02 -0.14334393473E+03  0.19218031347E+03  0.12516711082E+03 0.  0.
         25    2    3    3    0    0  0.20963238270E+02  0.16719039244E+02 -0.35863143437E+02  0.13335241413E+03  0.12560938526E+03 0.  0.
          5    1    4    4  502    0 -0.10555215904E+02  0.51790912834E+02 -0.90492045066E+02  0.10490286676E+03  0.47000000000E+01 0.  1.
         -5    1    4    4    0  502 -0.10408022366E+02 -0.68509952077E+02 -0.52851889667E+02  0.87277446712E+02  0.47000000000E+01 0.  1.
          5    1    5    5  503    0  0.31249715931E+02  0.68241692311E+02 -0.15344609500E+02  0.76752982717E+02  0.47000000000E+01 0. -1.
         -5    1    5    5    0  503 -0.10286477661E+02 -0.51522653067E+02 -0.20518533937E+02  0.56599431416E+02  0.47000000000E+01 0. -1.
<mgrwt>
<rscale>  0 0.27176530E+03</rscale>
<asrwt>0</asrwt>
<pdfrwt beam="1">  1        4 0.38826139E-01 0.27176530E+03</pdfrwt>
<pdfrwt beam="2">  1       -4 0.11255819E-01 0.27176530E+03</pdfrwt>
<totfact> 0.74911971E+02</totfact>
</mgrwt>
</event>
<event>
 9    1  0.8122655E-001  0.2759783E+03  0.7818608E-02  0.1097906E+00
         -1   -1    0    0    0  501 -0.00000000000E+00  0.00000000000E+00  0.15484265024E+02  0.15484265024E+02  0.00000000000E+00 0. -1.
          1   -1    0    0  501    0  0.00000000000E+00 -0.00000000000E+00 -0.12297001862E+04  0.12297001862E+04  0.00000000000E+00 0. -1.
         35    2    1    2    0    0  0.35527136788E-14  0.00000000000E+00 -0.12142159212E+04  0.12451844513E+04  0.27597828598E+03 0.  0.
         25    2    3    3    0    0  0.28671471355E+02 -0.54075479207E+02 -0.60006624230E+03  0.61575360753E+03  0.12380145119E+03 0.  0.
         25    2    3    3    0    0 -0.28671471355E+02  0.54075479207E+02 -0.61414967891E+03  0.62943084372E+03  0.12351982921E+03 0.  0.
          5    1    4    4  502    0  0.59361563771E+02 -0.72539828014E+02 -0.51261423971E+03  0.52113459936E+03  0.47000000000E+01 0.  1.
         -5    1    4    4    0  502 -0.30690092416E+02  0.18464348807E+02 -0.87452002599E+02  0.94619008174E+02  0.47000000000E+01 0.  1.
          5    1    5    5  503    0 -0.76077987818E+02  0.25175765794E+02 -0.31032977679E+03  0.32054381881E+03  0.47000000000E+01 0. -1.
         -5    1    5    5    0  503  0.47406516464E+02  0.28899713414E+02 -0.30381990211E+03  0.30888702491E+03  0.47000000000E+01 0. -1.
<mgrwt>
<rscale>  0 0.27597829E+03</rscale>
<asrwt>0</asrwt>
<pdfrwt beam="1">  1        1 0.18918464E+00 0.27597829E+03</pdfrwt>
<pdfrwt beam="2">  1       -1 0.23821946E-02 0.27597829E+03</pdfrwt>
<totfact> 0.57877315E+03</totfact>
</mgrwt>
</event>
<event>
 9    1  0.8122655E-001  0.2755993E+03  0.7818608E-02  0.1098117E+00
         -2   -1    0    0    0  501 -0.00000000000E+00  0.00000000000E+00  0.12689511869E+02  0.12689511869E+02  0.00000000000E+00 0.  1.
          2   -1    0    0  501    0  0.00000000000E+00 -0.00000000000E+00 -0.14964119862E+04  0.14964119862E+04  0.00000000000E+00 0.  1.
         35    2    1    2    0    0 -0.71054273576E-14 -0.71054273576E-14 -0.14837224743E+04  0.15091014980E+04  0.27559925732E+03 0.  0.
         25    2    3    3    0    0 -0.17868061649E+02  0.47141887239E+02 -0.84658835780E+03  0.85730805823E+03  0.12539391525E+03 0.  0.
         25    2    3    3    0    0  0.17868061649E+02 -0.47141887239E+02 -0.63713411648E+03  0.65179343979E+03  0.12787955509E+03 0.  0.
          5    1    4    4  502    0 -0.41972225465E+02  0.80739750474E+02 -0.50052324701E+03  0.50874962979E+03  0.47000000000E+01 0.  1.
         -5    1    4    4    0  502  0.24104163815E+02 -0.33597863235E+02 -0.34606511079E+03  0.34855842843E+03  0.47000000000E+01 0.  1.
          5    1    5    5  503    0  0.48035166310E+02  0.19378605434E+02 -0.14093866584E+03  0.15022884237E+03  0.47000000000E+01 0.  1.
         -5    1    5    5    0  503 -0.30167104661E+02 -0.66520492673E+02 -0.49619545065E+03  0.50156459743E+03  0.47000000000E+01 0.  1.
<mgrwt>
<rscale>  0 0.27559926E+03</rscale>
<asrwt>0</asrwt>
<pdfrwt beam="1">  1        2 0.23021718E+00 0.27559926E+03</pdfrwt>
<pdfrwt beam="2">  1       -2 0.19522330E-02 0.27559926E+03</pdfrwt>
<totfact> 0.10979108E+04</totfact>
</mgrwt>
</event>
<event>
 9    1  0.8122655E-001  0.2856286E+03  0.7818608E-02  0.1092654E+00
          2   -1    0    0  501    0  0.00000000000E+00  0.00000000000E+00  0.76374316594E+03  0.76374316594E+03  0.00000000000E+00 0. -1.
         -2   -1    0    0    0  501 -0.00000000000E+00 -0.00000000000E+00 -0.26705219872E+02  0.26705219872E+02  0.00000000000E+00 0. -1.
         35    2    1    2    0    0  0.14210854715E-13 -0.35527136788E-14  0.73703794607E+03  0.79044838581E+03  0.28562863422E+03 0.  0.
         25    2    3    3    0    0  0.62619499494E+02  0.45187254516E+01  0.44895012731E+03  0.47044796674E+03  0.12579130334E+03 0.  0.
         25    2    3    3    0    0 -0.62619499494E+02 -0.45187254516E+01  0.28808781875E+03  0.32000041907E+03  0.12435455881E+03 0.  0.
          5    1    4    4  502    0  0.66675201523E+02 -0.48943143370E+02  0.21552834569E+03  0.23090164915E+03  0.47000000000E+01 0. -1.
         -5    1    4    4    0  502 -0.40557020285E+01  0.53461868821E+02  0.23342178162E+03  0.23954631759E+03  0.47000000000E+01 0. -1.
          5    1    5    5  503    0  0.19912297223E+02  0.25858990233E+02  0.21805385711E+02  0.39531655703E+02  0.47000000000E+01 0.  1.
         -5    1    5    5    0  503 -0.82531796717E+02 -0.30377715685E+02  0.26628243304E+03  0.28046876337E+03  0.47000000000E+01 0.  1.
<mgrwt>
<rscale>  0 0.28562863E+03</rscale>
<asrwt>0</asrwt>
<pdfrwt beam="1">  1        2 0.11749893E+00 0.28562863E+03</pdfrwt>
<pdfrwt beam="2">  1       -2 0.41084959E-02 0.28562863E+03</pdfrwt>
<totfact> 0.99147880E+03</totfact>
</mgrwt>
</event>
<event>
 9    1  0.8122655E-001  0.2731445E+03  0.7818608E-02  0.1099493E+00
         -2   -1    0    0    0  501 -0.00000000000E+00  0.00000000000E+00  0.38473632286E+02  0.38473632286E+02  0.00000000000E+00 0.  1.
          2   -1    0    0  501    0  0.00000000000E+00 -0.00000000000E+00 -0.48479906826E+03  0.48479906826E+03  0.00000000000E+00 0.  1.
         35    2    1    2    0    0 -0.17763568394E-14  0.00000000000E+00 -0.44632543597E+03  0.52327270055E+03  0.27314451182E+03 0.  0.
         25    2    3    3    0    0 -0.72314845674E+01 -0.49681915702E+02 -0.26418314897E+03  0.29656912590E+03  0.12505967824E+03 0.  0.
         25    2    3    3    0    0  0.72314845674E+01  0.49681915702E+02 -0.18214228701E+03  0.22670357465E+03  0.12529210240E+03 0.  0.
          5    1    4    4  502    0  0.10786039956E+02 -0.17214767140E+02  0.76208373220E+01  0.22200315923E+02  0.47000000000E+01 0.  1.
         -5    1    4    4    0  502 -0.18017524523E+02 -0.32467148563E+02 -0.27180398629E+03  0.27436880998E+03  0.47000000000E+01 0.  1.
          5    1    5    5  503    0  0.22512213511E+02  0.89236063061E+02 -0.12958618521E+03  0.15901114459E+03  0.47000000000E+01 0.  1.
         -5    1    5    5    0  503 -0.15280728944E+02 -0.39554147358E+02 -0.52556101798E+02  0.67692430053E+02  0.47000000000E+01 0.  1.
<mgrwt>
<rscale>  0 0.27314451E+03</rscale>
<asrwt>0</asrwt>
<pdfrwt beam="1">  1        2 0.74584477E-01 0.27314451E+03</pdfrwt>
<pdfrwt beam="2">  1       -2 0.59190199E-02 0.27314451E+03</pdfrwt>
<totfact> 0.96813730E+03</totfact>
</mgrwt>
</event>
<event>
 9    1  0.8122655E-001  0.2773532E+03  0.7818608E-02  0.1097143E+00
         -2   -1    0    0    0  501 -0.00000000000E+00  0.00000000000E+00  0.43955503366E+02  0.43955503366E+02  0.00000000000E+00 0.  1.
          2   -1    0    0  501    0  0.00000000000E+00 -0.00000000000E+00 -0.43751509586E+03  0.43751509586E+03  0.00000000000E+00 0.  1.
         35    2    1    2    0    0  0.00000000000E+00  0.35527136788E-14 -0.39355959249E+03  0.48147059922E+03  0.27735317751E+03 0.  0.
         25    2    3    3    0    0  0.52188916772E+02  0.27700139755E+02 -0.22732228411E+03  0.26613949773E+03  0.12515522610E+03 0.  0.
         25    2    3    3    0    0 -0.52188916772E+02 -0.27700139755E+02 -0.16623730838E+03  0.21533110150E+03  0.12345711724E+03 0.  0.
          5    1    4    4  502    0 -0.38912597287E+02 -0.13269726365E+01 -0.95375515680E+02  0.10312385793E+03  0.47000000000E+01 0.  1.
         -5    1    4    4    0  502  0.91101514060E+02  0.29027112392E+02 -0.13194676843E+03  0.16301563979E+03  0.47000000000E+01 0.  1.
          5    1    5    5  503    0  0.19081363784E+02 -0.55526170577E+02 -0.87187791993E+02  0.10521908161E+03  0.47000000000E+01 0.  1.
         -5    1    5    5    0  503 -0.71270280556E+02  0.27826030822E+02 -0.79049516387E+02  0.11011201988E+03  0.47000000000E+01 0.  1.
<mgrwt>
<rscale>  0 0.27735318E+03</rscale>
<asrwt>0</asrwt>
<pdfrwt beam="1">  1        2 0.67310012E-01 0.27735318E+03</pdfrwt>
<pdfrwt beam="2">  1       -2 0.67623854E-02 0.27735318E+03</pdfrwt>
<totfact> 0.88388305E+03</totfact>
</mgrwt>
</event>
<event>
 9    1  0.8122655E-001  0.2736388E+03  0.7818608E-02  0.1099215E+00
          2   -1    0    0  501    0  0.00000000000E+00  0.00000000000E+00  0.12315646058E+03  0.12315646058E+03  0.00000000000E+00 0.  1.
         -2   -1    0    0    0  501 -0.00000000000E+00 -0.00000000000E+00 -0.15199805797E+03  0.15199805797E+03  0.00000000000E+00 0.  1.
         35    2    1    2    0    0  0.00000000000E+00  0.00000000000E+00 -0.28841597386E+02  0.27515451855E+03  0.27363876067E+03 0.  0.
         25    2    3    3    0    0 -0.43780464509E+02  0.20094525056E+02 -0.31106156441E+02  0.14133528578E+03  0.12918030434E+03 0.  0.
         25    2    3    3    0    0  0.43780464509E+02 -0.20094525056E+02  0.22645590545E+01  0.13381923277E+03  0.12482764046E+03 0.  0.
          5    1    4    4  502    0 -0.83672273478E+02  0.27798694280E+02  0.26052161719E+01  0.88332858575E+02  0.47000000000E+01 0.  1.
         -5    1    4    4    0  502  0.39891808969E+02 -0.77041692249E+01 -0.33711372613E+02  0.53002427205E+02  0.47000000000E+01 0.  1.
          5    1    5    5  503    0 -0.35603799713E+02  0.50888184544E+01  0.28767570506E+02  0.46294597310E+02  0.47000000000E+01 0. -1.
         -5    1    5    5    0  503  0.79384264222E+02 -0.25183343510E+02 -0.26503011452E+02  0.87524635460E+02  0.47000000000E+01 0. -1.
<mgrwt>
<rscale>  0 0.27363876E+03</rscale>
<asrwt>0</asrwt>
<pdfrwt beam="1">  1        2 0.18947148E-01 0.27363876E+03</pdfrwt>
<pdfrwt beam="2">  1       -2 0.23384317E-01 0.27363876E+03</pdfrwt>
<totfact> 0.46995524E+03</totfact>
</mgrwt>
</event>
<event>
 9    1  0.8122655E-001  0.2757429E+03  0.7818608E-02  0.1098037E+00
          1   -1    0    0  501    0  0.00000000000E+00  0.00000000000E+00  0.44882704076E+02  0.44882704076E+02  0.00000000000E+00 0. -1.
         -1   -1    0    0    0  501 -0.00000000000E+00 -0.00000000000E+00 -0.42351572684E+03  0.42351572684E+03  0.00000000000E+00 0. -1.
         35    2    1    2    0    0  0.35527136788E-14  0.00000000000E+00 -0.37863302277E+03  0.46839843092E+03  0.27574285876E+03 0.  0.
         25    2    3    3    0    0 -0.27250226585E+02 -0.34365835345E+02 -0.26448682750E+03  0.29576955818E+03  0.12491102488E+03 0.  0.
         25    2    3    3    0    0  0.27250226585E+02  0.34365835345E+02 -0.11414619527E+03  0.17262887274E+03  0.12185150111E+03 0.  0.
          5    1    4    4  502    0  0.38297587558E+02 -0.44693921335E+02 -0.78383080003E+02  0.98133832331E+02  0.47000000000E+01 0. -1.
         -5    1    4    4    0  502 -0.65547814144E+02  0.10328085990E+02 -0.18610374750E+03  0.19763572585E+03  0.47000000000E+01 0. -1.
          5    1    5    5  503    0 -0.24596188420E+02 -0.32287244389E+02 -0.18203557277E+02  0.44731399851E+02  0.47000000000E+01 0.  1.
         -5    1    5    5    0  503  0.51846415006E+02  0.66653079734E+02 -0.95942637989E+02  0.12789747289E+03  0.47000000000E+01 0.  1.
<mgrwt>
<rscale>  0 0.27574286E+03</rscale>
<asrwt>0</asrwt>
<pdfrwt beam="1">  1        1 0.69050318E-02 0.27574286E+03</pdfrwt>
<pdfrwt beam="2">  1       -1 0.65156262E-01 0.27574286E+03</pdfrwt>
<totfact> 0.26255759E+03</totfact>
</mgrwt>
</event>
<event>
 9    1  0.8122655E-001  0.2764413E+03  0.7818608E-02  0.1097649E+00
         -2   -1    0    0    0  501 -0.00000000000E+00  0.00000000000E+00  0.57957407905E+01  0.57957407905E+01  0.00000000000E+00 0.  1.
          2   -1    0    0  501    0  0.00000000000E+00 -0.00000000000E+00 -0.32963768275E+04  0.32963768275E+04  0.00000000000E+00 0.  1.
         35    2    1    2    0    0  0.00000000000E+00 -0.71054273576E-14 -0.32905810867E+04  0.33021725683E+04  0.27644128230E+03 0.  0.
         25    2    3    3    0    0  0.56443257431E+02  0.24760049311E+02 -0.21866868806E+04  0.21909192941E+04  0.12136283640E+03 0.  0.
         25    2    3    3    0    0 -0.56443257431E+02 -0.24760049311E+02 -0.11038942062E+04  0.11112532743E+04  0.11181466719E+03 0.  0.
          5    1    4    4  502    0  0.37836678780E+02 -0.20540735743E+02 -0.25834599382E+03  0.26195090878E+03  0.47000000000E+01 0. -1.
         -5    1    4    4    0  502  0.18606578650E+02  0.45300785054E+02 -0.19283408867E+04  0.19289683853E+04  0.47000000000E+01 0. -1.
          5    1    5    5  503    0  0.18225651904E+02  0.29267467591E+02 -0.35241969526E+03  0.35413343622E+03  0.47000000000E+01 0.  1.
         -5    1    5    5    0  503 -0.74668909335E+02 -0.54027516902E+02 -0.75147451091E+03  0.75711983803E+03  0.47000000000E+01 0.  1.
<mgrwt>
<rscale>  0 0.27644128E+03</rscale>
<asrwt>0</asrwt>
<pdfrwt beam="1">  1        2 0.50713601E+00 0.27644128E+03</pdfrwt>
<pdfrwt beam="2">  1       -2 0.89165046E-03 0.27644128E+03</pdfrwt>
<totfact> 0.34574507E+03</totfact>
</mgrwt>
</event>
<event>
 9    1  0.8122655E-001  0.2767795E+03  0.7818608E-02  0.1097461E+00
          2   -1    0    0  501    0  0.00000000000E+00  0.00000000000E+00  0.27358065909E+04  0.27358065909E+04  0.00000000000E+00 0. -1.
         -2   -1    0    0    0  501 -0.00000000000E+00 -0.00000000000E+00 -0.70003942352E+01  0.70003942352E+01  0.00000000000E+00 0. -1.
         35    2    1    2    0    0  0.35527136788E-14  0.00000000000E+00  0.27288061967E+04  0.27428069851E+04  0.27677951288E+03 0.  0.
         25    2    3    3    0    0  0.20881066003E+02  0.16130175553E+02  0.82938317962E+03  0.83913749981E+03  0.12481619869E+03 0.  0.
         25    2    3    3    0    0 -0.20881066003E+02 -0.16130175553E+02  0.18994230171E+04  0.19036694853E+04  0.12431214836E+03 0.  0.
          5    1    4    4  502    0  0.47227844240E+02 -0.16916941496E+02  0.14632841790E+03  0.15476029228E+03  0.47000000000E+01 0. -1.
         -5    1    4    4    0  502 -0.26346778237E+02  0.33047117049E+02  0.68305476172E+03  0.68437720752E+03  0.47000000000E+01 0. -1.
          5    1    5    5  503    0 -0.57827108182E+02  0.31564995355E+02  0.10767649414E+04  0.10787887432E+04  0.47000000000E+01 0.  1.
         -5    1    5    5    0  503  0.36946042180E+02 -0.47695170908E+02  0.82265807562E+03  0.82488074213E+03  0.47000000000E+01 0.  1.
<mgrwt>
<rscale>  0 0.27677951E+03</rscale>
<asrwt>0</asrwt>
<pdfrwt beam="1">  1        2 0.42089247E+00 0.27677951E+03</pdfrwt>
<pdfrwt beam="2">  1       -2 0.10769859E-02 0.27677951E+03</pdfrwt>
<totfact> 0.56724171E+03</totfact>
</mgrwt>
</event>
<event>
 9    1  0.8122655E-001  0.2745593E+03  0.7818608E-02  0.1098698E+00
         -2   -1    0    0    0  501 -0.00000000000E+00  0.00000000000E+00  0.11284517331E+02  0.11284517331E+02  0.00000000000E+00 0. -1.
          2   -1    0    0  501    0  0.00000000000E+00 -0.00000000000E+00 -0.16700491197E+04  0.16700491197E+04  0.00000000000E+00 0. -1.
         35    2    1    2    0    0  0.22204460493E-15 -0.14210854715E-13 -0.16587646024E+04  0.16813336371E+04  0.27455927036E+03 0.  0.
         25    2    3    3    0    0 -0.77652901889E+00  0.55364245558E+02 -0.86668935885E+03  0.87742825642E+03  0.12515629323E+03 0.  0.
         25    2    3    3    0    0  0.77652901889E+00 -0.55364245558E+02 -0.79207524355E+03  0.80390538064E+03  0.12575717434E+03 0.  0.
          5    1    4    4  502    0  0.20334212594E+00  0.27787407441E+02 -0.83364671546E+03  0.83412296309E+03  0.47000000000E+01 0.  1.
         -5    1    4    4    0  502 -0.97987114483E+00  0.27576838116E+02 -0.33042643392E+02  0.43305293329E+02  0.47000000000E+01 0.  1.
          5    1    5    5  503    0  0.49576543079E+01  0.40520991978E+02 -0.25874293479E+03  0.26198573516E+03  0.47000000000E+01 0.  1.
         -5    1    5    5    0  503 -0.41811252890E+01 -0.95885237536E+02 -0.53333230876E+03  0.54191964548E+03  0.47000000000E+01 0.  1.
<mgrwt>
<rscale>  0 0.27455927E+03</rscale>
<asrwt>0</asrwt>
<pdfrwt beam="1">  1        2 0.25693070E+00 0.27455927E+03</pdfrwt>
<pdfrwt beam="2">  1       -2 0.17360792E-02 0.27455927E+03</pdfrwt>
<totfact> 0.10548246E+04</totfact>
</mgrwt>
</event>
<event>
 9    1  0.8122655E-001  0.2801522E+03  0.7818608E-02  0.1095606E+00
          2   -1    0    0  501    0  0.00000000000E+00  0.00000000000E+00  0.11007413813E+04  0.11007413813E+04  0.00000000000E+00 0. -1.
         -2   -1    0    0    0  501 -0.00000000000E+00 -0.00000000000E+00 -0.17825544243E+02  0.17825544243E+02  0.00000000000E+00 0. -1.
         35    2    1    2    0    0  0.00000000000E+00 -0.35527136788E-14  0.10829158371E+04  0.11185669256E+04  0.28015220287E+03 0.  0.
         25    2    3    3    0    0 -0.31586067521E+02 -0.23423701242E+02  0.33562087632E+03  0.36010116668E+03  0.12443925496E+03 0.  0.
         25    2    3    3    0    0  0.31586067521E+02  0.23423701242E+02  0.74729496076E+03  0.75846575889E+03  0.12358883281E+03 0.  0.
          5    1    4    4  502    0 -0.36517536705E+02 -0.53107590458E+02  0.31885121393E+03  0.32533387970E+03  0.47000000000E+01 0.  1.
         -5    1    4    4    0  502  0.49314691841E+01  0.29683889216E+02  0.16769662392E+02  0.34767286982E+02  0.47000000000E+01 0.  1.
          5    1    5    5  503    0  0.10550609125E+02  0.18489558146E+02  0.73017699810E+03  0.73050237348E+03  0.47000000000E+01 0.  1.
         -5    1    5    5    0  503  0.21035458396E+02  0.49341430958E+01  0.17117962665E+02  0.27963385414E+02  0.47000000000E+01 0.  1.
<mgrwt>
<rscale>  0 0.28015220E+03</rscale>
<asrwt>0</asrwt>
<pdfrwt beam="1">  1        2 0.16934477E+00 0.28015220E+03</pdfrwt>
<pdfrwt beam="2">  1       -2 0.27423923E-02 0.28015220E+03</pdfrwt>
<totfact> 0.11039515E+04</totfact>
</mgrwt>
</event>
<event>
 9    1  0.8122655E-001  0.2763737E+03  0.7818608E-02  0.1097686E+00
         -2   -1    0    0    0  501 -0.00000000000E+00  0.00000000000E+00  0.30168343889E+02  0.30168343889E+02  0.00000000000E+00 0.  1.
          2   -1    0    0  501    0  0.00000000000E+00 -0.00000000000E+00 -0.63296843514E+03  0.63296843514E+03  0.00000000000E+00 0.  1.
         35    2    1    2    0    0  0.00000000000E+00 -0.71054273576E-14 -0.60280009125E+03  0.66313677903E+03  0.27637372829E+03 0.  0.
         25    2    3    3    0    0  0.39984454006E+02  0.35602154186E+02 -0.33698595052E+03  0.36466848590E+03  0.12867518727E+03 0.  0.
         25    2    3    3    0    0 -0.39984454006E+02 -0.35602154186E+02 -0.26581414074E+03  0.29846829313E+03  0.12473930673E+03 0.  0.
          5    1    4    4  502    0  0.40865694534E+01 -0.25722512747E+02 -0.25374559689E+03  0.25512206031E+03  0.47000000000E+01 0.  1.
         -5    1    4    4    0  502  0.35897884552E+02  0.61324666933E+02 -0.83240353626E+02  0.10954642560E+03  0.47000000000E+01 0.  1.
          5    1    5    5  503    0 -0.30909490713E+02 -0.69203171286E+02 -0.24744227766E+03  0.25883246764E+03  0.47000000000E+01 0. -1.
         -5    1    5    5    0  503 -0.90749632930E+01  0.33601017100E+02 -0.18371863073E+02  0.39635825482E+02  0.47000000000E+01 0. -1.
<mgrwt>
<rscale>  0 0.27637373E+03</rscale>
<asrwt>0</asrwt>
<pdfrwt beam="1">  1        2 0.97379749E-01 0.27637373E+03</pdfrwt>
<pdfrwt beam="2">  1       -2 0.46412841E-02 0.27637373E+03</pdfrwt>
<totfact> 0.10344880E+04</totfact>
</mgrwt>
</event>
<event>
 9    1  0.8122655E-001  0.2728059E+03  0.7818608E-02  0.1099684E+00
          2   -1    0    0  501    0  0.00000000000E+00  0.00000000000E+00  0.22088624543E+04  0.22088624543E+04  0.00000000000E+00 0. -1.
         -2   -1    0    0    0  501 -0.00000000000E+00 -0.00000000000E+00 -0.84232333905E+01  0.84232333905E+01  0.00000000000E+00 0. -1.
         35    2    1    2    0    0  0.00000000000E+00  0.71054273576E-14  0.22004392209E+04  0.22172856877E+04  0.27280589422E+03 0.  0.
         25    2    3    3    0    0  0.94424430236E+01  0.40575627056E+02  0.13987894029E+04  0.14049217767E+04  0.12432965750E+03 0.  0.
         25    2    3    3    0    0 -0.94424430236E+01 -0.40575627056E+02  0.80164981800E+03  0.81236391098E+03  0.12472831245E+03 0.  0.
          5    1    4    4  502    0 -0.72630111891E+01  0.40056575856E+02  0.13663925700E+03  0.14265222450E+03  0.47000000000E+01 0.  1.
         -5    1    4    4    0  502  0.16705454213E+02  0.51905119979E+00  0.12621501459E+04  0.12622695522E+04  0.47000000000E+01 0.  1.
          5    1    5    5  503    0 -0.88729071342E+01 -0.84786712980E+02  0.58508136984E+03  0.59127811943E+03  0.47000000000E+01 0.  1.
         -5    1    5    5    0  503 -0.56953588938E+00  0.44211085924E+02  0.21656844816E+03  0.22108579156E+03  0.47000000000E+01 0.  1.
<mgrwt>
<rscale>  0 0.27280589E+03</rscale>
<asrwt>0</asrwt>
<pdfrwt beam="1">  1        2 0.33982453E+00 0.27280589E+03</pdfrwt>
<pdfrwt beam="2">  1       -2 0.12958838E-02 0.27280589E+03</pdfrwt>
<totfact> 0.84162781E+03</totfact>
</mgrwt>
</event>
<event>
 9    1  0.8122655E-001  0.2759666E+03  0.7818608E-02  0.1097913E+00
          2   -1    0    0  501    0  0.00000000000E+00  0.00000000000E+00  0.15565206945E+03  0.15565206945E+03  0.00000000000E+00 0.  1.
         -2   -1    0    0    0  501 -0.00000000000E+00 -0.00000000000E+00 -0.12232018897E+03  0.12232018897E+03  0.00000000000E+00 0.  1.
         35    2    1    2    0    0  0.00000000000E+00  0.14210854715E-13  0.33331880474E+02  0.27797225842E+03  0.27596659616E+03 0.  0.
         25    2    3    3    0    0 -0.18773365706E+01  0.53534925131E+02 -0.64521793853E+01  0.13601618277E+03  0.12485695317E+03 0.  0.
         25    2    3    3    0    0  0.18773365706E+01 -0.53534925131E+02  0.39784059859E+02  0.14195607565E+03  0.12529662164E+03 0.  0.
          5    1    4    4  502    0  0.23032020232E+02 -0.19762152850E+02  0.36226856263E+02  0.47492017813E+02  0.47000000000E+01 0. -1.
         -5    1    4    4    0  502 -0.24909356803E+02  0.73297077982E+02 -0.42679035648E+02  0.88524164954E+02  0.47000000000E+01 0. -1.
          5    1    5    5  503    0 -0.64027299730E+01 -0.93628945192E+02  0.35803729794E+02  0.10055531511E+03  0.47000000000E+01 0.  1.
         -5    1    5    5    0  503  0.82800665436E+01  0.40094020061E+02  0.39803300656E+01  0.41400760549E+02  0.47000000000E+01 0.  1.
<mgrwt>
<rscale>  0 0.27596660E+03</rscale>
<asrwt>0</asrwt>
<pdfrwt beam="1">  1        2 0.23946472E-01 0.27596660E+03</pdfrwt>
<pdfrwt beam="2">  1       -2 0.18818491E-01 0.27596660E+03</pdfrwt>
<totfact> 0.52357594E+03</totfact>
</mgrwt>
</event>
<event>
 9    1  0.8122655E-001  0.2754174E+03  0.7818608E-02  0.1098219E+00
         -1   -1    0    0    0  501 -0.00000000000E+00  0.00000000000E+00  0.25213291676E+02  0.25213291676E+02  0.00000000000E+00 0. -1.
          1   -1    0    0  501    0  0.00000000000E+00 -0.00000000000E+00 -0.75213037595E+03  0.75213037595E+03  0.00000000000E+00 0. -1.
         35    2    1    2    0    0  0.35527136788E-14  0.35527136788E-14 -0.72691708428E+03  0.77734366763E+03  0.27541737452E+03 0.  0.
         25    2    3    3    0    0 -0.32676313445E+01 -0.27224047625E+02 -0.50812593598E+03  0.52401980593E+03  0.12511180601E+03 0.  0.
         25    2    3    3    0    0  0.32676313445E+01  0.27224047625E+02 -0.21879114830E+03  0.25332386170E+03  0.12470599886E+03 0.  0.
          5    1    4    4  502    0 -0.42876981620E+02 -0.37446996717E+02 -0.44500257105E+03  0.44865364298E+03  0.47000000000E+01 0.  1.
         -5    1    4    4    0  502  0.39609350276E+02  0.10222949091E+02 -0.63123364934E+02  0.75366162951E+02  0.47000000000E+01 0.  1.
          5    1    5    5  503    0 -0.65382577584E+01  0.36432857447E+01 -0.22615896614E+03  0.22633159370E+03  0.47000000000E+01 0.  1.
         -5    1    5    5    0  503  0.98058891029E+01  0.23580761881E+02  0.73678178395E+01  0.26992267998E+02  0.47000000000E+01 0.  1.
<mgrwt>
<rscale>  0 0.27541737E+03</rscale>
<asrwt>0</asrwt>
<pdfrwt beam="1">  1        1 0.11571235E+00 0.27541737E+03</pdfrwt>
<pdfrwt beam="2">  1       -1 0.38789683E-02 0.27541737E+03</pdfrwt>
<totfact> 0.65059388E+03</totfact>
</mgrwt>
</event>
<event>
 9    1  0.8122655E-001  0.2738163E+03  0.7818608E-02  0.1099115E+00
          2   -1    0    0  501    0  0.00000000000E+00  0.00000000000E+00  0.28533502304E+04  0.28533502304E+04  0.00000000000E+00 0.  1.
         -2   -1    0    0    0  501 -0.00000000000E+00 -0.00000000000E+00 -0.65690656131E+01  0.65690656131E+01  0.00000000000E+00 0.  1.
         35    2    1    2    0    0 -0.71054273576E-14  0.71054273576E-14  0.28467811648E+04  0.28599192960E+04  0.27381632443E+03 0.  0.
         25    2    3    3    0    0 -0.44956800758E+02 -0.22012226666E+02  0.13457767015E+04  0.13524972836E+04  0.12501327816E+03 0.  0.
         25    2    3    3    0    0  0.44956800758E+02  0.22012226666E+02  0.15010044633E+04  0.15074220124E+04  0.12961895202E+03 0.  0.
          5    1    4    4  502    0  0.11633387199E+02  0.18890531026E+02  0.50811885829E+02  0.55642839627E+02  0.47000000000E+01 0.  1.
         -5    1    4    4    0  502 -0.56590187956E+02 -0.40902757692E+02  0.12949648157E+04  0.12968544440E+04  0.47000000000E+01 0.  1.
          5    1    5    5  503    0 -0.10341542199E+02 -0.42159737561E+02  0.27099574841E+03  0.27449075872E+03  0.47000000000E+01 0.  1.
         -5    1    5    5    0  503  0.55298342957E+02  0.64171964227E+02  0.12300087149E+04  0.12329312537E+04  0.47000000000E+01 0.  1.
<mgrwt>
<rscale>  0 0.27381632E+03</rscale>
<asrwt>0</asrwt>
<pdfrwt beam="1">  1        2 0.43897597E+00 0.27381632E+03</pdfrwt>
<pdfrwt beam="2">  1       -2 0.10106278E-02 0.27381632E+03</pdfrwt>
<totfact> 0.53306146E+03</totfact>
</mgrwt>
</event>
<event>
 9    1  0.8122655E-001  0.2708651E+03  0.7818608E-02  0.1100786E+00
         -1   -1    0    0    0  501 -0.00000000000E+00  0.00000000000E+00  0.99040655175E+02  0.99040655175E+02  0.00000000000E+00 0. -1.
          1   -1    0    0  501    0  0.00000000000E+00 -0.00000000000E+00 -0.18519644124E+03  0.18519644124E+03  0.00000000000E+00 0. -1.
         35    2    1    2    0    0  0.35527136788E-14  0.00000000000E+00 -0.86155786067E+02  0.28423709642E+03  0.27086510943E+03 0.  0.
         25    2    3    3    0    0  0.20237565238E+02 -0.15245477415E+00 -0.92030194207E+02  0.15775209789E+03  0.12651713502E+03 0.  0.
         25    2    3    3    0    0 -0.20237565238E+02  0.15245477415E+00  0.58744081404E+01  0.12648499853E+03  0.12471713552E+03 0.  0.
          5    1    4    4  502    0  0.27771090616E+02 -0.29603677493E+02  0.17154671848E+02  0.44316858657E+02  0.47000000000E+01 0.  1.
         -5    1    4    4    0  502 -0.75335253775E+01  0.29451222718E+02 -0.10918486606E+03  0.11343523923E+03  0.47000000000E+01 0.  1.
          5    1    5    5  503    0 -0.57039930278E+01  0.13408439417E+02  0.63548895870E+02  0.65367223823E+02  0.47000000000E+01 0. -1.
         -5    1    5    5    0  503 -0.14533572210E+02 -0.13255984642E+02 -0.57674487729E+02  0.61117774705E+02  0.47000000000E+01 0. -1.
<mgrwt>
<rscale>  0 0.27086511E+03</rscale>
<asrwt>0</asrwt>
<pdfrwt beam="1">  1        1 0.28491760E-01 0.27086511E+03</pdfrwt>
<pdfrwt beam="2">  1       -1 0.15237024E-01 0.27086511E+03</pdfrwt>
<totfact> 0.50317670E+03</totfact>
</mgrwt>
</event>
<event>
 9    1  0.8122655E-001  0.2849221E+03  0.7818608E-02  0.1093031E+00
         -2   -1    0    0    0  501 -0.00000000000E+00  0.00000000000E+00  0.13943488539E+02  0.13943488539E+02  0.00000000000E+00 0.  1.
          2   -1    0    0  501    0  0.00000000000E+00 -0.00000000000E+00 -0.14555287657E+04  0.14555287657E+04  0.00000000000E+00 0.  1.
         35    2    1    2    0    0 -0.35527136788E-14  0.00000000000E+00 -0.14415852772E+04  0.14694722542E+04  0.28492208523E+03 0.  0.
         25    2    3    3    0    0 -0.59459143242E+01  0.24534677457E+02 -0.38834006317E+03  0.40857062993E+03  0.12443733638E+03 0.  0.
         25    2    3    3    0    0  0.59459143242E+01 -0.24534677457E+02 -0.10532452140E+04  0.10609016243E+04  0.12469751950E+03 0.  0.
          5    1    4    4  502    0 -0.75683976000E+01  0.30703969081E+02 -0.39615419856E+03  0.39744213843E+03  0.47000000000E+01 0.  1.
         -5    1    4    4    0  502  0.16224832758E+01 -0.61692916240E+01  0.78141353948E+01  0.11128491501E+02  0.47000000000E+01 0.  1.
          5    1    5    5  503    0 -0.29549188556E+02 -0.28209678133E+01 -0.93461001115E+03  0.93509308378E+03  0.47000000000E+01 0.  1.
         -5    1    5    5    0  503  0.35495102881E+02 -0.21713709644E+02 -0.11863520285E+03  0.12580854053E+03  0.47000000000E+01 0.  1.
<mgrwt>
<rscale>  0 0.28492209E+03</rscale>
<asrwt>0</asrwt>
<pdfrwt beam="1">  1        2 0.22392746E+00 0.28492209E+03</pdfrwt>
<pdfrwt beam="2">  1       -2 0.21451525E-02 0.28492209E+03</pdfrwt>
<totfact> 0.10058673E+04</totfact>
</mgrwt>
</event>
<event>
 9    1  0.8122655E-001  0.2634614E+03  0.7818608E-02  0.1105081E+00
          2   -1    0    0  501    0  0.00000000000E+00  0.00000000000E+00  0.10279458532E+04  0.10279458532E+04  0.00000000000E+00 0.  1.
         -2   -1    0    0    0  501 -0.00000000000E+00 -0.00000000000E+00 -0.16881211437E+02  0.16881211437E+02  0.00000000000E+00 0.  1.
         35    2    1    2    0    0 -0.71054273576E-14 -0.71054273576E-14  0.10110646418E+04  0.10448270646E+04  0.26346135423E+03 0.  0.
         25    2    3    3    0    0 -0.51312525003E+01 -0.78036019353E+01  0.66737348951E+03  0.67893463426E+03  0.12440915216E+03 0.  0.
         25    2    3    3    0    0  0.51312525003E+01  0.78036019353E+01  0.34369115225E+03  0.36589243038E+03  0.12516563632E+03 0.  0.
          5    1    4    4  502    0 -0.39621392985E+02  0.24669201106E+02  0.11069399911E+03  0.12022344074E+03  0.47000000000E+01 0.  1.
         -5    1    4    4    0  502  0.34490140484E+02 -0.32472803041E+02  0.55667949040E+03  0.55871119352E+03  0.47000000000E+01 0.  1.
          5    1    5    5  503    0 -0.32393561950E+02 -0.42269687393E+02  0.22899860237E+03  0.23515637184E+03  0.47000000000E+01 0.  1.
         -5    1    5    5    0  503  0.37524814451E+02  0.50073289329E+02  0.11469254988E+03  0.13073605854E+03  0.47000000000E+01 0.  1.
<mgrwt>
<rscale>  0 0.26346135E+03</rscale>
<asrwt>0</asrwt>
<pdfrwt beam="1">  1        2 0.15814547E+00 0.26346135E+03</pdfrwt>
<pdfrwt beam="2">  1       -2 0.25971103E-02 0.26346135E+03</pdfrwt>
<totfact> 0.13197689E+04</totfact>
</mgrwt>
</event>
<event>
 9    1  0.8122655E-001  0.2754423E+03  0.7818608E-02  0.1098205E+00
         -2   -1    0    0    0  501 -0.00000000000E+00  0.00000000000E+00  0.16114268174E+04  0.16114268174E+04  0.00000000000E+00 0. -1.
          2   -1    0    0  501    0  0.00000000000E+00 -0.00000000000E+00 -0.11770383429E+02  0.11770383429E+02  0.00000000000E+00 0. -1.
         35    2    1    2    0    0  0.35527136788E-14 -0.71054273576E-14  0.15996564339E+04  0.16231972008E+04  0.27544227350E+03 0.  0.
         25    2    3    3    0    0 -0.22286350216E+02  0.21414586255E+02  0.50240867392E+03  0.51868115018E+03  0.12514149596E+03 0.  0.
         25    2    3    3    0    0  0.22286350216E+02 -0.21414586255E+02  0.10972477600E+04  0.11045160506E+04  0.12266944728E+03 0.  0.
          5    1    4    4  502    0 -0.31970104632E+02 -0.42453991936E+02  0.12740365526E+03  0.13812389509E+03  0.47000000000E+01 0.  1.
         -5    1    4    4    0  502  0.96837544160E+01  0.63868578192E+02  0.37500501865E+03  0.38055725508E+03  0.47000000000E+01 0.  1.
          5    1    5    5  503    0  0.70112270344E+02 -0.28658432028E+02  0.56922259094E+03  0.57425907413E+03  0.47000000000E+01 0. -1.
         -5    1    5    5    0  503 -0.47825920128E+02  0.72438457727E+01  0.52802516909E+03  0.53025697650E+03  0.47000000000E+01 0. -1.
<mgrwt>
<rscale>  0 0.27544227E+03</rscale>
<asrwt>0</asrwt>
<pdfrwt beam="1">  1        2 0.18108295E-02 0.27544227E+03</pdfrwt>
<pdfrwt beam="2">  1       -2 0.24791164E+00 0.27544227E+03</pdfrwt>
<totfact> 0.46389078E+02</totfact>
</mgrwt>
</event>
<event>
 9    1  0.8122655E-001  0.2773007E+03  0.7818608E-02  0.1097172E+00
         -2   -1    0    0    0  501 -0.00000000000E+00  0.00000000000E+00  0.51110695609E+03  0.51110695609E+03  0.00000000000E+00 0. -1.
          2   -1    0    0  501    0  0.00000000000E+00 -0.00000000000E+00 -0.37612333892E+02  0.37612333892E+02  0.00000000000E+00 0. -1.
         35    2    1    2    0    0 -0.35527136788E-14  0.00000000000E+00  0.47349462220E+03  0.54871928998E+03  0.27730074278E+03 0.  0.
         25    2    3    3    0    0 -0.16746099079E+02  0.68268274979E+02  0.21658811941E+03  0.25582906082E+03  0.11660662798E+03 0.  0.
         25    2    3    3    0    0  0.16746099079E+02 -0.68268274979E+02  0.25690650279E+03  0.29289022916E+03  0.12183080874E+03 0.  0.
          5    1    4    4  502    0 -0.58066860150E+01 -0.14160168895E+02 -0.68200878788E+01  0.17402056898E+02  0.47000000000E+01 0. -1.
         -5    1    4    4    0  502 -0.10939413064E+02  0.82428443873E+02  0.22340820728E+03  0.23842700392E+03  0.47000000000E+01 0. -1.
          5    1    5    5  503    0 -0.28929403261E+02 -0.12644863113E+02  0.19572171971E+03  0.19830755029E+03  0.47000000000E+01 0. -1.
         -5    1    5    5    0  503  0.45675502340E+02 -0.55623411865E+02  0.61184783084E+02  0.94582678872E+02  0.47000000000E+01 0. -1.
<mgrwt>
<rscale>  0 0.27730074E+03</rscale>
<asrwt>0</asrwt>
<pdfrwt beam="1">  1        2 0.57865133E-02 0.27730074E+03</pdfrwt>
<pdfrwt beam="2">  1       -2 0.78631834E-01 0.27730074E+03</pdfrwt>
<totfact> 0.19145385E+03</totfact>
</mgrwt>
</event>
<event>
 9    1  0.8122655E-001  0.2726061E+03  0.7818608E-02  0.1099797E+00
         -2   -1    0    0    0  501 -0.00000000000E+00  0.00000000000E+00  0.27157811057E+03  0.27157811057E+03  0.00000000000E+00 0. -1.
          2   -1    0    0  501    0  0.00000000000E+00 -0.00000000000E+00 -0.68409480483E+02  0.68409480483E+02  0.00000000000E+00 0. -1.
         35    2    1    2    0    0  0.00000000000E+00 -0.71054273576E-14  0.20316863009E+03  0.33998759105E+03  0.27260607077E+03 0.  0.
         25    2    3    3    0    0 -0.45547557868E+02  0.29636342215E+02  0.11498183304E+03  0.17732180140E+03  0.12356903542E+03 0.  0.
         25    2    3    3    0    0  0.45547557868E+02 -0.29636342215E+02  0.88186797049E+02  0.16266578965E+03  0.12542071257E+03 0.  0.
          5    1    4    4  502    0 -0.36073753343E+02 -0.41839422682E+02  0.22195033417E+02  0.59720703940E+02  0.47000000000E+01 0. -1.
         -5    1    4    4    0  502 -0.94738045253E+01  0.71475764897E+02  0.92786799622E+02  0.11760109746E+03  0.47000000000E+01 0. -1.
          5    1    5    5  503    0  0.67282760356E+01 -0.45651485312E+02 -0.16927921608E+02  0.49375827483E+02  0.47000000000E+01 0. -1.
         -5    1    5    5    0  503  0.38819281833E+02  0.16015143097E+02  0.10511471866E+03  0.11328996217E+03  0.47000000000E+01 0. -1.
<mgrwt>
<rscale>  0 0.27260607E+03</rscale>
<asrwt>0</asrwt>
<pdfrwt beam="1">  1        2 0.10524536E-01 0.27260607E+03</pdfrwt>
<pdfrwt beam="2">  1       -2 0.41781247E-01 0.27260607E+03</pdfrwt>
<totfact> 0.32763010E+03</totfact>
</mgrwt>
</event>
<event>
 9    1  0.8122655E-001  0.2713074E+03  0.7818608E-02  0.1100534E+00
         -2   -1    0    0    0  501 -0.00000000000E+00  0.00000000000E+00  0.23404615972E+02  0.23404615972E+02  0.00000000000E+00 0. -1.
          2   -1    0    0  501    0  0.00000000000E+00 -0.00000000000E+00 -0.78625188189E+03  0.78625188189E+03  0.00000000000E+00 0. -1.
         35    2    1    2    0    0  0.00000000000E+00  0.71054273576E-14 -0.76284726592E+03  0.80965649786E+03  0.27130737810E+03 0.  0.
         25    2    3    3    0    0  0.14136754757E+02 -0.15781186318E+02 -0.52440001825E+03  0.53958206780E+03  0.12531773647E+03 0.  0.
         25    2    3    3    0    0 -0.14136754757E+02  0.15781186318E+02 -0.23844724766E+03  0.27007443006E+03  0.12503685127E+03 0.  0.
          5    1    4    4  502    0  0.43198887700E+01  0.53753548420E+02 -0.28303344161E+03  0.28816336421E+03  0.47000000000E+01 0.  1.
         -5    1    4    4    0  502  0.98168659867E+01 -0.69534734737E+02 -0.24136657665E+03  0.25141870359E+03  0.47000000000E+01 0.  1.
          5    1    5    5  503    0 -0.37991880879E+02 -0.46097159909E+02 -0.12397864764E+03  0.13769940535E+03  0.47000000000E+01 0.  1.
         -5    1    5    5    0  503  0.23855126122E+02  0.61878346226E+02 -0.11446860003E+03  0.13237502471E+03  0.47000000000E+01 0.  1.
<mgrwt>
<rscale>  0 0.27130738E+03</rscale>
<asrwt>0</asrwt>
<pdfrwt beam="1">  1        2 0.12096181E+00 0.27130738E+03</pdfrwt>
<pdfrwt beam="2">  1       -2 0.36007106E-02 0.27130738E+03</pdfrwt>
<totfact> 0.11633982E+04</totfact>
</mgrwt>
</event>
<event>
 9    1  0.8122655E-001  0.2773118E+03  0.7818608E-02  0.1097166E+00
          2   -1    0    0  501    0  0.00000000000E+00  0.00000000000E+00  0.38156297694E+03  0.38156297694E+03  0.00000000000E+00 0. -1.
         -2   -1    0    0    0  501 -0.00000000000E+00 -0.00000000000E+00 -0.50386066653E+02  0.50386066653E+02  0.00000000000E+00 0. -1.
         35    2    1    2    0    0  0.00000000000E+00  0.00000000000E+00  0.33117691028E+03  0.43194904359E+03  0.27731179267E+03 0.  0.
         25    2    3    3    0    0 -0.24716358295E+02  0.54750596227E+02  0.16268157442E+03  0.21394703384E+03  0.12529769542E+03 0.  0.
         25    2    3    3    0    0  0.24716358295E+02 -0.54750596227E+02  0.16849533586E+03  0.21800200975E+03  0.12460205413E+03 0.  0.
          5    1    4    4  502    0 -0.69937670158E+02  0.14916151990E+02  0.54539777781E+02  0.90058018287E+02  0.47000000000E+01 0.  1.
         -5    1    4    4    0  502  0.45221311863E+02  0.39834444237E+02  0.10814179664E+03  0.12388901556E+03  0.47000000000E+01 0.  1.
          5    1    5    5  503    0  0.72186993063E+02 -0.53217265308E+02  0.12083111924E+03  0.15054995408E+03  0.47000000000E+01 0. -1.
         -5    1    5    5    0  503 -0.47470634767E+02 -0.15333309194E+01  0.47664216616E+02  0.67452055673E+02  0.47000000000E+01 0. -1.
<mgrwt>
<rscale>  0 0.27731179E+03</rscale>
<asrwt>0</asrwt>
<pdfrwt beam="1">  1        2 0.58701995E-01 0.27731179E+03</pdfrwt>
<pdfrwt beam="2">  1       -2 0.77517028E-02 0.27731179E+03</pdfrwt>
<totfact> 0.83005327E+03</totfact>
</mgrwt>
</event>
<event>
 9    1  0.8122655E-001  0.2758161E+03  0.7818608E-02  0.1097996E+00
         -2   -1    0    0    0  501 -0.00000000000E+00  0.00000000000E+00  0.50562566391E+03  0.50562566391E+03  0.00000000000E+00 0. -1.
          2   -1    0    0  501    0  0.00000000000E+00 -0.00000000000E+00 -0.37614058105E+02  0.37614058105E+02  0.00000000000E+00 0. -1.
         35    2    1    2    0    0  0.35527136788E-14 -0.71054273576E-14  0.46801160580E+03  0.54323972201E+03  0.27581612064E+03 0.  0.
         25    2    3    3    0    0  0.51977171776E+01 -0.55777682734E+02  0.20074221834E+03  0.24294883909E+03  0.12485405095E+03 0.  0.
         25    2    3    3    0    0 -0.51977171776E+01  0.55777682734E+02  0.26726938747E+03  0.30029088292E+03  0.12491406140E+03 0.  0.
          5    1    4    4  502    0 -0.28510481585E+02 -0.76541123835E+02  0.18063151770E+03  0.19829580526E+03  0.47000000000E+01 0.  1.
         -5    1    4    4    0  502  0.33708198762E+02  0.20763441101E+02  0.20110700641E+02  0.44653033832E+02  0.47000000000E+01 0.  1.
          5    1    5    5  503    0  0.25127556633E+02  0.74704980233E+02  0.91481747561E+02  0.12084381784E+03  0.47000000000E+01 0. -1.
         -5    1    5    5    0  503 -0.30325273810E+02 -0.18927297499E+02  0.17578763991E+03  0.17944706508E+03  0.47000000000E+01 0. -1.
<mgrwt>
<rscale>  0 0.27581612E+03</rscale>
<asrwt>0</asrwt>
<pdfrwt beam="1">  1        2 0.57867785E-02 0.27581612E+03</pdfrwt>
<pdfrwt beam="2">  1       -2 0.77788559E-01 0.27581612E+03</pdfrwt>
<totfact> 0.19599877E+03</totfact>
</mgrwt>
</event>
<event>
 9    1  0.8122655E-001  0.2757463E+03  0.7818608E-02  0.1098035E+00
          2   -1    0    0  501    0  0.00000000000E+00  0.00000000000E+00  0.23098350684E+03  0.23098350684E+03  0.00000000000E+00 0.  1.
         -2   -1    0    0    0  501 -0.00000000000E+00 -0.00000000000E+00 -0.82295947250E+02  0.82295947250E+02  0.00000000000E+00 0.  1.
         35    2    1    2    0    0  0.00000000000E+00  0.00000000000E+00  0.14868755959E+03  0.31327945409E+03  0.27574630728E+03 0.  0.
         25    2    3    3    0    0  0.22614349548E+02 -0.54033034549E+02  0.84287296087E+02  0.15983044771E+03  0.12251712577E+03 0.  0.
         25    2    3    3    0    0 -0.22614349548E+02  0.54033034549E+02  0.64400263505E+02  0.15344900638E+03  0.12636544619E+03 0.  0.
          5    1    4    4  502    0  0.63947163340E+02 -0.23299424473E+01  0.19429926586E+02  0.67039394226E+02  0.47000000000E+01 0. -1.
         -5    1    4    4    0  502 -0.41332813792E+02 -0.51703092102E+02  0.64857369501E+02  0.92791053488E+02  0.47000000000E+01 0. -1.
          5    1    5    5  503    0 -0.34631689729E+02  0.16153883711E+02  0.95369633028E+02  0.10284823186E+03  0.47000000000E+01 0. -1.
         -5    1    5    5    0  503  0.12017340181E+02  0.37879150838E+02 -0.30969369524E+02  0.50600774519E+02  0.47000000000E+01 0. -1.
<mgrwt>
<rscale>  0 0.27574631E+03</rscale>
<asrwt>0</asrwt>
<pdfrwt beam="1">  1        2 0.35535924E-01 0.27574631E+03</pdfrwt>
<pdfrwt beam="2">  1       -2 0.12660915E-01 0.27574631E+03</pdfrwt>
<totfact> 0.65395008E+03</totfact>
</mgrwt>
</event>
<event>
 9    1  0.8122655E-001  0.2735788E+03  0.7818608E-02  0.1099249E+00
          2   -1    0    0  501    0  0.00000000000E+00  0.00000000000E+00  0.32414163833E+02  0.32414163833E+02  0.00000000000E+00 0.  1.
         -2   -1    0    0    0  501 -0.00000000000E+00 -0.00000000000E+00 -0.57725808219E+03  0.57725808219E+03  0.00000000000E+00 0.  1.
         35    2    1    2    0    0 -0.71054273576E-14  0.00000000000E+00 -0.54484391836E+03  0.60967224602E+03  0.27357878609E+03 0.  0.
         25    2    3    3    0    0  0.13809171521E+02 -0.46312337164E+02 -0.22993032521E+03  0.26640927419E+03  0.12558033736E+03 0.  0.
         25    2    3    3    0    0 -0.13809171521E+02  0.46312337164E+02 -0.31491359314E+03  0.34326297183E+03  0.12776294804E+03 0.  0.
          5    1    4    4  502    0  0.56649469973E+02 -0.53691741065E+02 -0.87160706058E+02  0.11709416803E+03  0.47000000000E+01 0.  1.
         -5    1    4    4    0  502 -0.42840298452E+02  0.73794039003E+01 -0.14276961916E+03  0.14931510616E+03  0.47000000000E+01 0.  1.
          5    1    5    5  503    0 -0.54643689211E+02  0.47592453652E+02 -0.28016859916E+03  0.28942617085E+03  0.47000000000E+01 0. -1.
         -5    1    5    5    0  503  0.40834517691E+02 -0.12801164871E+01 -0.34744993981E+02  0.53836800982E+02  0.47000000000E+01 0. -1.
<mgrwt>
<rscale>  0 0.27357879E+03</rscale>
<asrwt>0</asrwt>
<pdfrwt beam="1">  1        2 0.49867948E-02 0.27357879E+03</pdfrwt>
<pdfrwt beam="2">  1       -2 0.88808930E-01 0.27357879E+03</pdfrwt>
<totfact> 0.17748705E+03</totfact>
</mgrwt>
</event>
<event>
 9    1  0.8122655E-001  0.2724649E+03  0.7818608E-02  0.1099877E+00
         -3   -1    0    0    0  501 -0.00000000000E+00  0.00000000000E+00  0.39881756143E+03  0.39881756143E+03  0.00000000000E+00 0. -1.
          3   -1    0    0  501    0  0.00000000000E+00 -0.00000000000E+00 -0.46535759910E+02  0.46535759910E+02  0.00000000000E+00 0. -1.
         35    2    1    2    0    0  0.00000000000E+00 -0.71054273576E-14  0.35228180152E+03  0.44535332134E+03  0.27246488425E+03 0.  0.
         25    2    3    3    0    0  0.36450496193E+02  0.45926282414E+01  0.10964825064E+03  0.17133469235E+03  0.12642431343E+03 0.  0.
         25    2    3    3    0    0 -0.36450496193E+02 -0.45926282414E+01  0.24263355088E+03  0.27401862900E+03  0.12192390297E+03 0.  0.
          5    1    4    4  502    0  0.45636145024E+02 -0.34578139786E+02  0.33119816487E+01  0.57544458518E+02  0.47000000000E+01 0. -1.
         -5    1    4    4    0  502 -0.91856488311E+01  0.39170768027E+02  0.10633626899E+03  0.11379023383E+03  0.47000000000E+01 0. -1.
          5    1    5    5  503    0  0.25219946348E+02  0.39610834312E+02  0.12843075997E+03  0.13682694908E+03  0.47000000000E+01 0. -1.
         -5    1    5    5    0  503 -0.61670442541E+02 -0.44203462554E+02  0.11420279092E+03  0.13719167992E+03  0.47000000000E+01 0. -1.
<mgrwt>
<rscale>  0 0.27246488E+03</rscale>
<asrwt>0</asrwt>
<pdfrwt beam="1">  1        3 0.71593479E-02 0.27246488E+03</pdfrwt>
<pdfrwt beam="2">  1       -3 0.61356546E-01 0.27246488E+03</pdfrwt>
<totfact> 0.85314123E+02</totfact>
</mgrwt>
</event>
<event>
 9    1  0.8122655E-001  0.2743303E+03  0.7818608E-02  0.1098827E+00
          1   -1    0    0  501    0  0.00000000000E+00  0.00000000000E+00  0.26359025538E+03  0.26359025538E+03  0.00000000000E+00 0. -1.
         -1   -1    0    0    0  501 -0.00000000000E+00 -0.00000000000E+00 -0.71376981213E+02  0.71376981213E+02  0.00000000000E+00 0. -1.
         35    2    1    2    0    0  0.00000000000E+00  0.00000000000E+00  0.19221327417E+03  0.33496723660E+03  0.27433028784E+03 0.  0.
         25    2    3    3    0    0 -0.48299318227E+02  0.31819345219E+02  0.95912433226E+02  0.16728051174E+03  0.12425087480E+03 0.  0.
         25    2    3    3    0    0  0.48299318227E+02 -0.31819345219E+02  0.96300840945E+02  0.16768672486E+03  0.12449775442E+03 0.  0.
          5    1    4    4  502    0 -0.88588659134E+02  0.36829918235E+02  0.70552295090E+02  0.11918099574E+03  0.47000000000E+01 0. -1.
         -5    1    4    4    0  502  0.40289340906E+02 -0.50105730154E+01  0.25360138136E+02  0.48099515994E+02  0.47000000000E+01 0. -1.
          5    1    5    5  503    0  0.16890850987E+01 -0.68504303588E+02  0.81093490700E+02  0.10627293565E+03  0.47000000000E+01 0.  1.
         -5    1    5    5    0  503  0.46610233129E+02  0.36684958369E+02  0.15207350244E+02  0.61413789203E+02  0.47000000000E+01 0.  1.
<mgrwt>
<rscale>  0 0.27433029E+03</rscale>
<asrwt>0</asrwt>
<pdfrwt beam="1">  1        1 0.40552346E-01 0.27433029E+03</pdfrwt>
<pdfrwt beam="2">  1       -1 0.10981074E-01 0.27433029E+03</pdfrwt>
<totfact> 0.54004041E+03</totfact>
</mgrwt>
</event>
<event>
 9    1  0.8122655E-001  0.2831666E+03  0.7818608E-02  0.1093972E+00
         -2   -1    0    0    0  501 -0.00000000000E+00  0.00000000000E+00  0.20442627653E+03  0.20442627653E+03  0.00000000000E+00 0.  1.
          2   -1    0    0  501    0  0.00000000000E+00 -0.00000000000E+00 -0.98058972835E+02  0.98058972835E+02  0.00000000000E+00 0.  1.
         35    2    1    2    0    0 -0.17763568394E-14  0.14210854715E-13  0.10636730369E+03  0.30248524936E+03  0.28316659900E+03 0.  0.
         25    2    3    3    0    0 -0.81163584812E+01 -0.54082146134E+02  0.11175483211E+02  0.13615937785E+03  0.12419231436E+03 0.  0.
         25    2    3    3    0    0  0.81163584812E+01  0.54082146134E+02  0.95191820481E+02  0.16632587151E+03  0.12494822544E+03 0.  0.
          5    1    4    4  502    0  0.47042063744E+02 -0.54897971845E+02 -0.16438940405E+02  0.74290455885E+02  0.47000000000E+01 0. -1.
         -5    1    4    4    0  502 -0.55158422225E+02  0.81582571055E+00  0.27614423616E+02  0.61868921969E+02  0.47000000000E+01 0. -1.
          5    1    5    5  503    0  0.79170755964E+01  0.48927340102E+02  0.12561037049E+03  0.13511705988E+03  0.47000000000E+01 0.  1.
         -5    1    5    5    0  503  0.19928288477E+00  0.51548060317E+01 -0.30418550008E+02  0.31208811632E+02  0.47000000000E+01 0.  1.
<mgrwt>
<rscale>  0 0.28316660E+03</rscale>
<asrwt>0</asrwt>
<pdfrwt beam="1">  1        2 0.15085996E-01 0.28316660E+03</pdfrwt>
<pdfrwt beam="2">  1       -2 0.31450196E-01 0.28316660E+03</pdfrwt>
<totfact> 0.36151718E+03</totfact>
</mgrwt>
</event>
<event>
 9    1  0.8122655E-001  0.2746480E+03  0.7818608E-02  0.1098649E+00
         -2   -1    0    0    0  501 -0.00000000000E+00  0.00000000000E+00  0.19035298607E+03  0.19035298607E+03  0.00000000000E+00 0.  1.
          2   -1    0    0  501    0  0.00000000000E+00 -0.00000000000E+00 -0.99067947619E+02  0.99067947619E+02  0.00000000000E+00 0.  1.
         35    2    1    2    0    0  0.00000000000E+00  0.00000000000E+00  0.91285038455E+02  0.28942093369E+03  0.27464799037E+03 0.  0.
         25    2    3    3    0    0  0.32686982313E+02  0.40323048985E+02  0.24162395281E+02  0.13745080389E+03  0.12495805317E+03 0.  0.
         25    2    3    3    0    0 -0.32686982313E+02 -0.40323048985E+02  0.67122643174E+02  0.15197012980E+03  0.12607570755E+03 0.  0.
          5    1    4    4  502    0  0.60502713157E+02  0.62661348977E+02  0.42535264307E+02  0.97048244006E+02  0.47000000000E+01 0. -1.
         -5    1    4    4    0  502 -0.27815730845E+02 -0.22338299992E+02 -0.18372869026E+02  0.40402559885E+02  0.47000000000E+01 0. -1.
          5    1    5    5  503    0  0.10076684791E+02  0.40933837465E+02  0.33578592015E+02  0.54099264946E+02  0.47000000000E+01 0.  1.
         -5    1    5    5    0  503 -0.42763667104E+02 -0.81256886449E+02  0.33544051159E+02  0.97870864857E+02  0.47000000000E+01 0.  1.
<mgrwt>
<rscale>  0 0.27464799E+03</rscale>
<asrwt>0</asrwt>
<pdfrwt beam="1">  1        2 0.15241223E-01 0.27464799E+03</pdfrwt>
<pdfrwt beam="2">  1       -2 0.29285075E-01 0.27464799E+03</pdfrwt>
<totfact> 0.40629189E+03</totfact>
</mgrwt>
</event>
<event>
 9    1  0.8122655E-001  0.2732218E+03  0.7818608E-02  0.1099450E+00
         -2   -1    0    0    0  501 -0.00000000000E+00  0.00000000000E+00  0.19415770730E+04  0.19415770730E+04  0.00000000000E+00 0. -1.
          2   -1    0    0  501    0  0.00000000000E+00 -0.00000000000E+00 -0.96120530438E+01  0.96120530438E+01  0.00000000000E+00 0. -1.
         35    2    1    2    0    0  0.00000000000E+00  0.00000000000E+00  0.19319650200E+04  0.19511891261E+04  0.27322182793E+03 0.  0.
         25    2    3    3    0    0  0.60930152268E+01  0.47817438077E+02  0.77794807551E+03  0.78945344755E+03  0.12533916161E+03 0.  0.
         25    2    3    3    0    0 -0.60930152268E+01 -0.47817438077E+02  0.11540169445E+04  0.11617356785E+04  0.12470383477E+03 0.  0.
          5    1    4    4  502    0 -0.45559286664E+02 -0.18634916991E+02  0.25412445092E+03  0.25889039242E+03  0.47000000000E+01 0.  1.
         -5    1    4    4    0  502  0.51652301891E+02  0.66452355068E+02  0.52382362459E+03  0.53056305513E+03  0.47000000000E+01 0.  1.
          5    1    5    5  503    0  0.23323047206E+02 -0.21458553300E+02  0.10482011697E+04  0.10486907153E+04  0.47000000000E+01 0.  1.
         -5    1    5    5    0  503 -0.29416062433E+02 -0.26358884777E+02  0.10581577473E+03  0.11304496325E+03  0.47000000000E+01 0.  1.
<mgrwt>
<rscale>  0 0.27322183E+03</rscale>
<asrwt>0</asrwt>
<pdfrwt beam="1">  1        2 0.14787789E-02 0.27322183E+03</pdfrwt>
<pdfrwt beam="2">  1       -2 0.29870385E+00 0.27322183E+03</pdfrwt>
<totfact> 0.31052716E+02</totfact>
</mgrwt>
</event>
<event>
 9    1  0.8122655E-001  0.2776103E+03  0.7818608E-02  0.1097001E+00
         -1   -1    0    0    0  501 -0.00000000000E+00  0.00000000000E+00  0.13755048273E+03  0.13755048273E+03  0.00000000000E+00 0.  1.
          1   -1    0    0  501    0  0.00000000000E+00 -0.00000000000E+00 -0.14007130640E+03  0.14007130640E+03  0.00000000000E+00 0.  1.
         35    2    1    2    0    0 -0.35527136788E-14  0.00000000000E+00 -0.25208236611E+01  0.27762178913E+03  0.27761034427E+03 0.  0.
         25    2    3    3    0    0  0.82512348792E+01  0.50410379843E+02  0.30354796782E+02  0.13858794661E+03  0.12520349829E+03 0.  0.
         25    2    3    3    0    0 -0.82512348792E+01 -0.50410379843E+02 -0.32875620443E+02  0.13903384252E+03  0.12506123969E+03 0.  0.
          5    1    4    4  502    0 -0.25786232319E+02  0.48159311964E+02 -0.34766379455E+02  0.64923341307E+02  0.47000000000E+01 0.  1.
         -5    1    4    4    0  502  0.34037467198E+02  0.22510678786E+01  0.65121176237E+02  0.73664605302E+02  0.47000000000E+01 0.  1.
          5    1    5    5  503    0  0.30533010555E+02 -0.25571827750E+02 -0.69340375431E+02  0.80102189564E+02  0.47000000000E+01 0. -1.
         -5    1    5    5    0  503 -0.38784245434E+02 -0.24838552092E+02  0.36464754987E+02  0.58931652957E+02  0.47000000000E+01 0. -1.
<mgrwt>
<rscale>  0 0.27761034E+03</rscale>
<asrwt>0</asrwt>
<pdfrwt beam="1">  1        1 0.21549432E-01 0.27761034E+03</pdfrwt>
<pdfrwt beam="2">  1       -1 0.21161613E-01 0.27761034E+03</pdfrwt>
<totfact> 0.42343503E+03</totfact>
</mgrwt>
</event>
<event>
 9    1  0.8122655E-001  0.2762881E+03  0.7818608E-02  0.1097734E+00
          2   -1    0    0  501    0  0.00000000000E+00  0.00000000000E+00  0.26117484769E+04  0.26117484769E+04  0.00000000000E+00 0.  1.
         -2   -1    0    0    0  501 -0.00000000000E+00 -0.00000000000E+00 -0.73068985203E+01  0.73068985203E+01  0.00000000000E+00 0.  1.
         35    2    1    2    0    0  0.35527136788E-14  0.71054273576E-14  0.26044415784E+04  0.26190553754E+04  0.27628811832E+03 0.  0.
         25    2    3    3    0    0  0.31377903038E+02  0.10553198623E+02  0.17595058058E+04  0.17642449944E+04  0.12491507844E+03 0.  0.
         25    2    3    3    0    0 -0.31377903038E+02 -0.10553198623E+02  0.84493577262E+03  0.85481038106E+03  0.12525328305E+03 0.  0.
          5    1    4    4  502    0  0.25653627805E+02 -0.55166135525E+02  0.10026794411E+04  0.10045345005E+04  0.47000000000E+01 0. -1.
         -5    1    4    4    0  502  0.57242752331E+01  0.65719334148E+02  0.75682636470E+03  0.75971049388E+03  0.47000000000E+01 0. -1.
          5    1    5    5  503    0 -0.25394046564E+02  0.50571380661E+02  0.23460318558E+03  0.24137743645E+03  0.47000000000E+01 0.  1.
         -5    1    5    5    0  503 -0.59838564734E+01 -0.61124579283E+02  0.61033258704E+03  0.61343294461E+03  0.47000000000E+01 0.  1.
<mgrwt>
<rscale>  0 0.27628812E+03</rscale>
<asrwt>0</asrwt>
<pdfrwt beam="1">  1        2 0.40180671E+00 0.27628812E+03</pdfrwt>
<pdfrwt beam="2">  1       -2 0.11241403E-02 0.27628812E+03</pdfrwt>
<totfact> 0.62564022E+03</totfact>
</mgrwt>
</event>
<event>
 9    1  0.8122655E-001  0.2757721E+03  0.7818608E-02  0.1098021E+00
          1   -1    0    0  501    0  0.00000000000E+00  0.00000000000E+00  0.36290492859E+03  0.36290492859E+03  0.00000000000E+00 0.  1.
         -1   -1    0    0    0  501 -0.00000000000E+00 -0.00000000000E+00 -0.52389918766E+02  0.52389918766E+02  0.00000000000E+00 0.  1.
         35    2    1    2    0    0  0.35527136788E-14  0.00000000000E+00  0.31051500983E+03  0.41529484736E+03  0.27577207784E+03 0.  0.
         25    2    3    3    0    0 -0.11175351890E+02 -0.49254248033E+02  0.19241276255E+03  0.23531669079E+03  0.12569965925E+03 0.  0.
         25    2    3    3    0    0  0.11175351890E+02  0.49254248033E+02  0.11810224728E+03  0.17997815656E+03  0.12606794433E+03 0.  0.
          5    1    4    4  502    0  0.54079865741E+02 -0.39145647714E+02  0.74937830752E+02  0.10047279279E+03  0.47000000000E+01 0.  1.
         -5    1    4    4    0  502 -0.65255217631E+02 -0.10108600319E+02  0.11747493180E+03  0.13484389800E+03  0.47000000000E+01 0.  1.
          5    1    5    5  503    0 -0.64348849637E+00  0.25807581601E+02 -0.23899649886E+02  0.35492655722E+02  0.47000000000E+01 0.  1.
         -5    1    5    5    0  503  0.11818840387E+02  0.23446666432E+02  0.14200189717E+03  0.14448550084E+03  0.47000000000E+01 0.  1.
<mgrwt>
<rscale>  0 0.27577208E+03</rscale>
<asrwt>0</asrwt>
<pdfrwt beam="1">  1        1 0.55831526E-01 0.27577208E+03</pdfrwt>
<pdfrwt beam="2">  1       -1 0.80599877E-02 0.27577208E+03</pdfrwt>
<totfact> 0.58125624E+03</totfact>
</mgrwt>
</event>
<event>
 9    1  0.8122655E-001  0.2730480E+03  0.7818608E-02  0.1099548E+00
         -1   -1    0    0    0  501 -0.00000000000E+00  0.00000000000E+00  0.20358471537E+02  0.20358471537E+02  0.00000000000E+00 0. -1.
          1   -1    0    0  501    0  0.00000000000E+00 -0.00000000000E+00 -0.91553064172E+03  0.91553064172E+03  0.00000000000E+00 0. -1.
         35    2    1    2    0    0  0.00000000000E+00 -0.71054273576E-14 -0.89517217018E+03  0.93588911325E+03  0.27304801417E+03 0.  0.
         25    2    3    3    0    0  0.43904215545E+02  0.27631318149E+02 -0.38489576147E+03  0.40784408731E+03  0.12450294162E+03 0.  0.
         25    2    3    3    0    0 -0.43904215545E+02 -0.27631318149E+02 -0.51027640871E+03  0.52804502595E+03  0.12553272981E+03 0.  0.
          5    1    4    4  502    0  0.25448243355E+02  0.49398704126E+02 -0.37203393858E+03  0.37619035941E+03  0.47000000000E+01 0.  1.
         -5    1    4    4    0  502  0.18455972190E+02 -0.21767385977E+02 -0.12861822887E+02  0.31653727896E+02  0.47000000000E+01 0.  1.
          5    1    5    5  503    0 -0.18316500874E+02  0.49327152704E+02 -0.24395007153E+03  0.24960446630E+03  0.47000000000E+01 0.  1.
         -5    1    5    5    0  503 -0.25587714671E+02 -0.76958470853E+02 -0.26632633718E+03  0.27844055964E+03  0.47000000000E+01 0.  1.
<mgrwt>
<rscale>  0 0.27304801E+03</rscale>
<asrwt>0</asrwt>
<pdfrwt beam="1">  1        1 0.14085085E+00 0.27304801E+03</pdfrwt>
<pdfrwt beam="2">  1       -1 0.31320729E-02 0.27304801E+03</pdfrwt>
<totfact> 0.65614538E+03</totfact>
</mgrwt>
</event>
<event>
 9    1  0.8122655E-001  0.2750350E+03  0.7818608E-02  0.1098432E+00
         -1   -1    0    0    0  501 -0.00000000000E+00  0.00000000000E+00  0.13151020742E+03  0.13151020742E+03  0.00000000000E+00 0. -1.
          1   -1    0    0  501    0  0.00000000000E+00 -0.00000000000E+00 -0.14379921727E+03  0.14379921727E+03  0.00000000000E+00 0. -1.
         35    2    1    2    0    0  0.35527136788E-14  0.00000000000E+00 -0.12289009847E+02  0.27530942470E+03  0.27503501516E+03 0.  0.
         25    2    3    3    0    0 -0.12537146447E+02 -0.41039376390E+02  0.33198583878E+02  0.13621401934E+03  0.12494279746E+03 0.  0.
         25    2    3    3    0    0  0.12537146447E+02  0.41039376390E+02 -0.45487593724E+02  0.13909540535E+03  0.12424572488E+03 0.  0.
          5    1    4    4  502    0  0.51544179526E+02 -0.22832954668E+02  0.39706332703E+02  0.69114608576E+02  0.47000000000E+01 0. -1.
         -5    1    4    4    0  502 -0.64081325973E+02 -0.18206421722E+02 -0.65077488258E+01  0.67099410766E+02  0.47000000000E+01 0. -1.
          5    1    5    5  503    0  0.16529451838E+02 -0.18875508764E+01  0.39812446898E+02  0.43403992379E+02  0.47000000000E+01 0. -1.
         -5    1    5    5    0  503 -0.39923053913E+01  0.42926927266E+02 -0.85300040623E+02  0.95691412975E+02  0.47000000000E+01 0. -1.
<mgrwt>
<rscale>  0 0.27503502E+03</rscale>
<asrwt>0</asrwt>
<pdfrwt beam="1">  1        1 0.22122956E-01 0.27503502E+03</pdfrwt>
<pdfrwt beam="2">  1       -1 0.20232340E-01 0.27503502E+03</pdfrwt>
<totfact> 0.44040321E+03</totfact>
</mgrwt>
</event>
<event>
 9    1  0.8122655E-001  0.2803702E+03  0.7818608E-02  0.1095487E+00
          2   -1    0    0  501    0  0.00000000000E+00  0.00000000000E+00  0.44488355533E+03  0.44488355533E+03  0.00000000000E+00 0.  1.
         -2   -1    0    0    0  501 -0.00000000000E+00 -0.00000000000E+00 -0.44173055117E+02  0.44173055117E+02  0.00000000000E+00 0.  1.
         35    2    1    2    0    0 -0.35527136788E-14 -0.17763568394E-14  0.40071050021E+03  0.48905661045E+03  0.28037022531E+03 0.  0.
         25    2    3    3    0    0 -0.19068324317E+02  0.13808871346E+02  0.30134673613E+03  0.32710161435E+03  0.12502529669E+03 0.  0.
         25    2    3    3    0    0  0.19068324317E+02 -0.13808871346E+02  0.99363764078E+02  0.16195499610E+03  0.12570591565E+03 0.  0.
          5    1    4    4  502    0  0.30955946036E+02 -0.26323844385E+02  0.37372169917E+02  0.55407440497E+02  0.47000000000E+01 0. -1.
         -5    1    4    4    0  502 -0.50024270353E+02  0.40132715731E+02  0.26397456622E+03  0.27169417385E+03  0.47000000000E+01 0. -1.
          5    1    5    5  503    0 -0.24777060767E+02 -0.22986251647E+02  0.11042352092E+03  0.11557557907E+03  0.47000000000E+01 0. -1.
         -5    1    5    5    0  503  0.43845385084E+02  0.91773803005E+01 -0.11059756841E+02  0.46379417027E+02  0.47000000000E+01 0. -1.
<mgrwt>
<rscale>  0 0.28037023E+03</rscale>
<asrwt>0</asrwt>
<pdfrwt beam="1">  1        2 0.68443621E-01 0.28037023E+03</pdfrwt>
<pdfrwt beam="2">  1       -2 0.67958549E-02 0.28037023E+03</pdfrwt>
<totfact> 0.86156192E+03</totfact>
</mgrwt>
</event>
<event>
 9    1  0.8122655E-001  0.2944772E+03  0.7818608E-02  0.1088034E+00
          1   -1    0    0  501    0  0.00000000000E+00  0.00000000000E+00  0.37473581137E+03  0.37473581137E+03  0.00000000000E+00 0.  1.
         -1   -1    0    0    0  501 -0.00000000000E+00 -0.00000000000E+00 -0.57851986321E+02  0.57851986321E+02  0.00000000000E+00 0.  1.
         35    2    1    2    0    0  0.71054273576E-14  0.00000000000E+00  0.31688382505E+03  0.43258779770E+03  0.29447723874E+03 0.  0.
         25    2    3    3    0    0 -0.22983882143E+02  0.16100537217E+02  0.26310907759E+03  0.29404814203E+03  0.12825925690E+03 0.  0.
         25    2    3    3    0    0  0.22983882143E+02 -0.16100537217E+02  0.53774747462E+02  0.13853965567E+03  0.12455531539E+03 0.  0.
          5    1    4    4  502    0 -0.28476819193E+02  0.53172017232E+02  0.24462984341E+03  0.25200008519E+03  0.47000000000E+01 0.  1.
         -5    1    4    4    0  502  0.54929370506E+01 -0.37071480014E+02  0.18479234181E+02  0.42048056838E+02  0.47000000000E+01 0.  1.
          5    1    5    5  503    0  0.70015795501E+02 -0.16896048898E+02  0.78030091139E+01  0.72599345997E+02  0.47000000000E+01 0.  1.
         -5    1    5    5    0  503 -0.47031913358E+02  0.79551168087E+00  0.45971738348E+02  0.65940309672E+02  0.47000000000E+01 0.  1.
<mgrwt>
<rscale>  0 0.29447724E+03</rscale>
<asrwt>0</asrwt>
<pdfrwt beam="1">  1        1 0.57651662E-01 0.29447724E+03</pdfrwt>
<pdfrwt beam="2">  1       -1 0.89003058E-02 0.29447724E+03</pdfrwt>
<totfact> 0.48015052E+03</totfact>
</mgrwt>
</event>
<event>
 9    1  0.8122655E-001  0.2726188E+03  0.7818608E-02  0.1099790E+00
         -2   -1    0    0    0  501 -0.00000000000E+00  0.00000000000E+00  0.15288749561E+03  0.15288749561E+03  0.00000000000E+00 0. -1.
          2   -1    0    0  501    0  0.00000000000E+00 -0.00000000000E+00 -0.12152891720E+03  0.12152891720E+03  0.00000000000E+00 0. -1.
         35    2    1    2    0    0  0.00000000000E+00 -0.71054273576E-14  0.31358578408E+02  0.27441641282E+03  0.27261879462E+03 0.  0.
         25    2    3    3    0    0  0.35548340460E+02  0.29875476614E+02  0.44767424269E+02  0.14061169534E+03  0.12494517990E+03 0.  0.
         25    2    3    3    0    0 -0.35548340460E+02 -0.29875476614E+02 -0.13408845861E+02  0.13380471747E+03  0.12477049594E+03 0.  0.
          5    1    4    4  502    0 -0.20677612824E+02  0.54770768421E+02  0.52095537078E+02  0.78507552050E+02  0.47000000000E+01 0. -1.
         -5    1    4    4    0  502  0.56225953284E+02 -0.24895291807E+02 -0.73281128091E+01  0.62104143293E+02  0.47000000000E+01 0. -1.
          5    1    5    5  503    0 -0.18402601567E+02 -0.65707716870E+02 -0.45815616049E+02  0.82324482838E+02  0.47000000000E+01 0. -1.
         -5    1    5    5    0  503 -0.17145738893E+02  0.35832240256E+02  0.32406770188E+02  0.51480234634E+02  0.47000000000E+01 0. -1.
<mgrwt>
<rscale>  0 0.27261879E+03</rscale>
<asrwt>0</asrwt>
<pdfrwt beam="1">  1        2 0.18696756E-01 0.27261879E+03</pdfrwt>
<pdfrwt beam="2">  1       -2 0.23521153E-01 0.27261879E+03</pdfrwt>
<totfact> 0.47231717E+03</totfact>
</mgrwt>
</event>
<event>
 9    1  0.8122655E-001  0.2692331E+03  0.7818608E-02  0.1101719E+00
         -2   -1    0    0    0  501 -0.00000000000E+00  0.00000000000E+00  0.95894243343E+02  0.95894243343E+02  0.00000000000E+00 0.  1.
          2   -1    0    0  501    0  0.00000000000E+00 -0.00000000000E+00 -0.18897497012E+03  0.18897497012E+03  0.00000000000E+00 0.  1.
         35    2    1    2    0    0  0.14210854715E-13 -0.71054273576E-14 -0.93080726772E+02  0.28486921346E+03  0.26923307204E+03 0.  0.
         25    2    3    3    0    0 -0.46775163528E+02 -0.75909161152E+01 -0.43855278669E+02  0.14148329383E+03  0.12589161623E+03 0.  0.
         25    2    3    3    0    0  0.46775163528E+02  0.75909161152E+01 -0.49225448103E+02  0.14338591962E+03  0.12605887226E+03 0.  0.
          5    1    4    4  502    0 -0.74433343817E+02 -0.44467713638E+02 -0.18938271141E+02  0.88873214985E+02  0.47000000000E+01 0.  1.
         -5    1    4    4    0  502  0.27658180288E+02  0.36876797523E+02 -0.24917007528E+02  0.52610078849E+02  0.47000000000E+01 0.  1.
          5    1    5    5  503    0 -0.60219862056E+01 -0.53157520614E+02 -0.24731856316E+02  0.59124792029E+02  0.47000000000E+01 0.  1.
         -5    1    5    5    0  503  0.52797149734E+02  0.60748436729E+02 -0.24493591787E+02  0.84261127595E+02  0.47000000000E+01 0.  1.
<mgrwt>
<rscale>  0 0.26923307E+03</rscale>
<asrwt>0</asrwt>
<pdfrwt beam="1">  1        2 0.29073072E-01 0.26923307E+03</pdfrwt>
<pdfrwt beam="2">  1       -2 0.14752961E-01 0.26923307E+03</pdfrwt>
<totfact> 0.63343101E+03</totfact>
</mgrwt>
</event>
<event>
 9    1  0.8122655E-001  0.2746859E+03  0.7818608E-02  0.1098627E+00
          1   -1    0    0  501    0  0.00000000000E+00  0.00000000000E+00  0.22037214987E+04  0.22037214987E+04  0.00000000000E+00 0. -1.
         -1   -1    0    0    0  501 -0.00000000000E+00 -0.00000000000E+00 -0.85596520801E+01  0.85596520801E+01  0.00000000000E+00 0. -1.
         35    2    1    2    0    0  0.35527136788E-14  0.17763568394E-14  0.21951618466E+04  0.22122811507E+04  0.27468592472E+03 0.  0.
         25    2    3    3    0    0  0.29508500184E+02  0.14376824664E+02  0.14340531520E+04  0.14402290138E+04  0.12912677807E+03 0.  0.
         25    2    3    3    0    0 -0.29508500184E+02 -0.14376824664E+02  0.76110869460E+03  0.77205213694E+03  0.12530208493E+03 0.  0.
          5    1    4    4  502    0  0.67718610130E+02 -0.72808366376E+01  0.12063929973E+04  0.12083232079E+04  0.47000000000E+01 0. -1.
         -5    1    4    4    0  502 -0.38210109946E+02  0.21657661302E+02  0.22766015464E+03  0.23190580589E+03  0.47000000000E+01 0. -1.
          5    1    5    5  503    0 -0.32938917238E+01  0.16908224458E+02  0.68766957825E+03  0.68790135675E+03  0.47000000000E+01 0.  1.
         -5    1    5    5    0  503 -0.26214608460E+02 -0.31285049123E+02  0.73439116352E+02  0.84150780186E+02  0.47000000000E+01 0.  1.
<mgrwt>
<rscale>  0 0.27468592E+03</rscale>
<asrwt>0</asrwt>
<pdfrwt beam="1">  1        1 0.33903363E+00 0.27468592E+03</pdfrwt>
<pdfrwt beam="2">  1       -1 0.13168713E-02 0.27468592E+03</pdfrwt>
<totfact> 0.31357773E+03</totfact>
</mgrwt>
</event>
<event>
 9    1  0.8122655E-001  0.2739136E+03  0.7818608E-02  0.1099060E+00
          2   -1    0    0  501    0  0.00000000000E+00  0.00000000000E+00  0.87227008954E+03  0.87227008954E+03  0.00000000000E+00 0.  1.
         -2   -1    0    0    0  501 -0.00000000000E+00 -0.00000000000E+00 -0.21503845563E+02  0.21503845563E+02  0.00000000000E+00 0.  1.
         35    2    1    2    0    0  0.00000000000E+00  0.00000000000E+00  0.85076624398E+03  0.89377393511E+03  0.27391357246E+03 0.  0.
         25    2    3    3    0    0 -0.43668123412E+01 -0.13176178043E+01  0.24352363749E+03  0.27370938862E+03  0.12486898028E+03 0.  0.
         25    2    3    3    0    0  0.43668123412E+01  0.13176178043E+01  0.60724260649E+03  0.62006454649E+03  0.12536208959E+03 0.  0.
          5    1    4    4  502    0 -0.12972710567E+02  0.52451863789E+02  0.18852413972E+03  0.19617066674E+03  0.47000000000E+01 0.  1.
         -5    1    4    4    0  502  0.86058982261E+01 -0.53769481593E+02  0.54999497774E+02  0.77538721878E+02  0.47000000000E+01 0.  1.
          5    1    5    5  503    0  0.58956720309E+02 -0.17527480335E+02  0.21899267992E+03  0.22751481555E+03  0.47000000000E+01 0.  1.
         -5    1    5    5    0  503 -0.54589907968E+02  0.18845098139E+02  0.38824992657E+03  0.39254973093E+03  0.47000000000E+01 0.  1.
<mgrwt>
<rscale>  0 0.27391357E+03</rscale>
<asrwt>0</asrwt>
<pdfrwt beam="1">  1        2 0.13419537E+00 0.27391357E+03</pdfrwt>
<pdfrwt beam="2">  1       -2 0.33082846E-02 0.27391357E+03</pdfrwt>
<totfact> 0.11552539E+04</totfact>
</mgrwt>
</event>
<event>
 9    1  0.8122655E-001  0.2795564E+03  0.7818608E-02  0.1095931E+00
         -1   -1    0    0    0  501 -0.00000000000E+00  0.00000000000E+00  0.19206253268E+02  0.19206253268E+02  0.00000000000E+00 0.  1.
          1   -1    0    0  501    0  0.00000000000E+00 -0.00000000000E+00 -0.10172701312E+04  0.10172701312E+04  0.00000000000E+00 0.  1.
         35    2    1    2    0    0  0.00000000000E+00  0.35527136788E-14 -0.99806387796E+03  0.10364763845E+04  0.27955641851E+03 0.  0.
         25    2    3    3    0    0 -0.63051199235E+01  0.79398585988E+01 -0.73563265084E+03  0.74569545569E+03  0.12166971588E+03 0.  0.
         25    2    3    3    0    0  0.63051199235E+01 -0.79398585988E+01 -0.26243122712E+03  0.29078092880E+03  0.12482228847E+03 0.  0.
          5    1    4    4  502    0 -0.44131171507E+02  0.43767937699E+02 -0.26836739464E+03  0.27551105454E+03  0.47000000000E+01 0. -1.
         -5    1    4    4    0  502  0.37826051584E+02 -0.35828079100E+02 -0.46726525620E+03  0.47018440114E+03  0.47000000000E+01 0. -1.
          5    1    5    5  503    0  0.60859641339E+02 -0.27947891093E+01 -0.19158101106E+03  0.20108973268E+03  0.47000000000E+01 0. -1.
         -5    1    5    5    0  503 -0.54554521415E+02 -0.51450694895E+01 -0.70850216058E+02  0.89691196125E+02  0.47000000000E+01 0. -1.
<mgrwt>
<rscale>  0 0.27955642E+03</rscale>
<asrwt>0</asrwt>
<pdfrwt beam="1">  1        1 0.15650310E+00 0.27955642E+03</pdfrwt>
<pdfrwt beam="2">  1       -1 0.29548081E-02 0.27955642E+03</pdfrwt>
<totfact> 0.59869414E+03</totfact>
</mgrwt>
</event>
<event>
 9    1  0.8122655E-001  0.2727888E+03  0.7818608E-02  0.1099694E+00
         -4   -1    0    0    0  501 -0.00000000000E+00  0.00000000000E+00  0.44643183725E+03  0.44643183725E+03  0.00000000000E+00 0.  1.
          4   -1    0    0  501    0  0.00000000000E+00 -0.00000000000E+00 -0.41671394532E+02  0.41671394532E+02  0.00000000000E+00 0.  1.
         35    2    1    2    0    0  0.00000000000E+00  0.00000000000E+00  0.40476044272E+03  0.48810323178E+03  0.27278883571E+03 0.  0.
         25    2    3    3    0    0 -0.36991288833E+02  0.37284168572E+02  0.22776278565E+03  0.26526418456E+03  0.12542223251E+03 0.  0.
         25    2    3    3    0    0  0.36991288833E+02 -0.37284168572E+02  0.17699765706E+03  0.22283904722E+03  0.12478223304E+03 0.  0.
          5    1    4    4  502    0  0.28755745471E+02  0.21392654357E+02  0.17676396217E+03  0.18042207980E+03  0.47000000000E+01 0. -1.
         -5    1    4    4    0  502 -0.65747034304E+02  0.15891514215E+02  0.50998823488E+02  0.84842104765E+02  0.47000000000E+01 0. -1.
          5    1    5    5  503    0  0.79581335210E+01 -0.81525479919E+02  0.10128920291E+03  0.13035078976E+03  0.47000000000E+01 0. -1.
         -5    1    5    5    0  503  0.29033155312E+02  0.44241311347E+02  0.75708454154E+02  0.92488257457E+02  0.47000000000E+01 0. -1.
<mgrwt>
<rscale>  0 0.27278884E+03</rscale>
<asrwt>0</asrwt>
<pdfrwt beam="1">  1        4 0.64109841E-02 0.27278884E+03</pdfrwt>
<pdfrwt beam="2">  1       -4 0.68681818E-01 0.27278884E+03</pdfrwt>
<totfact> 0.59216088E+02</totfact>
</mgrwt>
</event>
<event>
 9    1  0.8122655E-001  0.2797235E+03  0.7818608E-02  0.1095840E+00
          2   -1    0    0  501    0  0.00000000000E+00  0.00000000000E+00  0.88003515870E+03  0.88003515870E+03  0.00000000000E+00 0.  1.
         -2   -1    0    0    0  501 -0.00000000000E+00 -0.00000000000E+00 -0.22227871877E+02  0.22227871877E+02  0.00000000000E+00 0.  1.
         35    2    1    2    0    0  0.71054273576E-14  0.00000000000E+00  0.85780728682E+03  0.90226303057E+03  0.27972349744E+03 0.  0.
         25    2    3    3    0    0  0.57545966907E+02 -0.13146853981E+02  0.34983247600E+03  0.37597836826E+03  0.12446924944E+03 0.  0.
         25    2    3    3    0    0 -0.57545966907E+02  0.13146853981E+02  0.50797481082E+03  0.52628466232E+03  0.12430912793E+03 0.  0.
          5    1    4    4  502    0  0.42573532722E+02  0.21841280164E+02  0.32869391619E+03  0.33219170331E+03  0.47000000000E+01 0.  1.
         -5    1    4    4    0  502  0.14972434186E+02 -0.34988134145E+02  0.21138559810E+02  0.43786664948E+02  0.47000000000E+01 0.  1.
          5    1    5    5  503    0  0.21860565027E+02  0.44905318376E+02  0.14839335935E+03  0.15664306886E+03  0.47000000000E+01 0. -1.
         -5    1    5    5    0  503 -0.79406531934E+02 -0.31758464395E+02  0.35958145147E+03  0.36964159346E+03  0.47000000000E+01 0. -1.
<mgrwt>
<rscale>  0 0.27972350E+03</rscale>
<asrwt>0</asrwt>
<pdfrwt beam="1">  1        2 0.13539000E+00 0.27972350E+03</pdfrwt>
<pdfrwt beam="2">  1       -2 0.34196733E-02 0.27972350E+03</pdfrwt>
<totfact> 0.10874180E+04</totfact>
</mgrwt>
</event>
<event>
 9    1  0.8122655E-001  0.2749880E+03  0.7818608E-02  0.1098458E+00
          1   -1    0    0  501    0  0.00000000000E+00  0.00000000000E+00  0.24361651523E+03  0.24361651523E+03  0.00000000000E+00 0.  1.
         -1   -1    0    0    0  501 -0.00000000000E+00 -0.00000000000E+00 -0.77599845591E+02  0.77599845591E+02  0.00000000000E+00 0.  1.
         35    2    1    2    0    0  0.00000000000E+00 -0.71054273576E-14  0.16601666964E+03  0.32121636082E+03  0.27498802858E+03 0.  0.
         25    2    3    3    0    0  0.21114722477E+02  0.29806229646E+02  0.13582661563E+03  0.18662372684E+03  0.12265929673E+03 0.  0.
         25    2    3    3    0    0 -0.21114722477E+02 -0.29806229646E+02  0.30190054008E+02  0.13459263398E+03  0.12597418358E+03 0.  0.
          5    1    4    4  502    0  0.40032973668E+02 -0.20154812528E+02  0.12368201811E+03  0.13163657187E+03  0.47000000000E+01 0.  1.
         -5    1    4    4    0  502 -0.18918251191E+02  0.49961042174E+02  0.12144597519E+02  0.54987154974E+02  0.47000000000E+01 0.  1.
          5    1    5    5  503    0 -0.69314495966E+02 -0.30769065599E+02 -0.27221460695E+01  0.76031143804E+02  0.47000000000E+01 0. -1.
         -5    1    5    5    0  503  0.48199773489E+02  0.96283595328E+00  0.32912200077E+02  0.58561490174E+02  0.47000000000E+01 0. -1.
<mgrwt>
<rscale>  0 0.27498803E+03</rscale>
<asrwt>0</asrwt>
<pdfrwt beam="1">  1        1 0.37479463E-01 0.27498803E+03</pdfrwt>
<pdfrwt beam="2">  1       -1 0.11938438E-01 0.27498803E+03</pdfrwt>
<totfact> 0.52344131E+03</totfact>
</mgrwt>
</event>
<event>
 9    1  0.8122655E-001  0.2747485E+03  0.7818608E-02  0.1098592E+00
          1   -1    0    0  501    0  0.00000000000E+00  0.00000000000E+00  0.18622894686E+04  0.18622894686E+04  0.00000000000E+00 0. -1.
         -1   -1    0    0    0  501 -0.00000000000E+00 -0.00000000000E+00 -0.10133590226E+02  0.10133590226E+02  0.00000000000E+00 0. -1.
         35    2    1    2    0    0 -0.35527136788E-14 -0.71054273576E-14  0.18521558783E+04  0.18724230588E+04  0.27474845483E+03 0.  0.
         25    2    3    3    0    0 -0.21181506868E+02 -0.39634205152E+02  0.11762207915E+04  0.11836287698E+04  0.12434704619E+03 0.  0.
         25    2    3    3    0    0  0.21181506868E+02  0.39634205152E+02  0.67593508684E+03  0.68879428899E+03  0.12461863614E+03 0.  0.
          5    1    4    4  502    0  0.65763231949E+01 -0.66174192397E+02  0.33779032689E+03  0.34430606545E+03  0.47000000000E+01 0. -1.
         -5    1    4    4    0  502 -0.27757830063E+02  0.26539987245E+02  0.83843046461E+03  0.83932270435E+03  0.47000000000E+01 0. -1.
          5    1    5    5  503    0  0.11941488696E+02  0.70346067589E+02  0.62027869139E+03  0.62438682991E+03  0.47000000000E+01 0.  1.
         -5    1    5    5    0  503  0.92400181722E+01 -0.30711862437E+02  0.55656395447E+02  0.64407459074E+02  0.47000000000E+01 0.  1.
<mgrwt>
<rscale>  0 0.27474845E+03</rscale>
<asrwt>0</asrwt>
<pdfrwt beam="1">  1        1 0.28650580E+00 0.27474845E+03</pdfrwt>
<pdfrwt beam="2">  1       -1 0.15590154E-02 0.27474845E+03</pdfrwt>
<totfact> 0.40898953E+03</totfact>
</mgrwt>
</event>
<event>
 9    1  0.8122655E-001  0.2749352E+03  0.7818608E-02  0.1098488E+00
         -1   -1    0    0    0  501 -0.00000000000E+00  0.00000000000E+00  0.20789556064E+02  0.20789556064E+02  0.00000000000E+00 0.  1.
          1   -1    0    0  501    0  0.00000000000E+00 -0.00000000000E+00 -0.90898223087E+03  0.90898223087E+03  0.00000000000E+00 0.  1.
         35    2    1    2    0    0 -0.71054273576E-14  0.00000000000E+00 -0.88819267480E+03  0.92977178693E+03  0.27493517090E+03 0.  0.
         25    2    3    3    0    0  0.50110763257E+02 -0.63008084449E+01 -0.39291260792E+03  0.41534497116E+03  0.12482122746E+03 0.  0.
         25    2    3    3    0    0 -0.50110763257E+02  0.63008084449E+01 -0.49528006689E+03  0.51442681577E+03  0.12954464617E+03 0.  0.
          5    1    4    4  502    0  0.45626397234E+02 -0.41094294011E+02 -0.82655099527E+02  0.10307504355E+03  0.47000000000E+01 0.  1.
         -5    1    4    4    0  502  0.44843660237E+01  0.34793485566E+02 -0.31025750839E+03  0.31226992761E+03  0.47000000000E+01 0.  1.
          5    1    5    5  503    0 -0.19994346590E+02  0.67354101109E+02 -0.23234837272E+03  0.24278427696E+03  0.47000000000E+01 0. -1.
         -5    1    5    5    0  503 -0.30116416667E+02 -0.61053292664E+02 -0.26293169416E+03  0.27164253882E+03  0.47000000000E+01 0. -1.
<mgrwt>
<rscale>  0 0.27493517E+03</rscale>
<asrwt>0</asrwt>
<pdfrwt beam="1">  1        1 0.13984341E+00 0.27493517E+03</pdfrwt>
<pdfrwt beam="2">  1       -1 0.31983935E-02 0.27493517E+03</pdfrwt>
<totfact> 0.64377708E+03</totfact>
</mgrwt>
</event>
<event>
 9    1  0.8122655E-001  0.2807531E+03  0.7818608E-02  0.1095278E+00
          2   -1    0    0  501    0  0.00000000000E+00  0.00000000000E+00  0.56718313926E+03  0.56718313926E+03  0.00000000000E+00 0. -1.
         -2   -1    0    0    0  501 -0.00000000000E+00 -0.00000000000E+00 -0.34742873915E+02  0.34742873915E+02  0.00000000000E+00 0. -1.
         35    2    1    2    0    0  0.14210854715E-13 -0.71054273576E-14  0.53244026535E+03  0.60192601318E+03  0.28075307510E+03 0.  0.
         25    2    3    3    0    0 -0.33811489686E+02  0.54985539905E+02  0.27078709452E+03  0.30472754662E+03  0.12396209370E+03 0.  0.
         25    2    3    3    0    0  0.33811489686E+02 -0.54985539905E+02  0.26165317082E+03  0.29719846656E+03  0.12529134163E+03 0.  0.
          5    1    4    4  502    0 -0.35068748405E+02 -0.30754145441E+02  0.14524388009E+03  0.15262211269E+03  0.47000000000E+01 0. -1.
         -5    1    4    4    0  502  0.12572587189E+01  0.85739685346E+02  0.12554321443E+03  0.15210543393E+03  0.47000000000E+01 0. -1.
          5    1    5    5  503    0  0.76106408065E+02 -0.61181476309E+02  0.17476090581E+03  0.20024690408E+03  0.47000000000E+01 0.  1.
         -5    1    5    5    0  503 -0.42294918379E+02  0.61959364044E+01  0.86892265011E+02  0.96951562480E+02  0.47000000000E+01 0.  1.
<mgrwt>
<rscale>  0 0.28075308E+03</rscale>
<asrwt>0</asrwt>
<pdfrwt beam="1">  1        2 0.87258937E-01 0.28075308E+03</pdfrwt>
<pdfrwt beam="2">  1       -2 0.53450580E-02 0.28075308E+03</pdfrwt>
<totfact> 0.94878052E+03</totfact>
</mgrwt>
</event>
<event>
 9    1  0.8122655E-001  0.2738337E+03  0.7818608E-02  0.1099105E+00
          1   -1    0    0  501    0  0.00000000000E+00  0.00000000000E+00  0.18935742833E+02  0.18935742833E+02  0.00000000000E+00 0.  1.
         -1   -1    0    0    0  501 -0.00000000000E+00 -0.00000000000E+00 -0.98999175457E+03  0.98999175457E+03  0.00000000000E+00 0.  1.
         35    2    1    2    0    0  0.71054273576E-14  0.00000000000E+00 -0.97105601174E+03  0.10089274974E+04  0.27383373986E+03 0.  0.
         25    2    3    3    0    0 -0.37095842319E+02 -0.40784650649E+02 -0.47348444349E+03  0.49293057259E+03  0.12551311452E+03 0.  0.
         25    2    3    3    0    0  0.37095842319E+02  0.40784650649E+02 -0.49757156825E+03  0.51599692482E+03  0.12504347903E+03 0.  0.
          5    1    4    4  502    0 -0.50718745537E+02  0.49813974564E+01 -0.70599484611E+02  0.87198524625E+02  0.47000000000E+01 0. -1.
         -5    1    4    4    0  502  0.13622903218E+02 -0.45766048105E+02 -0.40288495888E+03  0.40573204796E+03  0.47000000000E+01 0. -1.
          5    1    5    5  503    0  0.54383606432E+02 -0.30737939959E+02 -0.21219469260E+03  0.22124889868E+03  0.47000000000E+01 0. -1.
         -5    1    5    5    0  503 -0.17287764113E+02  0.71522590608E+02 -0.28537687565E+03  0.29474802613E+03  0.47000000000E+01 0. -1.
<mgrwt>
<rscale>  0 0.27383374E+03</rscale>
<asrwt>0</asrwt>
<pdfrwt beam="1">  1        1 0.29131918E-02 0.27383374E+03</pdfrwt>
<pdfrwt beam="2">  1       -1 0.15230639E+00 0.27383374E+03</pdfrwt>
<totfact> 0.12896150E+03</totfact>
</mgrwt>
</event>
<event>
 9    1  0.8122655E-001  0.2739024E+03  0.7818608E-02  0.1099067E+00
         -2   -1    0    0    0  501 -0.00000000000E+00  0.00000000000E+00  0.22069553060E+02  0.22069553060E+02  0.00000000000E+00 0. -1.
          2   -1    0    0  501    0  0.00000000000E+00 -0.00000000000E+00 -0.84984214726E+03  0.84984214726E+03  0.00000000000E+00 0. -1.
         35    2    1    2    0    0  0.00000000000E+00  0.71054273576E-14 -0.82777259420E+03  0.87191170032E+03  0.27390243782E+03 0.  0.
         25    2    3    3    0    0  0.42057642752E+02  0.10050870204E+01 -0.30349649810E+03  0.33096434859E+03  0.12512961347E+03 0.  0.
         25    2    3    3    0    0 -0.42057642752E+02 -0.10050870204E+01 -0.52427609610E+03  0.54094735173E+03  0.12644665628E+03 0.  0.
          5    1    4    4  502    0 -0.26225705444E+02  0.41757686472E+02 -0.15098459046E+03  0.15890226103E+03  0.47000000000E+01 0. -1.
         -5    1    4    4    0  502  0.68283348196E+02 -0.40752599452E+02 -0.15251190764E+03  0.17206208756E+03  0.47000000000E+01 0. -1.
          5    1    5    5  503    0 -0.67275452337E+02  0.39355118015E+02 -0.23206953844E+03  0.24485336933E+03  0.47000000000E+01 0. -1.
         -5    1    5    5    0  503  0.25217809585E+02 -0.40360205036E+02 -0.29220655767E+03  0.29609398240E+03  0.47000000000E+01 0. -1.
<mgrwt>
<rscale>  0 0.27390244E+03</rscale>
<asrwt>0</asrwt>
<pdfrwt beam="1">  1        2 0.13074494E+00 0.27390244E+03</pdfrwt>
<pdfrwt beam="2">  1       -2 0.33953161E-02 0.27390244E+03</pdfrwt>
<totfact> 0.11499360E+04</totfact>
</mgrwt>
</event>
<event>
 9    1  0.8122655E-001  0.2921002E+03  0.7818608E-02  0.1089258E+00
          2   -1    0    0  501    0  0.00000000000E+00  0.00000000000E+00  0.20162512457E+03  0.20162512457E+03  0.00000000000E+00 0.  1.
         -2   -1    0    0    0  501 -0.00000000000E+00 -0.00000000000E+00 -0.10579353253E+03  0.10579353253E+03  0.00000000000E+00 0.  1.
         35    2    1    2    0    0  0.00000000000E+00  0.71054273576E-14  0.95831592041E+02  0.30741865710E+03  0.29210021688E+03 0.  0.
         25    2    3    3    0    0 -0.66214845956E+02  0.35483547224E+02  0.31114501227E+02  0.14819169163E+03  0.12389179687E+03 0.  0.
         25    2    3    3    0    0  0.66214845956E+02 -0.35483547224E+02  0.64717090813E+02  0.15922696547E+03  0.12458505826E+03 0.  0.
          5    1    4    4  502    0 -0.56013462399E+02 -0.48682577996E+01  0.70772524346E+02  0.90509933743E+02  0.47000000000E+01 0.  1.
         -5    1    4    4    0  502 -0.10201383558E+02  0.40351805023E+02 -0.39658023119E+02  0.57681757886E+02  0.47000000000E+01 0.  1.
          5    1    5    5  503    0  0.93239262572E+02  0.53731619856E+01  0.27326926264E+02  0.97423210037E+02  0.47000000000E+01 0. -1.
         -5    1    5    5    0  503 -0.27024416616E+02 -0.40856709209E+02  0.37390164549E+02  0.61803755435E+02  0.47000000000E+01 0. -1.
<mgrwt>
<rscale>  0 0.29210022E+03</rscale>
<asrwt>0</asrwt>
<pdfrwt beam="1">  1        2 0.31019250E-01 0.29210022E+03</pdfrwt>
<pdfrwt beam="2">  1       -2 0.16275928E-01 0.29210022E+03</pdfrwt>
<totfact> 0.50259592E+03</totfact>
</mgrwt>
</event>
<event>
 9    1  0.8122655E-001  0.2805662E+03  0.7818608E-02  0.1095380E+00
         -1   -1    0    0    0  501 -0.00000000000E+00  0.00000000000E+00  0.16415301303E+03  0.16415301303E+03  0.00000000000E+00 0. -1.
          1   -1    0    0  501    0  0.00000000000E+00 -0.00000000000E+00 -0.11988419087E+03  0.11988419087E+03  0.00000000000E+00 0. -1.
         35    2    1    2    0    0  0.71054273576E-14 -0.17763568394E-14  0.44268822163E+02  0.28403720390E+03  0.28056622138E+03 0.  0.
         25    2    3    3    0    0 -0.63138820838E+02  0.15054797291E+02  0.14690245719E+02  0.14171164234E+03  0.12511286359E+03 0.  0.
         25    2    3    3    0    0  0.63138820838E+02 -0.15054797291E+02  0.29578576444E+02  0.14232556156E+03  0.12316052805E+03 0.  0.
          5    1    4    4  502    0 -0.88131149489E+02 -0.15494041460E+02 -0.16592696817E+02  0.91129426744E+02  0.47000000000E+01 0.  1.
         -5    1    4    4    0  502  0.24992328651E+02  0.30548838751E+02  0.31282942536E+02  0.50582215591E+02  0.47000000000E+01 0.  1.
          5    1    5    5  503    0 -0.92061801695E+01 -0.32467090246E+02 -0.31148681016E+02  0.46164878765E+02  0.47000000000E+01 0.  1.
         -5    1    5    5    0  503  0.72345001008E+02  0.17412292956E+02  0.60727257460E+02  0.96160682794E+02  0.47000000000E+01 0.  1.
<mgrwt>
<rscale>  0 0.28056622E+03</rscale>
<asrwt>0</asrwt>
<pdfrwt beam="1">  1        1 0.18443722E-01 0.28056622E+03</pdfrwt>
<pdfrwt beam="2">  1       -1 0.25254310E-01 0.28056622E+03</pdfrwt>
<totfact> 0.38669473E+03</totfact>
</mgrwt>
</event>
<event>
 9    1  0.8122655E-001  0.2753776E+03  0.7818608E-02  0.1098241E+00
         -1   -1    0    0    0  501 -0.00000000000E+00  0.00000000000E+00  0.15069239539E+02  0.15069239539E+02  0.00000000000E+00 0.  1.
          1   -1    0    0  501    0  0.00000000000E+00 -0.00000000000E+00 -0.12580733173E+04  0.12580733173E+04  0.00000000000E+00 0.  1.
         35    2    1    2    0    0  0.00000000000E+00  0.00000000000E+00 -0.12430040778E+04  0.12731425569E+04  0.27537761839E+03 0.  0.
         25    2    3    3    0    0  0.12927086896E+02 -0.17257169858E+01 -0.86963214040E+03  0.87871454605E+03  0.12533597311E+03 0.  0.
         25    2    3    3    0    0 -0.12927086896E+02  0.17257169858E+01 -0.37337193739E+03  0.39442801081E+03  0.12647831597E+03 0.  0.
          5    1    4    4  502    0  0.42779823164E+02  0.49928387564E+02 -0.42805710392E+03  0.43310267994E+03  0.47000000000E+01 0.  1.
         -5    1    4    4    0  502 -0.29852736268E+02 -0.51654104550E+02 -0.44157503648E+03  0.44561186611E+03  0.47000000000E+01 0.  1.
          5    1    5    5  503    0  0.34695564781E+02  0.46149019017E+02 -0.12765358253E+03  0.14018217185E+03  0.47000000000E+01 0.  1.
         -5    1    5    5    0  503 -0.47622651677E+02 -0.44423302031E+02 -0.24571835486E+03  0.25424583896E+03  0.47000000000E+01 0.  1.
<mgrwt>
<rscale>  0 0.27537762E+03</rscale>
<asrwt>0</asrwt>
<pdfrwt beam="1">  1        1 0.19354973E+00 0.27537762E+03</pdfrwt>
<pdfrwt beam="2">  1       -1 0.23183446E-02 0.27537762E+03</pdfrwt>
<totfact> 0.57565985E+03</totfact>
</mgrwt>
</event>
<event>
 9    1  0.8122655E-001  0.2799352E+03  0.7818608E-02  0.1095724E+00
         -2   -1    0    0    0  501 -0.00000000000E+00  0.00000000000E+00  0.11140572730E+02  0.11140572730E+02  0.00000000000E+00 0.  1.
          2   -1    0    0  501    0  0.00000000000E+00 -0.00000000000E+00 -0.17585204218E+04  0.17585204218E+04  0.00000000000E+00 0.  1.
         35    2    1    2    0    0  0.14210854715E-13  0.71054273576E-14 -0.17473798491E+04  0.17696609946E+04  0.27993516861E+03 0.  0.
         25    2    3    3    0    0  0.42169004124E+02  0.41862481091E+02 -0.74362699661E+03  0.75644906602E+03  0.12531315634E+03 0.  0.
         25    2    3    3    0    0 -0.42169004124E+02 -0.41862481091E+02 -0.10037528525E+04  0.10132119285E+04  0.12469134306E+03 0.  0.
          5    1    4    4  502    0  0.48768387840E+02  0.25218676802E+02 -0.73307225596E+03  0.73514036740E+03  0.47000000000E+01 0.  1.
         -5    1    4    4    0  502 -0.65993837162E+01  0.16643804289E+02 -0.10554740648E+02  0.21308698618E+02  0.47000000000E+01 0.  1.
          5    1    5    5  503    0  0.14253617170E+02 -0.16317084993E+01 -0.12700379819E+02  0.19728601638E+02  0.47000000000E+01 0. -1.
         -5    1    5    5    0  503 -0.56422621294E+02 -0.40230772592E+02 -0.99105247267E+03  0.99348332691E+03  0.47000000000E+01 0. -1.
<mgrwt>
<rscale>  0 0.27993517E+03</rscale>
<asrwt>0</asrwt>
<pdfrwt beam="1">  1        2 0.27054165E+00 0.27993517E+03</pdfrwt>
<pdfrwt beam="2">  1       -2 0.17139339E-02 0.27993517E+03</pdfrwt>
<totfact> 0.96584002E+03</totfact>
</mgrwt>
</event>
<event>
 9    1  0.8122655E-001  0.2739742E+03  0.7818608E-02  0.1099026E+00
          1   -1    0    0  501    0  0.00000000000E+00  0.00000000000E+00  0.48486020914E+03  0.48486020914E+03  0.00000000000E+00 0.  1.
         -1   -1    0    0    0  501 -0.00000000000E+00 -0.00000000000E+00 -0.38702842542E+02  0.38702842542E+02  0.00000000000E+00 0.  1.
         35    2    1    2    0    0  0.14210854715E-13  0.35527136788E-14  0.44615736660E+03  0.52356305168E+03  0.27397422017E+03 0.  0.
         25    2    3    3    0    0 -0.49727392149E+02  0.59687975985E+01  0.27699201405E+03  0.30791519445E+03  0.12481486712E+03 0.  0.
         25    2    3    3    0    0  0.49727392149E+02 -0.59687975985E+01  0.16916535255E+03  0.21564785723E+03  0.12401065176E+03 0.  0.
          5    1    4    4  502    0 -0.80216165271E+02 -0.29404412588E+02  0.20295401425E+03  0.22025365956E+03  0.47000000000E+01 0.  1.
         -5    1    4    4    0  502  0.30488773122E+02  0.35373210186E+02  0.74037999801E+02  0.87661534894E+02  0.47000000000E+01 0.  1.
          5    1    5    5  503    0  0.85760348017E+02  0.16802870083E+02  0.13468399326E+03  0.16062080119E+03  0.47000000000E+01 0.  1.
         -5    1    5    5    0  503 -0.36032955868E+02 -0.22771667682E+02  0.34481359287E+02  0.55027056035E+02  0.47000000000E+01 0.  1.
<mgrwt>
<rscale>  0 0.27397422E+03</rscale>
<asrwt>0</asrwt>
<pdfrwt beam="1">  1        1 0.74593874E-01 0.27397422E+03</pdfrwt>
<pdfrwt beam="2">  1       -1 0.59542838E-02 0.27397422E+03</pdfrwt>
<totfact> 0.63278938E+03</totfact>
</mgrwt>
</event>
<event>
 9    1  0.8122655E-001  0.2741528E+03  0.7818608E-02  0.1098926E+00
         -3   -1    0    0    0  501 -0.00000000000E+00  0.00000000000E+00  0.51035402377E+03  0.51035402377E+03  0.00000000000E+00 0. -1.
          3   -1    0    0  501    0  0.00000000000E+00 -0.00000000000E+00 -0.36817463662E+02  0.36817463662E+02  0.00000000000E+00 0. -1.
         35    2    1    2    0    0 -0.88817841970E-15  0.14210854715E-13  0.47353656011E+03  0.54717148743E+03  0.27415280939E+03 0.  0.
         25    2    3    3    0    0 -0.71070332455E+01  0.51830806429E+02  0.30423305596E+03  0.33282412647E+03  0.12440741298E+03 0.  0.
         25    2    3    3    0    0  0.71070332455E+01 -0.51830806429E+02  0.16930350415E+03  0.21434736096E+03  0.12059922147E+03 0.  0.
          5    1    4    4  502    0  0.43827105092E+01  0.86561041799E+02  0.26555150969E+03  0.27937737276E+03  0.47000000000E+01 0.  1.
         -5    1    4    4    0  502 -0.11489743755E+02 -0.34730235370E+02  0.38681546265E+02  0.53446753707E+02  0.47000000000E+01 0.  1.
          5    1    5    5  503    0  0.21331611238E+02  0.10838989860E+02  0.14248020838E+03  0.14455179390E+03  0.47000000000E+01 0.  1.
         -5    1    5    5    0  503 -0.14224577992E+02 -0.62669796289E+02  0.26823295765E+02  0.69795567063E+02  0.47000000000E+01 0.  1.
<mgrwt>
<rscale>  0 0.27415281E+03</rscale>
<asrwt>0</asrwt>
<pdfrwt beam="1">  1        3 0.56642255E-02 0.27415281E+03</pdfrwt>
<pdfrwt beam="2">  1       -3 0.78515999E-01 0.27415281E+03</pdfrwt>
<totfact> 0.73642253E+02</totfact>
</mgrwt>
</event>
<event>
 9    1  0.8122655E-001  0.2769836E+03  0.7818608E-02  0.1097348E+00
          2   -1    0    0  501    0  0.00000000000E+00  0.00000000000E+00  0.16608772497E+03  0.16608772497E+03  0.00000000000E+00 0.  1.
         -2   -1    0    0    0  501 -0.00000000000E+00 -0.00000000000E+00 -0.11548099953E+03  0.11548099953E+03  0.00000000000E+00 0.  1.
         35    2    1    2    0    0  0.35527136788E-14 -0.71054273576E-14  0.50606725443E+02  0.28156872450E+03  0.27698358428E+03 0.  0.
         25    2    3    3    0    0 -0.22968448871E+02  0.54357690351E+02 -0.26896357630E+01  0.13825103346E+03  0.12499522378E+03 0.  0.
         25    2    3    3    0    0  0.22968448871E+02 -0.54357690351E+02  0.53296361206E+02  0.14331769105E+03  0.11923569224E+03 0.  0.
          5    1    4    4  502    0  0.13151701636E+02  0.54378870513E+02 -0.52283400139E+02  0.76718138301E+02  0.47000000000E+01 0.  1.
         -5    1    4    4    0  502 -0.36120150507E+02 -0.21180162163E-01  0.49593764376E+02  0.61532895156E+02  0.47000000000E+01 0.  1.
          5    1    5    5  503    0  0.35988012597E+02  0.13455054669E+02  0.62481646326E+02  0.73499807309E+02  0.47000000000E+01 0.  1.
         -5    1    5    5    0  503 -0.13019563726E+02 -0.67812745020E+02 -0.91852851202E+01  0.69817883737E+02  0.47000000000E+01 0.  1.
<mgrwt>
<rscale>  0 0.27698358E+03</rscale>
<asrwt>0</asrwt>
<pdfrwt beam="1">  1        2 0.25551958E-01 0.27698358E+03</pdfrwt>
<pdfrwt beam="2">  1       -2 0.17766308E-01 0.27698358E+03</pdfrwt>
<totfact> 0.53671826E+03</totfact>
</mgrwt>
</event>
<event>
 9    1  0.8122655E-001  0.2856116E+03  0.7818608E-02  0.1092663E+00
          1   -1    0    0  501    0  0.00000000000E+00  0.00000000000E+00  0.19113595224E+03  0.19113595224E+03  0.00000000000E+00 0. -1.
         -1   -1    0    0    0  501 -0.00000000000E+00 -0.00000000000E+00 -0.10669626074E+03  0.10669626074E+03  0.00000000000E+00 0. -1.
         35    2    1    2    0    0  0.71054273576E-14  0.14210854715E-13  0.84439691503E+02  0.29783221298E+03  0.28561156417E+03 0.  0.
         25    2    3    3    0    0 -0.45549342320E+02  0.38275650460E+02  0.75643039157E+02  0.15808152605E+03  0.12541184753E+03 0.  0.
         25    2    3    3    0    0  0.45549342320E+02 -0.38275650460E+02  0.87966523457E+01  0.13975068693E+03  0.12614715772E+03 0.  0.
          5    1    4    4  502    0 -0.67726906586E+02  0.71445229934E+01 -0.52735117871E+01  0.68468080235E+02  0.47000000000E+01 0.  1.
         -5    1    4    4    0  502  0.22177564265E+02  0.31131127466E+02  0.80916550945E+02  0.89613445815E+02  0.47000000000E+01 0.  1.
          5    1    5    5  503    0 -0.17169588202E+02 -0.18800988390E+02 -0.46860389697E+02  0.53537445270E+02  0.47000000000E+01 0.  1.
         -5    1    5    5    0  503  0.62718930522E+02 -0.19474662069E+02  0.55657042043E+02  0.86213241660E+02  0.47000000000E+01 0.  1.
<mgrwt>
<rscale>  0 0.28561156E+03</rscale>
<asrwt>0</asrwt>
<pdfrwt beam="1">  1        1 0.29405531E-01 0.28561156E+03</pdfrwt>
<pdfrwt beam="2">  1       -1 0.16414809E-01 0.28561156E+03</pdfrwt>
<totfact> 0.43009199E+03</totfact>
</mgrwt>
</event>
<event>
 9    1  0.8122655E-001  0.2815904E+03  0.7818608E-02  0.1094823E+00
          4   -1    0    0  501    0  0.00000000000E+00  0.00000000000E+00  0.10950555759E+03  0.10950555759E+03  0.00000000000E+00 0. -1.
         -4   -1    0    0    0  501 -0.00000000000E+00 -0.00000000000E+00 -0.18102534537E+03  0.18102534537E+03  0.00000000000E+00 0. -1.
         35    2    1    2    0    0  0.35527136788E-14  0.00000000000E+00 -0.71519787786E+02  0.29053090296E+03  0.28159035056E+03 0.  0.
         25    2    3    3    0    0 -0.29606539730E+02 -0.50476840799E+02 -0.65727833152E+02  0.15292106750E+03  0.12506096986E+03 0.  0.
         25    2    3    3    0    0  0.29606539730E+02  0.50476840799E+02 -0.57919546342E+01  0.13760983546E+03  0.12441246491E+03 0.  0.
          5    1    4    4  502    0  0.45411547105E+02 -0.33971790914E+02 -0.46780796242E+02  0.73666980971E+02  0.47000000000E+01 0.  1.
         -5    1    4    4    0  502 -0.75018086835E+02 -0.16505049885E+02 -0.18947036910E+02  0.79254086530E+02  0.47000000000E+01 0.  1.
          5    1    5    5  503    0 -0.26278558675E+02  0.64869993544E+02 -0.28091862338E+02  0.75564022114E+02  0.47000000000E+01 0. -1.
         -5    1    5    5    0  503  0.55885098405E+02 -0.14393152744E+02  0.22299907704E+02  0.62045813342E+02  0.47000000000E+01 0. -1.
<mgrwt>
<rscale>  0 0.28159035E+03</rscale>
<asrwt>0</asrwt>
<pdfrwt beam="1">  1        4 0.16847009E-01 0.28159035E+03</pdfrwt>
<pdfrwt beam="2">  1       -4 0.27850053E-01 0.28159035E+03</pdfrwt>
<totfact> 0.70684596E+02</totfact>
</mgrwt>
</event>
<event>
 9    1  0.8122655E-001  0.2771830E+03  0.7818608E-02  0.1097238E+00
          4   -1    0    0  501    0  0.00000000000E+00  0.00000000000E+00  0.11096906199E+03  0.11096906199E+03  0.00000000000E+00 0. -1.
         -4   -1    0    0    0  501 -0.00000000000E+00 -0.00000000000E+00 -0.17308967834E+03  0.17308967834E+03  0.00000000000E+00 0. -1.
         35    2    1    2    0    0 -0.71054273576E-14  0.17763568394E-14 -0.62120616343E+02  0.28405874033E+03  0.27718296662E+03 0.  0.
         25    2    3    3    0    0  0.55828252419E+02 -0.57313029829E+01 -0.26327088454E+02  0.13981736470E+03  0.12532413288E+03 0.  0.
         25    2    3    3    0    0 -0.55828252419E+02  0.57313029829E+01 -0.35793527889E+02  0.14424137563E+03  0.12796388632E+03 0.  0.
          5    1    4    4  502    0 -0.22823620014E+02  0.27185885164E+02 -0.39614078148E+02  0.53398082084E+02  0.47000000000E+01 0. -1.
         -5    1    4    4    0  502  0.78651872433E+02 -0.32917188147E+02  0.13286989695E+02  0.86419282616E+02  0.47000000000E+01 0. -1.
          5    1    5    5  503    0  0.93096196761E+01  0.18964831353E+02 -0.67183386174E+02  0.70583505329E+02  0.47000000000E+01 0.  1.
         -5    1    5    5    0  503 -0.65137872095E+02 -0.13233528370E+02  0.31389858284E+02  0.73657870301E+02  0.47000000000E+01 0.  1.
<mgrwt>
<rscale>  0 0.27718297E+03</rscale>
<asrwt>0</asrwt>
<pdfrwt beam="1">  1        4 0.17072163E-01 0.27718297E+03</pdfrwt>
<pdfrwt beam="2">  1       -4 0.26629181E-01 0.27718297E+03</pdfrwt>
<totfact> 0.74949510E+02</totfact>
</mgrwt>
</event>
<event>
 9    1  0.8122655E-001  0.2739640E+03  0.7818608E-02  0.1099032E+00
         -2   -1    0    0    0  501 -0.00000000000E+00  0.00000000000E+00  0.56279758056E+02  0.56279758056E+02  0.00000000000E+00 0.  1.
          2   -1    0    0  501    0  0.00000000000E+00 -0.00000000000E+00 -0.33340713461E+03  0.33340713461E+03  0.00000000000E+00 0.  1.
         35    2    1    2    0    0  0.00000000000E+00 -0.71054273576E-14 -0.27712737656E+03  0.38968689267E+03  0.27396403319E+03 0.  0.
         25    2    3    3    0    0  0.28453153152E+02 -0.91280135901E+01 -0.58130361942E+02  0.13404866159E+03  0.11703419218E+03 0.  0.
         25    2    3    3    0    0 -0.28453153152E+02  0.91280135901E+01 -0.21899701461E+03  0.25563823107E+03  0.12844574816E+03 0.  0.
          5    1    4    4  502    0 -0.27681727521E+02  0.37577861739E+02 -0.29834875992E+02  0.55593017159E+02  0.47000000000E+01 0.  1.
         -5    1    4    4    0  502  0.56134880672E+02 -0.46705875329E+02 -0.28295485950E+02  0.78455644434E+02  0.47000000000E+01 0.  1.
          5    1    5    5  503    0 -0.56691184430E+02  0.52408049074E+02 -0.15517197546E+03  0.17338086967E+03  0.47000000000E+01 0. -1.
         -5    1    5    5    0  503  0.28238031278E+02 -0.43280035483E+02 -0.63825039155E+02  0.82257361403E+02  0.47000000000E+01 0. -1.
<mgrwt>
<rscale>  0 0.27396403E+03</rscale>
<asrwt>0</asrwt>
<pdfrwt beam="1">  1        2 0.51293406E-01 0.27396403E+03</pdfrwt>
<pdfrwt beam="2">  1       -2 0.86584242E-02 0.27396403E+03</pdfrwt>
<totfact> 0.80726486E+03</totfact>
</mgrwt>
</event>
<event>
 9    1  0.8122655E-001  0.2741985E+03  0.7818608E-02  0.1098900E+00
          1   -1    0    0  501    0  0.00000000000E+00  0.00000000000E+00  0.33095208405E+03  0.33095208405E+03  0.00000000000E+00 0. -1.
         -1   -1    0    0    0  501 -0.00000000000E+00 -0.00000000000E+00 -0.56794339458E+02  0.56794339458E+02  0.00000000000E+00 0. -1.
         35    2    1    2    0    0  0.71054273576E-14  0.35527136788E-14  0.27415774459E+03  0.38774642351E+03  0.27419850478E+03 0.  0.
         25    2    3    3    0    0  0.53328901176E+02  0.22890176072E+02  0.13165858535E+03  0.18992738336E+03  0.12397780443E+03 0.  0.
         25    2    3    3    0    0 -0.53328901176E+02 -0.22890176072E+02  0.14249915924E+03  0.19781904015E+03  0.12433193636E+03 0.  0.
          5    1    4    4  502    0  0.32798119950E+00 -0.38610605318E+02  0.91088240752E+02  0.99045666326E+02  0.47000000000E+01 0.  1.
         -5    1    4    4    0  502  0.53000919977E+02  0.61500781390E+02  0.40570344598E+02  0.90881717032E+02  0.47000000000E+01 0.  1.
          5    1    5    5  503    0 -0.40381827512E+01 -0.57273835081E+01 -0.22853183969E+02  0.24361195769E+02  0.47000000000E+01 0. -1.
         -5    1    5    5    0  503 -0.49290718425E+02 -0.17162792564E+02  0.16535234321E+03  0.17345784438E+03  0.47000000000E+01 0. -1.
<mgrwt>
<rscale>  0 0.27419850E+03</rscale>
<asrwt>0</asrwt>
<pdfrwt beam="1">  1        1 0.50915704E-01 0.27419850E+03</pdfrwt>
<pdfrwt beam="2">  1       -1 0.87375909E-02 0.27419850E+03</pdfrwt>
<totfact> 0.57722436E+03</totfact>
</mgrwt>
</event>
<event>
 9    1  0.8122655E-001  0.2750304E+03  0.7818608E-02  0.1098435E+00
         -1   -1    0    0    0  501 -0.00000000000E+00  0.00000000000E+00  0.10569829943E+03  0.10569829943E+03  0.00000000000E+00 0.  1.
          1   -1    0    0  501    0  0.00000000000E+00 -0.00000000000E+00 -0.17890949319E+03  0.17890949319E+03  0.00000000000E+00 0.  1.
         35    2    1    2    0    0  0.00000000000E+00  0.71054273576E-14 -0.73211193766E+02  0.28460779262E+03  0.27503039237E+03 0.  0.
         25    2    3    3    0    0 -0.23254651395E+02  0.14523154901E+02  0.16155958815E+02  0.12869531503E+03  0.12469870996E+03 0.  0.
         25    2    3    3    0    0  0.23254651395E+02 -0.14523154901E+02 -0.89367152582E+02  0.15591247759E+03  0.12478185713E+03 0.  0.
          5    1    4    4  502    0  0.35483610578E+02 -0.33243348269E+02 -0.70835858866E+01  0.49360652476E+02  0.47000000000E+01 0. -1.
         -5    1    4    4    0  502 -0.58738261973E+02  0.47766503170E+02  0.23239544702E+02  0.79334662554E+02  0.47000000000E+01 0. -1.
          5    1    5    5  503    0  0.67906870730E+01  0.46934919534E+02 -0.19570118088E+01  0.47696121412E+02  0.47000000000E+01 0.  1.
         -5    1    5    5    0  503  0.16463964321E+02 -0.61458074434E+02 -0.87410140773E+02  0.10821635618E+03  0.47000000000E+01 0.  1.
<mgrwt>
<rscale>  0 0.27503039E+03</rscale>
<asrwt>0</asrwt>
<pdfrwt beam="1">  1        1 0.27524537E-01 0.27503039E+03</pdfrwt>
<pdfrwt beam="2">  1       -1 0.16261277E-01 0.27503039E+03</pdfrwt>
<totfact> 0.47415437E+03</totfact>
</mgrwt>
</event>
<event>
 9    1  0.8122655E-001  0.2746618E+03  0.7818608E-02  0.1098641E+00
         -1   -1    0    0    0  501 -0.00000000000E+00  0.00000000000E+00  0.17137871927E+03  0.17137871927E+03  0.00000000000E+00 0. -1.
          1   -1    0    0  501    0  0.00000000000E+00 -0.00000000000E+00 -0.11004737203E+03  0.11004737203E+03  0.00000000000E+00 0. -1.
         35    2    1    2    0    0  0.00000000000E+00  0.00000000000E+00  0.61331347234E+02  0.28142609130E+03  0.27466181153E+03 0.  0.
         25    2    3    3    0    0  0.39981183116E+02 -0.20560928880E+02 -0.58372148309E+01  0.13216028176E+03  0.12414113016E+03 0.  0.
         25    2    3    3    0    0 -0.39981183116E+02  0.20560928880E+02  0.67168562065E+02  0.14926580954E+03  0.12548872208E+03 0.  0.
          5    1    4    4  502    0  0.70381919564E+02 -0.52290328075E+02 -0.25205172333E+01  0.87842677662E+02  0.47000000000E+01 0. -1.
         -5    1    4    4    0  502 -0.30400736448E+02  0.31729399195E+02 -0.33166975976E+01  0.44317604096E+02  0.47000000000E+01 0. -1.
          5    1    5    5  503    0  0.71000275340E+01 -0.14712057132E+02  0.85730418711E+02  0.87399369039E+02  0.47000000000E+01 0. -1.
         -5    1    5    5    0  503 -0.47081210650E+02  0.35272986012E+02 -0.18561856647E+02  0.61866440504E+02  0.47000000000E+01 0. -1.
<mgrwt>
<rscale>  0 0.27466181E+03</rscale>
<asrwt>0</asrwt>
<pdfrwt beam="1">  1        1 0.16930365E-01 0.27466181E+03</pdfrwt>
<pdfrwt beam="2">  1       -1 0.26365957E-01 0.27466181E+03</pdfrwt>
<totfact> 0.40194591E+03</totfact>
</mgrwt>
</event>
<event>
 9    1  0.8122655E-001  0.2743518E+03  0.7818608E-02  0.1098814E+00
          1   -1    0    0  501    0  0.00000000000E+00  0.00000000000E+00  0.25011667651E+03  0.25011667651E+03  0.00000000000E+00 0. -1.
         -1   -1    0    0    0  501 -0.00000000000E+00 -0.00000000000E+00 -0.75233794500E+02  0.75233794500E+02  0.00000000000E+00 0. -1.
         35    2    1    2    0    0 -0.35527136788E-14  0.35527136788E-14  0.17488288201E+03  0.32535047101E+03  0.27435179344E+03 0.  0.
         25    2    3    3    0    0  0.24774364683E+02  0.28518973826E+02  0.13270870351E+03  0.18772213372E+03  0.12728275016E+03 0.  0.
         25    2    3    3    0    0 -0.24774364683E+02 -0.28518973826E+02  0.42174178505E+02  0.13762833729E+03  0.12544240463E+03 0.  0.
          5    1    4    4  502    0 -0.36625343016E+02  0.54463914505E+02  0.70264489472E+02  0.96264854516E+02  0.47000000000E+01 0.  1.
         -5    1    4    4    0  502  0.61399707699E+02 -0.25944940679E+02  0.62444214033E+02  0.91457279199E+02  0.47000000000E+01 0.  1.
          5    1    5    5  503    0 -0.31926656981E+01 -0.47380781528E+02 -0.32344750080E+02  0.57648975968E+02  0.47000000000E+01 0.  1.
         -5    1    5    5    0  503 -0.21581698984E+02  0.18861807702E+02  0.74518928585E+02  0.79979361327E+02  0.47000000000E+01 0.  1.
<mgrwt>
<rscale>  0 0.27435179E+03</rscale>
<asrwt>0</asrwt>
<pdfrwt beam="1">  1        1 0.38479488E-01 0.27435179E+03</pdfrwt>
<pdfrwt beam="2">  1       -1 0.11574430E-01 0.27435179E+03</pdfrwt>
<totfact> 0.53144220E+03</totfact>
</mgrwt>
</event>
<event>
 9    1  0.8122655E-001  0.2780666E+03  0.7818608E-02  0.1096750E+00
         -1   -1    0    0    0  501 -0.00000000000E+00  0.00000000000E+00  0.11072525391E+02  0.11072525391E+02  0.00000000000E+00 0.  1.
          1   -1    0    0  501    0  0.00000000000E+00 -0.00000000000E+00 -0.17457858459E+04  0.17457858459E+04  0.00000000000E+00 0.  1.
         35    2    1    2    0    0  0.00000000000E+00  0.17763568394E-14 -0.17347133205E+04  0.17568583713E+04  0.27806659710E+03 0.  0.
         25    2    3    3    0    0  0.58263960705E+02 -0.15430147983E+02 -0.97081006894E+03  0.98042109650E+03  0.12296567777E+03 0.  0.
         25    2    3    3    0    0 -0.58263960705E+02  0.15430147983E+02 -0.76390325155E+03  0.77643727478E+03  0.12519538871E+03 0.  0.
          5    1    4    4  502    0  0.82598422285E+02 -0.41130264182E+02 -0.51556935027E+03  0.52378243855E+03  0.47000000000E+01 0.  1.
         -5    1    4    4    0  502 -0.24334461580E+02  0.25700116199E+02 -0.45524071867E+03  0.45663865794E+03  0.47000000000E+01 0.  1.
          5    1    5    5  503    0  0.15075687730E+02  0.12875130787E+02 -0.18828249192E+02  0.27742356081E+02  0.47000000000E+01 0. -1.
         -5    1    5    5    0  503 -0.73339648435E+02  0.25550171961E+01 -0.74507500236E+03  0.74869491870E+03  0.47000000000E+01 0. -1.
<mgrwt>
<rscale>  0 0.27806660E+03</rscale>
<asrwt>0</asrwt>
<pdfrwt beam="1">  1        1 0.26858212E+00 0.27806660E+03</pdfrwt>
<pdfrwt beam="2">  1       -1 0.17034674E-02 0.27806660E+03</pdfrwt>
<totfact> 0.42793214E+03</totfact>
</mgrwt>
</event>
<event>
 9    1  0.8122655E-001  0.2790575E+03  0.7818608E-02  0.1096205E+00
          2   -1    0    0  501    0  0.00000000000E+00  0.00000000000E+00  0.41895801513E+03  0.41895801513E+03  0.00000000000E+00 0.  1.
         -2   -1    0    0    0  501 -0.00000000000E+00 -0.00000000000E+00 -0.46468311613E+02  0.46468311613E+02  0.00000000000E+00 0.  1.
         35    2    1    2    0    0 -0.71054273576E-14  0.00000000000E+00  0.37248970352E+03  0.46542632675E+03  0.27905749659E+03 0.  0.
         25    2    3    3    0    0 -0.50787235772E+02  0.33987340508E+02  0.19279813385E+03  0.23794232707E+03  0.12534332039E+03 0.  0.
         25    2    3    3    0    0  0.50787235772E+02 -0.33987340508E+02  0.17969156967E+03  0.22748399967E+03  0.12540106564E+03 0.  0.
          5    1    4    4  502    0 -0.75813715213E+02  0.31642342069E+02  0.19561344161E+03  0.21221608272E+03  0.47000000000E+01 0. -1.
         -5    1    4    4    0  502  0.25026479441E+02  0.23449984391E+01 -0.28153077606E+01  0.25726244357E+02  0.47000000000E+01 0. -1.
          5    1    5    5  503    0 -0.40208448233E+02 -0.24538894954E+02  0.71055315324E+02  0.85380469140E+02  0.47000000000E+01 0.  1.
         -5    1    5    5    0  503  0.90995684005E+02 -0.94484455539E+01  0.10863625435E+03  0.14210353053E+03  0.47000000000E+01 0.  1.
<mgrwt>
<rscale>  0 0.27905750E+03</rscale>
<asrwt>0</asrwt>
<pdfrwt beam="1">  1        2 0.64455077E-01 0.27905750E+03</pdfrwt>
<pdfrwt beam="2">  1       -2 0.71489713E-02 0.27905750E+03</pdfrwt>
<totfact> 0.85059168E+03</totfact>
</mgrwt>
</event>
<event>
 9    1  0.8122655E-001  0.2753365E+03  0.7818608E-02  0.1098264E+00
          1   -1    0    0  501    0  0.00000000000E+00  0.00000000000E+00  0.18902351099E+02  0.18902351099E+02  0.00000000000E+00 0. -1.
         -1   -1    0    0    0  501 -0.00000000000E+00 -0.00000000000E+00 -0.10026555979E+04  0.10026555979E+04  0.00000000000E+00 0. -1.
         35    2    1    2    0    0  0.14210854715E-13  0.71054273576E-14 -0.98375324679E+03  0.10215579490E+04  0.27533650788E+03 0.  0.
         25    2    3    3    0    0 -0.37692996070E+02 -0.33900804662E+02 -0.59737185043E+03  0.61233173182E+03  0.12460736570E+03 0.  0.
         25    2    3    3    0    0  0.37692996070E+02  0.33900804662E+02 -0.38638139635E+03  0.40922621717E+03  0.12492192307E+03 0.  0.
          5    1    4    4  502    0 -0.75883119317E+02  0.86928972056E+01 -0.36956974093E+03  0.37740919129E+03  0.47000000000E+01 0. -1.
         -5    1    4    4    0  502  0.38190123246E+02 -0.42593701867E+02 -0.22780210950E+03  0.23492254053E+03  0.47000000000E+01 0. -1.
          5    1    5    5  503    0  0.76793300398E+02 -0.79408178686E+01 -0.21910567261E+03  0.23235673725E+03  0.47000000000E+01 0.  1.
         -5    1    5    5    0  503 -0.39100304328E+02  0.41841622530E+02 -0.16727572374E+03  0.17686947992E+03  0.47000000000E+01 0.  1.
<mgrwt>
<rscale>  0 0.27533651E+03</rscale>
<asrwt>0</asrwt>
<pdfrwt beam="1">  1        1 0.29080534E-02 0.27533651E+03</pdfrwt>
<pdfrwt beam="2">  1       -1 0.15425474E+00 0.27533651E+03</pdfrwt>
<totfact> 0.12500995E+03</totfact>
</mgrwt>
</event>
<event>
 9    1  0.8122655E-001  0.2808550E+03  0.7818608E-02  0.1095223E+00
         -2   -1    0    0    0  501 -0.00000000000E+00  0.00000000000E+00  0.25993447314E+02  0.25993447314E+02  0.00000000000E+00 0. -1.
          2   -1    0    0  501    0  0.00000000000E+00 -0.00000000000E+00 -0.75864826161E+03  0.75864826161E+03  0.00000000000E+00 0. -1.
         35    2    1    2    0    0  0.00000000000E+00 -0.71054273576E-14 -0.73265481430E+03  0.78464170893E+03  0.28085500614E+03 0.  0.
         25    2    3    3    0    0  0.36052347447E+02  0.52651407740E+02 -0.36083165273E+03  0.38734485846E+03  0.12555721911E+03 0.  0.
         25    2    3    3    0    0 -0.36052347447E+02 -0.52651407740E+02 -0.37182316157E+03  0.39729685046E+03  0.12458082283E+03 0.  0.
          5    1    4    4  502    0 -0.47638499689E+01 -0.35718170748E+02 -0.16055798627E+03  0.16461907223E+03  0.47000000000E+01 0.  1.
         -5    1    4    4    0  502  0.40816197416E+02  0.88369578488E+02 -0.20027366646E+03  0.22272578623E+03  0.47000000000E+01 0.  1.
          5    1    5    5  503    0 -0.55631563024E+02 -0.37891939039E+02 -0.81077851120E+02  0.10548164670E+03  0.47000000000E+01 0. -1.
         -5    1    5    5    0  503  0.19579215577E+02 -0.14759468700E+02 -0.29074531045E+03  0.29181520376E+03  0.47000000000E+01 0. -1.
<mgrwt>
<rscale>  0 0.28085501E+03</rscale>
<asrwt>0</asrwt>
<pdfrwt beam="1">  1        2 0.11671512E+00 0.28085501E+03</pdfrwt>
<pdfrwt beam="2">  1       -2 0.39989919E-02 0.28085501E+03</pdfrwt>
<totfact> 0.10407727E+04</totfact>
</mgrwt>
</event>
<event>
 9    1  0.8122655E-001  0.2686686E+03  0.7818608E-02  0.1102044E+00
         -2   -1    0    0    0  501 -0.00000000000E+00  0.00000000000E+00  0.89854992557E+02  0.89854992557E+02  0.00000000000E+00 0.  1.
          2   -1    0    0  501    0  0.00000000000E+00 -0.00000000000E+00 -0.20083144080E+03  0.20083144080E+03  0.00000000000E+00 0.  1.
         35    2    1    2    0    0  0.00000000000E+00  0.00000000000E+00 -0.11097644825E+03  0.29068643336E+03  0.26866862577E+03 0.  0.
         25    2    3    3    0    0  0.38072417292E+02 -0.18758598705E+02 -0.86680966269E+02  0.15773732284E+03  0.12476409387E+03 0.  0.
         25    2    3    3    0    0 -0.38072417292E+02  0.18758598705E+02 -0.24295481979E+02  0.13294911052E+03  0.12362767312E+03 0.  0.
          5    1    4    4  502    0  0.30600508704E+02  0.44527709710E+02 -0.75356125978E+02  0.92842575295E+02  0.47000000000E+01 0. -1.
         -5    1    4    4    0  502  0.74719085880E+01 -0.63286308416E+02 -0.11324840291E+02  0.64894747541E+02  0.47000000000E+01 0. -1.
          5    1    5    5  503    0 -0.56857585254E+02  0.84453007388E+01  0.36542872615E+02  0.68275761764E+02  0.47000000000E+01 0. -1.
         -5    1    5    5    0  503  0.18785167961E+02  0.10313297967E+02 -0.60838354594E+02  0.64673348761E+02  0.47000000000E+01 0. -1.
<mgrwt>
<rscale>  0 0.26866863E+03</rscale>
<asrwt>0</asrwt>
<pdfrwt beam="1">  1        2 0.30897145E-01 0.26866863E+03</pdfrwt>
<pdfrwt beam="2">  1       -2 0.13823845E-01 0.26866863E+03</pdfrwt>
<totfact> 0.65929972E+03</totfact>
</mgrwt>
</event>
<event>
 9    1  0.8122655E-001  0.2744791E+03  0.7818608E-02  0.1098743E+00
         -3   -1    0    0    0  501 -0.00000000000E+00  0.00000000000E+00  0.33332827255E+02  0.33332827255E+02  0.00000000000E+00 0.  1.
          3   -1    0    0  501    0  0.00000000000E+00 -0.00000000000E+00 -0.56504929818E+03  0.56504929818E+03  0.00000000000E+00 0.  1.
         35    2    1    2    0    0 -0.71054273576E-14 -0.71054273576E-14 -0.53171647092E+03  0.59838212543E+03  0.27447907495E+03 0.  0.
         25    2    3    3    0    0 -0.39241486093E+02 -0.41321858761E+02 -0.27148817383E+03  0.30457001171E+03  0.12573652318E+03 0.  0.
         25    2    3    3    0    0  0.39241486093E+02  0.41321858761E+02 -0.26022829709E+03  0.29381211372E+03  0.12393305177E+03 0.  0.
          5    1    4    4  502    0 -0.48909367106E+02 -0.43158161842E+02 -0.28196363696E+03  0.28944832992E+03  0.47000000000E+01 0. -1.
         -5    1    4    4    0  502  0.96678810125E+01  0.18363030803E+01  0.10475463133E+02  0.15121681789E+02  0.47000000000E+01 0. -1.
          5    1    5    5  503    0 -0.22371813974E+01  0.51533012335E+02 -0.24139918430E+03  0.24689332215E+03  0.47000000000E+01 0.  1.
         -5    1    5    5    0  503  0.41478667491E+02 -0.10211153573E+02 -0.18829112789E+02  0.46918791572E+02  0.47000000000E+01 0.  1.
<mgrwt>
<rscale>  0 0.27447907E+03</rscale>
<asrwt>0</asrwt>
<pdfrwt beam="1">  1        3 0.86930661E-01 0.27447907E+03</pdfrwt>
<pdfrwt beam="2">  1       -3 0.51281273E-02 0.27447907E+03</pdfrwt>
<totfact> 0.69100192E+02</totfact>
</mgrwt>
</event>
<event>
 9    1  0.8122655E-001  0.2763327E+03  0.7818608E-02  0.1097709E+00
          3   -1    0    0  501    0  0.00000000000E+00  0.00000000000E+00  0.51777203102E+02  0.51777203102E+02  0.00000000000E+00 0.  1.
         -3   -1    0    0    0  501 -0.00000000000E+00 -0.00000000000E+00 -0.36869380218E+03  0.36869380218E+03  0.00000000000E+00 0.  1.
         35    2    1    2    0    0  0.00000000000E+00  0.00000000000E+00 -0.31691659908E+03  0.42047100528E+03  0.27633265372E+03 0.  0.
         25    2    3    3    0    0 -0.24555811157E+02  0.49093519648E+02 -0.13135452502E+03  0.18985434583E+03  0.12560851825E+03 0.  0.
         25    2    3    3    0    0  0.24555811157E+02 -0.49093519648E+02 -0.18556207406E+03  0.23061665945E+03  0.12544958650E+03 0.  0.
          5    1    4    4  502    0 -0.57296653987E+02  0.49909545852E+02 -0.27645358282E+02  0.80995216895E+02  0.47000000000E+01 0.  1.
         -5    1    4    4    0  502  0.32740842830E+02 -0.81602620444E+00 -0.10370916674E+03  0.10885912894E+03  0.47000000000E+01 0.  1.
          5    1    5    5  503    0 -0.22950886972E+02 -0.71771427136E+02 -0.67533544063E+02  0.10129536287E+03  0.47000000000E+01 0. -1.
         -5    1    5    5    0  503  0.47506698129E+02  0.22677907488E+02 -0.11802853000E+03  0.12932129658E+03  0.47000000000E+01 0. -1.
<mgrwt>
<rscale>  0 0.27633265E+03</rscale>
<asrwt>0</asrwt>
<pdfrwt beam="1">  1        3 0.79657235E-02 0.27633265E+03</pdfrwt>
<pdfrwt beam="2">  1       -3 0.56722124E-01 0.27633265E+03</pdfrwt>
<totfact> 0.84446117E+02</totfact>
</mgrwt>
</event>
<event>
 9    1  0.8122655E-001  0.2779535E+03  0.7818608E-02  0.1096812E+00
          2   -1    0    0  501    0  0.00000000000E+00  0.00000000000E+00  0.12809146547E+04  0.12809146547E+04  0.00000000000E+00 0. -1.
         -2   -1    0    0    0  501 -0.00000000000E+00 -0.00000000000E+00 -0.15078706073E+02  0.15078706073E+02  0.00000000000E+00 0. -1.
         35    2    1    2    0    0 -0.35527136788E-14  0.00000000000E+00  0.12658359487E+04  0.12959933608E+04  0.27795348952E+03 0.  0.
         25    2    3    3    0    0 -0.89079065988E+01 -0.43162869703E+02  0.82679871121E+03  0.83729247528E+03  0.12458007937E+03 0.  0.
         25    2    3    3    0    0  0.89079065988E+01  0.43162869703E+02  0.43903723746E+03  0.45870088554E+03  0.12534122385E+03 0.  0.
          5    1    4    4  502    0 -0.10054197555E+02 -0.85578851367E+02  0.63245043136E+03  0.63831063348E+03  0.47000000000E+01 0. -1.
         -5    1    4    4    0  502  0.11462909563E+01  0.42415981664E+02  0.19434827986E+03  0.19898184180E+03  0.47000000000E+01 0. -1.
          5    1    5    5  503    0 -0.19196701509E+02  0.80131345716E+02  0.32857784386E+03  0.33878464457E+03  0.47000000000E+01 0.  1.
         -5    1    5    5    0  503  0.28104608108E+02 -0.36968476012E+02  0.11045939359E+03  0.11991624097E+03  0.47000000000E+01 0.  1.
<mgrwt>
<rscale>  0 0.27795349E+03</rscale>
<asrwt>0</asrwt>
<pdfrwt beam="1">  1        2 0.19706371E+00 0.27795349E+03</pdfrwt>
<pdfrwt beam="2">  1       -2 0.23198019E-02 0.27795349E+03</pdfrwt>
<totfact> 0.11159534E+04</totfact>
</mgrwt>
</event>
<event>
 9    1  0.8122655E-001  0.2754931E+03  0.7818608E-02  0.1098176E+00
          1   -1    0    0  501    0  0.00000000000E+00  0.00000000000E+00  0.33432289943E+04  0.33432289943E+04  0.00000000000E+00 0. -1.
         -1   -1    0    0    0  501 -0.00000000000E+00 -0.00000000000E+00 -0.56753838642E+01  0.56753838642E+01  0.00000000000E+00 0. -1.
         35    2    1    2    0    0  0.00000000000E+00  0.71054273576E-14  0.33375536104E+04  0.33489043781E+04  0.27549306988E+03 0.  0.
         25    2    3    3    0    0  0.50072367339E+02  0.29689571964E+02  0.18287654834E+04  0.18339556729E+04  0.12498601627E+03 0.  0.
         25    2    3    3    0    0 -0.50072367339E+02 -0.29689571964E+02  0.15087881270E+04  0.15149487053E+04  0.12344737590E+03 0.  0.
          5    1    4    4  502    0  0.30179696392E+02 -0.87863411300E+01  0.16367841082E+04  0.16370926427E+04  0.47000000000E+01 0.  1.
         -5    1    4    4    0  502  0.19892670947E+02  0.38475913093E+02  0.19198137512E+03  0.19686303015E+03  0.47000000000E+01 0.  1.
          5    1    5    5  503    0 -0.54580143740E+02  0.37802856106E+02  0.61465358380E+03  0.61824684884E+03  0.47000000000E+01 0.  1.
         -5    1    5    5    0  503  0.45077764015E+01 -0.67492428069E+02  0.89413454324E+03  0.89670185642E+03  0.47000000000E+01 0.  1.
<mgrwt>
<rscale>  0 0.27549307E+03</rscale>
<asrwt>0</asrwt>
<pdfrwt beam="1">  1        1 0.51434135E+00 0.27549307E+03</pdfrwt>
<pdfrwt beam="2">  1       -1 0.87313865E-03 0.27549307E+03</pdfrwt>
<totfact> 0.93982895E+02</totfact>
</mgrwt>
</event>
<event>
 9    1  0.8122655E-001  0.2760049E+03  0.7818608E-02  0.1097891E+00
          1   -1    0    0  501    0  0.00000000000E+00  0.00000000000E+00  0.70558518596E+03  0.70558518596E+03  0.00000000000E+00 0. -1.
         -1   -1    0    0    0  501 -0.00000000000E+00 -0.00000000000E+00 -0.26991326908E+02  0.26991326908E+02  0.00000000000E+00 0. -1.
         35    2    1    2    0    0  0.00000000000E+00  0.35527136788E-14  0.67859385905E+03  0.73257651287E+03  0.27600493050E+03 0.  0.
         25    2    3    3    0    0  0.44592137722E+02 -0.90837841139E+01  0.24216064320E+03  0.27620009149E+03  0.12479478974E+03 0.  0.
         25    2    3    3    0    0 -0.44592137722E+02  0.90837841139E+01  0.43643321585E+03  0.45637642138E+03  0.12543728396E+03 0.  0.
          5    1    4    4  502    0  0.54723441519E+02 -0.44986826402E+01  0.25362981622E+03  0.25954781231E+03  0.47000000000E+01 0. -1.
         -5    1    4    4    0  502 -0.10131303797E+02 -0.45851014737E+01 -0.11469173024E+02  0.16652279184E+02  0.47000000000E+01 0. -1.
          5    1    5    5  503    0 -0.49720972101E+02 -0.42335304409E+02  0.12972829604E+03  0.14531336435E+03  0.47000000000E+01 0. -1.
         -5    1    5    5    0  503  0.51288343787E+01  0.51419088523E+02  0.30670491981E+03  0.31106305702E+03  0.47000000000E+01 0. -1.
<mgrwt>
<rscale>  0 0.27600493E+03</rscale>
<asrwt>0</asrwt>
<pdfrwt beam="1">  1        1 0.10855155E+00 0.27600493E+03</pdfrwt>
<pdfrwt beam="2">  1       -1 0.41525124E-02 0.27600493E+03</pdfrwt>
<totfact> 0.64626975E+03</totfact>
</mgrwt>
</event>
<event>
 9    1  0.8122655E-001  0.2777918E+03  0.7818608E-02  0.1096901E+00
         -2   -1    0    0    0  501 -0.00000000000E+00  0.00000000000E+00  0.56053363643E+02  0.56053363643E+02  0.00000000000E+00 0.  1.
          2   -1    0    0  501    0  0.00000000000E+00 -0.00000000000E+00 -0.34417327331E+03  0.34417327331E+03  0.00000000000E+00 0.  1.
         35    2    1    2    0    0  0.71054273576E-14  0.00000000000E+00 -0.28811990967E+03  0.40022663696E+03  0.27779178998E+03 0.  0.
         25    2    3    3    0    0  0.32914820828E+02 -0.38829290819E+02 -0.14403566147E+03  0.19736451576E+03  0.12496151828E+03 0.  0.
         25    2    3    3    0    0 -0.32914820828E+02  0.38829290819E+02 -0.14408424820E+03  0.20286212120E+03  0.13342290051E+03 0.  0.
          5    1    4    4  502    0 -0.23846065364E+02  0.98487454976E+01  0.83787872553E+01  0.27530468523E+02  0.47000000000E+01 0.  1.
         -5    1    4    4    0  502  0.56760886192E+02 -0.48678036316E+02 -0.15241444872E+03  0.16983404723E+03  0.47000000000E+01 0.  1.
          5    1    5    5  503    0  0.28554242457E+02  0.44725557581E+02 -0.86882063896E+01  0.53974949685E+02  0.47000000000E+01 0.  1.
         -5    1    5    5    0  503 -0.61469063284E+02 -0.58962667625E+01 -0.13539604181E+03  0.14888717151E+03  0.47000000000E+01 0.  1.
<mgrwt>
<rscale>  0 0.27779179E+03</rscale>
<asrwt>0</asrwt>
<pdfrwt beam="1">  1        2 0.52949734E-01 0.27779179E+03</pdfrwt>
<pdfrwt beam="2">  1       -2 0.86235945E-02 0.27779179E+03</pdfrwt>
<totfact> 0.78544735E+03</totfact>
</mgrwt>
</event>
<event>
 9    1  0.8122655E-001  0.2748216E+03  0.7818608E-02  0.1098551E+00
          1   -1    0    0  501    0  0.00000000000E+00  0.00000000000E+00  0.71963438088E+03  0.71963438088E+03  0.00000000000E+00 0.  1.
         -1   -1    0    0    0  501 -0.00000000000E+00 -0.00000000000E+00 -0.26237936366E+02  0.26237936366E+02  0.00000000000E+00 0.  1.
         35    2    1    2    0    0  0.00000000000E+00  0.00000000000E+00  0.69339644451E+03  0.74587231724E+03  0.27482155004E+03 0.  0.
         25    2    3    3    0    0 -0.39990599964E+01 -0.78480389891E+00  0.49987524122E+03  0.51536376093E+03  0.12533132448E+03 0.  0.
         25    2    3    3    0    0  0.39990599964E+01  0.78480389891E+00  0.19352120328E+03  0.23050855631E+03  0.12516840661E+03 0.  0.
          5    1    4    4  502    0  0.22120206550E+02  0.22651818892E+02  0.46349396416E+03  0.46459784034E+03  0.47000000000E+01 0.  1.
         -5    1    4    4    0  502 -0.26119266547E+02 -0.23436622791E+02  0.36381277066E+02  0.50765920593E+02  0.47000000000E+01 0.  1.
          5    1    5    5  503    0 -0.42778047651E+02  0.43874439173E+02  0.93942401873E+02  0.11225948799E+03  0.47000000000E+01 0.  1.
         -5    1    5    5    0  503  0.46777107648E+02 -0.43089635274E+02  0.99578801412E+02  0.11824906832E+03  0.47000000000E+01 0.  1.
<mgrwt>
<rscale>  0 0.27482155E+03</rscale>
<asrwt>0</asrwt>
<pdfrwt beam="1">  1        1 0.11071297E+00 0.27482155E+03</pdfrwt>
<pdfrwt beam="2">  1       -1 0.40366061E-02 0.27482155E+03</pdfrwt>
<totfact> 0.65476005E+03</totfact>
</mgrwt>
</event>
<event>
 9    1  0.8122655E-001  0.2761064E+03  0.7818608E-02  0.1097835E+00
          1   -1    0    0  501    0  0.00000000000E+00  0.00000000000E+00  0.23173342254E+04  0.23173342254E+04  0.00000000000E+00 0.  1.
         -1   -1    0    0    0  501 -0.00000000000E+00 -0.00000000000E+00 -0.82244024054E+01  0.82244024054E+01  0.00000000000E+00 0.  1.
         35    2    1    2    0    0  0.00000000000E+00 -0.71054273576E-14  0.23091098230E+04  0.23255586278E+04  0.27610642280E+03 0.  0.
         25    2    3    3    0    0 -0.37727417222E+02 -0.39356990630E+02  0.92645824009E+03  0.93637087357E+03  0.12447172976E+03 0.  0.
         25    2    3    3    0    0  0.37727417222E+02  0.39356990630E+02  0.13826515829E+04  0.13891877543E+04  0.12306456070E+03 0.  0.
          5    1    4    4  502    0 -0.35800342632E+02 -0.55453202005E+02  0.91125533063E+03  0.91365479791E+03  0.47000000000E+01 0. -1.
         -5    1    4    4    0  502 -0.19270745902E+01  0.16096211375E+02  0.15202909464E+02  0.22716075657E+02  0.47000000000E+01 0. -1.
          5    1    5    5  503    0 -0.15169286116E+02  0.23639008457E+02  0.72888406079E+02  0.78254199266E+02  0.47000000000E+01 0. -1.
         -5    1    5    5    0  503  0.52896703338E+02  0.15717982172E+02  0.13097631768E+04  0.13109335550E+04  0.47000000000E+01 0. -1.
<mgrwt>
<rscale>  0 0.27610642E+03</rscale>
<asrwt>0</asrwt>
<pdfrwt beam="1">  1        1 0.35651244E+00 0.27610642E+03</pdfrwt>
<pdfrwt beam="2">  1       -1 0.12652945E-02 0.27610642E+03</pdfrwt>
<totfact> 0.27996587E+03</totfact>
</mgrwt>
</event>
<event>
 9    1  0.8122655E-001  0.2848908E+03  0.7818608E-02  0.1093047E+00
         -1   -1    0    0    0  501 -0.00000000000E+00  0.00000000000E+00  0.14085721991E+02  0.14085721991E+02  0.00000000000E+00 0.  1.
          1   -1    0    0  501    0  0.00000000000E+00 -0.00000000000E+00 -0.14405145909E+04  0.14405145909E+04  0.00000000000E+00 0.  1.
         35    2    1    2    0    0  0.00000000000E+00  0.00000000000E+00 -0.14264288689E+04  0.14546003129E+04  0.28489077241E+03 0.  0.
         25    2    3    3    0    0 -0.46049783641E+02 -0.19401414578E+02 -0.43232688457E+03  0.45156933486E+03  0.12046298854E+03 0.  0.
         25    2    3    3    0    0  0.46049783641E+02  0.19401414578E+02 -0.99410198435E+03  0.10030309780E+04  0.12383614234E+03 0.  0.
          5    1    4    4  502    0  0.17543007528E+02 -0.45144417303E+02 -0.28321098654E+03  0.28736097234E+03  0.47000000000E+01 0.  1.
         -5    1    4    4    0  502 -0.63592791169E+02  0.25743002725E+02 -0.14911589802E+03  0.16420836252E+03  0.47000000000E+01 0.  1.
          5    1    5    5  503    0  0.84751568983E+02 -0.16521254825E+01 -0.76394767895E+03  0.76865057350E+03  0.47000000000E+01 0. -1.
         -5    1    5    5    0  503 -0.38701785342E+02  0.21053540061E+02 -0.23015430539E+03  0.23438040453E+03  0.47000000000E+01 0. -1.
<mgrwt>
<rscale>  0 0.28489077E+03</rscale>
<asrwt>0</asrwt>
<pdfrwt beam="1">  1        1 0.22161771E+00 0.28489077E+03</pdfrwt>
<pdfrwt beam="2">  1       -1 0.21670333E-02 0.28489077E+03</pdfrwt>
<totfact> 0.47814066E+03</totfact>
</mgrwt>
</event>
<event>
 9    1  0.8122655E-001  0.2745521E+03  0.7818608E-02  0.1098702E+00
         -2   -1    0    0    0  501 -0.00000000000E+00  0.00000000000E+00  0.87916130256E+01  0.87916130256E+01  0.00000000000E+00 0. -1.
          2   -1    0    0  501    0  0.00000000000E+00 -0.00000000000E+00 -0.21434874418E+04  0.21434874418E+04  0.00000000000E+00 0. -1.
         35    2    1    2    0    0  0.71054273576E-14  0.00000000000E+00 -0.21346958288E+04  0.21522790549E+04  0.27455208696E+03 0.  0.
         25    2    3    3    0    0 -0.19859487486E+02 -0.29796518677E+02 -0.77710884799E+03  0.78849971193E+03  0.12865225346E+03 0.  0.
         25    2    3    3    0    0  0.19859487486E+02  0.29796518677E+02 -0.13575869808E+04  0.13637793429E+04  0.12477761798E+03 0.  0.
          5    1    4    4  502    0 -0.10409558211E+02 -0.29708791362E+01 -0.98699433563E+00  0.11842684780E+02  0.47000000000E+01 0.  1.
         -5    1    4    4    0  502 -0.94499292753E+01 -0.26825639540E+02 -0.77612185365E+03  0.77665702715E+03  0.47000000000E+01 0.  1.
          5    1    5    5  503    0 -0.82458214612E+01 -0.36495938520E+02 -0.87652490346E+03  0.87733570740E+03  0.47000000000E+01 0.  1.
         -5    1    5    5    0  503  0.28105308947E+02  0.66292457197E+02 -0.48106207737E+03  0.48644363554E+03  0.47000000000E+01 0.  1.
<mgrwt>
<rscale>  0 0.27455209E+03</rscale>
<asrwt>0</asrwt>
<pdfrwt beam="1">  1        2 0.32976705E+00 0.27455209E+03</pdfrwt>
<pdfrwt beam="2">  1       -2 0.13525569E-02 0.27455209E+03</pdfrwt>
<totfact> 0.85648320E+03</totfact>
</mgrwt>
</event>
<event>
 9    1  0.8122655E-001  0.2835765E+03  0.7818608E-02  0.1093751E+00
         -2   -1    0    0    0  501 -0.00000000000E+00  0.00000000000E+00  0.18442139111E+03  0.18442139111E+03  0.00000000000E+00 0.  1.
          2   -1    0    0  501    0  0.00000000000E+00 -0.00000000000E+00 -0.10901072027E+03  0.10901072027E+03  0.00000000000E+00 0.  1.
         35    2    1    2    0    0  0.00000000000E+00  0.00000000000E+00  0.75410670842E+02  0.29343211137E+03  0.28357650592E+03 0.  0.
         25    2    3    3    0    0  0.42664783729E+02  0.50030701976E+02  0.46569121002E+02  0.14917077701E+03  0.12553837172E+03 0.  0.
         25    2    3    3    0    0 -0.42664783729E+02 -0.50030701976E+02  0.28841549840E+02  0.14426133436E+03  0.12512450872E+03 0.  0.
          5    1    4    4  502    0  0.83850253326E+02  0.48539795154E+02  0.17618941268E+02  0.98587493060E+02  0.47000000000E+01 0.  1.
         -5    1    4    4    0  502 -0.41185469597E+02  0.14909068213E+01  0.28950179734E+02  0.50583283955E+02  0.47000000000E+01 0.  1.
          5    1    5    5  503    0 -0.76982142476E+02  0.14884158291E+01  0.35345223102E+01  0.77220777579E+02  0.47000000000E+01 0. -1.
         -5    1    5    5    0  503  0.34317358747E+02 -0.51519117805E+02  0.25307027530E+02  0.67040556778E+02  0.47000000000E+01 0. -1.
<mgrwt>
<rscale>  0 0.28357651E+03</rscale>
<asrwt>0</asrwt>
<pdfrwt beam="1">  1        2 0.16770880E-01 0.28357651E+03</pdfrwt>
<pdfrwt beam="2">  1       -2 0.28372522E-01 0.28357651E+03</pdfrwt>
<totfact> 0.38476924E+03</totfact>
</mgrwt>
</event>
<event>
 9    1  0.8122655E-001  0.2747124E+03  0.7818608E-02  0.1098612E+00
          1   -1    0    0  501    0  0.00000000000E+00  0.00000000000E+00  0.17869745385E+04  0.17869745385E+04  0.00000000000E+00 0.  1.
         -1   -1    0    0    0  501 -0.00000000000E+00 -0.00000000000E+00 -0.10557918392E+02  0.10557918392E+02  0.00000000000E+00 0.  1.
         35    2    1    2    0    0  0.00000000000E+00  0.00000000000E+00  0.17764166201E+04  0.17975324569E+04  0.27471244126E+03 0.  0.
         25    2    3    3    0    0 -0.38604100145E+02 -0.12749874383E+02  0.11043022268E+04  0.11126875257E+04  0.13014332896E+03 0.  0.
         25    2    3    3    0    0  0.38604100145E+02  0.12749874383E+02  0.67211439334E+03  0.68484493114E+03  0.12498794393E+03 0.  0.
          5    1    4    4  502    0 -0.27006529973E+02  0.57725294875E+02  0.45881585144E+03  0.46324468466E+03  0.47000000000E+01 0. -1.
         -5    1    4    4    0  502 -0.11597570171E+02 -0.70475169258E+02  0.64548637532E+03  0.64944284109E+03  0.47000000000E+01 0. -1.
          5    1    5    5  503    0 -0.54978405915E+01 -0.40374376330E+02  0.93429174130E+02  0.10203635183E+03  0.47000000000E+01 0.  1.
         -5    1    5    5    0  503  0.44101940736E+02  0.53124250713E+02  0.57868521921E+03  0.58280857931E+03  0.47000000000E+01 0.  1.
<mgrwt>
<rscale>  0 0.27471244E+03</rscale>
<asrwt>0</asrwt>
<pdfrwt beam="1">  1        1 0.27491892E+00 0.27471244E+03</pdfrwt>
<pdfrwt beam="2">  1       -1 0.16242966E-02 0.27471244E+03</pdfrwt>
<totfact> 0.43121542E+03</totfact>
</mgrwt>
</event>
<event>
 9    1  0.8122655E-001  0.2712284E+03  0.7818608E-02  0.1100579E+00
         -2   -1    0    0    0  501 -0.00000000000E+00  0.00000000000E+00  0.39115574511E+02  0.39115574511E+02  0.00000000000E+00 0. -1.
          2   -1    0    0  501    0  0.00000000000E+00 -0.00000000000E+00 -0.47017616459E+03  0.47017616459E+03  0.00000000000E+00 0. -1.
         35    2    1    2    0    0 -0.71054273576E-14 -0.71054273576E-14 -0.43106059008E+03  0.50929173910E+03  0.27122839674E+03 0.  0.
         25    2    3    3    0    0 -0.34515174511E+02  0.33462513809E+02 -0.19842480799E+03  0.24061029043E+03  0.12731798904E+03 0.  0.
         25    2    3    3    0    0  0.34515174511E+02 -0.33462513809E+02 -0.23263578209E+03  0.26868144867E+03  0.12553595759E+03 0.  0.
          5    1    4    4  502    0  0.32020404206E+02  0.36506757712E+02 -0.15106863033E+03  0.15875097075E+03  0.47000000000E+01 0. -1.
         -5    1    4    4    0  502 -0.66535578717E+02 -0.30442439024E+01 -0.47356177656E+02  0.81859319679E+02  0.47000000000E+01 0. -1.
          5    1    5    5  503    0 -0.39422996831E+01 -0.22563909577E+02 -0.22681297011E+03  0.22801509852E+03  0.47000000000E+01 0.  1.
         -5    1    5    5    0  503  0.38457474194E+02 -0.10898604232E+02 -0.58228119853E+01  0.40666350156E+02  0.47000000000E+01 0.  1.
<mgrwt>
<rscale>  0 0.27122840E+03</rscale>
<asrwt>0</asrwt>
<pdfrwt beam="1">  1        2 0.72334791E-01 0.27122840E+03</pdfrwt>
<pdfrwt beam="2">  1       -2 0.60177810E-02 0.27122840E+03</pdfrwt>
<totfact> 0.97625472E+03</totfact>
</mgrwt>
</event>
<event>
 9    1  0.8122655E-001  0.2746872E+03  0.7818608E-02  0.1098627E+00
         -2   -1    0    0    0  501 -0.00000000000E+00  0.00000000000E+00  0.18203695070E+02  0.18203695070E+02  0.00000000000E+00 0.  1.
          2   -1    0    0  501    0  0.00000000000E+00 -0.00000000000E+00 -0.10362329899E+04  0.10362329899E+04  0.00000000000E+00 0.  1.
         35    2    1    2    0    0 -0.71054273576E-14 -0.35527136788E-14 -0.10180292949E+04  0.10544366850E+04  0.27468723574E+03 0.  0.
         25    2    3    3    0    0  0.55907153756E+02  0.29544058429E+02 -0.50512917688E+03  0.52268838641E+03  0.11852933276E+03 0.  0.
         25    2    3    3    0    0 -0.55907153756E+02 -0.29544058429E+02 -0.51290011799E+03  0.53174829860E+03  0.12526476280E+03 0.  0.
          5    1    4    4  502    0  0.77800934569E+02 -0.17516911870E+02 -0.35135980365E+03  0.36032711422E+03  0.47000000000E+01 0. -1.
         -5    1    4    4    0  502 -0.21893780814E+02  0.47060970299E+02 -0.15376937323E+03  0.16236127219E+03  0.47000000000E+01 0. -1.
          5    1    5    5  503    0 -0.56342987147E+02 -0.69893976318E+02 -0.24883244476E+03  0.26457395127E+03  0.47000000000E+01 0.  1.
         -5    1    5    5    0  503  0.43583339088E+00  0.40349917889E+02 -0.26406767323E+03  0.26717434732E+03  0.47000000000E+01 0.  1.
<mgrwt>
<rscale>  0 0.27468724E+03</rscale>
<asrwt>0</asrwt>
<pdfrwt beam="1">  1        2 0.15942050E+00 0.27468724E+03</pdfrwt>
<pdfrwt beam="2">  1       -2 0.28005679E-02 0.27468724E+03</pdfrwt>
<totfact> 0.11682538E+04</totfact>
</mgrwt>
</event>
<event>
 9    1  0.8122655E-001  0.2733712E+03  0.7818608E-02  0.1099366E+00
         -2   -1    0    0    0  501 -0.00000000000E+00  0.00000000000E+00  0.25602438221E+02  0.25602438221E+02  0.00000000000E+00 0.  1.
          2   -1    0    0  501    0  0.00000000000E+00 -0.00000000000E+00 -0.72973337200E+03  0.72973337200E+03  0.00000000000E+00 0.  1.
         35    2    1    2    0    0  0.00000000000E+00  0.35527136788E-14 -0.70413093378E+03  0.75533581022E+03  0.27337120239E+03 0.  0.
         25    2    3    3    0    0 -0.43058445676E+02  0.26098635322E+02 -0.25841278373E+03  0.28974833319E+03  0.12100314576E+03 0.  0.
         25    2    3    3    0    0  0.43058445676E+02 -0.26098635322E+02 -0.44571815005E+03  0.46558747702E+03  0.12478726286E+03 0.  0.
          5    1    4    4  502    0 -0.17110014201E+02  0.28155813708E+02 -0.34967889103E+01  0.33463711154E+02  0.47000000000E+01 0. -1.
         -5    1    4    4    0  502 -0.25948431475E+02 -0.20571783858E+01 -0.25491599482E+03  0.25628462204E+03  0.47000000000E+01 0. -1.
          5    1    5    5  503    0  0.16760014458E+02  0.29824916329E+02 -0.34907383871E+03  0.35077779090E+03  0.47000000000E+01 0. -1.
         -5    1    5    5    0  503  0.26298431217E+02 -0.55923551651E+02 -0.96644311335E+02  0.11480968612E+03  0.47000000000E+01 0. -1.
<mgrwt>
<rscale>  0 0.27337120E+03</rscale>
<asrwt>0</asrwt>
<pdfrwt beam="1">  1        2 0.11226667E+00 0.27337120E+03</pdfrwt>
<pdfrwt beam="2">  1       -2 0.39388366E-02 0.27337120E+03</pdfrwt>
<totfact> 0.11162264E+04</totfact>
</mgrwt>
</event>
<event>
 9    1  0.8122655E-001  0.2787450E+03  0.7818608E-02  0.1096376E+00
          4   -1    0    0  501    0  0.00000000000E+00  0.00000000000E+00  0.58646365370E+02  0.58646365370E+02  0.00000000000E+00 0.  1.
         -4   -1    0    0    0  501 -0.00000000000E+00 -0.00000000000E+00 -0.33121726582E+03  0.33121726582E+03  0.00000000000E+00 0.  1.
         35    2    1    2    0    0 -0.71054273576E-14  0.00000000000E+00 -0.27257090045E+03  0.38986363119E+03  0.27874496435E+03 0.  0.
         25    2    3    3    0    0  0.28393872911E+02  0.10530813050E+02 -0.20570288423E+03  0.24232398850E+03  0.12445934590E+03 0.  0.
         25    2    3    3    0    0 -0.28393872911E+02 -0.10530813050E+02 -0.66868016225E+02  0.14753964269E+03  0.12798243836E+03 0.  0.
          5    1    4    4  502    0 -0.40719207385E+02  0.19026784228E+02 -0.13751955071E+03  0.14475423722E+03  0.47000000000E+01 0. -1.
         -5    1    4    4    0  502  0.69113080297E+02 -0.84959711779E+01 -0.68183333521E+02  0.97569751277E+02  0.47000000000E+01 0. -1.
          5    1    5    5  503    0 -0.15578393509E+02 -0.63065822658E+02 -0.66748581985E+02  0.93260106846E+02  0.47000000000E+01 0.  1.
         -5    1    5    5    0  503 -0.12815479403E+02  0.52535009608E+02 -0.11943423966E+00  0.54279535843E+02  0.47000000000E+01 0.  1.
<mgrwt>
<rscale>  0 0.27874496E+03</rscale>
<asrwt>0</asrwt>
<pdfrwt beam="1">  1        4 0.90225178E-02 0.27874496E+03</pdfrwt>
<pdfrwt beam="2">  1       -4 0.50956502E-01 0.27874496E+03</pdfrwt>
<totfact> 0.63238817E+02</totfact>
</mgrwt>
</event>
<event>
 9    1  0.8122655E-001  0.2786129E+03  0.7818608E-02  0.1096449E+00
          2   -1    0    0  501    0  0.00000000000E+00  0.00000000000E+00  0.10948569536E+03  0.10948569536E+03  0.00000000000E+00 0. -1.
         -2   -1    0    0    0  501 -0.00000000000E+00 -0.00000000000E+00 -0.17724949334E+03  0.17724949334E+03  0.00000000000E+00 0. -1.
         35    2    1    2    0    0  0.00000000000E+00  0.35527136788E-14 -0.67763797984E+02  0.28673518870E+03  0.27861287860E+03 0.  0.
         25    2    3    3    0    0 -0.13468512872E+02 -0.11742605338E+02  0.25054326390E+02  0.12992916811E+03  0.12623224563E+03 0.  0.
         25    2    3    3    0    0  0.13468512872E+02  0.11742605338E+02 -0.92818124375E+02  0.15680602059E+03  0.12511448462E+03 0.  0.
          5    1    4    4  502    0 -0.65528744673E+02  0.86695558348E+01 -0.46622316007E+01  0.66430444679E+02  0.47000000000E+01 0. -1.
         -5    1    4    4    0  502  0.52060231800E+02 -0.20412161173E+02  0.29716557991E+02  0.63498723434E+02  0.47000000000E+01 0. -1.
          5    1    5    5  503    0  0.55413083557E+02  0.13123403952E+01 -0.14787384289E+01  0.55647180827E+02  0.47000000000E+01 0. -1.
         -5    1    5    5    0  503 -0.41944570685E+02  0.10430264943E+02 -0.91339385946E+02  0.10115883976E+03  0.47000000000E+01 0. -1.
<mgrwt>
<rscale>  0 0.27861288E+03</rscale>
<asrwt>0</asrwt>
<pdfrwt beam="1">  1        2 0.16843953E-01 0.27861288E+03</pdfrwt>
<pdfrwt beam="2">  1       -2 0.27269152E-01 0.27861288E+03</pdfrwt>
<totfact> 0.41084911E+03</totfact>
</mgrwt>
</event>
<event>
 9    1  0.8122655E-001  0.2815808E+03  0.7818608E-02  0.1094829E+00
          1   -1    0    0  501    0  0.00000000000E+00  0.00000000000E+00  0.15032875590E+03  0.15032875590E+03  0.00000000000E+00 0. -1.
         -1   -1    0    0    0  501 -0.00000000000E+00 -0.00000000000E+00 -0.13185721661E+03  0.13185721661E+03  0.00000000000E+00 0. -1.
         35    2    1    2    0    0 -0.35527136788E-14  0.35527136788E-14  0.18471539287E+02  0.28218597251E+03  0.28158076162E+03 0.  0.
         25    2    3    3    0    0  0.19602750343E+02  0.14740807601E+02 -0.50714806734E+02  0.13710256370E+03  0.12499424835E+03 0.  0.
         25    2    3    3    0    0 -0.19602750343E+02 -0.14740807601E+02  0.69186346020E+02  0.14508340881E+03  0.12514346090E+03 0.  0.
          5    1    4    4  502    0  0.26119655377E+02  0.12362369026E+02  0.38012607328E+02  0.47980338481E+02  0.47000000000E+01 0. -1.
         -5    1    4    4    0  502 -0.65169050345E+01  0.23784385753E+01 -0.88727414061E+02  0.89122225215E+02  0.47000000000E+01 0. -1.
          5    1    5    5  503    0 -0.29070652489E+02  0.46037104769E+02  0.62513386403E+02  0.83033314586E+02  0.47000000000E+01 0.  1.
         -5    1    5    5    0  503  0.94679021464E+01 -0.60777912370E+02  0.66729596179E+01  0.62050094224E+02  0.47000000000E+01 0.  1.
<mgrwt>
<rscale>  0 0.28158076E+03</rscale>
<asrwt>0</asrwt>
<pdfrwt beam="1">  1        1 0.23127501E-01 0.28158076E+03</pdfrwt>
<pdfrwt beam="2">  1       -1 0.20285726E-01 0.28158076E+03</pdfrwt>
<totfact> 0.41458082E+03</totfact>
</mgrwt>
</event>
<event>
 9    1  0.8122655E-001  0.2882258E+03  0.7818608E-02  0.1091279E+00
         -2   -1    0    0    0  501 -0.00000000000E+00  0.00000000000E+00  0.62141628461E+01  0.62141628461E+01  0.00000000000E+00 0. -1.
          2   -1    0    0  501    0  0.00000000000E+00 -0.00000000000E+00 -0.33421287118E+04  0.33421287118E+04  0.00000000000E+00 0. -1.
         35    2    1    2    0    0  0.71054273576E-14  0.00000000000E+00 -0.33359145490E+04  0.33483428747E+04  0.28822582860E+03 0.  0.
         25    2    3    3    0    0  0.42844253282E+02  0.48063944998E+02 -0.20115764528E+04  0.20164911469E+04  0.12510374590E+03 0.  0.
         25    2    3    3    0    0 -0.42844253282E+02 -0.48063944998E+02 -0.13243380962E+04  0.13318517278E+04  0.12574521428E+03 0.  0.
          5    1    4    4  502    0  0.61918264086E+02 -0.23512008851E+02 -0.98370343834E+03  0.98594179879E+03  0.47000000000E+01 0. -1.
         -5    1    4    4    0  502 -0.19074010804E+02  0.71575953849E+02 -0.10278730145E+04  0.10305493481E+04  0.47000000000E+01 0. -1.
          5    1    5    5  503    0 -0.81061070684E+02 -0.41926226967E+01 -0.86687809832E+03  0.87068260727E+03  0.47000000000E+01 0. -1.
         -5    1    5    5    0  503  0.38216817402E+02 -0.43871322302E+02 -0.45745999785E+03  0.46116912048E+03  0.47000000000E+01 0. -1.
<mgrwt>
<rscale>  0 0.28822583E+03</rscale>
<asrwt>0</asrwt>
<pdfrwt beam="1">  1        2 0.51417517E+00 0.28822583E+03</pdfrwt>
<pdfrwt beam="2">  1       -2 0.95602222E-03 0.28822583E+03</pdfrwt>
<totfact> 0.29186808E+03</totfact>
</mgrwt>
</event>
<event>
 9    1  0.8122655E-001  0.2745202E+03  0.7818608E-02  0.1098720E+00
          1   -1    0    0  501    0  0.00000000000E+00  0.00000000000E+00  0.36759498898E+02  0.36759498898E+02  0.00000000000E+00 0. -1.
         -1   -1    0    0    0  501 -0.00000000000E+00 -0.00000000000E+00 -0.51252966361E+03  0.51252966361E+03  0.00000000000E+00 0. -1.
         35    2    1    2    0    0 -0.71054273576E-14  0.71054273576E-14 -0.47577016471E+03  0.54928916251E+03  0.27452018945E+03 0.  0.
         25    2    3    3    0    0  0.60374220249E+01  0.60969539778E+02 -0.22326544914E+03  0.26090682744E+03  0.12029620350E+03 0.  0.
         25    2    3    3    0    0 -0.60374220249E+01 -0.60969539778E+02 -0.25250471557E+03  0.28838233507E+03  0.12510797157E+03 0.  0.
          5    1    4    4  502    0 -0.34755233825E+02 -0.10244314186E+02 -0.20010678877E+02  0.41658006679E+02  0.47000000000E+01 0.  1.
         -5    1    4    4    0  502  0.40792655850E+02  0.71213853965E+02 -0.20325477027E+03  0.21924882076E+03  0.47000000000E+01 0.  1.
          5    1    5    5  503    0 -0.52613607244E+02 -0.44101392664E+02 -0.65977940598E+02  0.95332592263E+02  0.47000000000E+01 0.  1.
         -5    1    5    5    0  503  0.46576185219E+02 -0.16868147115E+02 -0.18652677497E+03  0.19304974281E+03  0.47000000000E+01 0.  1.
<mgrwt>
<rscale>  0 0.27452019E+03</rscale>
<asrwt>0</asrwt>
<pdfrwt beam="1">  1        1 0.56553074E-02 0.27452019E+03</pdfrwt>
<pdfrwt beam="2">  1       -1 0.78850719E-01 0.27452019E+03</pdfrwt>
<totfact> 0.23532641E+03</totfact>
</mgrwt>
</event>
<event>
 9    1  0.8122655E-001  0.2801808E+03  0.7818608E-02  0.1095590E+00
         -2   -1    0    0    0  501 -0.00000000000E+00  0.00000000000E+00  0.21655025963E+03  0.21655025963E+03  0.00000000000E+00 0. -1.
          2   -1    0    0  501    0  0.00000000000E+00 -0.00000000000E+00 -0.90627090278E+02  0.90627090278E+02  0.00000000000E+00 0. -1.
         35    2    1    2    0    0 -0.17763568394E-14  0.00000000000E+00  0.12592316936E+03  0.30717734991E+03  0.28018079827E+03 0.  0.
         25    2    3    3    0    0  0.10807801273E+02 -0.44315194860E+02  0.13700289554E+02  0.13380314059E+03  0.12503974342E+03 0.  0.
         25    2    3    3    0    0 -0.10807801273E+02  0.44315194860E+02  0.11222287980E+03  0.17337420932E+03  0.12403224033E+03 0.  0.
          5    1    4    4  502    0 -0.38382863280E+02  0.24005600738E+02 -0.91895819126E+01  0.46433301370E+02  0.47000000000E+01 0. -1.
         -5    1    4    4    0  502  0.49190664553E+02 -0.68320795598E+02  0.22889871466E+02  0.87369839224E+02  0.47000000000E+01 0. -1.
          5    1    5    5  503    0 -0.60691256305E+01 -0.37769202219E+02  0.72123079359E+02  0.81775152084E+02  0.47000000000E+01 0.  1.
         -5    1    5    5    0  503 -0.47386756427E+01  0.82084397079E+02  0.40099800443E+02  0.91599057234E+02  0.47000000000E+01 0.  1.
<mgrwt>
<rscale>  0 0.28018080E+03</rscale>
<asrwt>0</asrwt>
<pdfrwt beam="1">  1        2 0.13942629E-01 0.28018080E+03</pdfrwt>
<pdfrwt beam="2">  1       -2 0.33315424E-01 0.28018080E+03</pdfrwt>
<totfact> 0.35704036E+03</totfact>
</mgrwt>
</event>
<event>
 9    1  0.8122655E-001  0.2943847E+03  0.7818608E-02  0.1088082E+00
         -2   -1    0    0    0  501 -0.00000000000E+00  0.00000000000E+00  0.16857186740E+03  0.16857186740E+03  0.00000000000E+00 0.  1.
          2   -1    0    0  501    0  0.00000000000E+00 -0.00000000000E+00 -0.12852434689E+03  0.12852434689E+03  0.00000000000E+00 0.  1.
         35    2    1    2    0    0  0.00000000000E+00  0.71054273576E-14  0.40047520508E+02  0.29709621429E+03  0.29438470858E+03 0.  0.
         25    2    3    3    0    0 -0.38874569222E+02 -0.58471589542E+02 -0.14244524678E+02  0.14330946395E+03  0.12411501545E+03 0.  0.
         25    2    3    3    0    0  0.38874569222E+02  0.58471589542E+02  0.54292045187E+02  0.15378675034E+03  0.12558893062E+03 0.  0.
          5    1    4    4  502    0 -0.62477005560E+02  0.75832136386E+01  0.18484585288E+02  0.65762080609E+02  0.47000000000E+01 0.  1.
         -5    1    4    4    0  502  0.23602436338E+02 -0.66054803180E+02 -0.32729109966E+02  0.77547383344E+02  0.47000000000E+01 0.  1.
          5    1    5    5  503    0  0.56446871623E+02  0.63534476438E+02 -0.10994657352E+02  0.85824539047E+02  0.47000000000E+01 0. -1.
         -5    1    5    5    0  503 -0.17572302401E+02 -0.50628868962E+01  0.65286702538E+02  0.67962211292E+02  0.47000000000E+01 0. -1.
<mgrwt>
<rscale>  0 0.29438471E+03</rscale>
<asrwt>0</asrwt>
<pdfrwt beam="1">  1        2 0.19772976E-01 0.29438471E+03</pdfrwt>
<pdfrwt beam="2">  1       -2 0.25934134E-01 0.29438471E+03</pdfrwt>
<totfact> 0.37368876E+03</totfact>
</mgrwt>
</event>
<event>
 9    1  0.8122655E-001  0.2738102E+03  0.7818608E-02  0.1099119E+00
         -2   -1    0    0    0  501 -0.00000000000E+00  0.00000000000E+00  0.12767092259E+02  0.12767092259E+02  0.00000000000E+00 0.  1.
          2   -1    0    0  501    0  0.00000000000E+00 -0.00000000000E+00 -0.14680720764E+04  0.14680720764E+04  0.00000000000E+00 0.  1.
         35    2    1    2    0    0  0.00000000000E+00  0.00000000000E+00 -0.14553049841E+04  0.14808391686E+04  0.27381023825E+03 0.  0.
         25    2    3    3    0    0 -0.52971066840E+02  0.23952594060E+02 -0.86601674579E+03  0.87687245081E+03  0.12466206440E+03 0.  0.
         25    2    3    3    0    0  0.52971066840E+02 -0.23952594060E+02 -0.58928823832E+03  0.60396671783E+03  0.11889284140E+03 0.  0.
          5    1    4    4  502    0 -0.73456345269E+01  0.70567264593E+02 -0.39680199659E+03  0.40312232842E+03  0.47000000000E+01 0. -1.
         -5    1    4    4    0  502 -0.45625432313E+02 -0.46614670534E+02 -0.46921474921E+03  0.47375012238E+03  0.47000000000E+01 0. -1.
          5    1    5    5  503    0  0.23521800517E+02 -0.19349337196E+02 -0.56330174873E+03  0.56414415008E+03  0.47000000000E+01 0.  1.
         -5    1    5    5    0  503  0.29449266323E+02 -0.46032568642E+01 -0.25986489595E+02  0.39822567750E+02  0.47000000000E+01 0.  1.
<mgrwt>
<rscale>  0 0.27381024E+03</rscale>
<asrwt>0</asrwt>
<pdfrwt beam="1">  1        2 0.22585713E+00 0.27381024E+03</pdfrwt>
<pdfrwt beam="2">  1       -2 0.19641690E-02 0.27381024E+03</pdfrwt>
<totfact> 0.11267244E+04</totfact>
</mgrwt>
</event>
<event>
 9    1  0.8122655E-001  0.2720730E+03  0.7818608E-02  0.1100099E+00
         -2   -1    0    0    0  501 -0.00000000000E+00  0.00000000000E+00  0.30151473184E+03  0.30151473184E+03  0.00000000000E+00 0.  1.
          2   -1    0    0  501    0  0.00000000000E+00 -0.00000000000E+00 -0.61376515489E+02  0.61376515489E+02  0.00000000000E+00 0.  1.
         35    2    1    2    0    0 -0.35527136788E-14  0.00000000000E+00  0.24013821635E+03  0.36289124733E+03  0.27207295793E+03 0.  0.
         25    2    3    3    0    0  0.36084266274E+01  0.50874762900E+02  0.92398139370E+02  0.16295960290E+03  0.12416583175E+03 0.  0.
         25    2    3    3    0    0 -0.36084266274E+01 -0.50874762900E+02  0.14774007698E+03  0.19993164443E+03  0.12467666123E+03 0.  0.
          5    1    4    4  502    0 -0.12635806834E+02  0.31373865294E+02 -0.25277981750E+02  0.42485872937E+02  0.47000000000E+01 0.  1.
         -5    1    4    4    0  502  0.16244233462E+02  0.19500897606E+02  0.11767612112E+03  0.12047372996E+03  0.47000000000E+01 0.  1.
          5    1    5    5  503    0  0.47770827096E+02 -0.61838846926E+02  0.11026756971E+03  0.13522988516E+03  0.47000000000E+01 0. -1.
         -5    1    5    5    0  503 -0.51379253723E+02  0.10964084026E+02  0.37472507266E+02  0.64701759269E+02  0.47000000000E+01 0. -1.
<mgrwt>
<rscale>  0 0.27207296E+03</rscale>
<asrwt>0</asrwt>
<pdfrwt beam="1">  1        2 0.94425410E-02 0.27207296E+03</pdfrwt>
<pdfrwt beam="2">  1       -2 0.46386881E-01 0.27207296E+03</pdfrwt>
<totfact> 0.30588853E+03</totfact>
</mgrwt>
</event>
<event>
 9    1  0.8122655E-001  0.2761178E+03  0.7818608E-02  0.1097828E+00
          2   -1    0    0  501    0  0.00000000000E+00  0.00000000000E+00  0.22356618325E+04  0.22356618325E+04  0.00000000000E+00 0. -1.
         -2   -1    0    0    0  501 -0.00000000000E+00 -0.00000000000E+00 -0.85255563876E+01  0.85255563876E+01  0.00000000000E+00 0. -1.
         35    2    1    2    0    0  0.71054273576E-14  0.35527136788E-14  0.22271362762E+04  0.22441873889E+04  0.27611780831E+03 0.  0.
         25    2    3    3    0    0  0.44896030355E+02 -0.27864683445E+02  0.91233989511E+03  0.92247633753E+03  0.12572356570E+03 0.  0.
         25    2    3    3    0    0 -0.44896030355E+02  0.27864683445E+02  0.13147963810E+04  0.13217110514E+04  0.12425170283E+03 0.  0.
          5    1    4    4  502    0  0.76289901894E+02 -0.43844307281E+02  0.43615648994E+03  0.44496859005E+03  0.47000000000E+01 0.  1.
         -5    1    4    4    0  502 -0.31393871538E+02  0.15979623836E+02  0.47618340517E+03  0.47750774749E+03  0.47000000000E+01 0.  1.
          5    1    5    5  503    0 -0.82872581626E+02 -0.52783522560E+01  0.72829737036E+03  0.73303129228E+03  0.47000000000E+01 0. -1.
         -5    1    5    5    0  503  0.37976551271E+02  0.33143035701E+02  0.58649901068E+03  0.58867975911E+03  0.47000000000E+01 0. -1.
<mgrwt>
<rscale>  0 0.27611781E+03</rscale>
<asrwt>0</asrwt>
<pdfrwt beam="1">  1        2 0.34394751E+00 0.27611781E+03</pdfrwt>
<pdfrwt beam="2">  1       -2 0.13116258E-02 0.27611781E+03</pdfrwt>
<totfact> 0.80021786E+03</totfact>
</mgrwt>
</event>
<event>
 9    1  0.8122655E-001  0.2745984E+03  0.7818608E-02  0.1098676E+00
         -2   -1    0    0    0  501 -0.00000000000E+00  0.00000000000E+00  0.13196824094E+02  0.13196824094E+02  0.00000000000E+00 0.  1.
          2   -1    0    0  501    0  0.00000000000E+00 -0.00000000000E+00 -0.14284553962E+04  0.14284553962E+04  0.00000000000E+00 0.  1.
         35    2    1    2    0    0  0.00000000000E+00  0.00000000000E+00 -0.14152585721E+04  0.14416522203E+04  0.27459843109E+03 0.  0.
         25    2    3    3    0    0  0.37427861617E+02  0.38328677094E+02 -0.58123172670E+03  0.59670719471E+03  0.12393233552E+03 0.  0.
         25    2    3    3    0    0 -0.37427861617E+02 -0.38328677094E+02 -0.83402684540E+03  0.84494502557E+03  0.12434381802E+03 0.  0.
          5    1    4    4  502    0 -0.10679385270E+02  0.18986231440E+02 -0.12408984722E+02  0.25506845275E+02  0.47000000000E+01 0.  1.
         -5    1    4    4    0  502  0.48107246887E+02  0.19342445653E+02 -0.56882274198E+03  0.57120034944E+03  0.47000000000E+01 0.  1.
          5    1    5    5  503    0 -0.73879450712E+02 -0.16585796295E+02 -0.30869499067E+03  0.31788040069E+03  0.47000000000E+01 0.  1.
         -5    1    5    5    0  503  0.36451589095E+02 -0.21742880799E+02 -0.52533185473E+03  0.52706462488E+03  0.47000000000E+01 0.  1.
<mgrwt>
<rscale>  0 0.27459843E+03</rscale>
<asrwt>0</asrwt>
<pdfrwt beam="1">  1        2 0.21976224E+00 0.27459843E+03</pdfrwt>
<pdfrwt beam="2">  1       -2 0.20302818E-02 0.27459843E+03</pdfrwt>
<totfact> 0.11273176E+04</totfact>
</mgrwt>
</event>
<event>
 9    1  0.8122655E-001  0.2748941E+03  0.7818608E-02  0.1098511E+00
          2   -1    0    0  501    0  0.00000000000E+00  0.00000000000E+00  0.84833597341E+02  0.84833597341E+02  0.00000000000E+00 0. -1.
         -2   -1    0    0    0  501 -0.00000000000E+00 -0.00000000000E+00 -0.22269118020E+03  0.22269118020E+03  0.00000000000E+00 0. -1.
         35    2    1    2    0    0  0.00000000000E+00  0.00000000000E+00 -0.13785758286E+03  0.30752477754E+03  0.27489411716E+03 0.  0.
         25    2    3    3    0    0 -0.19054541000E+02  0.52499504464E+02 -0.83104064820E+02  0.16006611172E+03  0.12488234875E+03 0.  0.
         25    2    3    3    0    0  0.19054541000E+02 -0.52499504464E+02 -0.54753518037E+02  0.14745866582E+03  0.12500734733E+03 0.  0.
          5    1    4    4  502    0 -0.54952355863E+02 -0.16878971632E+02 -0.44237973766E+02  0.72689403775E+02  0.47000000000E+01 0.  1.
         -5    1    4    4    0  502  0.35897814863E+02  0.69378476096E+02 -0.38866091054E+02  0.87376707944E+02  0.47000000000E+01 0.  1.
          5    1    5    5  503    0 -0.44855790699E+01 -0.91106820999E+02 -0.39409739321E+02  0.99477589464E+02  0.47000000000E+01 0. -1.
         -5    1    5    5    0  503  0.23540120070E+02  0.38607316535E+02 -0.15343778716E+02  0.47981076355E+02  0.47000000000E+01 0. -1.
<mgrwt>
<rscale>  0 0.27489412E+03</rscale>
<asrwt>0</asrwt>
<pdfrwt beam="1">  1        2 0.13051323E-01 0.27489412E+03</pdfrwt>
<pdfrwt beam="2">  1       -2 0.34260182E-01 0.27489412E+03</pdfrwt>
<totfact> 0.36677861E+03</totfact>
</mgrwt>
</event>
<event>
 9    1  0.8122655E-001  0.2816532E+03  0.7818608E-02  0.1094789E+00
          1   -1    0    0  501    0  0.00000000000E+00  0.00000000000E+00  0.46874459214E+03  0.46874459214E+03  0.00000000000E+00 0. -1.
         -1   -1    0    0    0  501 -0.00000000000E+00 -0.00000000000E+00 -0.42309024979E+02  0.42309024979E+02  0.00000000000E+00 0. -1.
         35    2    1    2    0    0  0.00000000000E+00 -0.14210854715E-13  0.42643556716E+03  0.51105361712E+03  0.28165316726E+03 0.  0.
         25    2    3    3    0    0 -0.36766537412E+02 -0.46857847179E+02  0.24851715404E+03  0.28523852843E+03  0.12669966905E+03 0.  0.
         25    2    3    3    0    0  0.36766537412E+02  0.46857847179E+02  0.17791841312E+03  0.22581508868E+03  0.12565849129E+03 0.  0.
          5    1    4    4  502    0 -0.40646172898E+01 -0.81806985824E+02  0.10124861381E+03  0.13031606133E+03  0.47000000000E+01 0. -1.
         -5    1    4    4    0  502 -0.32701920122E+02  0.34949138645E+02  0.14726854023E+03  0.15492246710E+03  0.47000000000E+01 0. -1.
          5    1    5    5  503    0  0.77409920203E+02  0.27754400518E+02  0.15417488321E+03  0.17479870453E+03  0.47000000000E+01 0.  1.
         -5    1    5    5    0  503 -0.40643382791E+02  0.19103446661E+02  0.23743529916E+02  0.51016384152E+02  0.47000000000E+01 0.  1.
<mgrwt>
<rscale>  0 0.28165317E+03</rscale>
<asrwt>0</asrwt>
<pdfrwt beam="1">  1        1 0.72114549E-01 0.28165317E+03</pdfrwt>
<pdfrwt beam="2">  1       -1 0.65090811E-02 0.28165317E+03</pdfrwt>
<totfact> 0.57875194E+03</totfact>
</mgrwt>
</event>
<event>
 9    1  0.8122655E-001  0.2859827E+03  0.7818608E-02  0.1092465E+00
          1   -1    0    0  501    0  0.00000000000E+00  0.00000000000E+00  0.34867874894E+03  0.34867874894E+03  0.00000000000E+00 0. -1.
         -1   -1    0    0    0  501 -0.00000000000E+00 -0.00000000000E+00 -0.58639992956E+02  0.58639992956E+02  0.00000000000E+00 0. -1.
         35    2    1    2    0    0  0.35527136788E-14  0.14210854715E-13  0.29003875598E+03  0.40731874189E+03  0.28598265249E+03 0.  0.
         25    2    3    3    0    0  0.23102742446E+02  0.34942876748E+02  0.65750101278E+02  0.14714491177E+03  0.12479506360E+03 0.  0.
         25    2    3    3    0    0 -0.23102742446E+02 -0.34942876748E+02  0.22428865470E+03  0.26017383012E+03  0.12502111784E+03 0.  0.
          5    1    4    4  502    0  0.13815783382E+02  0.17448974047E+01 -0.36387892032E+02  0.39243970543E+02  0.47000000000E+01 0. -1.
         -5    1    4    4    0  502  0.92869590639E+01  0.33197979343E+02  0.10213799331E+03  0.10790094123E+03  0.47000000000E+01 0. -1.
          5    1    5    5  503    0  0.37582158042E+02 -0.41961234550E+02  0.50134132932E+02  0.75555840892E+02  0.47000000000E+01 0. -1.
         -5    1    5    5    0  503 -0.60684900487E+02  0.70183578028E+01  0.17415452177E+03  0.18461798923E+03  0.47000000000E+01 0. -1.
<mgrwt>
<rscale>  0 0.28598265E+03</rscale>
<asrwt>0</asrwt>
<pdfrwt beam="1">  1        1 0.53642883E-01 0.28598265E+03</pdfrwt>
<pdfrwt beam="2">  1       -1 0.90215376E-02 0.28598265E+03</pdfrwt>
<totfact> 0.51507024E+03</totfact>
</mgrwt>
</event>
<event>
 9    1  0.8122655E-001  0.2719940E+03  0.7818608E-02  0.1100144E+00
          2   -1    0    0  501    0  0.00000000000E+00  0.00000000000E+00  0.10026378264E+04  0.10026378264E+04  0.00000000000E+00 0.  1.
         -2   -1    0    0    0  501 -0.00000000000E+00 -0.00000000000E+00 -0.18446520704E+02  0.18446520704E+02  0.00000000000E+00 0.  1.
         35    2    1    2    0    0  0.00000000000E+00 -0.35527136788E-14  0.98419130574E+03  0.10210843472E+04  0.27199396629E+03 0.  0.
         25    2    3    3    0    0  0.26105102370E+02  0.17798841526E+02  0.37573429152E+03  0.39914905014E+03  0.13094056390E+03 0.  0.
         25    2    3    3    0    0 -0.26105102370E+02 -0.17798841526E+02  0.60845701423E+03  0.62193529701E+03  0.12484110052E+03 0.  0.
          5    1    4    4  502    0 -0.14598529620E+02  0.64318103717E+02  0.13173292774E+03  0.14739603042E+03  0.47000000000E+01 0. -1.
         -5    1    4    4    0  502  0.40703631990E+02 -0.46519262191E+02  0.24400136378E+03  0.25175301972E+03  0.47000000000E+01 0. -1.
          5    1    5    5  503    0 -0.34020228706E+02 -0.29272757426E+02  0.70046708529E+02  0.83324076138E+02  0.47000000000E+01 0. -1.
         -5    1    5    5    0  503  0.79151263361E+01  0.11473915900E+02  0.53841030570E+03  0.53861122088E+03  0.47000000000E+01 0. -1.
<mgrwt>
<rscale>  0 0.27199397E+03</rscale>
<asrwt>0</asrwt>
<pdfrwt beam="1">  1        2 0.15425193E+00 0.27199397E+03</pdfrwt>
<pdfrwt beam="2">  1       -2 0.28379270E-02 0.27199397E+03</pdfrwt>
<totfact> 0.12001844E+04</totfact>
</mgrwt>
</event>
<event>
 9    1  0.8122655E-001  0.2708370E+03  0.7818608E-02  0.1100802E+00
         -1   -1    0    0    0  501 -0.00000000000E+00  0.00000000000E+00  0.79485402617E+02  0.79485402617E+02  0.00000000000E+00 0.  1.
          1   -1    0    0  501    0  0.00000000000E+00 -0.00000000000E+00 -0.23071120704E+03  0.23071120704E+03  0.00000000000E+00 0.  1.
         35    2    1    2    0    0 -0.71054273576E-14  0.17763568394E-14 -0.15122580442E+03  0.31019660966E+03  0.27083702243E+03 0.  0.
         25    2    3    3    0    0 -0.23621483240E+02 -0.46470703401E+01 -0.22634894957E+02  0.12914037752E+03  0.12484121476E+03 0.  0.
         25    2    3    3    0    0  0.23621483240E+02  0.46470703401E+01 -0.12859090946E+03  0.18105623214E+03  0.12516456155E+03 0.  0.
          5    1    4    4  502    0 -0.58412272708E+02  0.18561754420E+02 -0.49747010328E+02  0.79078362190E+02  0.47000000000E+01 0. -1.
         -5    1    4    4    0  502  0.34790789468E+02 -0.23208824761E+02  0.27112115371E+02  0.50062015326E+02  0.47000000000E+01 0. -1.
          5    1    5    5  503    0 -0.31583365319E+02  0.13558179973E+02  0.60271654438E+01  0.35210082822E+02  0.47000000000E+01 0. -1.
         -5    1    5    5    0  503  0.55204848558E+02 -0.89111096325E+01 -0.13461807491E+03  0.14584614932E+03  0.47000000000E+01 0. -1.
<mgrwt>
<rscale>  0 0.27083702E+03</rscale>
<asrwt>0</asrwt>
<pdfrwt beam="1">  1        1 0.35494032E-01 0.27083702E+03</pdfrwt>
<pdfrwt beam="2">  1       -1 0.12228523E-01 0.27083702E+03</pdfrwt>
<totfact> 0.53956308E+03</totfact>
</mgrwt>
</event>
<event>
 9    1  0.8122655E-001  0.2751749E+03  0.7818608E-02  0.1098354E+00
         -1   -1    0    0    0  501 -0.00000000000E+00  0.00000000000E+00  0.17697809145E+02  0.17697809145E+02  0.00000000000E+00 0.  1.
          1   -1    0    0  501    0  0.00000000000E+00 -0.00000000000E+00 -0.10696410130E+04  0.10696410130E+04  0.00000000000E+00 0.  1.
         35    2    1    2    0    0 -0.71054273576E-14  0.71054273576E-14 -0.10519432038E+04  0.10873388221E+04  0.27517487168E+03 0.  0.
         25    2    3    3    0    0  0.24800186232E+02  0.32953175961E+02 -0.68313539598E+03  0.69578008040E+03  0.12543918843E+03 0.  0.
         25    2    3    3    0    0 -0.24800186232E+02 -0.32953175961E+02 -0.36880780784E+03  0.39155874172E+03  0.12489230579E+03 0.  0.
          5    1    4    4  502    0  0.43450470681E+02  0.67719049170E+02 -0.30166487401E+03  0.31224605560E+03  0.47000000000E+01 0. -1.
         -5    1    4    4    0  502 -0.18650284448E+02 -0.34765873210E+02 -0.38147052196E+03  0.38353402480E+03  0.47000000000E+01 0. -1.
          5    1    5    5  503    0 -0.71777585111E+02  0.21262210200E+01 -0.18201989864E+03  0.19572908839E+03  0.47000000000E+01 0. -1.
         -5    1    5    5    0  503  0.46977398879E+02 -0.35079396981E+02 -0.18678790920E+03  0.19582965333E+03  0.47000000000E+01 0. -1.
<mgrwt>
<rscale>  0 0.27517487E+03</rscale>
<asrwt>0</asrwt>
<pdfrwt beam="1">  1        1 0.16456019E+00 0.27517487E+03</pdfrwt>
<pdfrwt beam="2">  1       -1 0.27227392E-02 0.27517487E+03</pdfrwt>
<totfact> 0.61785055E+03</totfact>
</mgrwt>
</event>
<event>
 9    1  0.8122655E-001  0.2722926E+03  0.7818608E-02  0.1099975E+00
          1   -1    0    0  501    0  0.00000000000E+00  0.00000000000E+00  0.24220460364E+02  0.24220460364E+02  0.00000000000E+00 0.  1.
         -1   -1    0    0    0  501 -0.00000000000E+00 -0.00000000000E+00 -0.76529575967E+03  0.76529575967E+03  0.00000000000E+00 0.  1.
         35    2    1    2    0    0  0.00000000000E+00  0.71054273576E-14 -0.74107529931E+03  0.78951622004E+03  0.27229260448E+03 0.  0.
         25    2    3    3    0    0 -0.21497908082E+02 -0.18426834416E+02 -0.23252736018E+03  0.26540522731E+03  0.12477681344E+03 0.  0.
         25    2    3    3    0    0  0.21497908082E+02  0.18426834416E+02 -0.50854793913E+03  0.52411099273E+03  0.12357029590E+03 0.  0.
          5    1    4    4  502    0 -0.48257752446E+02  0.39071236855E+02 -0.13894120314E+03  0.15225675733E+03  0.47000000000E+01 0.  1.
         -5    1    4    4    0  502  0.26759844364E+02 -0.57498071271E+02 -0.93586157035E+02  0.11314846998E+03  0.47000000000E+01 0.  1.
          5    1    5    5  503    0  0.23647975770E+02  0.70378656006E+02 -0.31208704968E+03  0.32083141766E+03  0.47000000000E+01 0. -1.
         -5    1    5    5    0  503 -0.21500676889E+01 -0.51951821590E+02 -0.19646088945E+03  0.20327957507E+03  0.47000000000E+01 0. -1.
<mgrwt>
<rscale>  0 0.27229260E+03</rscale>
<asrwt>0</asrwt>
<pdfrwt beam="1">  1        1 0.37262243E-02 0.27229260E+03</pdfrwt>
<pdfrwt beam="2">  1       -1 0.11773782E+00 0.27229260E+03</pdfrwt>
<totfact> 0.17365292E+03</totfact>
</mgrwt>
</event>
<event>
 9    1  0.8122655E-001  0.2700282E+03  0.7818608E-02  0.1101263E+00
          1   -1    0    0  501    0  0.00000000000E+00  0.00000000000E+00  0.41338105722E+03  0.41338105722E+03  0.00000000000E+00 0.  1.
         -1   -1    0    0    0  501 -0.00000000000E+00 -0.00000000000E+00 -0.44096850669E+02  0.44096850669E+02  0.00000000000E+00 0.  1.
         35    2    1    2    0    0  0.35527136788E-14  0.35527136788E-14  0.36928420655E+03  0.45747790788E+03  0.27002816705E+03 0.  0.
         25    2    3    3    0    0  0.11793756645E+02 -0.18733664124E+02  0.11556825376E+03  0.17155286529E+03  0.12483717974E+03 0.  0.
         25    2    3    3    0    0 -0.11793756645E+02  0.18733664124E+02  0.25371595278E+03  0.28592504259E+03  0.12996654345E+03 0.  0.
          5    1    4    4  502    0  0.43462597195E+02 -0.60194939609E+02  0.68687787010E+02  0.10125477862E+03  0.47000000000E+01 0. -1.
         -5    1    4    4    0  502 -0.31668840550E+02  0.41461275485E+02  0.46880466753E+02  0.70298086671E+02  0.47000000000E+01 0. -1.
          5    1    5    5  503    0 -0.31584481840E+02  0.15791567621E+02  0.45501918864E+01  0.35913052602E+02  0.47000000000E+01 0. -1.
         -5    1    5    5    0  503  0.19790725195E+02  0.29420965031E+01  0.24916576090E+03  0.25001198999E+03  0.47000000000E+01 0. -1.
<mgrwt>
<rscale>  0 0.27002817E+03</rscale>
<asrwt>0</asrwt>
<pdfrwt beam="1">  1        1 0.63597083E-01 0.27002817E+03</pdfrwt>
<pdfrwt beam="2">  1       -1 0.67841311E-02 0.27002817E+03</pdfrwt>
<totfact> 0.63920296E+03</totfact>
</mgrwt>
</event>
<event>
 9    1  0.8122655E-001  0.2732380E+03  0.7818608E-02  0.1099441E+00
          2   -1    0    0  501    0  0.00000000000E+00  0.00000000000E+00  0.15535731314E+04  0.15535731314E+04  0.00000000000E+00 0. -1.
         -2   -1    0    0    0  501 -0.00000000000E+00 -0.00000000000E+00 -0.12014080494E+02  0.12014080494E+02  0.00000000000E+00 0. -1.
         35    2    1    2    0    0  0.00000000000E+00  0.35527136788E-14  0.15415590509E+04  0.15655872118E+04  0.27323801093E+03 0.  0.
         25    2    3    3    0    0  0.25694322044E+02 -0.28839995093E+02  0.99000363325E+03  0.99861423330E+03  0.12502499584E+03 0.  0.
         25    2    3    3    0    0 -0.25694322044E+02  0.28839995093E+02  0.55155541760E+03  0.56697297855E+03  0.12551109997E+03 0.  0.
          5    1    4    4  502    0  0.33275772552E+02 -0.59758250556E+02  0.90705629495E+03  0.90964363228E+03  0.47000000000E+01 0. -1.
         -5    1    4    4    0  502 -0.75814505080E+01  0.30918255463E+02  0.82947338307E+02  0.88970601015E+02  0.47000000000E+01 0. -1.
          5    1    5    5  503    0 -0.41498866244E+02  0.33434485603E+02  0.87207036855E+02  0.10230922737E+03  0.47000000000E+01 0. -1.
         -5    1    5    5    0  503  0.15804544199E+02 -0.45944905098E+01  0.46434838075E+03  0.46466375118E+03  0.47000000000E+01 0. -1.
<mgrwt>
<rscale>  0 0.27323801E+03</rscale>
<asrwt>0</asrwt>
<pdfrwt beam="1">  1        2 0.23901109E+00 0.27323801E+03</pdfrwt>
<pdfrwt beam="2">  1       -2 0.18483213E-02 0.27323801E+03</pdfrwt>
<totfact> 0.11088854E+04</totfact>
</mgrwt>
</event>
<event>
 9    1  0.8122655E-001  0.2700333E+03  0.7818608E-02  0.1101261E+00
         -2   -1    0    0    0  501 -0.00000000000E+00  0.00000000000E+00  0.42051072022E+03  0.42051072022E+03  0.00000000000E+00 0.  1.
          2   -1    0    0  501    0  0.00000000000E+00 -0.00000000000E+00 -0.43350859536E+02  0.43350859536E+02  0.00000000000E+00 0.  1.
         35    2    1    2    0    0 -0.71054273576E-14  0.00000000000E+00  0.37715986068E+03  0.46386157975E+03  0.27003333991E+03 0.  0.
         25    2    3    3    0    0  0.21037224296E+02  0.59501963726E+01  0.10627724008E+03  0.16514410560E+03  0.12449800887E+03 0.  0.
         25    2    3    3    0    0 -0.21037224296E+02 -0.59501963726E+01  0.27088262060E+03  0.29871747415E+03  0.12400308696E+03 0.  0.
          5    1    4    4  502    0 -0.42155171274E+02 -0.89512618798E+00  0.89793022992E+02  0.99311312014E+02  0.47000000000E+01 0.  1.
         -5    1    4    4    0  502  0.63192395569E+02  0.68453225606E+01  0.16484217089E+02  0.65832793590E+02  0.47000000000E+01 0.  1.
          5    1    5    5  503    0 -0.49448984033E+02  0.79742095233E+00  0.26362139202E+03  0.26826137671E+03  0.47000000000E+01 0. -1.
         -5    1    5    5    0  503  0.28411759737E+02 -0.67476173250E+01  0.72612285782E+01  0.30456097442E+02  0.47000000000E+01 0. -1.
<mgrwt>
<rscale>  0 0.27003334E+03</rscale>
<asrwt>0</asrwt>
<pdfrwt beam="1">  1        2 0.66693633E-02 0.27003334E+03</pdfrwt>
<pdfrwt beam="2">  1       -2 0.64693954E-01 0.27003334E+03</pdfrwt>
<totfact> 0.24198018E+03</totfact>
</mgrwt>
</event>
<event>
 9    1  0.8122655E-001  0.2720133E+03  0.7818608E-02  0.1100133E+00
         -2   -1    0    0    0  501 -0.00000000000E+00  0.00000000000E+00  0.57143067612E+02  0.57143067612E+02  0.00000000000E+00 0. -1.
          2   -1    0    0  501    0  0.00000000000E+00 -0.00000000000E+00 -0.32371045594E+03  0.32371045594E+03  0.00000000000E+00 0. -1.
         35    2    1    2    0    0  0.71054273576E-14  0.71054273576E-14 -0.26656738833E+03  0.38085352355E+03  0.27201329725E+03 0.  0.
         25    2    3    3    0    0 -0.35456862048E+02 -0.32556442648E+02 -0.10995708765E+03  0.17304896015E+03  0.12465259909E+03 0.  0.
         25    2    3    3    0    0  0.35456862048E+02  0.32556442648E+02 -0.15661030068E+03  0.20780456341E+03  0.12782346916E+03 0.  0.
          5    1    4    4  502    0  0.33523480337E+02  0.65114185432E+01  0.34030108176E+01  0.34639468645E+02  0.47000000000E+01 0. -1.
         -5    1    4    4    0  502 -0.68980342385E+02 -0.39067861192E+02 -0.11336009847E+03  0.13840949150E+03  0.47000000000E+01 0. -1.
          5    1    5    5  503    0  0.24261155003E+02 -0.15277341560E+02  0.12509056811E+02  0.31631745281E+02  0.47000000000E+01 0. -1.
         -5    1    5    5    0  503  0.11195707044E+02  0.47833784208E+02 -0.16911935749E+03  0.17617281812E+03  0.47000000000E+01 0. -1.
<mgrwt>
<rscale>  0 0.27201330E+03</rscale>
<asrwt>0</asrwt>
<pdfrwt beam="1">  1        2 0.49801607E-01 0.27201330E+03</pdfrwt>
<pdfrwt beam="2">  1       -2 0.87912414E-02 0.27201330E+03</pdfrwt>
<totfact> 0.81340058E+03</totfact>
</mgrwt>
</event>
<event>
 9    1  0.8122655E-001  0.2641395E+03  0.7818608E-02  0.1104681E+00
         -2   -1    0    0    0  501 -0.00000000000E+00  0.00000000000E+00  0.12192054858E+02  0.12192054858E+02  0.00000000000E+00 0. -1.
          2   -1    0    0  501    0  0.00000000000E+00 -0.00000000000E+00 -0.14306380609E+04  0.14306380609E+04  0.00000000000E+00 0. -1.
         35    2    1    2    0    0  0.00000000000E+00  0.71054273576E-14 -0.14184460061E+04  0.14428301158E+04  0.26413949133E+03 0.  0.
         25    2    3    3    0    0 -0.72848979438E+01 -0.14542289399E+02 -0.83373669632E+03  0.84463591595E+03  0.13426989165E+03 0.  0.
         25    2    3    3    0    0  0.72848979438E+01  0.14542289399E+02 -0.58470930975E+03  0.59819419983E+03  0.12524685980E+03 0.  0.
          5    1    4    4  502    0  0.17441232401E+02 -0.24427127220E+02 -0.38986697268E+02  0.49426042687E+02  0.47000000000E+01 0.  1.
         -5    1    4    4    0  502 -0.24726130345E+02  0.98848378213E+01 -0.79474999906E+03  0.79520987327E+03  0.47000000000E+01 0.  1.
          5    1    5    5  503    0  0.98829864285E+01 -0.54994366256E+02 -0.28678667285E+03  0.29221693905E+03  0.47000000000E+01 0.  1.
         -5    1    5    5    0  503 -0.25980884847E+01  0.69536655655E+02 -0.29792263689E+03  0.30597726078E+03  0.47000000000E+01 0.  1.
<mgrwt>
<rscale>  0 0.26413949E+03</rscale>
<asrwt>0</asrwt>
<pdfrwt beam="1">  1        2 0.22009808E+00 0.26413949E+03</pdfrwt>
<pdfrwt beam="2">  1       -2 0.18757015E-02 0.26413949E+03</pdfrwt>
<totfact> 0.12618276E+04</totfact>
</mgrwt>
</event>
<event>
 9    1  0.8122655E-001  0.2732250E+03  0.7818608E-02  0.1099448E+00
         -1   -1    0    0    0  501 -0.00000000000E+00  0.00000000000E+00  0.25982214888E+03  0.25982214888E+03  0.00000000000E+00 0.  1.
          1   -1    0    0  501    0  0.00000000000E+00 -0.00000000000E+00 -0.71829798908E+02  0.71829798908E+02  0.00000000000E+00 0.  1.
         35    2    1    2    0    0  0.00000000000E+00  0.14210854715E-13  0.18799234997E+03  0.33165194779E+03  0.27322498206E+03 0.  0.
         25    2    3    3    0    0 -0.31306703960E+02  0.26360706808E+02  0.65250050502E+02  0.15113957272E+03  0.13004078120E+03 0.  0.
         25    2    3    3    0    0  0.31306703960E+02 -0.26360706808E+02  0.12274229947E+03  0.18051237507E+03  0.12587314606E+03 0.  0.
          5    1    4    4  502    0 -0.74322979442E+01 -0.45442244942E+02  0.59112919789E+02  0.75077719492E+02  0.47000000000E+01 0.  1.
         -5    1    4    4    0  502 -0.23874406016E+02  0.71802951750E+02  0.61371307124E+01  0.76061853225E+02  0.47000000000E+01 0.  1.
          5    1    5    5  503    0  0.18419666584E+02  0.44950623455E+02  0.15904463227E+02  0.51331127171E+02  0.47000000000E+01 0. -1.
         -5    1    5    5    0  503  0.12887037376E+02 -0.71311330263E+02  0.10683783624E+03  0.12918124790E+03  0.47000000000E+01 0. -1.
<mgrwt>
<rscale>  0 0.27322498E+03</rscale>
<asrwt>0</asrwt>
<pdfrwt beam="1">  1        1 0.11050738E-01 0.27322498E+03</pdfrwt>
<pdfrwt beam="2">  1       -1 0.39972638E-01 0.27322498E+03</pdfrwt>
<totfact> 0.34481950E+03</totfact>
</mgrwt>
</event>
<event>
 9    1  0.8122655E-001  0.2811407E+03  0.7818608E-02  0.1095068E+00
          1   -1    0    0  501    0  0.00000000000E+00  0.00000000000E+00  0.45122180973E+03  0.45122180973E+03  0.00000000000E+00 0. -1.
         -1   -1    0    0    0  501 -0.00000000000E+00 -0.00000000000E+00 -0.43792272615E+02  0.43792272615E+02  0.00000000000E+00 0. -1.
         35    2    1    2    0    0 -0.14210854715E-13  0.00000000000E+00  0.40742953712E+03  0.49501408235E+03  0.28114073701E+03 0.  0.
         25    2    3    3    0    0 -0.48953292611E+02 -0.41802315753E+02  0.27137944240E+03  0.30050110344E+03  0.11184924207E+03 0.  0.
         25    2    3    3    0    0  0.48953292611E+02  0.41802315753E+02  0.13605009472E+03  0.19451297891E+03  0.12321449684E+03 0.  0.
          5    1    4    4  502    0 -0.34488872231E+02  0.31484152661E+02  0.15652960621E+03  0.16341463152E+03  0.47000000000E+01 0.  1.
         -5    1    4    4    0  502 -0.14464420380E+02 -0.73286468414E+02  0.11484983619E+03  0.13708647192E+03  0.47000000000E+01 0.  1.
          5    1    5    5  503    0 -0.40654982559E+02  0.42299181990E+01  0.32464147134E+02  0.52409261243E+02  0.47000000000E+01 0.  1.
         -5    1    5    5    0  503  0.89608275171E+02  0.37572397554E+02  0.10358594759E+03  0.14210371767E+03  0.47000000000E+01 0.  1.
<mgrwt>
<rscale>  0 0.28114074E+03</rscale>
<asrwt>0</asrwt>
<pdfrwt beam="1">  1        1 0.69418737E-01 0.28114074E+03</pdfrwt>
<pdfrwt beam="2">  1       -1 0.67372730E-02 0.28114074E+03</pdfrwt>
<totfact> 0.57737440E+03</totfact>
</mgrwt>
</event>
<event>
 9    1  0.8122655E-001  0.2733945E+03  0.7818608E-02  0.1099352E+00
         -2   -1    0    0    0  501 -0.00000000000E+00  0.00000000000E+00  0.62971885770E+02  0.62971885770E+02  0.00000000000E+00 0.  1.
          2   -1    0    0  501    0  0.00000000000E+00 -0.00000000000E+00 -0.29673784233E+03  0.29673784233E+03  0.00000000000E+00 0.  1.
         35    2    1    2    0    0  0.00000000000E+00  0.00000000000E+00 -0.23376595656E+03  0.35970972810E+03  0.27339452453E+03 0.  0.
         25    2    3    3    0    0 -0.39135837836E+02  0.38572561780E+02 -0.10841169603E+03  0.17429084936E+03  0.12491896577E+03 0.  0.
         25    2    3    3    0    0  0.39135837836E+02 -0.38572561780E+02 -0.12535426052E+03  0.18541887874E+03  0.12508802355E+03 0.  0.
          5    1    4    4  502    0 -0.71775061227E+02  0.62821226461E+02 -0.73970466854E+02  0.12079687858E+03  0.47000000000E+01 0.  1.
         -5    1    4    4    0  502  0.32639223392E+02 -0.24248664681E+02 -0.34441229179E+02  0.53493970780E+02  0.47000000000E+01 0.  1.
          5    1    5    5  503    0  0.71295608803E+01  0.80511138639E+01  0.23416294890E+02  0.26192822284E+02  0.47000000000E+01 0. -1.
         -5    1    5    5    0  503  0.32006276955E+02 -0.46623675644E+02 -0.14877055541E+03  0.15922605645E+03  0.47000000000E+01 0. -1.
<mgrwt>
<rscale>  0 0.27339452E+03</rscale>
<asrwt>0</asrwt>
<pdfrwt beam="1">  1        2 0.45651976E-01 0.27339452E+03</pdfrwt>
<pdfrwt beam="2">  1       -2 0.96879824E-02 0.27339452E+03</pdfrwt>
<totfact> 0.76633698E+03</totfact>
</mgrwt>
</event>
<event>
 9    1  0.8122655E-001  0.2765661E+03  0.7818608E-02  0.1097579E+00
         -4   -1    0    0    0  501 -0.00000000000E+00  0.00000000000E+00  0.21942978686E+03  0.21942978686E+03  0.00000000000E+00 0.  1.
          4   -1    0    0  501    0  0.00000000000E+00 -0.00000000000E+00 -0.87144953931E+02  0.87144953931E+02  0.00000000000E+00 0.  1.
         35    2    1    2    0    0  0.00000000000E+00  0.35527136788E-14  0.13228483293E+03  0.30657474080E+03  0.27656607650E+03 0.  0.
         25    2    3    3    0    0 -0.51609034825E+02  0.23602921512E+02  0.76118286168E+02  0.15703908193E+03  0.12508672746E+03 0.  0.
         25    2    3    3    0    0  0.51609034825E+02 -0.23602921512E+02  0.56166546766E+02  0.14953565886E+03  0.12643433836E+03 0.  0.
          5    1    4    4  502    0  0.31926099225E+02  0.35423147056E+02  0.48406683554E+02  0.68112936890E+02  0.47000000000E+01 0.  1.
         -5    1    4    4    0  502 -0.83535134050E+02 -0.11820225544E+02  0.27711602614E+02  0.88926145043E+02  0.47000000000E+01 0.  1.
          5    1    5    5  503    0  0.25518818895E+02 -0.70683935538E+02  0.58656312626E+02  0.95446748880E+02  0.47000000000E+01 0. -1.
         -5    1    5    5    0  503  0.26090215930E+02  0.47081014026E+02 -0.24897658598E+01  0.54088909982E+02  0.47000000000E+01 0. -1.
<mgrwt>
<rscale>  0 0.27656608E+03</rscale>
<asrwt>0</asrwt>
<pdfrwt beam="1">  1        4 0.13406916E-01 0.27656608E+03</pdfrwt>
<pdfrwt beam="2">  1       -4 0.33758429E-01 0.27656608E+03</pdfrwt>
<totfact> 0.72976513E+02</totfact>
</mgrwt>
</event>
<event>
 9    1  0.8122655E-001  0.2787873E+03  0.7818608E-02  0.1096353E+00
          1   -1    0    0  501    0  0.00000000000E+00  0.00000000000E+00  0.61331373919E+03  0.61331373919E+03  0.00000000000E+00 0.  1.
         -1   -1    0    0    0  501 -0.00000000000E+00 -0.00000000000E+00 -0.31681316160E+02  0.31681316160E+02  0.00000000000E+00 0.  1.
         35    2    1    2    0    0  0.00000000000E+00  0.00000000000E+00  0.58163242303E+03  0.64499505535E+03  0.27878727716E+03 0.  0.
         25    2    3    3    0    0  0.52230591928E+02  0.29033494716E+02  0.24529207792E+03  0.28123730689E+03  0.12391626506E+03 0.  0.
         25    2    3    3    0    0 -0.52230591928E+02 -0.29033494716E+02  0.33634034511E+03  0.36375774847E+03  0.12499557300E+03 0.  0.
          5    1    4    4  502    0  0.67463929545E+02 -0.14249575009E+02  0.21553858934E+03  0.22634797475E+03  0.47000000000E+01 0. -1.
         -5    1    4    4    0  502 -0.15233337617E+02  0.43283069725E+02  0.29753488576E+02  0.54889332135E+02  0.47000000000E+01 0. -1.
          5    1    5    5  503    0 -0.53311884284E+02 -0.50660137216E+02  0.33335063871E+03  0.34139909906E+03  0.47000000000E+01 0. -1.
         -5    1    5    5    0  503  0.10812923565E+01  0.21626642500E+02  0.29897064015E+01  0.22358649408E+02  0.47000000000E+01 0. -1.
<mgrwt>
<rscale>  0 0.27878728E+03</rscale>
<asrwt>0</asrwt>
<pdfrwt beam="1">  1        1 0.94355951E-01 0.27878728E+03</pdfrwt>
<pdfrwt beam="2">  1       -1 0.48740491E-02 0.27878728E+03</pdfrwt>
<totfact> 0.62182214E+03</totfact>
</mgrwt>
</event>
<event>
 9    1  0.8122655E-001  0.2768217E+03  0.7818608E-02  0.1097438E+00
          2   -1    0    0  501    0  0.00000000000E+00  0.00000000000E+00  0.12173077657E+03  0.12173077657E+03  0.00000000000E+00 0. -1.
         -2   -1    0    0    0  501 -0.00000000000E+00 -0.00000000000E+00 -0.15737645318E+03  0.15737645318E+03  0.00000000000E+00 0. -1.
         35    2    1    2    0    0 -0.71054273576E-14  0.71054273576E-14 -0.35645676600E+02  0.27910722975E+03  0.27682165999E+03 0.  0.
         25    2    3    3    0    0  0.49278462883E+02 -0.33902292452E+02 -0.17089902203E+02  0.13981008918E+03  0.12520808257E+03 0.  0.
         25    2    3    3    0    0 -0.49278462883E+02  0.33902292452E+02 -0.18555774397E+02  0.13929714057E+03  0.12442525576E+03 0.  0.
          5    1    4    4  502    0  0.16363658607E+02  0.39170524063E+02 -0.37651863118E+02  0.56937264376E+02  0.47000000000E+01 0. -1.
         -5    1    4    4    0  502  0.32914804276E+02 -0.73072816515E+02  0.20561960915E+02  0.82872824802E+02  0.47000000000E+01 0. -1.
          5    1    5    5  503    0 -0.17769916241E+02  0.79920192934E+02 -0.86979343523E+01  0.82466667350E+02  0.47000000000E+01 0. -1.
         -5    1    5    5    0  503 -0.31508546642E+02 -0.46017900482E+02 -0.98578400449E+01  0.56830473222E+02  0.47000000000E+01 0. -1.
<mgrwt>
<rscale>  0 0.27682166E+03</rscale>
<asrwt>0</asrwt>
<pdfrwt beam="1">  1        2 0.18727812E-01 0.27682166E+03</pdfrwt>
<pdfrwt beam="2">  1       -2 0.24211762E-01 0.27682166E+03</pdfrwt>
<totfact> 0.44833501E+03</totfact>
</mgrwt>
</event>
<event>
 9    1  0.8122655E-001  0.2740412E+03  0.7818608E-02  0.1098989E+00
         -1   -1    0    0    0  501 -0.00000000000E+00  0.00000000000E+00  0.18638755273E+03  0.18638755273E+03  0.00000000000E+00 0.  1.
          1   -1    0    0  501    0  0.00000000000E+00 -0.00000000000E+00 -0.10072904133E+03  0.10072904133E+03  0.00000000000E+00 0.  1.
         35    2    1    2    0    0  0.00000000000E+00  0.00000000000E+00  0.85658511400E+02  0.28711659405E+03  0.27404116115E+03 0.  0.
         25    2    3    3    0    0  0.24789343952E+02  0.28206221772E+02  0.85487505888E+02  0.15623500947E+03  0.12526436844E+03 0.  0.
         25    2    3    3    0    0 -0.24789343952E+02 -0.28206221772E+02  0.17100551189E+00  0.13088158458E+03  0.12537885555E+03 0.  0.
          5    1    4    4  502    0  0.71489834639E+02 -0.21436388839E+01  0.64830039682E+02  0.96645826033E+02  0.47000000000E+01 0.  1.
         -5    1    4    4    0  502 -0.46700490687E+02  0.30349860656E+02  0.20657466206E+02  0.59589183434E+02  0.47000000000E+01 0.  1.
          5    1    5    5  503    0  0.92898079138E+01  0.47021472165E+02 -0.14430754899E+00  0.48160463041E+02  0.47000000000E+01 0.  1.
         -5    1    5    5    0  503 -0.34079151866E+02 -0.75227693937E+02  0.31531306088E+00  0.82721121543E+02  0.47000000000E+01 0.  1.
<mgrwt>
<rscale>  0 0.27404116E+03</rscale>
<asrwt>0</asrwt>
<pdfrwt beam="1">  1        1 0.15496776E-01 0.27404116E+03</pdfrwt>
<pdfrwt beam="2">  1       -1 0.28675008E-01 0.27404116E+03</pdfrwt>
<totfact> 0.39172116E+03</totfact>
</mgrwt>
</event>
<event>
 9    1  0.8122655E-001  0.2735954E+03  0.7818608E-02  0.1099239E+00
          2   -1    0    0  501    0  0.00000000000E+00  0.00000000000E+00  0.11800966618E+03  0.11800966618E+03  0.00000000000E+00 0. -1.
         -2   -1    0    0    0  501 -0.00000000000E+00 -0.00000000000E+00 -0.15857698719E+03  0.15857698719E+03  0.00000000000E+00 0. -1.
         35    2    1    2    0    0 -0.71054273576E-14  0.35527136788E-14 -0.40567321010E+02  0.27658665336E+03  0.27359544821E+03 0.  0.
         25    2    3    3    0    0  0.44438139846E+02  0.14938054754E+02  0.10569630644E+02  0.13301535943E+03  0.12403013747E+03 0.  0.
         25    2    3    3    0    0 -0.44438139846E+02 -0.14938054754E+02 -0.51136951654E+02  0.14357129393E+03  0.12569739402E+03 0.  0.
          5    1    4    4  502    0 -0.40576781327E+02  0.15469515634E+02  0.18634113674E+02  0.47487906768E+02  0.47000000000E+01 0. -1.
         -5    1    4    4    0  502  0.85014921173E+02 -0.53146087977E+00 -0.80644830298E+01  0.85527452664E+02  0.47000000000E+01 0. -1.
          5    1    5    5  503    0 -0.29135105779E+02 -0.67489388278E+02 -0.87367302093E+01  0.74176090309E+02  0.47000000000E+01 0.  1.
         -5    1    5    5    0  503 -0.15303034067E+02  0.52551333524E+02 -0.42400221445E+02  0.69395203619E+02  0.47000000000E+01 0.  1.
<mgrwt>
<rscale>  0 0.27359545E+03</rscale>
<asrwt>0</asrwt>
<pdfrwt beam="1">  1        2 0.18155333E-01 0.27359545E+03</pdfrwt>
<pdfrwt beam="2">  1       -2 0.24396460E-01 0.27359545E+03</pdfrwt>
<totfact> 0.45838195E+03</totfact>
</mgrwt>
</event>
<event>
 9    1  0.8122655E-001  0.2760919E+03  0.7818608E-02  0.1097843E+00
          2   -1    0    0  501    0  0.00000000000E+00  0.00000000000E+00  0.37480104064E+04  0.37480104064E+04  0.00000000000E+00 0.  1.
         -2   -1    0    0    0  501 -0.00000000000E+00 -0.00000000000E+00 -0.50844793107E+01  0.50844793107E+01  0.00000000000E+00 0.  1.
         35    2    1    2    0    0  0.00000000000E+00  0.00000000000E+00  0.37429259271E+04  0.37530948857E+04  0.27609187868E+03 0.  0.
         25    2    3    3    0    0 -0.31189731946E+01 -0.12877613711E+02  0.26512074310E+04  0.26542055539E+04  0.12542216451E+03 0.  0.
         25    2    3    3    0    0  0.31189731946E+01  0.12877613711E+02  0.10917184961E+04  0.10988893318E+04  0.12463116740E+03 0.  0.
          5    1    4    4  502    0  0.41688719063E+02 -0.22871894738E+02  0.22239138773E+04  0.22244271389E+04  0.47000000000E+01 0. -1.
         -5    1    4    4    0  502 -0.44807692258E+02  0.99942810270E+01  0.42729355369E+03  0.42977841496E+03  0.47000000000E+01 0. -1.
          5    1    5    5  503    0 -0.38845428871E+02  0.41692529305E+02  0.29241924209E+03  0.29795693899E+03  0.47000000000E+01 0. -1.
         -5    1    5    5    0  503  0.41964402066E+02 -0.28814915594E+02  0.79929925403E+03  0.80093239284E+03  0.47000000000E+01 0. -1.
<mgrwt>
<rscale>  0 0.27609188E+03</rscale>
<asrwt>0</asrwt>
<pdfrwt beam="1">  1        2 0.57661478E+00 0.27609188E+03</pdfrwt>
<pdfrwt beam="2">  1       -2 0.78223058E-03 0.27609188E+03</pdfrwt>
<totfact> 0.20878623E+03</totfact>
</mgrwt>
</event>
<event>
 9    1  0.8122655E-001  0.2728309E+03  0.7818608E-02  0.1099670E+00
         -1   -1    0    0    0  501 -0.00000000000E+00  0.00000000000E+00  0.12585542206E+03  0.12585542206E+03  0.00000000000E+00 0.  1.
          1   -1    0    0  501    0  0.00000000000E+00 -0.00000000000E+00 -0.14786155338E+03  0.14786155338E+03  0.00000000000E+00 0.  1.
         35    2    1    2    0    0  0.00000000000E+00  0.71054273576E-14 -0.22006131317E+02  0.27371697544E+03  0.27283092351E+03 0.  0.
         25    2    3    3    0    0 -0.14678875394E+02  0.51616929293E+02 -0.41480700482E+01  0.13575103058E+03  0.12462487331E+03 0.  0.
         25    2    3    3    0    0  0.14678875394E+02 -0.51616929293E+02 -0.17858061269E+02  0.13796594485E+03  0.12584083127E+03 0.  0.
          5    1    4    4  502    0 -0.34157104777E+02 -0.24983484685E+02 -0.30419110743E+02  0.52328716898E+02  0.47000000000E+01 0.  1.
         -5    1    4    4    0  502  0.19478229383E+02  0.76600413978E+02  0.26271040695E+02  0.83422313686E+02  0.47000000000E+01 0.  1.
          5    1    5    5  503    0 -0.38237236774E+02 -0.35155512269E+01 -0.46763457854E+02  0.60690661283E+02  0.47000000000E+01 0. -1.
         -5    1    5    5    0  503  0.52916112168E+02 -0.48101378066E+02  0.28905396585E+02  0.77275283568E+02  0.47000000000E+01 0. -1.
<mgrwt>
<rscale>  0 0.27283092E+03</rscale>
<asrwt>0</asrwt>
<pdfrwt beam="1">  1        1 0.22747931E-01 0.27283092E+03</pdfrwt>
<pdfrwt beam="2">  1       -1 0.19362373E-01 0.27283092E+03</pdfrwt>
<totfact> 0.45630482E+03</totfact>
</mgrwt>
</event>
<event>
 9    1  0.8122655E-001  0.2782287E+03  0.7818608E-02  0.1096660E+00
          2   -1    0    0  501    0  0.00000000000E+00  0.00000000000E+00  0.23353325994E+02  0.23353325994E+02  0.00000000000E+00 0. -1.
         -2   -1    0    0    0  501 -0.00000000000E+00 -0.00000000000E+00 -0.82869595913E+03  0.82869595913E+03  0.00000000000E+00 0. -1.
         35    2    1    2    0    0  0.00000000000E+00  0.14210854715E-13 -0.80534263314E+03  0.85204928512E+03  0.27822873240E+03 0.  0.
         25    2    3    3    0    0  0.18987312982E+02 -0.42960500868E+02 -0.28765951881E+03  0.31731795302E+03  0.12544545371E+03 0.  0.
         25    2    3    3    0    0 -0.18987312982E+02  0.42960500868E+02 -0.51768311432E+03  0.53473133210E+03  0.12544189088E+03 0.  0.
          5    1    4    4  502    0  0.59249728923E+01 -0.74548251302E+02 -0.92066805635E+02  0.11870523904E+03  0.47000000000E+01 0. -1.
         -5    1    4    4    0  502  0.13062340090E+02  0.31587750434E+02 -0.19559271318E+03  0.19861271398E+03  0.47000000000E+01 0. -1.
          5    1    5    5  503    0 -0.44851333434E+02  0.35322018532E+02 -0.93407058217E+02  0.10957306069E+03  0.47000000000E+01 0.  1.
         -5    1    5    5    0  503  0.25864020452E+02  0.76384823359E+01 -0.42427605611E+03  0.42515827141E+03  0.47000000000E+01 0.  1.
<mgrwt>
<rscale>  0 0.27822873E+03</rscale>
<asrwt>0</asrwt>
<pdfrwt beam="1">  1        2 0.35928192E-02 0.27822873E+03</pdfrwt>
<pdfrwt beam="2">  1       -2 0.12749169E+00 0.27822873E+03</pdfrwt>
<totfact> 0.11731724E+03</totfact>
</mgrwt>
</event>
<event>
 9    1  0.8122655E-001  0.2746420E+03  0.7818608E-02  0.1098652E+00
         -1   -1    0    0    0  501 -0.00000000000E+00  0.00000000000E+00  0.14084618562E+02  0.14084618562E+02  0.00000000000E+00 0.  1.
          1   -1    0    0  501    0  0.00000000000E+00 -0.00000000000E+00 -0.13388400090E+04  0.13388400090E+04  0.00000000000E+00 0.  1.
         35    2    1    2    0    0  0.35527136788E-14  0.00000000000E+00 -0.13247553904E+04  0.13529246275E+04  0.27464195486E+03 0.  0.
         25    2    3    3    0    0  0.13022533546E+02 -0.38185678866E+02 -0.83040156632E+03  0.84093132212E+03  0.12637640098E+03 0.  0.
         25    2    3    3    0    0 -0.13022533546E+02  0.38185678866E+02 -0.49435382408E+03  0.51199330540E+03  0.12697916737E+03 0.  0.
          5    1    4    4  502    0 -0.44984964198E+01 -0.82701991376E+02 -0.58648516896E+03  0.59232322195E+03  0.47000000000E+01 0. -1.
         -5    1    4    4    0  502  0.17521029966E+02  0.44516312511E+02 -0.24391639736E+03  0.24860810017E+03  0.47000000000E+01 0. -1.
          5    1    5    5  503    0  0.21703299804E+02 -0.38289632687E+02 -0.24122954321E+03  0.24525682807E+03  0.47000000000E+01 0. -1.
         -5    1    5    5    0  503 -0.34725833350E+02  0.76475311553E+02 -0.25312428086E+03  0.26673647734E+03  0.47000000000E+01 0. -1.
<mgrwt>
<rscale>  0 0.27464195E+03</rscale>
<asrwt>0</asrwt>
<pdfrwt beam="1">  1        1 0.20597545E+00 0.27464195E+03</pdfrwt>
<pdfrwt beam="2">  1       -1 0.21668638E-02 0.27464195E+03</pdfrwt>
<totfact> 0.55964583E+03</totfact>
</mgrwt>
</event>
<event>
 9    1  0.8122655E-001  0.2782439E+03  0.7818608E-02  0.1096652E+00
         -1   -1    0    0    0  501 -0.00000000000E+00  0.00000000000E+00  0.46198942650E+02  0.46198942650E+02  0.00000000000E+00 0.  1.
          1   -1    0    0  501    0  0.00000000000E+00 -0.00000000000E+00 -0.41894706960E+03  0.41894706960E+03  0.00000000000E+00 0.  1.
         35    2    1    2    0    0 -0.71054273576E-14  0.00000000000E+00 -0.37274812695E+03  0.46514601225E+03  0.27824386169E+03 0.  0.
         25    2    3    3    0    0 -0.58774586019E+02  0.65093016184E+01 -0.16549122552E+03  0.21613448688E+03  0.12581712016E+03 0.  0.
         25    2    3    3    0    0  0.58774586019E+02 -0.65093016184E+01 -0.20725690142E+03  0.24901152537E+03  0.12471765556E+03 0.  0.
          5    1    4    4  502    0 -0.76736170302E+02 -0.37793473027E+02 -0.13278501341E+03  0.15802131573E+03  0.47000000000E+01 0.  1.
         -5    1    4    4    0  502  0.17961584283E+02  0.44302774645E+02 -0.32706212110E+02  0.58113171156E+02  0.47000000000E+01 0.  1.
          5    1    5    5  503    0  0.16095031797E+02  0.57108688902E+02 -0.11049223029E+03  0.12550328820E+03  0.47000000000E+01 0. -1.
         -5    1    5    5    0  503  0.42679554222E+02 -0.63617990521E+02 -0.96764671137E+02  0.12350823716E+03  0.47000000000E+01 0. -1.
<mgrwt>
<rscale>  0 0.27824386E+03</rscale>
<asrwt>0</asrwt>
<pdfrwt beam="1">  1        1 0.64453394E-01 0.27824386E+03</pdfrwt>
<pdfrwt beam="2">  1       -1 0.71075297E-02 0.27824386E+03</pdfrwt>
<totfact> 0.58597074E+03</totfact>
</mgrwt>
</event>
<event>
 9    1  0.8122655E-001  0.2878095E+03  0.7818608E-02  0.1091498E+00
         -1   -1    0    0    0  501 -0.00000000000E+00  0.00000000000E+00  0.16397507427E+02  0.16397507427E+02  0.00000000000E+00 0. -1.
          1   -1    0    0  501    0  0.00000000000E+00 -0.00000000000E+00 -0.12629098351E+04  0.12629098351E+04  0.00000000000E+00 0. -1.
         35    2    1    2    0    0  0.00000000000E+00  0.35527136788E-14 -0.12465123277E+04  0.12793073425E+04  0.28780947449E+03 0.  0.
         25    2    3    3    0    0 -0.39272278647E+00  0.21248664127E+02 -0.37127931599E+03  0.39496162013E+03  0.13302139279E+03 0.  0.
         25    2    3    3    0    0  0.39272278647E+00 -0.21248664127E+02 -0.87523301170E+03  0.88434572241E+03  0.12483137431E+03 0.  0.
          5    1    4    4  502    0 -0.37343457500E+02  0.58571047472E+02 -0.12481162270E+03  0.14291652312E+03  0.47000000000E+01 0. -1.
         -5    1    4    4    0  502  0.36950734713E+02 -0.37322383345E+02 -0.24646769328E+03  0.25204509701E+03  0.47000000000E+01 0. -1.
          5    1    5    5  503    0  0.52007590029E+02  0.73856929378E+01 -0.21148388451E+03  0.21796068749E+03  0.47000000000E+01 0.  1.
         -5    1    5    5    0  503 -0.51614867243E+02 -0.28634357065E+02 -0.66374912719E+03  0.66638503492E+03  0.47000000000E+01 0.  1.
<mgrwt>
<rscale>  0 0.28780947E+03</rscale>
<asrwt>0</asrwt>
<pdfrwt beam="1">  1        1 0.19429382E+00 0.28780947E+03</pdfrwt>
<pdfrwt beam="2">  1       -1 0.25226935E-02 0.28780947E+03</pdfrwt>
<totfact> 0.50486864E+03</totfact>
</mgrwt>
</event>
<event>
 9    1  0.8122655E-001  0.2722096E+03  0.7818608E-02  0.1100022E+00
          2   -1    0    0  501    0  0.00000000000E+00  0.00000000000E+00  0.42397287603E+04  0.42397287603E+04  0.00000000000E+00 0.  1.
         -2   -1    0    0    0  501 -0.00000000000E+00 -0.00000000000E+00 -0.43692678600E+01  0.43692678600E+01  0.00000000000E+00 0.  1.
         35    2    1    2    0    0 -0.71054273576E-14 -0.35527136788E-14  0.42353594924E+04  0.42440980281E+04  0.27220955610E+03 0.  0.
         25    2    3    3    0    0  0.48661189816E+02  0.89964681601E+01  0.18235442129E+04  0.18285206735E+04  0.12540139253E+03 0.  0.
         25    2    3    3    0    0 -0.48661189816E+02 -0.89964681601E+01  0.24118152795E+04  0.24155773546E+04  0.12534817830E+03 0.  0.
          5    1    4    4  502    0 -0.32138827541E+02 -0.15963560595E+02  0.24004946856E+03  0.24276238765E+03  0.47000000000E+01 0. -1.
         -5    1    4    4    0  502  0.80800017357E+02  0.24960028755E+02  0.15834947443E+04  0.15857582858E+04  0.47000000000E+01 0. -1.
          5    1    5    5  503    0 -0.68660439536E+02 -0.50095584156E+02  0.18155099066E+04  0.18175043699E+04  0.47000000000E+01 0. -1.
         -5    1    5    5    0  503  0.19999249720E+02  0.41099115996E+02  0.59630537294E+03  0.59807298478E+03  0.47000000000E+01 0. -1.
<mgrwt>
<rscale>  0 0.27220956E+03</rscale>
<asrwt>0</asrwt>
<pdfrwt beam="1">  1        2 0.65226267E+00 0.27220956E+03</pdfrwt>
<pdfrwt beam="2">  1       -2 0.67219845E-03 0.27220956E+03</pdfrwt>
<totfact> 0.10913197E+03</totfact>
</mgrwt>
</event>
<event>
 9    1  0.8122655E-001  0.2762902E+03  0.7818608E-02  0.1097733E+00
          1   -1    0    0  501    0  0.00000000000E+00  0.00000000000E+00  0.16277684604E+04  0.16277684604E+04  0.00000000000E+00 0. -1.
         -1   -1    0    0    0  501 -0.00000000000E+00 -0.00000000000E+00 -0.11724071780E+02  0.11724071780E+02  0.00000000000E+00 0. -1.
         35    2    1    2    0    0  0.00000000000E+00  0.71054273576E-14  0.16160443887E+04  0.16394925322E+04  0.27629024066E+03 0.  0.
         25    2    3    3    0    0  0.10426282716E+02 -0.53543899585E+02  0.67151388230E+03  0.68515158684E+03  0.12460395770E+03 0.  0.
         25    2    3    3    0    0 -0.10426282716E+02  0.53543899585E+02  0.94453050636E+03  0.95434094538E+03  0.12511237360E+03 0.  0.
          5    1    4    4  502    0 -0.49276197265E+02  0.43921356098E+01  0.32392768482E+03  0.32771736217E+03  0.47000000000E+01 0. -1.
         -5    1    4    4    0  502  0.59702479981E+02 -0.57936035195E+02  0.34758619747E+03  0.35743422467E+03  0.47000000000E+01 0. -1.
          5    1    5    5  503    0  0.15814959944E+02 -0.14344979821E+02  0.66787727277E+03  0.66823501322E+03  0.47000000000E+01 0. -1.
         -5    1    5    5    0  503 -0.26241242660E+02  0.67888879406E+02  0.27665323359E+03  0.28610593216E+03  0.47000000000E+01 0. -1.
<mgrwt>
<rscale>  0 0.27629024E+03</rscale>
<asrwt>0</asrwt>
<pdfrwt beam="1">  1        1 0.25042574E+00 0.27629024E+03</pdfrwt>
<pdfrwt beam="2">  1       -1 0.18037046E-02 0.27629024E+03</pdfrwt>
<totfact> 0.47013721E+03</totfact>
</mgrwt>
</event>
<event>
 9    1  0.8122655E-001  0.2758935E+03  0.7818608E-02  0.1097953E+00
          1   -1    0    0  501    0  0.00000000000E+00  0.00000000000E+00  0.41510731949E+03  0.41510731949E+03  0.00000000000E+00 0.  1.
         -1   -1    0    0    0  501 -0.00000000000E+00 -0.00000000000E+00 -0.45841898120E+02  0.45841898120E+02  0.00000000000E+00 0.  1.
         35    2    1    2    0    0  0.00000000000E+00  0.00000000000E+00  0.36926542137E+03  0.46094921761E+03  0.27589351169E+03 0.  0.
         25    2    3    3    0    0  0.82335266470E+01 -0.54462826115E+02  0.17078033684E+03  0.21864999468E+03  0.12493160661E+03 0.  0.
         25    2    3    3    0    0 -0.82335266470E+01  0.54462826115E+02  0.19848508452E+03  0.24229922293E+03  0.12758759448E+03 0.  0.
          5    1    4    4  502    0 -0.33891264693E+02  0.23501395291E+02  0.87973332968E+02  0.97274512163E+02  0.47000000000E+01 0.  1.
         -5    1    4    4    0  502  0.42124791340E+02 -0.77964221405E+02  0.82807003874E+02  0.12137548251E+03  0.47000000000E+01 0.  1.
          5    1    5    5  503    0  0.31722758568E+01  0.47399015595E+02  0.21515727645E+03  0.22038936822E+03  0.47000000000E+01 0. -1.
         -5    1    5    5    0  503 -0.11405802504E+02  0.70638105194E+01 -0.16672191927E+02  0.21909854711E+02  0.47000000000E+01 0. -1.
<mgrwt>
<rscale>  0 0.27589351E+03</rscale>
<asrwt>0</asrwt>
<pdfrwt beam="1">  1        1 0.63862662E-01 0.27589351E+03</pdfrwt>
<pdfrwt beam="2">  1       -1 0.70526000E-02 0.27589351E+03</pdfrwt>
<totfact> 0.59984270E+03</totfact>
</mgrwt>
</event>
<event>
 9    1  0.8122655E-001  0.2722135E+03  0.7818608E-02  0.1100019E+00
          1   -1    0    0  501    0  0.00000000000E+00  0.00000000000E+00  0.14261152170E+04  0.14261152170E+04  0.00000000000E+00 0.  1.
         -1   -1    0    0    0  501 -0.00000000000E+00 -0.00000000000E+00 -0.12989864010E+02  0.12989864010E+02  0.00000000000E+00 0.  1.
         35    2    1    2    0    0  0.00000000000E+00 -0.35527136788E-14  0.14131253530E+04  0.14391050810E+04  0.27221346574E+03 0.  0.
         25    2    3    3    0    0 -0.15526924006E+02 -0.20989329063E+02  0.47497424055E+03  0.49180066521E+03  0.12484281239E+03 0.  0.
         25    2    3    3    0    0  0.15526924006E+02  0.20989329063E+02  0.93815111245E+03  0.94730441582E+03  0.12874979274E+03 0.  0.
          5    1    4    4  502    0 -0.55629155859E+02 -0.47028813665E+02  0.20556084778E+03  0.21813680212E+03  0.47000000000E+01 0. -1.
         -5    1    4    4    0  502  0.40102231852E+02  0.26039484603E+02  0.26941339277E+03  0.27366386309E+03  0.47000000000E+01 0. -1.
          5    1    5    5  503    0 -0.44225786375E+02  0.13922619974E+02  0.15558993551E+03  0.16241944945E+03  0.47000000000E+01 0.  1.
         -5    1    5    5    0  503  0.59752710381E+02  0.70667090886E+01  0.78256117694E+03  0.78488496637E+03  0.47000000000E+01 0.  1.
<mgrwt>
<rscale>  0 0.27221347E+03</rscale>
<asrwt>0</asrwt>
<pdfrwt beam="1">  1        1 0.21940222E+00 0.27221347E+03</pdfrwt>
<pdfrwt beam="2">  1       -1 0.19984417E-02 0.27221347E+03</pdfrwt>
<totfact> 0.55017788E+03</totfact>
</mgrwt>
</event>
<event>
 9    1  0.8122655E-001  0.2766489E+03  0.7818608E-02  0.1097533E+00
          2   -1    0    0  501    0  0.00000000000E+00  0.00000000000E+00  0.31862555840E+02  0.31862555840E+02  0.00000000000E+00 0.  1.
         -2   -1    0    0    0  501 -0.00000000000E+00 -0.00000000000E+00 -0.60050571818E+03  0.60050571818E+03  0.00000000000E+00 0.  1.
         35    2    1    2    0    0  0.00000000000E+00 -0.71054273576E-14 -0.56864316234E+03  0.63236827402E+03  0.27664885308E+03 0.  0.
         25    2    3    3    0    0 -0.38522299961E+02 -0.24524005682E+02 -0.37369252550E+03  0.39638014988E+03  0.12403920814E+03 0.  0.
         25    2    3    3    0    0  0.38522299961E+02  0.24524005682E+02 -0.19495063684E+03  0.23598812414E+03  0.12489695545E+03 0.  0.
          5    1    4    4  502    0 -0.55708679885E+02 -0.39494598397E+02 -0.36527434350E+03  0.37163250172E+03  0.47000000000E+01 0.  1.
         -5    1    4    4    0  502  0.17186379925E+02  0.14970592715E+02 -0.84181820001E+01  0.24747648158E+02  0.47000000000E+01 0.  1.
          5    1    5    5  503    0  0.62887623531E+02  0.60357033366E+02 -0.10925355281E+03  0.13984367512E+03  0.47000000000E+01 0. -1.
         -5    1    5    5    0  503 -0.24365323570E+02 -0.35833027684E+02 -0.85697084030E+02  0.96144449017E+02  0.47000000000E+01 0. -1.
<mgrwt>
<rscale>  0 0.27664885E+03</rscale>
<asrwt>0</asrwt>
<pdfrwt beam="1">  1        2 0.49019321E-02 0.27664885E+03</pdfrwt>
<pdfrwt beam="2">  1       -2 0.92385488E-01 0.27664885E+03</pdfrwt>
<totfact> 0.16607041E+03</totfact>
</mgrwt>
</event>
<event>
 9    1  0.8122655E-001  0.2709739E+03  0.7818608E-02  0.1100724E+00
          2   -1    0    0  501    0  0.00000000000E+00  0.00000000000E+00  0.23234684431E+03  0.23234684431E+03  0.00000000000E+00 0.  1.
         -2   -1    0    0    0  501 -0.00000000000E+00 -0.00000000000E+00 -0.79005627472E+02  0.79005627472E+02  0.00000000000E+00 0.  1.
         35    2    1    2    0    0  0.35527136788E-14 -0.35527136788E-14  0.15334121683E+03  0.31135247178E+03  0.27097386018E+03 0.  0.
         25    2    3    3    0    0 -0.81271167091E+01 -0.29555885812E+02  0.12546476432E+03  0.17942033541E+03  0.12454175709E+03 0.  0.
         25    2    3    3    0    0  0.81271167091E+01  0.29555885812E+02  0.27876452518E+02  0.13193213637E+03  0.12525730155E+03 0.  0.
          5    1    4    4  502    0  0.21530871902E+02 -0.50555320019E+02  0.72106122869E+01  0.55619257066E+02  0.47000000000E+01 0.  1.
         -5    1    4    4    0  502 -0.29657988611E+02  0.20999434207E+02  0.11825415203E+03  0.12380107834E+03  0.47000000000E+01 0.  1.
          5    1    5    5  503    0 -0.25028720044E+02 -0.27164205973E+02 -0.27167897248E+02  0.46092467433E+02  0.47000000000E+01 0.  1.
         -5    1    5    5    0  503  0.33155836753E+02  0.56720091784E+02  0.55044349766E+02  0.85839668942E+02  0.47000000000E+01 0.  1.
<mgrwt>
<rscale>  0 0.27097386E+03</rscale>
<asrwt>0</asrwt>
<pdfrwt beam="1">  1        2 0.35745668E-01 0.27097386E+03</pdfrwt>
<pdfrwt beam="2">  1       -2 0.12154712E-01 0.27097386E+03</pdfrwt>
<totfact> 0.69372429E+03</totfact>
</mgrwt>
</event>
<event>
 9    1  0.8122655E-001  0.2672741E+03  0.7818608E-02  0.1102850E+00
          2   -1    0    0  501    0  0.00000000000E+00  0.00000000000E+00  0.43172109512E+03  0.43172109512E+03  0.00000000000E+00 0.  1.
         -2   -1    0    0    0  501 -0.00000000000E+00 -0.00000000000E+00 -0.41366666153E+02  0.41366666153E+02  0.00000000000E+00 0.  1.
         35    2    1    2    0    0  0.00000000000E+00 -0.88817841970E-15  0.39035442897E+03  0.47308776128E+03  0.26727410958E+03 0.  0.
         25    2    3    3    0    0 -0.39975429572E+02 -0.39772417432E+01  0.15017681564E+03  0.19939018553E+03  0.12485798616E+03 0.  0.
         25    2    3    3    0    0  0.39975429572E+02  0.39772417432E+01  0.24017761333E+03  0.27369757575E+03  0.12494488226E+03 0.  0.
          5    1    4    4  502    0  0.89860655849E+01  0.71642510256E+01  0.14840804824E+03  0.14892654112E+03  0.47000000000E+01 0.  1.
         -5    1    4    4    0  502 -0.48961495157E+02 -0.11141492769E+02  0.17687674007E+01  0.50463644411E+02  0.47000000000E+01 0.  1.
          5    1    5    5  503    0  0.16785834235E+02  0.64151976248E+02  0.12727151061E+03  0.14358749145E+03  0.47000000000E+01 0. -1.
         -5    1    5    5    0  503  0.23189595337E+02 -0.60174734504E+02  0.11290610272E+03  0.13011008430E+03  0.47000000000E+01 0. -1.
<mgrwt>
<rscale>  0 0.26727411E+03</rscale>
<asrwt>0</asrwt>
<pdfrwt beam="1">  1        2 0.66418627E-01 0.26727411E+03</pdfrwt>
<pdfrwt beam="2">  1       -2 0.63641028E-02 0.26727411E+03</pdfrwt>
<totfact> 0.98347013E+03</totfact>
</mgrwt>
</event>
<event>
 9    1  0.8122655E-001  0.2856795E+03  0.7818608E-02  0.1092627E+00
         -2   -1    0    0    0  501 -0.00000000000E+00  0.00000000000E+00  0.76722092352E+02  0.76722092352E+02  0.00000000000E+00 0. -1.
          2   -1    0    0  501    0  0.00000000000E+00 -0.00000000000E+00 -0.26593635133E+03  0.26593635133E+03  0.00000000000E+00 0. -1.
         35    2    1    2    0    0 -0.14210854715E-13 -0.35527136788E-14 -0.18921425898E+03  0.34265844368E+03  0.28567949388E+03 0.  0.
         25    2    3    3    0    0  0.40430060837E+02  0.78639497364E+01 -0.27455659844E+02  0.13362230254E+03  0.12411557096E+03 0.  0.
         25    2    3    3    0    0 -0.40430060837E+02 -0.78639497364E+01 -0.16175859913E+03  0.20903614114E+03  0.12583255693E+03 0.  0.
          5    1    4    4  502    0  0.75101066979E+02  0.32369348329E+02 -0.36951113339E+02  0.89863339297E+02  0.47000000000E+01 0.  1.
         -5    1    4    4    0  502 -0.34671006142E+02 -0.24505398592E+02  0.94954534951E+01  0.43758963244E+02  0.47000000000E+01 0.  1.
          5    1    5    5  503    0 -0.68861714820E+02 -0.16774381837E+02 -0.35850792066E+02  0.79565601523E+02  0.47000000000E+01 0.  1.
         -5    1    5    5    0  503  0.28431653983E+02  0.89104321003E+01 -0.12590780707E+03  0.12947053962E+03  0.47000000000E+01 0.  1.
<mgrwt>
<rscale>  0 0.28567949E+03</rscale>
<asrwt>0</asrwt>
<pdfrwt beam="1">  1        2 0.40913285E-01 0.28567949E+03</pdfrwt>
<pdfrwt beam="2">  1       -2 0.11803399E-01 0.28567949E+03</pdfrwt>
<totfact> 0.62976252E+03</totfact>
</mgrwt>
</event>
<event>
 9    1  0.8122655E-001  0.2759364E+03  0.7818608E-02  0.1097929E+00
         -1   -1    0    0    0  501 -0.00000000000E+00  0.00000000000E+00  0.17640944082E+02  0.17640944082E+02  0.00000000000E+00 0. -1.
          1   -1    0    0  501    0  0.00000000000E+00 -0.00000000000E+00 -0.10790365687E+04  0.10790365687E+04  0.00000000000E+00 0. -1.
         35    2    1    2    0    0  0.35527136788E-14  0.00000000000E+00 -0.10613956246E+04  0.10966775128E+04  0.27593639680E+03 0.  0.
         25    2    3    3    0    0 -0.13677459100E+02 -0.33453459933E+02 -0.34939436933E+03  0.37296052516E+03  0.12536714537E+03 0.  0.
         25    2    3    3    0    0  0.13677459100E+02  0.33453459933E+02 -0.71200125526E+03  0.72371698760E+03  0.12455634777E+03 0.  0.
          5    1    4    4  502    0 -0.22362927019E+02 -0.20662777139E+02 -0.35463639294E+03  0.35597206641E+03  0.47000000000E+01 0. -1.
         -5    1    4    4    0  502  0.86854679188E+01 -0.12790682793E+02  0.52420236103E+01  0.16988458754E+02  0.47000000000E+01 0. -1.
          5    1    5    5  503    0 -0.26144221083E+02 -0.35423956682E+02 -0.36527332666E+03  0.36794710241E+03  0.47000000000E+01 0. -1.
         -5    1    5    5    0  503  0.39821680183E+02  0.68877416614E+02 -0.34672792860E+03  0.35576988518E+03  0.47000000000E+01 0. -1.
<mgrwt>
<rscale>  0 0.27593640E+03</rscale>
<asrwt>0</asrwt>
<pdfrwt beam="1">  1        1 0.16600568E+00 0.27593640E+03</pdfrwt>
<pdfrwt beam="2">  1       -1 0.27139905E-02 0.27593640E+03</pdfrwt>
<totfact> 0.61112541E+03</totfact>
</mgrwt>
</event>
<event>
 9    1  0.8122655E-001  0.2773336E+03  0.7818608E-02  0.1097154E+00
         -2   -1    0    0    0  501 -0.00000000000E+00  0.00000000000E+00  0.46492871714E+03  0.46492871714E+03  0.00000000000E+00 0. -1.
          2   -1    0    0  501    0  0.00000000000E+00 -0.00000000000E+00 -0.41357912155E+02  0.41357912155E+02  0.00000000000E+00 0. -1.
         35    2    1    2    0    0 -0.71054273576E-14  0.00000000000E+00  0.42357080499E+03  0.50628662930E+03  0.27733359726E+03 0.  0.
         25    2    3    3    0    0 -0.36205928973E+02  0.35479541722E+02  0.15238977392E+03  0.20392911798E+03  0.12567726442E+03 0.  0.
         25    2    3    3    0    0  0.36205928973E+02 -0.35479541722E+02  0.27118103107E+03  0.30235751132E+03  0.12373861912E+03 0.  0.
          5    1    4    4  502    0 -0.79153153364E+02  0.27982369443E+02  0.12966169069E+03  0.15453957008E+03  0.47000000000E+01 0. -1.
         -5    1    4    4    0  502  0.42947224391E+02  0.74971722797E+01  0.22728083230E+02  0.49389547907E+02  0.47000000000E+01 0. -1.
          5    1    5    5  503    0  0.70346677037E+02 -0.59050411650E+02  0.18713638892E+03  0.20851312703E+03  0.47000000000E+01 0.  1.
         -5    1    5    5    0  503 -0.34140748064E+02  0.23570869928E+02  0.84044642151E+02  0.93844384285E+02  0.47000000000E+01 0.  1.
<mgrwt>
<rscale>  0 0.27733360E+03</rscale>
<asrwt>0</asrwt>
<pdfrwt beam="1">  1        2 0.63627560E-02 0.27733360E+03</pdfrwt>
<pdfrwt beam="2">  1       -2 0.71527492E-01 0.27733360E+03</pdfrwt>
<totfact> 0.20786695E+03</totfact>
</mgrwt>
</event>
<event>
 9    1  0.8122655E-001  0.2730702E+03  0.7818608E-02  0.1099535E+00
         -2   -1    0    0    0  501 -0.00000000000E+00  0.00000000000E+00  0.39346048420E+02  0.39346048420E+02  0.00000000000E+00 0.  1.
          2   -1    0    0  501    0  0.00000000000E+00 -0.00000000000E+00 -0.47379166347E+03  0.47379166347E+03  0.00000000000E+00 0.  1.
         35    2    1    2    0    0  0.35527136788E-14  0.35527136788E-14 -0.43444561505E+03  0.51313771189E+03  0.27307017217E+03 0.  0.
         25    2    3    3    0    0  0.10267398703E+02 -0.33693597068E+01 -0.11561693923E+03  0.17061875171E+03  0.12500683876E+03 0.  0.
         25    2    3    3    0    0 -0.10267398703E+02  0.33693597068E+01 -0.31882867582E+03  0.34251896018E+03  0.12470261224E+03 0.  0.
          5    1    4    4  502    0 -0.39091528752E+02  0.27572976002E+02 -0.98687362458E+02  0.10977113525E+03  0.47000000000E+01 0.  1.
         -5    1    4    4    0  502  0.49358927455E+02 -0.30942335709E+02 -0.16929576776E+02  0.60847616456E+02  0.47000000000E+01 0.  1.
          5    1    5    5  503    0 -0.32246984518E+02 -0.60697029091E+01 -0.31627522124E+03  0.31800757046E+03  0.47000000000E+01 0. -1.
         -5    1    5    5    0  503  0.21979585815E+02  0.94390626159E+01 -0.25534545804E+01  0.24511389719E+02  0.47000000000E+01 0. -1.
<mgrwt>
<rscale>  0 0.27307017E+03</rscale>
<asrwt>0</asrwt>
<pdfrwt beam="1">  1        2 0.72891025E-01 0.27307017E+03</pdfrwt>
<pdfrwt beam="2">  1       -2 0.60532382E-02 0.27307017E+03</pdfrwt>
<totfact> 0.95957264E+03</totfact>
</mgrwt>
</event>
<event>
 9    1  0.8122655E-001  0.2696893E+03  0.7818608E-02  0.1101458E+00
         -1   -1    0    0    0  501 -0.00000000000E+00  0.00000000000E+00  0.62903419810E+03  0.62903419810E+03  0.00000000000E+00 0. -1.
          1   -1    0    0  501    0  0.00000000000E+00 -0.00000000000E+00 -0.28906347424E+02  0.28906347424E+02  0.00000000000E+00 0. -1.
         35    2    1    2    0    0  0.00000000000E+00  0.00000000000E+00  0.60012785068E+03  0.65794054552E+03  0.26968931066E+03 0.  0.
         25    2    3    3    0    0 -0.60787253111E+01 -0.47959571590E+02  0.33752491199E+03  0.36372701919E+03  0.12663809407E+03 0.  0.
         25    2    3    3    0    0  0.60787253111E+01  0.47959571590E+02  0.26260293869E+03  0.29421352633E+03  0.12354846928E+03 0.  0.
          5    1    4    4  502    0 -0.46915386405E+02 -0.27014373550E+02  0.54483900123E+02  0.76950732501E+02  0.47000000000E+01 0.  1.
         -5    1    4    4    0  502  0.40836661094E+02 -0.20945198041E+02  0.28304101187E+03  0.28677628669E+03  0.47000000000E+01 0.  1.
          5    1    5    5  503    0  0.63884761813E+02  0.28384896441E+02  0.11874883102E+03  0.13787798957E+03  0.47000000000E+01 0. -1.
         -5    1    5    5    0  503 -0.57806036502E+02  0.19574675149E+02  0.14385410766E+03  0.15633553676E+03  0.47000000000E+01 0. -1.
<mgrwt>
<rscale>  0 0.26968931E+03</rscale>
<asrwt>0</asrwt>
<pdfrwt beam="1">  1        1 0.44471308E-02 0.26968931E+03</pdfrwt>
<pdfrwt beam="2">  1       -1 0.96774482E-01 0.26968931E+03</pdfrwt>
<totfact> 0.21214122E+03</totfact>
</mgrwt>
</event>
<event>
 9    1  0.8122655E-001  0.2804073E+03  0.7818608E-02  0.1095467E+00
          2   -1    0    0  501    0  0.00000000000E+00  0.00000000000E+00  0.56147346484E+03  0.56147346484E+03  0.00000000000E+00 0. -1.
         -2   -1    0    0    0  501 -0.00000000000E+00 -0.00000000000E+00 -0.35009784161E+02  0.35009784161E+02  0.00000000000E+00 0. -1.
         35    2    1    2    0    0  0.17763568394E-14  0.00000000000E+00  0.52646368068E+03  0.59648324900E+03  0.28040730958E+03 0.  0.
         25    2    3    3    0    0  0.13977957043E+01 -0.64578745086E+02  0.24794032072E+03  0.28460061715E+03  0.12389810529E+03 0.  0.
         25    2    3    3    0    0 -0.13977957043E+01  0.64578745086E+02  0.27852335996E+03  0.31188263185E+03  0.12459191731E+03 0.  0.
          5    1    4    4  502    0 -0.19452749322E+02  0.29142313119E+02  0.11659593386E+03  0.12183753799E+03  0.47000000000E+01 0. -1.
         -5    1    4    4    0  502  0.20850545026E+02 -0.93721058205E+02  0.13134438686E+03  0.16276307916E+03  0.47000000000E+01 0. -1.
          5    1    5    5  503    0 -0.17369303192E+02  0.89696178540E+02  0.12202763115E+03  0.15251206478E+03  0.47000000000E+01 0.  1.
         -5    1    5    5    0  503  0.15971507488E+02 -0.25117433454E+02  0.15649572881E+03  0.15937056708E+03  0.47000000000E+01 0.  1.
<mgrwt>
<rscale>  0 0.28040731E+03</rscale>
<asrwt>0</asrwt>
<pdfrwt beam="1">  1        2 0.86380527E-01 0.28040731E+03</pdfrwt>
<pdfrwt beam="2">  1       -2 0.53861210E-02 0.28040731E+03</pdfrwt>
<totfact> 0.94865758E+03</totfact>
</mgrwt>
</event>
<event>
 9    1  0.8122655E-001  0.2742868E+03  0.7818608E-02  0.1098851E+00
         -2   -1    0    0    0  501 -0.00000000000E+00  0.00000000000E+00  0.21693758582E+02  0.21693758582E+02  0.00000000000E+00 0.  1.
          2   -1    0    0  501    0  0.00000000000E+00 -0.00000000000E+00 -0.86699213684E+03  0.86699213684E+03  0.00000000000E+00 0.  1.
         35    2    1    2    0    0  0.35527136788E-14  0.00000000000E+00 -0.84529837826E+03  0.88868589542E+03  0.27428684335E+03 0.  0.
         25    2    3    3    0    0 -0.29575722835E+02  0.31596675074E+02 -0.53871936398E+03  0.55490614220E+03  0.12581414972E+03 0.  0.
         25    2    3    3    0    0  0.29575722835E+02 -0.31596675074E+02 -0.30657901428E+03  0.33377975322E+03  0.12468022460E+03 0.  0.
          5    1    4    4  502    0  0.23140109310E+02 -0.74357630398E+01 -0.19431994606E+02  0.31471378190E+02  0.47000000000E+01 0. -1.
         -5    1    4    4    0  502 -0.52715832145E+02  0.39032438114E+02 -0.51928736938E+03  0.52343476401E+03  0.47000000000E+01 0. -1.
          5    1    5    5  503    0  0.32575975882E+02 -0.50875337654E+02 -0.56346161667E+02  0.82743423429E+02  0.47000000000E+01 0.  1.
         -5    1    5    5    0  503 -0.30002530468E+01  0.19278662580E+02 -0.25023285261E+03  0.25103632979E+03  0.47000000000E+01 0.  1.
<mgrwt>
<rscale>  0 0.27428684E+03</rscale>
<asrwt>0</asrwt>
<pdfrwt beam="1">  1        2 0.13338341E+00 0.27428684E+03</pdfrwt>
<pdfrwt beam="2">  1       -2 0.33375013E-02 0.27428684E+03</pdfrwt>
<totfact> 0.11493928E+04</totfact>
</mgrwt>
</event>
<event>
 9    1  0.8122655E-001  0.2737099E+03  0.7818608E-02  0.1099175E+00
         -3   -1    0    0    0  501 -0.00000000000E+00  0.00000000000E+00  0.84328280424E+03  0.84328280424E+03  0.00000000000E+00 0.  1.
          3   -1    0    0  501    0  0.00000000000E+00 -0.00000000000E+00 -0.22209954985E+02  0.22209954985E+02  0.00000000000E+00 0.  1.
         35    2    1    2    0    0  0.00000000000E+00 -0.71054273576E-14  0.82107284925E+03  0.86549275922E+03  0.27370986918E+03 0.  0.
         25    2    3    3    0    0 -0.18891730239E-01 -0.56164666169E+02  0.42488768035E+03  0.44623771268E+03  0.12427423392E+03 0.  0.
         25    2    3    3    0    0  0.18891730239E-01  0.56164666169E+02  0.39618516890E+03  0.41925504654E+03  0.12513047556E+03 0.  0.
          5    1    4    4  502    0  0.56472820653E+02 -0.72790976064E+01  0.13005830581E+03  0.14205427711E+03  0.47000000000E+01 0. -1.
         -5    1    4    4    0  502 -0.56491712383E+02 -0.48885568563E+02  0.29482937454E+03  0.30418343557E+03  0.47000000000E+01 0. -1.
          5    1    5    5  503    0 -0.36677320047E+02  0.33579074708E+02  0.35806467379E+03  0.36153171463E+03  0.47000000000E+01 0.  1.
         -5    1    5    5    0  503  0.36696211777E+02  0.22585591461E+02  0.38120495110E+02  0.57723331919E+02  0.47000000000E+01 0.  1.
<mgrwt>
<rscale>  0 0.27370987E+03</rscale>
<asrwt>0</asrwt>
<pdfrwt beam="1">  1        3 0.34169168E-02 0.27370987E+03</pdfrwt>
<pdfrwt beam="2">  1       -3 0.12973579E+00 0.27370987E+03</pdfrwt>
<totfact> 0.51632080E+02</totfact>
</mgrwt>
</event>
<event>
 9    1  0.8122655E-001  0.2760233E+03  0.7818608E-02  0.1097881E+00
         -2   -1    0    0    0  501 -0.00000000000E+00  0.00000000000E+00  0.62310119439E+01  0.62310119439E+01  0.00000000000E+00 0.  1.
          2   -1    0    0  501    0  0.00000000000E+00 -0.00000000000E+00 -0.30568410840E+04  0.30568410840E+04  0.00000000000E+00 0.  1.
         35    2    1    2    0    0  0.00000000000E+00  0.00000000000E+00 -0.30506100721E+04  0.30630720960E+04  0.27602328384E+03 0.  0.
         25    2    3    3    0    0  0.28436871698E+02 -0.24830263570E+01 -0.20863201068E+04  0.20902362775E+04  0.12466469709E+03 0.  0.
         25    2    3    3    0    0 -0.28436871698E+02  0.24830263570E+01 -0.96428996533E+03  0.97283581851E+03  0.12545744872E+03 0.  0.
          5    1    4    4  502    0 -0.21260645756E+01  0.56355225079E+02 -0.12493242666E+04  0.12506053113E+04  0.47000000000E+01 0. -1.
         -5    1    4    4    0  502  0.30562936274E+02 -0.58838251436E+02 -0.83699584016E+03  0.83963096617E+03  0.47000000000E+01 0. -1.
          5    1    5    5  503    0  0.43333902102E+01  0.54138236387E+02 -0.67024181637E+03  0.67245513555E+03  0.47000000000E+01 0.  1.
         -5    1    5    5    0  503 -0.32770261909E+02 -0.51655210030E+02 -0.29404814896E+03  0.30038068296E+03  0.47000000000E+01 0.  1.
<mgrwt>
<rscale>  0 0.27602328E+03</rscale>
<asrwt>0</asrwt>
<pdfrwt beam="1">  1        2 0.47028372E+00 0.27602328E+03</pdfrwt>
<pdfrwt beam="2">  1       -2 0.95861626E-03 0.27602328E+03</pdfrwt>
<totfact> 0.43688385E+03</totfact>
</mgrwt>
</event>
<event>
 9    1  0.8122655E-001  0.2712990E+03  0.7818608E-02  0.1100538E+00
          2   -1    0    0  501    0  0.00000000000E+00  0.00000000000E+00  0.82738329730E+03  0.82738329730E+03  0.00000000000E+00 0.  1.
         -2   -1    0    0    0  501 -0.00000000000E+00 -0.00000000000E+00 -0.22239732634E+02  0.22239732634E+02  0.00000000000E+00 0.  1.
         35    2    1    2    0    0  0.14210854715E-13 -0.17763568394E-14  0.80514356467E+03  0.84962302994E+03  0.27129897396E+03 0.  0.
         25    2    3    3    0    0  0.50742699661E+02  0.97592413216E+01  0.36319125722E+03  0.38750294113E+03  0.12482217632E+03 0.  0.
         25    2    3    3    0    0 -0.50742699661E+02 -0.97592413216E+01  0.44195230745E+03  0.46212008881E+03  0.12475203430E+03 0.  0.
          5    1    4    4  502    0  0.85211475080E+02 -0.10616056536E+02  0.30367596476E+03  0.31561824680E+03  0.47000000000E+01 0. -1.
         -5    1    4    4    0  502 -0.34468775419E+02  0.20375297857E+02  0.59515292464E+02  0.71884694329E+02  0.47000000000E+01 0. -1.
          5    1    5    5  503    0 -0.85098931598E+02  0.11479270424E+02  0.36599813895E+03  0.37596586218E+03  0.47000000000E+01 0. -1.
         -5    1    5    5    0  503  0.34356231937E+02 -0.21238511746E+02  0.75954168495E+02  0.86154226628E+02  0.47000000000E+01 0. -1.
<mgrwt>
<rscale>  0 0.27129897E+03</rscale>
<asrwt>0</asrwt>
<pdfrwt beam="1">  1        2 0.12728971E+00 0.27129897E+03</pdfrwt>
<pdfrwt beam="2">  1       -2 0.34214980E-02 0.27129897E+03</pdfrwt>
<totfact> 0.11766027E+04</totfact>
</mgrwt>
</event>
<event>
 9    1  0.8122655E-001  0.2746058E+03  0.7818608E-02  0.1098672E+00
          1   -1    0    0  501    0  0.00000000000E+00  0.00000000000E+00  0.16326787143E+03  0.16326787143E+03  0.00000000000E+00 0.  1.
         -1   -1    0    0    0  501 -0.00000000000E+00 -0.00000000000E+00 -0.11546720184E+03  0.11546720184E+03  0.00000000000E+00 0.  1.
         35    2    1    2    0    0  0.00000000000E+00  0.00000000000E+00  0.47800669590E+02  0.27873507327E+03  0.27460578482E+03 0.  0.
         25    2    3    3    0    0 -0.53820386661E+02 -0.16006488576E+02  0.30594942096E+02  0.14080114529E+03  0.12544349459E+03 0.  0.
         25    2    3    3    0    0  0.53820386661E+02  0.16006488576E+02  0.17205727494E+02  0.13793392798E+03  0.12480741057E+03 0.  0.
          5    1    4    4  502    0 -0.62800598978E+02 -0.38988695552E+01  0.72445667826E+02  0.96070709389E+02  0.47000000000E+01 0. -1.
         -5    1    4    4    0  502  0.89802123164E+01 -0.12107619020E+02 -0.41850725730E+02  0.44730435899E+02  0.47000000000E+01 0. -1.
          5    1    5    5  503    0  0.31964436245E+02 -0.39849736911E+02  0.48080503714E+02  0.70310394351E+02  0.47000000000E+01 0.  1.
         -5    1    5    5    0  503  0.21855950417E+02  0.55856225487E+02 -0.30874776220E+02  0.67623533632E+02  0.47000000000E+01 0.  1.
<mgrwt>
<rscale>  0 0.27460578E+03</rscale>
<asrwt>0</asrwt>
<pdfrwt beam="1">  1        1 0.25118134E-01 0.27460578E+03</pdfrwt>
<pdfrwt beam="2">  1       -1 0.17764185E-01 0.27460578E+03</pdfrwt>
<totfact> 0.46219961E+03</totfact>
</mgrwt>
</event>
<event>
 9    1  0.8122655E-001  0.2624820E+03  0.7818608E-02  0.1105661E+00
         -2   -1    0    0    0  501 -0.00000000000E+00  0.00000000000E+00  0.11522213830E+02  0.11522213830E+02  0.00000000000E+00 0. -1.
          2   -1    0    0  501    0  0.00000000000E+00 -0.00000000000E+00 -0.14948691336E+04  0.14948691336E+04  0.00000000000E+00 0. -1.
         35    2    1    2    0    0  0.00000000000E+00 -0.35527136788E-14 -0.14833469198E+04  0.15063913475E+04  0.26248201314E+03 0.  0.
         25    2    3    3    0    0 -0.25612550790E+02  0.11174098743E+02 -0.58045376022E+03  0.59447357248E+03  0.12526530799E+03 0.  0.
         25    2    3    3    0    0  0.25612550790E+02 -0.11174098743E+02 -0.90289315958E+03  0.91191777498E+03  0.12488838001E+03 0.  0.
          5    1    4    4  502    0 -0.48306230128E+02  0.13350906359E+02 -0.56333435350E+03  0.56557883837E+03  0.47000000000E+01 0. -1.
         -5    1    4    4    0  502  0.22693679338E+02 -0.21768076156E+01 -0.17119406713E+02  0.28894734114E+02  0.47000000000E+01 0. -1.
          5    1    5    5  503    0  0.12963712084E+02 -0.68082698049E+02 -0.48121942356E+03  0.48620729654E+03  0.47000000000E+01 0.  1.
         -5    1    5    5    0  503  0.12648838706E+02  0.56908599306E+02 -0.42167373603E+03  0.42571047844E+03  0.47000000000E+01 0.  1.
<mgrwt>
<rscale>  0 0.26248201E+03</rscale>
<asrwt>0</asrwt>
<pdfrwt beam="1">  1        2 0.22997968E+00 0.26248201E+03</pdfrwt>
<pdfrwt beam="2">  1       -2 0.17726497E-02 0.26248201E+03</pdfrwt>
<totfact> 0.12659784E+04</totfact>
</mgrwt>
</event>
<event>
 9    1  0.8122655E-001  0.2749384E+03  0.7818608E-02  0.1098486E+00
         -1   -1    0    0    0  501 -0.00000000000E+00  0.00000000000E+00  0.68927021372E+02  0.68927021372E+02  0.00000000000E+00 0.  1.
          1   -1    0    0  501    0  0.00000000000E+00 -0.00000000000E+00 -0.27417086042E+03  0.27417086042E+03  0.00000000000E+00 0.  1.
         35    2    1    2    0    0 -0.35527136788E-14  0.71054273576E-14 -0.20524383905E+03  0.34309788179E+03  0.27493839860E+03 0.  0.
         25    2    3    3    0    0 -0.29926040325E+02 -0.47669855061E+02 -0.97663233336E+02  0.16794976567E+03  0.12450314724E+03 0.  0.
         25    2    3    3    0    0  0.29926040325E+02  0.47669855061E+02 -0.10758060571E+03  0.17514811612E+03  0.12623506994E+03 0.  0.
          5    1    4    4  502    0  0.46237240418E+01 -0.67057245681E+02 -0.10748890900E+03  0.12686216371E+03  0.47000000000E+01 0. -1.
         -5    1    4    4    0  502 -0.34549764367E+02  0.19387390620E+02  0.98256756665E+01  0.41087601964E+02  0.47000000000E+01 0. -1.
          5    1    5    5  503    0 -0.74406409068E+01  0.63175031563E+02 -0.11707938273E+03  0.13332711506E+03  0.47000000000E+01 0. -1.
         -5    1    5    5    0  503  0.37366681232E+02 -0.15505176502E+02  0.94987770170E+01  0.41821001058E+02  0.47000000000E+01 0. -1.
<mgrwt>
<rscale>  0 0.27493840E+03</rscale>
<asrwt>0</asrwt>
<pdfrwt beam="1">  1        1 0.42180132E-01 0.27493840E+03</pdfrwt>
<pdfrwt beam="2">  1       -1 0.10604157E-01 0.27493840E+03</pdfrwt>
<totfact> 0.54269874E+03</totfact>
</mgrwt>
</event>
<event>
 9    1  0.8122655E-001  0.2731278E+03  0.7818608E-02  0.1099503E+00
          2   -1    0    0  501    0  0.00000000000E+00  0.00000000000E+00  0.46779860607E+03  0.46779860607E+03  0.00000000000E+00 0. -1.
         -2   -1    0    0    0  501 -0.00000000000E+00 -0.00000000000E+00 -0.39866947755E+02  0.39866947755E+02  0.00000000000E+00 0. -1.
         35    2    1    2    0    0  0.71054273576E-14  0.35527136788E-14  0.42793165831E+03  0.50766555382E+03  0.27312782786E+03 0.  0.
         25    2    3    3    0    0 -0.74188320774E+01 -0.24589834083E+02  0.31328234791E+03  0.33627425048E+03  0.11947737449E+03 0.  0.
         25    2    3    3    0    0  0.74188320774E+01  0.24589834083E+02  0.11464931040E+03  0.17139130334E+03  0.12478307368E+03 0.  0.
          5    1    4    4  502    0  0.52167148680E+02 -0.42350446096E+01  0.89823616457E+02  0.10406593620E+03  0.47000000000E+01 0. -1.
         -5    1    4    4    0  502 -0.59585980757E+02 -0.20354789473E+02  0.22345873145E+03  0.23220831428E+03  0.47000000000E+01 0. -1.
          5    1    5    5  503    0  0.46320858261E+02 -0.31470961859E+02  0.34157845922E+02  0.65763909467E+02  0.47000000000E+01 0.  1.
         -5    1    5    5    0  503 -0.38902026184E+02  0.56060795941E+02  0.80491464481E+02  0.10562739388E+03  0.47000000000E+01 0.  1.
<mgrwt>
<rscale>  0 0.27312783E+03</rscale>
<asrwt>0</asrwt>
<pdfrwt beam="1">  1        2 0.71969013E-01 0.27312783E+03</pdfrwt>
<pdfrwt beam="2">  1       -2 0.61333769E-02 0.27312783E+03</pdfrwt>
<totfact> 0.95375637E+03</totfact>
</mgrwt>
</event>
<event>
 9    1  0.8122655E-001  0.2770806E+03  0.7818608E-02  0.1097294E+00
          2   -1    0    0  501    0  0.00000000000E+00  0.00000000000E+00  0.27221814715E+03  0.27221814715E+03  0.00000000000E+00 0.  1.
         -2   -1    0    0    0  501 -0.00000000000E+00 -0.00000000000E+00 -0.70507453175E+02  0.70507453175E+02  0.00000000000E+00 0.  1.
         35    2    1    2    0    0  0.71054273576E-14  0.17763568394E-14  0.20171069398E+03  0.34272560033E+03  0.27708055337E+03 0.  0.
         25    2    3    3    0    0  0.11630933004E+01 -0.27538962652E+01  0.18599838303E+03  0.21632483811E+03  0.11041784439E+03 0.  0.
         25    2    3    3    0    0 -0.11630933004E+01  0.27538962652E+01  0.15712310944E+02  0.12640076222E+03  0.12538476480E+03 0.  0.
          5    1    4    4  502    0 -0.31617797588E+02 -0.16680619163E+02  0.11028272592E+02  0.37704654571E+02  0.47000000000E+01 0. -1.
         -5    1    4    4    0  502  0.32780890888E+02  0.13926722898E+02  0.17497011044E+03  0.17862018353E+03  0.47000000000E+01 0. -1.
          5    1    5    5  503    0 -0.61637414938E+02  0.14822062334E+02  0.85988478312E+01  0.64147444501E+02  0.47000000000E+01 0.  1.
         -5    1    5    5    0  503  0.60474321637E+02 -0.12068166068E+02  0.71134631124E+01  0.62253317720E+02  0.47000000000E+01 0.  1.
<mgrwt>
<rscale>  0 0.27708055E+03</rscale>
<asrwt>0</asrwt>
<pdfrwt beam="1">  1        2 0.41879714E-01 0.27708055E+03</pdfrwt>
<pdfrwt beam="2">  1       -2 0.10847301E-01 0.27708055E+03</pdfrwt>
<totfact> 0.70266228E+03</totfact>
</mgrwt>
</event>
<event>
 9    1  0.8122655E-001  0.2781699E+03  0.7818608E-02  0.1096693E+00
          4   -1    0    0  501    0  0.00000000000E+00  0.00000000000E+00  0.76013905756E+03  0.76013905756E+03  0.00000000000E+00 0. -1.
         -4   -1    0    0    0  501 -0.00000000000E+00 -0.00000000000E+00 -0.25448799232E+02  0.25448799232E+02  0.00000000000E+00 0. -1.
         35    2    1    2    0    0 -0.14210854715E-13 -0.71054273576E-14  0.73469025833E+03  0.78558785679E+03  0.27816992119E+03 0.  0.
         25    2    3    3    0    0 -0.49323090961E+02  0.36068167083E+02  0.39980682184E+03  0.42299623344E+03  0.12388155125E+03 0.  0.
         25    2    3    3    0    0  0.49323090961E+02 -0.36068167083E+02  0.33488343649E+03  0.36259162335E+03  0.12486828784E+03 0.  0.
          5    1    4    4  502    0  0.33286882377E+02  0.17969804281E+01  0.40346629866E+02  0.52546990576E+02  0.47000000000E+01 0. -1.
         -5    1    4    4    0  502 -0.82609973337E+02  0.34271186655E+02  0.35946019197E+03  0.37044924287E+03  0.47000000000E+01 0. -1.
          5    1    5    5  503    0  0.72081054795E+02  0.19334964127E+02  0.14083830457E+03  0.15945857560E+03  0.47000000000E+01 0.  1.
         -5    1    5    5    0  503 -0.22757963834E+02 -0.55403131210E+02  0.19404513192E+03  0.20313304775E+03  0.47000000000E+01 0.  1.
<mgrwt>
<rscale>  0 0.27816992E+03</rscale>
<asrwt>0</asrwt>
<pdfrwt beam="1">  1        4 0.11694445E+00 0.27816992E+03</pdfrwt>
<pdfrwt beam="2">  1       -4 0.39152005E-02 0.27816992E+03</pdfrwt>
<totfact> 0.39049578E+02</totfact>
</mgrwt>
</event>
<event>
 9    1  0.8122655E-001  0.2790076E+03  0.7818608E-02  0.1096232E+00
          2   -1    0    0  501    0  0.00000000000E+00  0.00000000000E+00  0.14144425649E+04  0.14144425649E+04  0.00000000000E+00 0. -1.
         -2   -1    0    0    0  501 -0.00000000000E+00 -0.00000000000E+00 -0.13758999507E+02  0.13758999507E+02  0.00000000000E+00 0. -1.
         35    2    1    2    0    0  0.00000000000E+00  0.00000000000E+00  0.14006835654E+04  0.14282015644E+04  0.27900763111E+03 0.  0.
         25    2    3    3    0    0 -0.58283570970E+02 -0.11141620345E+02  0.58847615514E+03  0.60435874547E+03  0.12419419351E+03 0.  0.
         25    2    3    3    0    0  0.58283570970E+02  0.11141620345E+02  0.81220741026E+03  0.82384281895E+03  0.12455923372E+03 0.  0.
          5    1    4    4  502    0 -0.62734743234E+02  0.21627352554E+02  0.14393772891E+03  0.15856717880E+03  0.47000000000E+01 0. -1.
         -5    1    4    4    0  502  0.44511722643E+01 -0.32768972899E+02  0.44453842623E+03  0.44579156667E+03  0.47000000000E+01 0. -1.
          5    1    5    5  503    0 -0.61282353031E+01 -0.35609763617E+02  0.50984411766E+03  0.51114452442E+03  0.47000000000E+01 0.  1.
         -5    1    5    5    0  503  0.64411806273E+02  0.46751383962E+02  0.30236329259E+03  0.31269829452E+03  0.47000000000E+01 0.  1.
<mgrwt>
<rscale>  0 0.27900763E+03</rscale>
<asrwt>0</asrwt>
<pdfrwt beam="1">  1        2 0.21760643E+00 0.27900763E+03</pdfrwt>
<pdfrwt beam="2">  1       -2 0.21167703E-02 0.27900763E+03</pdfrwt>
<totfact> 0.10791930E+04</totfact>
</mgrwt>
</event>
<event>
 9    1  0.8122655E-001  0.2749217E+03  0.7818608E-02  0.1098495E+00
         -2   -1    0    0    0  501 -0.00000000000E+00  0.00000000000E+00  0.28787947623E+02  0.28787947623E+02  0.00000000000E+00 0.  1.
          2   -1    0    0  501    0  0.00000000000E+00 -0.00000000000E+00 -0.65636802555E+03  0.65636802555E+03  0.00000000000E+00 0.  1.
         35    2    1    2    0    0 -0.35527136788E-14  0.35527136788E-14 -0.62758007792E+03  0.68515597317E+03  0.27492172225E+03 0.  0.
         25    2    3    3    0    0 -0.20428927279E+02 -0.17386691013E+01 -0.45343511088E+03  0.47074782471E+03  0.12481887135E+03 0.  0.
         25    2    3    3    0    0  0.20428927279E+02  0.17386691013E+01 -0.17414496704E+03  0.21440814846E+03  0.12338565776E+03 0.  0.
          5    1    4    4  502    0 -0.67780927455E+02  0.19480940241E+02 -0.20307883980E+03  0.21502759435E+03  0.47000000000E+01 0.  1.
         -5    1    4    4    0  502  0.47352000176E+02 -0.21219609342E+02 -0.25035627109E+03  0.25572023036E+03  0.47000000000E+01 0.  1.
          5    1    5    5  503    0  0.32931922549E+02  0.52085693855E+02 -0.49048739400E+02  0.78900569478E+02  0.47000000000E+01 0. -1.
         -5    1    5    5    0  503 -0.12502995270E+02 -0.50347024754E+02 -0.12509622764E+03  0.13550757898E+03  0.47000000000E+01 0. -1.
<mgrwt>
<rscale>  0 0.27492172E+03</rscale>
<asrwt>0</asrwt>
<pdfrwt beam="1">  1        2 0.10097968E+00 0.27492172E+03</pdfrwt>
<pdfrwt beam="2">  1       -2 0.44289155E-02 0.27492172E+03</pdfrwt>
<totfact> 0.10635203E+04</totfact>
</mgrwt>
</event>
<event>
 9    1  0.8122655E-001  0.2749355E+03  0.7818608E-02  0.1098488E+00
          1   -1    0    0  501    0  0.00000000000E+00  0.00000000000E+00  0.11305143627E+04  0.11305143627E+04  0.00000000000E+00 0. -1.
         -1   -1    0    0    0  501 -0.00000000000E+00 -0.00000000000E+00 -0.16715733809E+02  0.16715733809E+02  0.00000000000E+00 0. -1.
         35    2    1    2    0    0  0.00000000000E+00  0.00000000000E+00  0.11137986289E+04  0.11472300965E+04  0.27493546264E+03 0.  0.
         25    2    3    3    0    0  0.89040454026E+01 -0.54547268977E+02  0.51059767106E+03  0.52871596043E+03  0.12560214388E+03 0.  0.
         25    2    3    3    0    0 -0.89040454026E+01  0.54547268977E+02  0.60320095780E+03  0.61851413604E+03  0.12511456517E+03 0.  0.
          5    1    4    4  502    0 -0.38725414570E+02  0.21785033677E+02  0.12540099438E+03  0.13312304390E+03  0.47000000000E+01 0. -1.
         -5    1    4    4    0  502  0.47629459972E+02 -0.76332302654E+02  0.38519667668E+03  0.39559291654E+03  0.47000000000E+01 0. -1.
          5    1    5    5  503    0 -0.32228042445E+02 -0.11429104239E+02  0.43376406753E+03  0.43513518293E+03  0.47000000000E+01 0.  1.
         -5    1    5    5    0  503  0.23323997043E+02  0.65976373216E+02  0.16943689027E+03  0.18337895311E+03  0.47000000000E+01 0.  1.
<mgrwt>
<rscale>  0 0.27493546E+03</rscale>
<asrwt>0</asrwt>
<pdfrwt beam="1">  1        1 0.17392523E+00 0.27493546E+03</pdfrwt>
<pdfrwt beam="2">  1       -1 0.25716522E-02 0.27493546E+03</pdfrwt>
<totfact> 0.60738641E+03</totfact>
</mgrwt>
</event>
<event>
 9    1  0.8122655E-001  0.2781576E+03  0.7818608E-02  0.1096699E+00
         -2   -1    0    0    0  501 -0.00000000000E+00  0.00000000000E+00  0.27843512834E+02  0.27843512834E+02  0.00000000000E+00 0.  1.
          2   -1    0    0  501    0  0.00000000000E+00 -0.00000000000E+00 -0.69470084230E+03  0.69470084230E+03  0.00000000000E+00 0.  1.
         35    2    1    2    0    0 -0.35527136788E-14 -0.71054273576E-14 -0.66685732946E+03  0.72254435513E+03  0.27815759431E+03 0.  0.
         25    2    3    3    0    0 -0.17031107494E+02 -0.52308614572E+02 -0.26151738560E+03  0.29542256828E+03  0.12592418788E+03 0.  0.
         25    2    3    3    0    0  0.17031107494E+02  0.52308614572E+02 -0.40533994386E+03  0.42712178685E+03  0.12290769275E+03 0.  0.
          5    1    4    4  502    0 -0.23986115709E+02 -0.13409830281E+02 -0.25324840173E+03  0.25477833557E+03  0.47000000000E+01 0.  1.
         -5    1    4    4    0  502  0.69550082151E+01 -0.38898784291E+02 -0.82689838758E+01  0.40644232714E+02  0.47000000000E+01 0.  1.
          5    1    5    5  503    0  0.30386724702E+02  0.37962236109E+02 -0.45631804413E+02  0.66849352895E+02  0.47000000000E+01 0.  1.
         -5    1    5    5    0  503 -0.13355617208E+02  0.14346378463E+02 -0.35970813945E+03  0.36027243396E+03  0.47000000000E+01 0.  1.
<mgrwt>
<rscale>  0 0.27815759E+03</rscale>
<asrwt>0</asrwt>
<pdfrwt beam="1">  1        2 0.10687704E+00 0.27815759E+03</pdfrwt>
<pdfrwt beam="2">  1       -2 0.42836177E-02 0.27815759E+03</pdfrwt>
<totfact> 0.10452469E+04</totfact>
</mgrwt>
</event>
<event>
 9    1  0.8122655E-001  0.2759052E+03  0.7818608E-02  0.1097947E+00
          2   -1    0    0  501    0  0.00000000000E+00  0.00000000000E+00  0.49769191720E+03  0.49769191720E+03  0.00000000000E+00 0.  1.
         -2   -1    0    0    0  501 -0.00000000000E+00 -0.00000000000E+00 -0.38238354471E+02  0.38238354471E+02  0.00000000000E+00 0.  1.
         35    2    1    2    0    0 -0.14210854715E-13 -0.71054273576E-14  0.45945356273E+03  0.53593027168E+03  0.27590520073E+03 0.  0.
         25    2    3    3    0    0  0.23028040082E+02  0.34757338909E+02  0.14864064650E+03  0.19844338992E+03  0.12468910927E+03 0.  0.
         25    2    3    3    0    0 -0.23028040082E+02 -0.34757338909E+02  0.31081291623E+03  0.33748688176E+03  0.12471713284E+03 0.  0.
          5    1    4    4  502    0 -0.19556255303E+02 -0.32568138430E+01  0.13884906407E+03  0.14033604865E+03  0.47000000000E+01 0. -1.
         -5    1    4    4    0  502  0.42584295384E+02  0.38014152752E+02  0.97915824343E+01  0.58107341269E+02  0.47000000000E+01 0. -1.
          5    1    5    5  503    0  0.27524181355E+02 -0.31295156639E+02  0.28699264712E+02  0.50820322543E+02  0.47000000000E+01 0. -1.
         -5    1    5    5    0  503 -0.50552221437E+02 -0.34621822698E+01  0.28211365152E+03  0.28666655922E+03  0.47000000000E+01 0. -1.
<mgrwt>
<rscale>  0 0.27590520E+03</rscale>
<asrwt>0</asrwt>
<pdfrwt beam="1">  1        2 0.76567983E-01 0.27590520E+03</pdfrwt>
<pdfrwt beam="2">  1       -2 0.58828241E-02 0.27590520E+03</pdfrwt>
<totfact> 0.94945472E+03</totfact>
</mgrwt>
</event>
<event>
 9    1  0.8122655E-001  0.2754111E+03  0.7818608E-02  0.1098222E+00
          2   -1    0    0  501    0  0.00000000000E+00  0.00000000000E+00  0.47170512290E+02  0.47170512290E+02  0.00000000000E+00 0. -1.
         -2   -1    0    0    0  501 -0.00000000000E+00 -0.00000000000E+00 -0.40200568723E+03  0.40200568723E+03  0.00000000000E+00 0. -1.
         35    2    1    2    0    0  0.00000000000E+00  0.35527136788E-14 -0.35483517494E+03  0.44917619952E+03  0.27541106884E+03 0.  0.
         25    2    3    3    0    0 -0.17560715942E+02  0.25418020803E+02 -0.25662054438E+03  0.28708675461E+03  0.12494097147E+03 0.  0.
         25    2    3    3    0    0  0.17560715942E+02 -0.25418020803E+02 -0.98214630564E+02  0.16208944491E+03  0.12518953618E+03 0.  0.
          5    1    4    4  502    0 -0.52589951736E+02  0.53541827283E+02 -0.10687891123E+03  0.13068137571E+03  0.47000000000E+01 0.  1.
         -5    1    4    4    0  502  0.35029235794E+02 -0.28123806480E+02 -0.14974163315E+03  0.15640537890E+03  0.47000000000E+01 0.  1.
          5    1    5    5  503    0 -0.11754563484E+02  0.50122937538E+01 -0.11542377337E+03  0.11622405220E+03  0.47000000000E+01 0.  1.
         -5    1    5    5    0  503  0.29315279426E+02 -0.30430314557E+02  0.17209142806E+02  0.45865392705E+02  0.47000000000E+01 0.  1.
<mgrwt>
<rscale>  0 0.27541107E+03</rscale>
<asrwt>0</asrwt>
<pdfrwt beam="1">  1        2 0.72570019E-02 0.27541107E+03</pdfrwt>
<pdfrwt beam="2">  1       -2 0.61847029E-01 0.27541107E+03</pdfrwt>
<totfact> 0.23864164E+03</totfact>
</mgrwt>
</event>
<event>
 9    1  0.8122655E-001  0.2760328E+03  0.7818608E-02  0.1097876E+00
          1   -1    0    0  501    0  0.00000000000E+00  0.00000000000E+00  0.56632903276E+03  0.56632903276E+03  0.00000000000E+00 0.  1.
         -1   -1    0    0    0  501 -0.00000000000E+00 -0.00000000000E+00 -0.33635097720E+02  0.33635097720E+02  0.00000000000E+00 0.  1.
         35    2    1    2    0    0  0.71054273576E-14  0.00000000000E+00  0.53269393504E+03  0.59996413048E+03  0.27603284122E+03 0.  0.
         25    2    3    3    0    0 -0.28695180999E+02 -0.20502630554E+02  0.16229660633E+03  0.20744717142E+03  0.12429951420E+03 0.  0.
         25    2    3    3    0    0  0.28695180999E+02  0.20502630554E+02  0.37039732871E+03  0.39251695906E+03  0.12502644026E+03 0.  0.
          5    1    4    4  502    0 -0.19740162524E+02  0.35480534335E+02  0.62429643851E+01  0.41347393357E+02  0.47000000000E+01 0.  1.
         -5    1    4    4    0  502 -0.89550184747E+01 -0.55983164889E+02  0.15605364195E+03  0.16609977806E+03  0.47000000000E+01 0.  1.
          5    1    5    5  503    0  0.64862338954E+02 -0.25855886939E+02  0.17733141596E+03  0.19064147238E+03  0.47000000000E+01 0.  1.
         -5    1    5    5    0  503 -0.36167157955E+02  0.46358517493E+02  0.19306591275E+03  0.20187548669E+03  0.47000000000E+01 0.  1.
<mgrwt>
<rscale>  0 0.27603284E+03</rscale>
<asrwt>0</asrwt>
<pdfrwt beam="1">  1        1 0.87127537E-01 0.27603284E+03</pdfrwt>
<pdfrwt beam="2">  1       -1 0.51746308E-02 0.27603284E+03</pdfrwt>
<totfact> 0.63452227E+03</totfact>
</mgrwt>
</event>
<event>
 9    1  0.8122655E-001  0.2725788E+03  0.7818608E-02  0.1099813E+00
         -2   -1    0    0    0  501 -0.00000000000E+00  0.00000000000E+00  0.11198075654E+03  0.11198075654E+03  0.00000000000E+00 0.  1.
          2   -1    0    0  501    0  0.00000000000E+00 -0.00000000000E+00 -0.16587488862E+03  0.16587488862E+03  0.00000000000E+00 0.  1.
         35    2    1    2    0    0  0.00000000000E+00  0.00000000000E+00 -0.53894132071E+02  0.27785564516E+03  0.27257876307E+03 0.  0.
         25    2    3    3    0    0 -0.52563959167E+02  0.12806994772E+02 -0.31484013080E+02  0.14037934357E+03  0.12565081816E+03 0.  0.
         25    2    3    3    0    0  0.52563959167E+02 -0.12806994772E+02 -0.22410118991E+02  0.13747630159E+03  0.12438058991E+03 0.  0.
          5    1    4    4  502    0 -0.15435299837E+02  0.48080530352E+02 -0.62371745193E+02  0.80388497177E+02  0.47000000000E+01 0. -1.
         -5    1    4    4    0  502 -0.37128659330E+02 -0.35273535580E+02  0.30887732114E+02  0.59990846394E+02  0.47000000000E+01 0. -1.
          5    1    5    5  503    0 -0.73675059557E+01  0.45857694473E+02 -0.25939651780E+02  0.53405653454E+02  0.47000000000E+01 0.  1.
         -5    1    5    5    0  503  0.59931465122E+02 -0.58664689245E+02  0.35295327891E+01  0.84070648134E+02  0.47000000000E+01 0.  1.
<mgrwt>
<rscale>  0 0.27257876E+03</rscale>
<asrwt>0</asrwt>
<pdfrwt beam="1">  1        2 0.25519214E-01 0.27257876E+03</pdfrwt>
<pdfrwt beam="2">  1       -2 0.17227809E-01 0.27257876E+03</pdfrwt>
<totfact> 0.56570795E+03</totfact>
</mgrwt>
</event>
<event>
 9    1  0.8122655E-001  0.2680970E+03  0.7818608E-02  0.1102374E+00
          2   -1    0    0  501    0  0.00000000000E+00  0.00000000000E+00  0.45907171499E+03  0.45907171499E+03  0.00000000000E+00 0.  1.
         -2   -1    0    0    0  501 -0.00000000000E+00 -0.00000000000E+00 -0.39142022630E+02  0.39142022630E+02  0.00000000000E+00 0.  1.
         35    2    1    2    0    0  0.17763568394E-14 -0.71054273576E-14  0.41992969236E+03  0.49821373762E+03  0.26809696348E+03 0.  0.
         25    2    3    3    0    0 -0.77859533471E+01  0.47123011113E+02  0.21772590837E+03  0.25573203828E+03  0.12535192452E+03 0.  0.
         25    2    3    3    0    0  0.77859533471E+01 -0.47123011113E+02  0.20220378399E+03  0.24248169934E+03  0.12501921856E+03 0.  0.
          5    1    4    4  502    0  0.19069771879E+02  0.81159400442E+02  0.10053494879E+03  0.13068997822E+03  0.47000000000E+01 0.  1.
         -5    1    4    4    0  502 -0.26855725227E+02 -0.34036389330E+02  0.11719095958E+03  0.12504206006E+03  0.47000000000E+01 0.  1.
          5    1    5    5  503    0  0.10416623226E+02 -0.65866320474E+02  0.37544880609E+02  0.76671939275E+02  0.47000000000E+01 0. -1.
         -5    1    5    5    0  503 -0.26306698788E+01  0.18743309362E+02  0.16465890338E+03  0.16580976007E+03  0.47000000000E+01 0. -1.
<mgrwt>
<rscale>  0 0.26809696E+03</rscale>
<asrwt>0</asrwt>
<pdfrwt beam="1">  1        2 0.70626414E-01 0.26809696E+03</pdfrwt>
<pdfrwt beam="2">  1       -2 0.60218500E-02 0.26809696E+03</pdfrwt>
<totfact> 0.10008836E+04</totfact>
</mgrwt>
</event>
<event>
 9    1  0.8122655E-001  0.2753419E+03  0.7818608E-02  0.1098261E+00
         -1   -1    0    0    0  501 -0.00000000000E+00  0.00000000000E+00  0.15467064027E+03  0.15467064027E+03  0.00000000000E+00 0.  1.
          1   -1    0    0  501    0  0.00000000000E+00 -0.00000000000E+00 -0.12253967563E+03  0.12253967563E+03  0.00000000000E+00 0.  1.
         35    2    1    2    0    0  0.00000000000E+00  0.00000000000E+00  0.32130964644E+02  0.27721031590E+03  0.27534189720E+03 0.  0.
         25    2    3    3    0    0  0.51394162858E+02 -0.23059656588E+02  0.27759858181E+02  0.14013912200E+03  0.12528070902E+03 0.  0.
         25    2    3    3    0    0 -0.51394162858E+02  0.23059656588E+02  0.43711064631E+01  0.13707119390E+03  0.12488513878E+03 0.  0.
          5    1    4    4  502    0  0.19516359279E+02  0.49981140649E+02 -0.44681527857E+01  0.54046804618E+02  0.47000000000E+01 0.  1.
         -5    1    4    4    0  502  0.31877803579E+02 -0.73040797238E+02  0.32228010967E+02  0.86092317387E+02  0.47000000000E+01 0.  1.
          5    1    5    5  503    0 -0.41034044013E+02 -0.47882863025E+02  0.13454488134E+02  0.64650402864E+02  0.47000000000E+01 0.  1.
         -5    1    5    5    0  503 -0.10360118845E+02  0.70942519613E+02 -0.90833816712E+01  0.72420791035E+02  0.47000000000E+01 0.  1.
<mgrwt>
<rscale>  0 0.27534190E+03</rscale>
<asrwt>0</asrwt>
<pdfrwt beam="1">  1        1 0.18852258E-01 0.27534190E+03</pdfrwt>
<pdfrwt beam="2">  1       -1 0.23795483E-01 0.27534190E+03</pdfrwt>
<totfact> 0.41467520E+03</totfact>
</mgrwt>
</event>
<event>
 9    1  0.8122655E-001  0.2786556E+03  0.7818608E-02  0.1096425E+00
          1   -1    0    0  501    0  0.00000000000E+00  0.00000000000E+00  0.68038862549E+03  0.68038862549E+03  0.00000000000E+00 0.  1.
         -1   -1    0    0    0  501 -0.00000000000E+00 -0.00000000000E+00 -0.28531098932E+02  0.28531098932E+02  0.00000000000E+00 0.  1.
         35    2    1    2    0    0  0.71054273576E-14  0.71054273576E-14  0.65185752656E+03  0.70891972442E+03  0.27865559522E+03 0.  0.
         25    2    3    3    0    0  0.31338245889E+02  0.29815271554E+02  0.43766100789E+03  0.45749909431E+03  0.12604454527E+03 0.  0.
         25    2    3    3    0    0 -0.31338245889E+02 -0.29815271554E+02  0.21419651867E+03  0.25142063011E+03  0.12434286696E+03 0.  0.
          5    1    4    4  502    0 -0.40137809731E+02  0.26208624351E+02  0.85731253954E+02  0.98335515786E+02  0.47000000000E+01 0.  1.
         -5    1    4    4    0  502  0.71476055621E+02  0.36066472024E+01  0.35192975394E+03  0.35916357853E+03  0.47000000000E+01 0.  1.
          5    1    5    5  503    0 -0.47312978955E+02 -0.66834063505E+02  0.18193912054E+03  0.19957265245E+03  0.47000000000E+01 0. -1.
         -5    1    5    5    0  503  0.15974733065E+02  0.37018791951E+02  0.32257398126E+02  0.51847977664E+02  0.47000000000E+01 0. -1.
<mgrwt>
<rscale>  0 0.27865560E+03</rscale>
<asrwt>0</asrwt>
<pdfrwt beam="1">  1        1 0.10467516E+00 0.27865560E+03</pdfrwt>
<pdfrwt beam="2">  1       -1 0.43894004E-02 0.27865560E+03</pdfrwt>
<totfact> 0.62745741E+03</totfact>
</mgrwt>
</event>
<event>
 9    1  0.8122655E-001  0.2774715E+03  0.7818608E-02  0.1097078E+00
         -2   -1    0    0    0  501 -0.00000000000E+00  0.00000000000E+00  0.76597171750E+03  0.76597171750E+03  0.00000000000E+00 0.  1.
          2   -1    0    0  501    0  0.00000000000E+00 -0.00000000000E+00 -0.25128357584E+02  0.25128357584E+02  0.00000000000E+00 0.  1.
         35    2    1    2    0    0  0.71054273576E-14  0.14210854715E-13  0.74084335991E+03  0.79110007508E+03  0.27747152082E+03 0.  0.
         25    2    3    3    0    0 -0.40354919082E+02  0.39317509535E+02  0.42149257380E+03  0.44293216697E+03  0.12392953127E+03 0.  0.
         25    2    3    3    0    0  0.40354919082E+02 -0.39317509535E+02  0.31935078612E+03  0.34816790811E+03  0.12673429526E+03 0.  0.
          5    1    4    4  502    0 -0.26885302940E+02  0.82680164625E+02  0.32023367127E+03  0.33185919205E+03  0.47000000000E+01 0.  1.
         -5    1    4    4    0  502 -0.13469616141E+02 -0.43362655091E+02  0.10125890253E+03  0.11107297492E+03  0.47000000000E+01 0.  1.
          5    1    5    5  503    0  0.19211030321E+02  0.30025196254E+02  0.22176556055E+02  0.42242937097E+02  0.47000000000E+01 0. -1.
         -5    1    5    5    0  503  0.21143888761E+02 -0.69342705788E+02  0.29717423006E+03  0.30592497101E+03  0.47000000000E+01 0. -1.
<mgrwt>
<rscale>  0 0.27747152E+03</rscale>
<asrwt>0</asrwt>
<pdfrwt beam="1">  1        2 0.38659018E-02 0.27747152E+03</pdfrwt>
<pdfrwt beam="2">  1       -2 0.11784178E+00 0.27747152E+03</pdfrwt>
<totfact> 0.12883218E+03</totfact>
</mgrwt>
</event>
<event>
 9    1  0.8122655E-001  0.2757810E+03  0.7818608E-02  0.1098016E+00
         -2   -1    0    0    0  501 -0.00000000000E+00  0.00000000000E+00  0.62173783949E+01  0.62173783949E+01  0.00000000000E+00 0. -1.
          2   -1    0    0  501    0  0.00000000000E+00 -0.00000000000E+00 -0.30581680751E+04  0.30581680751E+04  0.00000000000E+00 0. -1.
         35    2    1    2    0    0 -0.71054273576E-14  0.71054273576E-14 -0.30519506967E+04  0.30643854535E+04  0.27578098642E+03 0.  0.
         25    2    3    3    0    0  0.39316498767E+01 -0.58410989724E+02 -0.15371759363E+04  0.15433982332E+04  0.12546292550E+03 0.  0.
         25    2    3    3    0    0 -0.39316498767E+01  0.58410989724E+02 -0.15147747604E+04  0.15209872202E+04  0.12422659856E+03 0.  0.
          5    1    4    4  502    0 -0.19486767343E+02 -0.34292461622E+02 -0.14384777962E+04  0.14390261176E+04  0.47000000000E+01 0. -1.
         -5    1    4    4    0  502  0.23418417220E+02 -0.24118528101E+02 -0.98698140096E+02  0.10437211563E+03  0.47000000000E+01 0. -1.
          5    1    5    5  503    0 -0.44671329892E+02 -0.19358028834E+02 -0.48093732099E+03  0.48341809825E+03  0.47000000000E+01 0.  1.
         -5    1    5    5    0  503  0.40739680016E+02  0.77769018558E+02 -0.10338374394E+04  0.10375691220E+04  0.47000000000E+01 0.  1.
<mgrwt>
<rscale>  0 0.27578099E+03</rscale>
<asrwt>0</asrwt>
<pdfrwt beam="1">  1        2 0.47048642E+00 0.27578099E+03</pdfrwt>
<pdfrwt beam="2">  1       -2 0.95652173E-03 0.27578099E+03</pdfrwt>
<totfact> 0.43748624E+03</totfact>
</mgrwt>
</event>
<event>
 9    1  0.8122655E-001  0.2740525E+03  0.7818608E-02  0.1098982E+00
         -1   -1    0    0    0  501 -0.00000000000E+00  0.00000000000E+00  0.62576182129E+02  0.62576182129E+02  0.00000000000E+00 0. -1.
          1   -1    0    0  501    0  0.00000000000E+00 -0.00000000000E+00 -0.30005329374E+03  0.30005329374E+03  0.00000000000E+00 0. -1.
         35    2    1    2    0    0  0.00000000000E+00  0.35527136788E-14 -0.23747711161E+03  0.36262947587E+03  0.27405247350E+03 0.  0.
         25    2    3    3    0    0 -0.27593619595E+02 -0.41262498211E+01 -0.18245911969E+03  0.22280611039E+03  0.12479102005E+03 0.  0.
         25    2    3    3    0    0  0.27593619595E+02  0.41262498211E+01 -0.55017991919E+02  0.13982336549E+03  0.12547972076E+03 0.  0.
          5    1    4    4  502    0  0.56236274935E+01  0.24347089597E+02  0.85258764622E+01  0.26817653280E+02  0.47000000000E+01 0. -1.
         -5    1    4    4    0  502 -0.33217247088E+02 -0.28473339418E+02 -0.19098499616E+03  0.19598845711E+03  0.47000000000E+01 0. -1.
          5    1    5    5  503    0 -0.42571031096E+02  0.78444870170E+01 -0.54036490321E+02  0.69396404456E+02  0.47000000000E+01 0.  1.
         -5    1    5    5    0  503  0.70164650691E+02 -0.37182371959E+01 -0.98150159784E+00  0.70426961029E+02  0.47000000000E+01 0.  1.
<mgrwt>
<rscale>  0 0.27405247E+03</rscale>
<asrwt>0</asrwt>
<pdfrwt beam="1">  1        1 0.46162044E-01 0.27405247E+03</pdfrwt>
<pdfrwt beam="2">  1       -1 0.96271052E-02 0.27405247E+03</pdfrwt>
<totfact> 0.56262600E+03</totfact>
</mgrwt>
</event>
<event>
 9    1  0.8122655E-001  0.2763791E+03  0.7818608E-02  0.1097683E+00
         -2   -1    0    0    0  501 -0.00000000000E+00  0.00000000000E+00  0.17745647039E+02  0.17745647039E+02  0.00000000000E+00 0. -1.
          2   -1    0    0  501    0  0.00000000000E+00 -0.00000000000E+00 -0.10761149731E+04  0.10761149731E+04  0.00000000000E+00 0. -1.
         35    2    1    2    0    0 -0.71054273576E-14  0.35527136788E-14 -0.10583693260E+04  0.10938606201E+04  0.27637913442E+03 0.  0.
         25    2    3    3    0    0  0.59196172044E+02  0.55762940533E+01 -0.51369904396E+03  0.53201884725E+03  0.12498825630E+03 0.  0.
         25    2    3    3    0    0 -0.59196172044E+02 -0.55762940533E+01 -0.54467028208E+03  0.56184177288E+03  0.12435907578E+03 0.  0.
          5    1    4    4  502    0  0.88505633041E+02 -0.81888890503E+01 -0.46437800970E+03  0.47283118645E+03  0.47000000000E+01 0. -1.
         -5    1    4    4    0  502 -0.29309460997E+02  0.13765183104E+02 -0.49321034263E+02  0.59187660796E+02  0.47000000000E+01 0. -1.
          5    1    5    5  503    0  0.25558049583E+02  0.28165992304E+02 -0.26176048603E+03  0.26455090071E+03  0.47000000000E+01 0.  1.
         -5    1    5    5    0  503 -0.84754221627E+02 -0.33742286358E+02 -0.28290979605E+03  0.29729087217E+03  0.47000000000E+01 0.  1.
<mgrwt>
<rscale>  0 0.27637913E+03</rscale>
<asrwt>0</asrwt>
<pdfrwt beam="1">  1        2 0.16555613E+00 0.27637913E+03</pdfrwt>
<pdfrwt beam="2">  1       -2 0.27300998E-02 0.27637913E+03</pdfrwt>
<totfact> 0.11487112E+04</totfact>
</mgrwt>
</event>
<event>
 9    1  0.8122655E-001  0.2745542E+03  0.7818608E-02  0.1098701E+00
          3   -1    0    0  501    0  0.00000000000E+00  0.00000000000E+00  0.64558041329E+02  0.64558041329E+02  0.00000000000E+00 0.  1.
         -3   -1    0    0    0  501 -0.00000000000E+00 -0.00000000000E+00 -0.29190793461E+03  0.29190793461E+03  0.00000000000E+00 0.  1.
         35    2    1    2    0    0  0.71054273576E-14  0.00000000000E+00 -0.22734989329E+03  0.35646597594E+03  0.27455421692E+03 0.  0.
         25    2    3    3    0    0  0.41633048228E+02  0.26201374788E+01 -0.10804894193E+03  0.17905581200E+03  0.13655121433E+03 0.  0.
         25    2    3    3    0    0 -0.41633048228E+02 -0.26201374788E+01 -0.11930095136E+03  0.17741016394E+03  0.12450491335E+03 0.  0.
          5    1    4    4  502    0 -0.22507223777E+02  0.49190065745E+02 -0.76056513127E+02  0.93450098337E+02  0.47000000000E+01 0. -1.
         -5    1    4    4    0  502  0.64140272006E+02 -0.46569928266E+02 -0.31992428802E+02  0.85605713666E+02  0.47000000000E+01 0. -1.
          5    1    5    5  503    0 -0.70717311650E+02  0.28217161875E+02 -0.37151679279E+02  0.84849771151E+02  0.47000000000E+01 0.  1.
         -5    1    5    5    0  503  0.29084263421E+02 -0.30837299354E+02 -0.82149272078E+02  0.92560392788E+02  0.47000000000E+01 0.  1.
<mgrwt>
<rscale>  0 0.27455422E+03</rscale>
<asrwt>0</asrwt>
<pdfrwt beam="1">  1        3 0.99320063E-02 0.27455422E+03</pdfrwt>
<pdfrwt beam="2">  1       -3 0.44908913E-01 0.27455422E+03</pdfrwt>
<totfact> 0.93889535E+02</totfact>
</mgrwt>
</event>
<event>
 9    1  0.8122655E-001  0.2743543E+03  0.7818608E-02  0.1098813E+00
         -2   -1    0    0    0  501 -0.00000000000E+00  0.00000000000E+00  0.12262975030E+02  0.12262975030E+02  0.00000000000E+00 0.  1.
          2   -1    0    0  501    0  0.00000000000E+00 -0.00000000000E+00 -0.15345027639E+04  0.15345027639E+04  0.00000000000E+00 0.  1.
         35    2    1    2    0    0 -0.71054273576E-14  0.00000000000E+00 -0.15222397889E+04  0.15467657389E+04  0.27435428975E+03 0.  0.
         25    2    3    3    0    0 -0.29305545925E+02  0.73185581838E+01 -0.10240882037E+04  0.10321331388E+04  0.12501916289E+03 0.  0.
         25    2    3    3    0    0  0.29305545925E+02 -0.73185581838E+01 -0.49815158522E+03  0.51463260011E+03  0.12561582272E+03 0.  0.
          5    1    4    4  502    0  0.45720718036E+02  0.22093094753E+02 -0.34764034798E+03  0.35136076964E+03  0.47000000000E+01 0. -1.
         -5    1    4    4    0  502 -0.75026263961E+02 -0.14774536569E+02 -0.67644785567E+03  0.68077236919E+03  0.47000000000E+01 0. -1.
          5    1    5    5  503    0  0.30380555412E+02 -0.63975108935E+02 -0.23903093210E+03  0.24934648425E+03  0.47000000000E+01 0. -1.
         -5    1    5    5    0  503 -0.10750094863E+01  0.56656550751E+02 -0.25912065313E+03  0.26528611585E+03  0.47000000000E+01 0. -1.
<mgrwt>
<rscale>  0 0.27435429E+03</rscale>
<asrwt>0</asrwt>
<pdfrwt beam="1">  1        2 0.23607736E+00 0.27435429E+03</pdfrwt>
<pdfrwt beam="2">  1       -2 0.18866115E-02 0.27435429E+03</pdfrwt>
<totfact> 0.11015373E+04</totfact>
</mgrwt>
</event>
<event>
 9    1  0.8122655E-001  0.2732404E+03  0.7818608E-02  0.1099439E+00
          2   -1    0    0  501    0  0.00000000000E+00  0.00000000000E+00  0.98066628984E+03  0.98066628984E+03  0.00000000000E+00 0.  1.
         -2   -1    0    0    0  501 -0.00000000000E+00 -0.00000000000E+00 -0.19033064413E+02  0.19033064413E+02  0.00000000000E+00 0.  1.
         35    2    1    2    0    0  0.35527136788E-14  0.71054273576E-14  0.96163322543E+03  0.99969935426E+03  0.27324044109E+03 0.  0.
         25    2    3    3    0    0  0.15433515349E+02  0.35271338233E+02  0.62270779071E+03  0.63676404083E+03  0.12736243713E+03 0.  0.
         25    2    3    3    0    0 -0.15433515349E+02 -0.35271338233E+02  0.33892543472E+03  0.36293531342E+03  0.12397310487E+03 0.  0.
          5    1    4    4  502    0  0.60102393093E+02  0.43845141484E+02  0.23936778183E+03  0.25070644002E+03  0.47000000000E+01 0. -1.
         -5    1    4    4    0  502 -0.44668877745E+02 -0.85738032507E+01  0.38334000888E+03  0.38605760082E+03  0.47000000000E+01 0. -1.
          5    1    5    5  503    0 -0.12192720125E+02 -0.35102471543E+02  0.34918765391E+03  0.35119076522E+03  0.47000000000E+01 0. -1.
         -5    1    5    5    0  503 -0.32407952236E+01 -0.16886669025E+00 -0.10262219193E+02  0.11744548199E+02  0.47000000000E+01 0. -1.
<mgrwt>
<rscale>  0 0.27324044E+03</rscale>
<asrwt>0</asrwt>
<pdfrwt beam="1">  1        2 0.15087170E+00 0.27324044E+03</pdfrwt>
<pdfrwt beam="2">  1       -2 0.29281645E-02 0.27324044E+03</pdfrwt>
<totfact> 0.11820103E+04</totfact>
</mgrwt>
</event>
<event>
 9    1  0.8122655E-001  0.2808217E+03  0.7818608E-02  0.1095241E+00
         -3   -1    0    0    0  501 -0.00000000000E+00  0.00000000000E+00  0.53996733134E+02  0.53996733134E+02  0.00000000000E+00 0. -1.
          3   -1    0    0  501    0  0.00000000000E+00 -0.00000000000E+00 -0.36511861707E+03  0.36511861707E+03  0.00000000000E+00 0. -1.
         35    2    1    2    0    0  0.71054273576E-14  0.00000000000E+00 -0.31112188393E+03  0.41911535020E+03  0.28082174081E+03 0.  0.
         25    2    3    3    0    0  0.27340447294E+02  0.59379660524E+02 -0.15384472558E+03  0.20814808814E+03  0.12403218480E+03 0.  0.
         25    2    3    3    0    0 -0.27340447294E+02 -0.59379660524E+02 -0.15727715835E+03  0.21096726205E+03  0.12448950549E+03 0.  0.
          5    1    4    4  502    0 -0.24160656319E+02 -0.10746288701E+02  0.46737056536E+01  0.27260842965E+02  0.47000000000E+01 0.  1.
         -5    1    4    4    0  502  0.51501103613E+02  0.70125949224E+02 -0.15851843123E+03  0.18088724518E+03  0.47000000000E+01 0.  1.
          5    1    5    5  503    0 -0.36472120507E+02 -0.92325701166E+02 -0.84597862965E+02  0.13051106883E+03  0.47000000000E+01 0.  1.
         -5    1    5    5    0  503  0.91316732132E+01  0.32946040642E+02 -0.72679295386E+02  0.80456193220E+02  0.47000000000E+01 0.  1.
<mgrwt>
<rscale>  0 0.28082174E+03</rscale>
<asrwt>0</asrwt>
<pdfrwt beam="1">  1        3 0.56172094E-01 0.28082174E+03</pdfrwt>
<pdfrwt beam="2">  1       -3 0.83071898E-02 0.28082174E+03</pdfrwt>
<totfact> 0.80601120E+02</totfact>
</mgrwt>
</event>
<event>
 9    1  0.8122655E-001  0.2793449E+03  0.7818608E-02  0.1096047E+00
         -2   -1    0    0    0  501 -0.00000000000E+00  0.00000000000E+00  0.31579854802E+02  0.31579854802E+02  0.00000000000E+00 0.  1.
          2   -1    0    0  501    0  0.00000000000E+00 -0.00000000000E+00 -0.61774788910E+03  0.61774788910E+03  0.00000000000E+00 0.  1.
         35    2    1    2    0    0  0.00000000000E+00  0.00000000000E+00 -0.58616803429E+03  0.64932774390E+03  0.27934486673E+03 0.  0.
         25    2    3    3    0    0  0.50435465133E+02 -0.11497561475E+02 -0.21191732551E+03  0.25155255287E+03  0.12527491344E+03 0.  0.
         25    2    3    3    0    0 -0.50435465133E+02  0.11497561475E+02 -0.37425070878E+03  0.39777519103E+03  0.12444106845E+03 0.  0.
          5    1    4    4  502    0  0.17909245412E+02  0.56458731155E+02 -0.81409713374E+02  0.10078670957E+03  0.47000000000E+01 0.  1.
         -5    1    4    4    0  502  0.32526219721E+02 -0.67956292629E+02 -0.13050761214E+03  0.15076584329E+03  0.47000000000E+01 0.  1.
          5    1    5    5  503    0 -0.62936368006E+02 -0.44064754443E+02 -0.23378142014E+03  0.24612706353E+03  0.47000000000E+01 0.  1.
         -5    1    5    5    0  503  0.12500902873E+02  0.55562315917E+02 -0.14046928864E+03  0.15164812750E+03  0.47000000000E+01 0.  1.
<mgrwt>
<rscale>  0 0.27934487E+03</rscale>
<asrwt>0</asrwt>
<pdfrwt beam="1">  1        2 0.95038132E-01 0.27934487E+03</pdfrwt>
<pdfrwt beam="2">  1       -2 0.48584394E-02 0.27934487E+03</pdfrwt>
<totfact> 0.99357285E+03</totfact>
</mgrwt>
</event>
<event>
 9    1  0.8122655E-001  0.2748696E+03  0.7818608E-02  0.1098525E+00
         -2   -1    0    0    0  501 -0.00000000000E+00  0.00000000000E+00  0.31876807227E+02  0.31876807227E+02  0.00000000000E+00 0. -1.
          2   -1    0    0  501    0  0.00000000000E+00 -0.00000000000E+00 -0.59254119762E+03  0.59254119762E+03  0.00000000000E+00 0. -1.
         35    2    1    2    0    0  0.00000000000E+00  0.00000000000E+00 -0.56066439039E+03  0.62441800485E+03  0.27486958021E+03 0.  0.
         25    2    3    3    0    0  0.93498726760E+01  0.38856411058E+02 -0.36949566582E+03  0.39198734784E+03  0.12461859013E+03 0.  0.
         25    2    3    3    0    0 -0.93498726760E+01 -0.38856411058E+02 -0.19116872457E+03  0.23243065701E+03  0.12602098342E+03 0.  0.
          5    1    4    4  502    0 -0.12177574793E+02  0.74105320108E+02 -0.31256939337E+03  0.32149900072E+03  0.47000000000E+01 0. -1.
         -5    1    4    4    0  502  0.21527447469E+02 -0.35248909051E+02 -0.56926272457E+02  0.70488347120E+02  0.47000000000E+01 0. -1.
          5    1    5    5  503    0 -0.18057297354E+02  0.44558051755E+01  0.13201460629E+02  0.23287094070E+02  0.47000000000E+01 0. -1.
         -5    1    5    5    0  503  0.87074246776E+01 -0.43312216233E+02 -0.20437018520E+03  0.20914356294E+03  0.47000000000E+01 0. -1.
<mgrwt>
<rscale>  0 0.27486958E+03</rscale>
<asrwt>0</asrwt>
<pdfrwt beam="1">  1        2 0.91160181E-01 0.27486958E+03</pdfrwt>
<pdfrwt beam="2">  1       -2 0.49041243E-02 0.27486958E+03</pdfrwt>
<totfact> 0.10276235E+04</totfact>
</mgrwt>
</event>
<event>
 9    1  0.8122655E-001  0.2740313E+03  0.7818608E-02  0.1098994E+00
          1   -1    0    0  501    0  0.00000000000E+00  0.00000000000E+00  0.68971913600E+03  0.68971913600E+03  0.00000000000E+00 0. -1.
         -1   -1    0    0    0  501 -0.00000000000E+00 -0.00000000000E+00 -0.27218739868E+02  0.27218739868E+02  0.00000000000E+00 0. -1.
         35    2    1    2    0    0  0.00000000000E+00  0.00000000000E+00  0.66250039613E+03  0.71693787587E+03  0.27403128103E+03 0.  0.
         25    2    3    3    0    0  0.37080493688E+02  0.85098984164E+01  0.43300964366E+03  0.45264761805E+03  0.12627404026E+03 0.  0.
         25    2    3    3    0    0 -0.37080493688E+02 -0.85098984164E+01  0.22949075247E+03  0.26429025782E+03  0.12544302899E+03 0.  0.
          5    1    4    4  502    0 -0.13480081548E+02 -0.49233660408E+02  0.12322398000E+03  0.13346124967E+03  0.47000000000E+01 0.  1.
         -5    1    4    4    0  502  0.50560575235E+02  0.57743558824E+02  0.30978566366E+03  0.31918636839E+03  0.47000000000E+01 0.  1.
          5    1    5    5  503    0 -0.39946321166E+02 -0.45684865463E+02  0.21591894963E+03  0.22433434493E+03  0.47000000000E+01 0. -1.
         -5    1    5    5    0  503  0.28658274784E+01  0.37174967047E+02  0.13571802844E+02  0.39955912885E+02  0.47000000000E+01 0. -1.
<mgrwt>
<rscale>  0 0.27403128E+03</rscale>
<asrwt>0</asrwt>
<pdfrwt beam="1">  1        1 0.10611062E+00 0.27403128E+03</pdfrwt>
<pdfrwt beam="2">  1       -1 0.41874990E-02 0.27403128E+03</pdfrwt>
<totfact> 0.65963300E+03</totfact>
</mgrwt>
</event>
<event>
 9    1  0.8122655E-001  0.2755081E+03  0.7818608E-02  0.1098168E+00
         -1   -1    0    0    0  501 -0.00000000000E+00  0.00000000000E+00  0.23137634568E+02  0.23137634568E+02  0.00000000000E+00 0. -1.
          1   -1    0    0  501    0  0.00000000000E+00 -0.00000000000E+00 -0.82014368825E+03  0.82014368825E+03  0.00000000000E+00 0. -1.
         35    2    1    2    0    0  0.00000000000E+00  0.00000000000E+00 -0.79700605368E+03  0.84328132282E+03  0.27550814835E+03 0.  0.
         25    2    3    3    0    0  0.49160419007E+02  0.11008046091E+02 -0.30823204400E+03  0.33640097741E+03  0.12498280194E+03 0.  0.
         25    2    3    3    0    0 -0.49160419007E+02 -0.11008046091E+02 -0.48877400968E+03  0.50688034541E+03  0.12445773637E+03 0.  0.
          5    1    4    4  502    0  0.72344055858E+02  0.43079104443E+02 -0.13934595215E+03  0.16287681247E+03  0.47000000000E+01 0. -1.
         -5    1    4    4    0  502 -0.23183636850E+02 -0.32071058352E+02 -0.16888609185E+03  0.17352416495E+03  0.47000000000E+01 0. -1.
          5    1    5    5  503    0 -0.25469721054E+02 -0.50666690566E+02 -0.97727401233E+02  0.11308649422E+03  0.47000000000E+01 0. -1.
         -5    1    5    5    0  503 -0.23690697954E+02  0.39658644475E+02 -0.39104660845E+03  0.39379385118E+03  0.47000000000E+01 0. -1.
<mgrwt>
<rscale>  0 0.27550815E+03</rscale>
<asrwt>0</asrwt>
<pdfrwt beam="1">  1        1 0.12617596E+00 0.27550815E+03</pdfrwt>
<pdfrwt beam="2">  1       -1 0.35596358E-02 0.27550815E+03</pdfrwt>
<totfact> 0.64749531E+03</totfact>
</mgrwt>
</event>
<event>
 9    1  0.8122655E-001  0.2751022E+03  0.7818608E-02  0.1098394E+00
         -2   -1    0    0    0  501 -0.00000000000E+00  0.00000000000E+00  0.33444896263E+02  0.33444896263E+02  0.00000000000E+00 0. -1.
          2   -1    0    0  501    0  0.00000000000E+00 -0.00000000000E+00 -0.56571569197E+03  0.56571569197E+03  0.00000000000E+00 0. -1.
         35    2    1    2    0    0  0.14210854715E-13  0.00000000000E+00 -0.53227079571E+03  0.59916058823E+03  0.27510218198E+03 0.  0.
         25    2    3    3    0    0 -0.58418876392E+02 -0.30948598281E+01 -0.27380370507E+03  0.30596660828E+03  0.12338862670E+03 0.  0.
         25    2    3    3    0    0  0.58418876392E+02  0.30948598281E+01 -0.25846709064E+03  0.29319397995E+03  0.12543974514E+03 0.  0.
          5    1    4    4  502    0  0.37507818759E+02 -0.10197332625E+02 -0.97648818907E+02  0.10520553167E+03  0.47000000000E+01 0.  1.
         -5    1    4    4    0  502 -0.95926695151E+02  0.71024727972E+01 -0.17615488616E+03  0.20076107661E+03  0.47000000000E+01 0.  1.
          5    1    5    5  503    0 -0.16243757786E+02 -0.46070914507E+01  0.57787407096E+01  0.18454506302E+02  0.47000000000E+01 0.  1.
         -5    1    5    5    0  503  0.74662634178E+02  0.77019512788E+01 -0.26424583135E+03  0.27473947365E+03  0.47000000000E+01 0.  1.
<mgrwt>
<rscale>  0 0.27510218E+03</rscale>
<asrwt>0</asrwt>
<pdfrwt beam="1">  1        2 0.87033179E-01 0.27510218E+03</pdfrwt>
<pdfrwt beam="2">  1       -2 0.51453689E-02 0.27510218E+03</pdfrwt>
<totfact> 0.10076736E+04</totfact>
</mgrwt>
</event>
<event>
 9    1  0.8122655E-001  0.2762591E+03  0.7818608E-02  0.1097750E+00
         -1   -1    0    0    0  501 -0.00000000000E+00  0.00000000000E+00  0.43763741989E+02  0.43763741989E+02  0.00000000000E+00 0.  1.
          1   -1    0    0  501    0  0.00000000000E+00 -0.00000000000E+00 -0.43597226438E+03  0.43597226438E+03  0.00000000000E+00 0.  1.
         35    2    1    2    0    0  0.00000000000E+00  0.00000000000E+00 -0.39220852239E+03  0.47973600637E+03  0.27625913699E+03 0.  0.
         25    2    3    3    0    0  0.98000908563E+01  0.14431207930E+02 -0.99097953597E+02  0.16059463285E+03  0.12516361352E+03 0.  0.
         25    2    3    3    0    0 -0.98000908563E+01 -0.14431207930E+02 -0.29311056879E+03  0.31914137352E+03  0.12503243264E+03 0.  0.
          5    1    4    4  502    0  0.66726135840E+01  0.42552220230E+02  0.12720209017E+02  0.45156493841E+02  0.47000000000E+01 0. -1.
         -5    1    4    4    0  502  0.31274772724E+01 -0.28121012300E+02 -0.11181816261E+03  0.11543813901E+03  0.47000000000E+01 0. -1.
          5    1    5    5  503    0 -0.17904581462E+02 -0.59590928456E+02 -0.81950125551E+02  0.10300274690E+03  0.47000000000E+01 0. -1.
         -5    1    5    5    0  503  0.81044906054E+01  0.45159720526E+02 -0.21116044324E+03  0.21613862662E+03  0.47000000000E+01 0. -1.
<mgrwt>
<rscale>  0 0.27625914E+03</rscale>
<asrwt>0</asrwt>
<pdfrwt beam="1">  1        1 0.67072656E-01 0.27625914E+03</pdfrwt>
<pdfrwt beam="2">  1       -1 0.67328834E-02 0.27625914E+03</pdfrwt>
<totfact> 0.60406751E+03</totfact>
</mgrwt>
</event>
<event>
 9    1  0.8122655E-001  0.2735669E+03  0.7818608E-02  0.1099255E+00
          1   -1    0    0  501    0  0.00000000000E+00  0.00000000000E+00  0.34240926875E+03  0.34240926875E+03  0.00000000000E+00 0. -1.
         -1   -1    0    0    0  501 -0.00000000000E+00 -0.00000000000E+00 -0.54641354731E+02  0.54641354731E+02  0.00000000000E+00 0. -1.
         35    2    1    2    0    0  0.35527136788E-14  0.00000000000E+00  0.28776791402E+03  0.39705062348E+03  0.27356685703E+03 0.  0.
         25    2    3    3    0    0  0.31796409912E+02  0.47065839755E+02  0.13498934475E+03  0.19151050339E+03  0.12340155898E+03 0.  0.
         25    2    3    3    0    0 -0.31796409912E+02 -0.47065839755E+02  0.15277856927E+03  0.20554012009E+03  0.12521679114E+03 0.  0.
          5    1    4    4  502    0 -0.42063459546E+02 -0.21247723047E+01  0.68400678604E+02  0.80464850213E+02  0.47000000000E+01 0. -1.
         -5    1    4    4    0  502  0.73859869458E+02  0.49190612060E+02  0.66588666145E+02  0.11104565318E+03  0.47000000000E+01 0. -1.
          5    1    5    5  503    0  0.30011580590E+02 -0.23666038665E+02 -0.54645899994E+00  0.38511880934E+02  0.47000000000E+01 0. -1.
         -5    1    5    5    0  503 -0.61807990502E+02 -0.23399801090E+02  0.15332502827E+03  0.16702823915E+03  0.47000000000E+01 0. -1.
<mgrwt>
<rscale>  0 0.27356686E+03</rscale>
<asrwt>0</asrwt>
<pdfrwt beam="1">  1        1 0.52678348E-01 0.27356686E+03</pdfrwt>
<pdfrwt beam="2">  1       -1 0.84063625E-02 0.27356686E+03</pdfrwt>
<totfact> 0.58659716E+03</totfact>
</mgrwt>
</event>
<event>
 9    1  0.8122655E-001  0.2719881E+03  0.7818608E-02  0.1100147E+00
          2   -1    0    0  501    0  0.00000000000E+00  0.00000000000E+00  0.34738011226E+03  0.34738011226E+03  0.00000000000E+00 0. -1.
         -2   -1    0    0    0  501 -0.00000000000E+00 -0.00000000000E+00 -0.53239617644E+02  0.53239617644E+02  0.00000000000E+00 0. -1.
         35    2    1    2    0    0  0.00000000000E+00  0.00000000000E+00  0.29414049462E+03  0.40061972990E+03  0.27198811999E+03 0.  0.
         25    2    3    3    0    0  0.12821123721E+02  0.51817443983E+02  0.13657033616E+03  0.19350044150E+03  0.12625979338E+03 0.  0.
         25    2    3    3    0    0 -0.12821123721E+02 -0.51817443983E+02  0.15757015845E+03  0.20711928841E+03  0.12337186098E+03 0.  0.
          5    1    4    4  502    0  0.55836816518E+02  0.67122236615E+02  0.10981514771E+03  0.14037307930E+03  0.47000000000E+01 0.  1.
         -5    1    4    4    0  502 -0.43015692796E+02 -0.15304792632E+02  0.26755188456E+02  0.53127362193E+02  0.47000000000E+01 0.  1.
          5    1    5    5  503    0 -0.29458550393E+02 -0.33774091557E+02  0.17231141073E+03  0.17810616979E+03  0.47000000000E+01 0. -1.
         -5    1    5    5    0  503  0.16637426672E+02 -0.18043352426E+02 -0.14741252276E+02  0.29013118614E+02  0.47000000000E+01 0. -1.
<mgrwt>
<rscale>  0 0.27198812E+03</rscale>
<asrwt>0</asrwt>
<pdfrwt beam="1">  1        2 0.53443093E-01 0.27198812E+03</pdfrwt>
<pdfrwt beam="2">  1       -2 0.81907106E-02 0.27198812E+03</pdfrwt>
<totfact> 0.84233078E+03</totfact>
</mgrwt>
</event>
<event>
 9    1  0.8122655E-001  0.2788613E+03  0.7818608E-02  0.1096313E+00
          2   -1    0    0  501    0  0.00000000000E+00  0.00000000000E+00  0.13943910218E+04  0.13943910218E+04  0.00000000000E+00 0.  1.
         -2   -1    0    0    0  501 -0.00000000000E+00 -0.00000000000E+00 -0.13942220227E+02  0.13942220227E+02  0.00000000000E+00 0.  1.
         35    2    1    2    0    0  0.00000000000E+00 -0.35527136788E-14  0.13804488015E+04  0.14083332420E+04  0.27886130393E+03 0.  0.
         25    2    3    3    0    0 -0.10301005377E+02  0.14306127659E+02  0.38538938877E+03  0.40538496066E+03  0.12450385278E+03 0.  0.
         25    2    3    3    0    0  0.10301005377E+02 -0.14306127659E+02  0.99505941278E+03  0.10029482813E+04  0.12430303326E+03 0.  0.
          5    1    4    4  502    0 -0.44620913777E+02 -0.33622272865E+02  0.10717088334E+03  0.12095111167E+03  0.47000000000E+01 0.  1.
         -5    1    4    4    0  502  0.34319908401E+02  0.47928400523E+02  0.27821850542E+03  0.28443384899E+03  0.47000000000E+01 0.  1.
          5    1    5    5  503    0  0.43546348459E+02 -0.19217739911E+02  0.91160429169E+03  0.91285819305E+03  0.47000000000E+01 0. -1.
         -5    1    5    5    0  503 -0.33245343082E+02  0.49116122528E+01  0.83455121088E+02  0.90090088286E+02  0.47000000000E+01 0. -1.
<mgrwt>
<rscale>  0 0.27886130E+03</rscale>
<asrwt>0</asrwt>
<pdfrwt beam="1">  1        2 0.21452159E+00 0.27886130E+03</pdfrwt>
<pdfrwt beam="2">  1       -2 0.21449581E-02 0.27886130E+03</pdfrwt>
<totfact> 0.10852056E+04</totfact>
</mgrwt>
</event>
<event>
 9    1  0.8122655E-001  0.2763011E+03  0.7818608E-02  0.1097727E+00
          1   -1    0    0  501    0  0.00000000000E+00  0.00000000000E+00  0.12649848717E+02  0.12649848717E+02  0.00000000000E+00 0. -1.
         -1   -1    0    0    0  501 -0.00000000000E+00 -0.00000000000E+00 -0.15087594324E+04  0.15087594324E+04  0.00000000000E+00 0. -1.
         35    2    1    2    0    0  0.00000000000E+00  0.00000000000E+00 -0.14961095837E+04  0.15214092812E+04  0.27630112972E+03 0.  0.
         25    2    3    3    0    0 -0.24763313979E+02  0.37424992574E+02 -0.95522115018E+03  0.96442600445E+03  0.12512481975E+03 0.  0.
         25    2    3    3    0    0  0.24763313979E+02 -0.37424992574E+02 -0.54088843355E+03  0.55698327671E+03  0.12512482249E+03 0.  0.
          5    1    4    4  502    0  0.48885022822E+02  0.30289165783E+02 -0.35795629675E+03  0.36257685999E+03  0.47000000000E+01 0. -1.
         -5    1    4    4    0  502 -0.73648336801E+02  0.71358267913E+01 -0.59726485344E+03  0.60184914446E+03  0.47000000000E+01 0. -1.
          5    1    5    5  503    0 -0.30816211800E+02 -0.25126288917E+02 -0.43354192543E+03  0.43538679402E+03  0.47000000000E+01 0.  1.
         -5    1    5    5    0  503  0.55579525779E+02 -0.12298703658E+02 -0.10734650812E+03  0.12159648269E+03  0.47000000000E+01 0.  1.
<mgrwt>
<rscale>  0 0.27630113E+03</rscale>
<asrwt>0</asrwt>
<pdfrwt beam="1">  1        1 0.19461310E-02 0.27630113E+03</pdfrwt>
<pdfrwt beam="2">  1       -1 0.23211678E+00 0.27630113E+03</pdfrwt>
<totfact> 0.64794738E+02</totfact>
</mgrwt>
</event>
<event>
 9    1  0.8122655E-001  0.2712661E+03  0.7818608E-02  0.1100557E+00
         -2   -1    0    0    0  501 -0.00000000000E+00  0.00000000000E+00  0.23902849676E+02  0.23902849676E+02  0.00000000000E+00 0.  1.
          2   -1    0    0  501    0  0.00000000000E+00 -0.00000000000E+00 -0.76962867332E+03  0.76962867332E+03  0.00000000000E+00 0.  1.
         35    2    1    2    0    0  0.00000000000E+00 -0.26645352591E-14 -0.74572582365E+03  0.79353152300E+03  0.27126605748E+03 0.  0.
         25    2    3    3    0    0 -0.22878828213E+02  0.68259386864E+00 -0.23645177425E+03  0.26822420638E+03  0.12454266990E+03 0.  0.
         25    2    3    3    0    0  0.22878828213E+02 -0.68259386864E+00 -0.50927404940E+03  0.52530731662E+03  0.12674309761E+03 0.  0.
          5    1    4    4  502    0 -0.74385393032E+02 -0.42346181997E+01 -0.13702380462E+03  0.15604080146E+03  0.47000000000E+01 0. -1.
         -5    1    4    4    0  502  0.51506564819E+02  0.49172120683E+01 -0.99427969629E+02  0.11218340492E+03  0.47000000000E+01 0. -1.
          5    1    5    5  503    0  0.65107789392E+02 -0.34717310981E+02 -0.27215600125E+03  0.28202002578E+03  0.47000000000E+01 0. -1.
         -5    1    5    5    0  503 -0.42228961179E+02  0.34034717112E+02 -0.23711804814E+03  0.24328729084E+03  0.47000000000E+01 0. -1.
<mgrwt>
<rscale>  0 0.27126606E+03</rscale>
<asrwt>0</asrwt>
<pdfrwt beam="1">  1        2 0.11840441E+00 0.27126606E+03</pdfrwt>
<pdfrwt beam="2">  1       -2 0.36773614E-02 0.27126606E+03</pdfrwt>
<totfact> 0.11579827E+04</totfact>
</mgrwt>
</event>
<event>
 9    1  0.8122655E-001  0.2753274E+03  0.7818608E-02  0.1098269E+00
          1   -1    0    0  501    0  0.00000000000E+00  0.00000000000E+00  0.14505260635E+04  0.14505260635E+04  0.00000000000E+00 0.  1.
         -1   -1    0    0    0  501 -0.00000000000E+00 -0.00000000000E+00 -0.13065117498E+02  0.13065117498E+02  0.00000000000E+00 0.  1.
         35    2    1    2    0    0 -0.35527136788E-14  0.00000000000E+00  0.14374609460E+04  0.14635911810E+04  0.27532739387E+03 0.  0.
         25    2    3    3    0    0 -0.28524883610E+02  0.34343287668E+02  0.52911233111E+03  0.54556669720E+03  0.12525985695E+03 0.  0.
         25    2    3    3    0    0  0.28524883610E+02 -0.34343287668E+02  0.90834861485E+03  0.91802448376E+03  0.12521428150E+03 0.  0.
          5    1    4    4  502    0 -0.42186666227E+02  0.99979608772E+01  0.53095395220E+02  0.68708696848E+02  0.47000000000E+01 0. -1.
         -5    1    4    4    0  502  0.13661782617E+02  0.24345326791E+02  0.47601693589E+03  0.47685800035E+03  0.47000000000E+01 0. -1.
          5    1    5    5  503    0 -0.17397144286E+02 -0.65431950240E+02  0.32401975231E+03  0.33105119035E+03  0.47000000000E+01 0.  1.
         -5    1    5    5    0  503  0.45922027896E+02  0.31088662571E+02  0.58432886254E+03  0.58697329342E+03  0.47000000000E+01 0.  1.
<mgrwt>
<rscale>  0 0.27532739E+03</rscale>
<asrwt>0</asrwt>
<pdfrwt beam="1">  1        1 0.22315773E+00 0.27532739E+03</pdfrwt>
<pdfrwt beam="2">  1       -1 0.20100192E-02 0.27532739E+03</pdfrwt>
<totfact> 0.52550935E+03</totfact>
</mgrwt>
</event>
<event>
 9    1  0.8122655E-001  0.2750664E+03  0.7818608E-02  0.1098414E+00
          3   -1    0    0  501    0  0.00000000000E+00  0.00000000000E+00  0.33542631664E+02  0.33542631664E+02  0.00000000000E+00 0.  1.
         -3   -1    0    0    0  501 -0.00000000000E+00 -0.00000000000E+00 -0.56392053796E+03  0.56392053796E+03  0.00000000000E+00 0.  1.
         35    2    1    2    0    0  0.00000000000E+00  0.44408920985E-14 -0.53037790629E+03  0.59746316962E+03  0.27506638393E+03 0.  0.
         25    2    3    3    0    0  0.24261330005E+01 -0.32948644239E+01 -0.39000991585E+03  0.40962626235E+03  0.12517666754E+03 0.  0.
         25    2    3    3    0    0 -0.24261330005E+01  0.32948644239E+01 -0.14036799045E+03  0.18783690727E+03  0.12475090676E+03 0.  0.
          5    1    4    4  502    0 -0.46290234266E+02  0.38081958053E+02 -0.21506703222E+03  0.22331354564E+03  0.47000000000E+01 0.  1.
         -5    1    4    4    0  502  0.48716367267E+02 -0.41376822477E+02 -0.17494288362E+03  0.18631271671E+03  0.47000000000E+01 0.  1.
          5    1    5    5  503    0 -0.51661215017E+02  0.10118836867E+02 -0.12481368410E+03  0.13554267865E+03  0.47000000000E+01 0. -1.
         -5    1    5    5    0  503  0.49235082016E+02 -0.68239724435E+01 -0.15554306345E+02  0.52294228620E+02  0.47000000000E+01 0. -1.
<mgrwt>
<rscale>  0 0.27506638E+03</rscale>
<asrwt>0</asrwt>
<pdfrwt beam="1">  1        3 0.51604051E-02 0.27506638E+03</pdfrwt>
<pdfrwt beam="2">  1       -3 0.86757001E-01 0.27506638E+03</pdfrwt>
<totfact> 0.68619951E+02</totfact>
</mgrwt>
</event>
<event>
 9    1  0.8122655E-001  0.2705112E+03  0.7818608E-02  0.1100987E+00
          2   -1    0    0  501    0  0.00000000000E+00  0.00000000000E+00  0.15337295156E+03  0.15337295156E+03  0.00000000000E+00 0.  1.
         -2   -1    0    0    0  501 -0.00000000000E+00 -0.00000000000E+00 -0.11927836614E+03  0.11927836614E+03  0.00000000000E+00 0.  1.
         35    2    1    2    0    0  0.00000000000E+00  0.00000000000E+00  0.34094585422E+02  0.27265131770E+03  0.27051118330E+03 0.  0.
         25    2    3    3    0    0 -0.35927635140E+02 -0.24707660621E+02 -0.14577409742E+02  0.13180193179E+03  0.12352321599E+03 0.  0.
         25    2    3    3    0    0  0.35927635140E+02  0.24707660621E+02  0.48671995165E+02  0.14084938591E+03  0.12477308580E+03 0.  0.
          5    1    4    4  502    0 -0.25478654128E+02 -0.72774414753E+02 -0.25208530291E+02  0.81257844287E+02  0.47000000000E+01 0.  1.
         -5    1    4    4    0  502 -0.10448981012E+02  0.48066754132E+02  0.10631120548E+02  0.50544087498E+02  0.47000000000E+01 0.  1.
          5    1    5    5  503    0 -0.60857646361E+01 -0.46894376148E+02  0.28041958939E+02  0.55177536250E+02  0.47000000000E+01 0. -1.
         -5    1    5    5    0  503  0.42013399776E+02  0.71602036769E+02  0.20630036225E+02  0.85671849664E+02  0.47000000000E+01 0. -1.
<mgrwt>
<rscale>  0 0.27051118E+03</rscale>
<asrwt>0</asrwt>
<pdfrwt beam="1">  1        2 0.23595839E-01 0.27051118E+03</pdfrwt>
<pdfrwt beam="2">  1       -2 0.18350518E-01 0.27051118E+03</pdfrwt>
<totfact> 0.55512051E+03</totfact>
</mgrwt>
</event>
<event>
 9    1  0.8122655E-001  0.2744865E+03  0.7818608E-02  0.1098739E+00
          2   -1    0    0  501    0  0.00000000000E+00  0.00000000000E+00  0.23716321458E+04  0.23716321458E+04  0.00000000000E+00 0. -1.
         -2   -1    0    0    0  501 -0.00000000000E+00 -0.00000000000E+00 -0.79420898072E+01  0.79420898072E+01  0.00000000000E+00 0. -1.
         35    2    1    2    0    0 -0.35527136788E-14  0.71054273576E-14  0.23636900560E+04  0.23795742356E+04  0.27448654241E+03 0.  0.
         25    2    3    3    0    0  0.11704088637E+02 -0.55229050975E+02  0.99926780294E+03  0.10083183525E+04  0.12240312197E+03 0.  0.
         25    2    3    3    0    0 -0.11704088637E+02  0.55229050975E+02  0.13644222530E+04  0.13712558831E+04  0.12452862530E+03 0.  0.
          5    1    4    4  502    0  0.33853249396E+02 -0.22165831400E+02  0.90461999556E+03  0.90553674301E+03  0.47000000000E+01 0.  1.
         -5    1    4    4    0  502 -0.22149160758E+02 -0.33063219575E+02  0.94647807383E+02  0.10278160951E+03  0.47000000000E+01 0.  1.
          5    1    5    5  503    0 -0.23465812320E+02  0.37121913083E+02  0.14371940378E+03  0.15035304388E+03  0.47000000000E+01 0.  1.
         -5    1    5    5    0  503  0.11761723682E+02  0.18107137892E+02  0.12207028492E+04  0.12209028392E+04  0.47000000000E+01 0.  1.
<mgrwt>
<rscale>  0 0.27448654E+03</rscale>
<asrwt>0</asrwt>
<pdfrwt beam="1">  1        2 0.36486592E+00 0.27448654E+03</pdfrwt>
<pdfrwt beam="2">  1       -2 0.12218619E-02 0.27448654E+03</pdfrwt>
<totfact> 0.75012779E+03</totfact>
</mgrwt>
</event>
<event>
 9    1  0.8122655E-001  0.2730920E+03  0.7818608E-02  0.1099523E+00
         -1   -1    0    0    0  501 -0.00000000000E+00  0.00000000000E+00  0.14983526941E+02  0.14983526941E+02  0.00000000000E+00 0.  1.
          1   -1    0    0  501    0  0.00000000000E+00 -0.00000000000E+00 -0.12443536446E+04  0.12443536446E+04  0.00000000000E+00 0.  1.
         35    2    1    2    0    0  0.35527136788E-14 -0.14210854715E-13 -0.12293701177E+04  0.12593371715E+04  0.27309197248E+03 0.  0.
         25    2    3    3    0    0  0.20292164174E+02  0.45473931312E+02 -0.66422048468E+03  0.67794225532E+03  0.12624261931E+03 0.  0.
         25    2    3    3    0    0 -0.20292164174E+02 -0.45473931312E+02 -0.56514963299E+03  0.58139491623E+03  0.12706805495E+03 0.  0.
          5    1    4    4  502    0 -0.36841997307E+02  0.56523536728E+02 -0.22762179527E+03  0.23745739544E+03  0.47000000000E+01 0.  1.
         -5    1    4    4    0  502  0.57134161481E+02 -0.11049605416E+02 -0.43659868941E+03  0.44048485988E+03  0.47000000000E+01 0.  1.
          5    1    5    5  503    0  0.31120310887E+01  0.39264738102E+02 -0.28474890278E+03  0.28749857744E+03  0.47000000000E+01 0. -1.
         -5    1    5    5    0  503 -0.23404195263E+02 -0.84738669414E+02 -0.28040073021E+03  0.29389633879E+03  0.47000000000E+01 0. -1.
<mgrwt>
<rscale>  0 0.27309197E+03</rscale>
<asrwt>0</asrwt>
<pdfrwt beam="1">  1        1 0.19143910E+00 0.27309197E+03</pdfrwt>
<pdfrwt beam="2">  1       -1 0.23051571E-02 0.27309197E+03</pdfrwt>
<totfact> 0.59323121E+03</totfact>
</mgrwt>
</event>
<event>
 9    1  0.8122655E-001  0.2703394E+03  0.7818608E-02  0.1101085E+00
         -1   -1    0    0    0  501 -0.00000000000E+00  0.00000000000E+00  0.75482050400E+02  0.75482050400E+02  0.00000000000E+00 0.  1.
          1   -1    0    0  501    0  0.00000000000E+00 -0.00000000000E+00 -0.24205561776E+03  0.24205561776E+03  0.00000000000E+00 0.  1.
         35    2    1    2    0    0  0.00000000000E+00  0.71054273576E-14 -0.16657356736E+03  0.31753766816E+03  0.27033944839E+03 0.  0.
         25    2    3    3    0    0 -0.22896714325E+01  0.12367700469E+02 -0.14089431800E+03  0.18946338716E+03  0.12604349892E+03 0.  0.
         25    2    3    3    0    0  0.22896714325E+01 -0.12367700469E+02 -0.25679249358E+02  0.12807428100E+03  0.12484147947E+03 0.  0.
          5    1    4    4  502    0 -0.31555078680E+02  0.51986415730E+02 -0.12218794521E+03  0.13656608059E+03  0.47000000000E+01 0. -1.
         -5    1    4    4    0  502  0.29265407247E+02 -0.39618715260E+02 -0.18706372789E+02  0.52897306577E+02  0.47000000000E+01 0. -1.
          5    1    5    5  503    0  0.52970517465E+02  0.28042257155E+02 -0.74660909958E+01  0.60581155664E+02  0.47000000000E+01 0.  1.
         -5    1    5    5    0  503 -0.50680846032E+02 -0.40409957624E+02 -0.18213158362E+02  0.67493125333E+02  0.47000000000E+01 0.  1.
<mgrwt>
<rscale>  0 0.27033945E+03</rscale>
<asrwt>0</asrwt>
<pdfrwt beam="1">  1        1 0.37239325E-01 0.27033945E+03</pdfrwt>
<pdfrwt beam="2">  1       -1 0.11612623E-01 0.27033945E+03</pdfrwt>
<totfact> 0.55064789E+03</totfact>
</mgrwt>
</event>
<event>
 9    1  0.8122655E-001  0.2739114E+03  0.7818608E-02  0.1099062E+00
         -2   -1    0    0    0  501 -0.00000000000E+00  0.00000000000E+00  0.22335856986E+02  0.22335856986E+02  0.00000000000E+00 0.  1.
          2   -1    0    0  501    0  0.00000000000E+00 -0.00000000000E+00 -0.83976455331E+03  0.83976455331E+03  0.00000000000E+00 0.  1.
         35    2    1    2    0    0  0.00000000000E+00 -0.71054273576E-14 -0.81742869632E+03  0.86210041029E+03  0.27391137957E+03 0.  0.
         25    2    3    3    0    0  0.25673983960E+02 -0.15221315363E+02 -0.55717231077E+03  0.57203742818E+03  0.12607534833E+03 0.  0.
         25    2    3    3    0    0 -0.25673983960E+02  0.15221315363E+02 -0.26025638555E+03  0.29006298211E+03  0.12454840617E+03 0.  0.
          5    1    4    4  502    0 -0.24646473118E+02 -0.48074689412E+02 -0.40074952683E+03  0.40440190115E+03  0.47000000000E+01 0. -1.
         -5    1    4    4    0  502  0.50320457078E+02  0.32853374050E+02 -0.15642278394E+03  0.16763552703E+03  0.47000000000E+01 0. -1.
          5    1    5    5  503    0  0.24812068856E+02 -0.43395646702E+02 -0.91826741864E+02  0.10465687476E+03  0.47000000000E+01 0. -1.
         -5    1    5    5    0  503 -0.50486052816E+02  0.58616962065E+02 -0.16842964368E+03  0.18540610735E+03  0.47000000000E+01 0. -1.
<mgrwt>
<rscale>  0 0.27391138E+03</rscale>
<asrwt>0</asrwt>
<pdfrwt beam="1">  1        2 0.12919453E+00 0.27391138E+03</pdfrwt>
<pdfrwt beam="2">  1       -2 0.34362860E-02 0.27391138E+03</pdfrwt>
<totfact> 0.11471746E+04</totfact>
</mgrwt>
</event>
<event>
 9    1  0.8122655E-001  0.2763333E+03  0.7818608E-02  0.1097709E+00
          3   -1    0    0  501    0  0.00000000000E+00  0.00000000000E+00  0.29214736931E+03  0.29214736931E+03  0.00000000000E+00 0. -1.
         -3   -1    0    0    0  501 -0.00000000000E+00 -0.00000000000E+00 -0.65343829511E+02  0.65343829511E+02  0.00000000000E+00 0. -1.
         35    2    1    2    0    0 -0.35527136788E-14  0.71054273576E-14  0.22680353980E+03  0.35749119882E+03  0.27633333416E+03 0.  0.
         25    2    3    3    0    0  0.54564730253E+01  0.34657347303E+02  0.52615608354E+02  0.13994483440E+03  0.12484089720E+03 0.  0.
         25    2    3    3    0    0 -0.54564730253E+01 -0.34657347303E+02  0.17418793145E+03  0.21754636443E+03  0.12551525960E+03 0.  0.
          5    1    4    4  502    0  0.29476960426E+02 -0.39894705759E+02  0.30505486601E+02  0.58422200029E+02  0.47000000000E+01 0. -1.
         -5    1    4    4    0  502 -0.24020487400E+02  0.74552053062E+02  0.22110121753E+02  0.81522634370E+02  0.47000000000E+01 0. -1.
          5    1    5    5  503    0 -0.54390726279E+02 -0.49745856669E+02  0.71982937393E+02  0.10313406148E+03  0.47000000000E+01 0. -1.
         -5    1    5    5    0  503  0.48934253253E+02  0.15088509366E+02  0.10220499405E+03  0.11441230295E+03  0.47000000000E+01 0. -1.
<mgrwt>
<rscale>  0 0.27633333E+03</rscale>
<asrwt>0</asrwt>
<pdfrwt beam="1">  1        3 0.44945748E-01 0.27633333E+03</pdfrwt>
<pdfrwt beam="2">  1       -3 0.10052897E-01 0.27633333E+03</pdfrwt>
<totfact> 0.91965852E+02</totfact>
</mgrwt>
</event>
<event>
 9    1  0.8122655E-001  0.2758930E+03  0.7818608E-02  0.1097953E+00
         -4   -1    0    0    0  501 -0.00000000000E+00  0.00000000000E+00  0.38090918627E+02  0.38090918627E+02  0.00000000000E+00 0.  1.
          4   -1    0    0  501    0  0.00000000000E+00 -0.00000000000E+00 -0.49957409455E+03  0.49957409455E+03  0.00000000000E+00 0.  1.
         35    2    1    2    0    0  0.35527136788E-14  0.00000000000E+00 -0.46148317593E+03  0.53766501318E+03  0.27589299508E+03 0.  0.
         25    2    3    3    0    0 -0.14546286923E+02  0.10490398335E+02 -0.33902794145E+03  0.36191268315E+03  0.12537624266E+03 0.  0.
         25    2    3    3    0    0  0.14546286923E+02 -0.10490398335E+02 -0.12245523448E+03  0.17575233003E+03  0.12478763616E+03 0.  0.
          5    1    4    4  502    0 -0.32409417347E+02  0.26920640798E+02 -0.33400729548E+03  0.33668687926E+03  0.47000000000E+01 0. -1.
         -5    1    4    4    0  502  0.17863130424E+02 -0.16430242463E+02 -0.50206459701E+01  0.25225803890E+02  0.47000000000E+01 0. -1.
          5    1    5    5  503    0 -0.19778089782E+02 -0.59193983432E+02 -0.41389598728E+02  0.75035254333E+02  0.47000000000E+01 0. -1.
         -5    1    5    5    0  503  0.34324376705E+02  0.48703585097E+02 -0.81065635748E+02  0.10071707570E+03  0.47000000000E+01 0. -1.
<mgrwt>
<rscale>  0 0.27589300E+03</rscale>
<asrwt>0</asrwt>
<pdfrwt beam="1">  1        4 0.76857555E-01 0.27589300E+03</pdfrwt>
<pdfrwt beam="2">  1       -4 0.58601411E-02 0.27589300E+03</pdfrwt>
<totfact> 0.53690275E+02</totfact>
</mgrwt>
</event>
<event>
 9    1  0.8122655E-001  0.2801102E+03  0.7818608E-02  0.1095629E+00
         -1   -1    0    0    0  501 -0.00000000000E+00  0.00000000000E+00  0.10618171620E+02  0.10618171620E+02  0.00000000000E+00 0. -1.
          1   -1    0    0  501    0  0.00000000000E+00 -0.00000000000E+00 -0.18473450050E+04  0.18473450050E+04  0.00000000000E+00 0. -1.
         35    2    1    2    0    0  0.17763568394E-14 -0.35527136788E-14 -0.18367268334E+04  0.18579631766E+04  0.28011016622E+03 0.  0.
         25    2    3    3    0    0 -0.10008800942E+02 -0.20221251396E+02 -0.52361956785E+03  0.53891312668E+03  0.12546246917E+03 0.  0.
         25    2    3    3    0    0  0.10008800942E+02  0.20221251396E+02 -0.13131072655E+04  0.13190500500E+04  0.12301734979E+03 0.  0.
          5    1    4    4  502    0  0.24887911226E+02 -0.28730302146E+02 -0.48288256137E+03  0.48439910865E+03  0.47000000000E+01 0. -1.
         -5    1    4    4    0  502 -0.34896712169E+02  0.85090507496E+01 -0.40737006473E+02  0.54514018025E+02  0.47000000000E+01 0. -1.
          5    1    5    5  503    0 -0.46749368882E+01  0.84208921908E+00 -0.10562315541E+01  0.67653362265E+01  0.47000000000E+01 0.  1.
         -5    1    5    5    0  503  0.14683737831E+02  0.19379162177E+02 -0.13120510340E+04  0.13122847137E+04  0.47000000000E+01 0.  1.
<mgrwt>
<rscale>  0 0.28011017E+03</rscale>
<asrwt>0</asrwt>
<pdfrwt beam="1">  1        1 0.28420706E+00 0.28011017E+03</pdfrwt>
<pdfrwt beam="2">  1       -1 0.16335641E-02 0.28011017E+03</pdfrwt>
<totfact> 0.39070315E+03</totfact>
</mgrwt>
</event>
<event>
 9    1  0.8122655E-001  0.2758657E+03  0.7818608E-02  0.1097969E+00
          2   -1    0    0  501    0  0.00000000000E+00  0.00000000000E+00  0.78909647123E+03  0.78909647123E+03  0.00000000000E+00 0.  1.
         -2   -1    0    0    0  501 -0.00000000000E+00 -0.00000000000E+00 -0.24110457381E+02  0.24110457381E+02  0.00000000000E+00 0.  1.
         35    2    1    2    0    0  0.71054273576E-14  0.00000000000E+00  0.76498601385E+03  0.81320692861E+03  0.27586574154E+03 0.  0.
         25    2    3    3    0    0 -0.47603896322E+02  0.20565762179E+02  0.31909680046E+03  0.34723457020E+03  0.12672804408E+03 0.  0.
         25    2    3    3    0    0  0.47603896322E+02 -0.20565762179E+02  0.44588921339E+03  0.46597235842E+03  0.12499586662E+03 0.  0.
          5    1    4    4  502    0  0.29536021589E+02 -0.29625818177E+02  0.13417654179E+03  0.14062538903E+03  0.47000000000E+01 0. -1.
         -5    1    4    4    0  502 -0.77139917912E+02  0.50191580355E+02  0.18492025867E+03  0.20660918117E+03  0.47000000000E+01 0. -1.
          5    1    5    5  503    0  0.27972122511E+02 -0.71189147858E+02  0.20149546842E+03  0.21557562061E+03  0.47000000000E+01 0.  1.
         -5    1    5    5    0  503  0.19631773811E+02  0.50623385680E+02  0.24439374497E+03  0.25039673780E+03  0.47000000000E+01 0.  1.
<mgrwt>
<rscale>  0 0.27586574E+03</rscale>
<asrwt>0</asrwt>
<pdfrwt beam="1">  1        2 0.12139944E+00 0.27586574E+03</pdfrwt>
<pdfrwt beam="2">  1       -2 0.37093017E-02 0.27586574E+03</pdfrwt>
<totfact> 0.11083175E+04</totfact>
</mgrwt>
</event>
<event>
 9    1  0.8122655E-001  0.2959503E+03  0.7818608E-02  0.1087283E+00
          2   -1    0    0  501    0  0.00000000000E+00  0.00000000000E+00  0.14458667852E+04  0.14458667852E+04  0.00000000000E+00 0. -1.
         -2   -1    0    0    0  501 -0.00000000000E+00 -0.00000000000E+00 -0.15144301306E+02  0.15144301306E+02  0.00000000000E+00 0. -1.
         35    2    1    2    0    0  0.00000000000E+00  0.00000000000E+00  0.14307224839E+04  0.14610110865E+04  0.29595028125E+03 0.  0.
         25    2    3    3    0    0  0.18585404612E+01  0.32507531343E+02  0.35780824011E+03  0.38053323508E+03  0.12537389098E+03 0.  0.
         25    2    3    3    0    0 -0.18585404612E+01 -0.32507531343E+02  0.10729142438E+04  0.10804778514E+04  0.12339861892E+03 0.  0.
          5    1    4    4  502    0  0.15426882231E+02 -0.69808496243E+01 -0.25293374077E+01  0.17754112329E+02  0.47000000000E+01 0. -1.
         -5    1    4    4    0  502 -0.13568341770E+02  0.39488380967E+02  0.36033757752E+03  0.36277912275E+03  0.47000000000E+01 0. -1.
          5    1    5    5  503    0 -0.16460771544E+02 -0.46658827258E+02  0.16497347429E+03  0.17229724426E+03  0.47000000000E+01 0. -1.
         -5    1    5    5    0  503  0.14602231083E+02  0.14151295915E+02  0.90794076947E+03  0.90818060714E+03  0.47000000000E+01 0. -1.
<mgrwt>
<rscale>  0 0.29595028E+03</rscale>
<asrwt>0</asrwt>
<pdfrwt beam="1">  1        2 0.22244093E+00 0.29595028E+03</pdfrwt>
<pdfrwt beam="2">  1       -2 0.23298936E-02 0.29595028E+03</pdfrwt>
<totfact> 0.90163249E+03</totfact>
</mgrwt>
</event>
<event>
 9    1  0.8122655E-001  0.2735138E+03  0.7818608E-02  0.1099285E+00
         -1   -1    0    0    0  501 -0.00000000000E+00  0.00000000000E+00  0.23073291089E+02  0.23073291089E+02  0.00000000000E+00 0.  1.
          1   -1    0    0  501    0  0.00000000000E+00 -0.00000000000E+00 -0.81056691587E+03  0.81056691587E+03  0.00000000000E+00 0.  1.
         35    2    1    2    0    0 -0.35527136788E-14  0.00000000000E+00 -0.78749362478E+03  0.83364020695E+03  0.27351377586E+03 0.  0.
         25    2    3    3    0    0  0.16557185035E+02 -0.33714972093E+02 -0.52466597411E+03  0.54066890328E+03  0.12505054523E+03 0.  0.
         25    2    3    3    0    0 -0.16557185035E+02  0.33714972093E+02 -0.26282765067E+03  0.29297130368E+03  0.12386674737E+03 0.  0.
          5    1    4    4  502    0 -0.53989615577E+02 -0.61583734201E+01 -0.23201327816E+03  0.23833811151E+03  0.47000000000E+01 0. -1.
         -5    1    4    4    0  502  0.70546800613E+02 -0.27556598673E+02 -0.29265269595E+03  0.30233079177E+03  0.47000000000E+01 0. -1.
          5    1    5    5  503    0 -0.31584187500E+02  0.61196458618E+02 -0.24903831748E+03  0.25842743860E+03  0.47000000000E+01 0. -1.
         -5    1    5    5    0  503  0.15027002464E+02 -0.27481486526E+02 -0.13789333185E+02  0.34543865076E+02  0.47000000000E+01 0. -1.
<mgrwt>
<rscale>  0 0.27351378E+03</rscale>
<asrwt>0</asrwt>
<pdfrwt beam="1">  1        1 0.12470261E+00 0.27351378E+03</pdfrwt>
<pdfrwt beam="2">  1       -1 0.35497369E-02 0.27351378E+03</pdfrwt>
<totfact> 0.66202057E+03</totfact>
</mgrwt>
</event>
<event>
 9    1  0.8122655E-001  0.2742214E+03  0.7818608E-02  0.1098888E+00
         -2   -1    0    0    0  501 -0.00000000000E+00  0.00000000000E+00  0.52030989142E+02  0.52030989142E+02  0.00000000000E+00 0. -1.
          2   -1    0    0  501    0  0.00000000000E+00 -0.00000000000E+00 -0.36131057425E+03  0.36131057425E+03  0.00000000000E+00 0. -1.
         35    2    1    2    0    0  0.00000000000E+00  0.00000000000E+00 -0.30927958510E+03  0.41334156339E+03  0.27422141831E+03 0.  0.
         25    2    3    3    0    0 -0.22988168116E+02 -0.24969593175E+02 -0.84271477596E+02  0.15465814925E+03  0.12516199398E+03 0.  0.
         25    2    3    3    0    0  0.22988168116E+02  0.24969593175E+02 -0.22500810751E+03  0.25868341413E+03  0.12303058095E+03 0.  0.
          5    1    4    4  502    0 -0.22381112289E+02 -0.68780309583E+02 -0.17348350795E+02  0.74529862800E+02  0.47000000000E+01 0.  1.
         -5    1    4    4    0  502 -0.60705582683E+00  0.43810716409E+02 -0.66923126801E+02  0.80128286452E+02  0.47000000000E+01 0.  1.
          5    1    5    5  503    0  0.64558121003E+02  0.39559437340E+01 -0.18841545221E+03  0.19926332606E+03  0.47000000000E+01 0.  1.
         -5    1    5    5    0  503 -0.41569952887E+02  0.21013649441E+02 -0.36592655295E+02  0.59420088079E+02  0.47000000000E+01 0.  1.
<mgrwt>
<rscale>  0 0.27422142E+03</rscale>
<asrwt>0</asrwt>
<pdfrwt beam="1">  1        2 0.55586245E-01 0.27422142E+03</pdfrwt>
<pdfrwt beam="2">  1       -2 0.80047672E-02 0.27422142E+03</pdfrwt>
<totfact> 0.83709358E+03</totfact>
</mgrwt>
</event>
<event>
 9    1  0.8122655E-001  0.2832912E+03  0.7818608E-02  0.1093905E+00
          2   -1    0    0  501    0  0.00000000000E+00  0.00000000000E+00  0.92865589003E+03  0.92865589003E+03  0.00000000000E+00 0. -1.
         -2   -1    0    0    0  501 -0.00000000000E+00 -0.00000000000E+00 -0.21604856369E+02  0.21604856369E+02  0.00000000000E+00 0. -1.
         35    2    1    2    0    0 -0.71054273576E-14  0.00000000000E+00  0.90705103366E+03  0.95026074640E+03  0.28329120791E+03 0.  0.
         25    2    3    3    0    0 -0.21471862187E+02  0.17388106559E+02  0.65859647212E+03  0.67049275421E+03  0.12266961011E+03 0.  0.
         25    2    3    3    0    0  0.21471862187E+02 -0.17388106559E+02  0.24845456153E+03  0.27976799218E+03  0.12560681983E+03 0.  0.
          5    1    4    4  502    0  0.23175740442E+02 -0.17791952589E+02  0.42650703802E+02  0.51911858537E+02  0.47000000000E+01 0.  1.
         -5    1    4    4    0  502 -0.44647602629E+02  0.35180059148E+02  0.61594576832E+03  0.61858089568E+03  0.47000000000E+01 0.  1.
          5    1    5    5  503    0  0.71615981259E+02 -0.16101208887E+02  0.18256004153E+03  0.19682062002E+03  0.47000000000E+01 0.  1.
         -5    1    5    5    0  503 -0.50144119071E+02 -0.12868976713E+01  0.65894520002E+02  0.82947372167E+02  0.47000000000E+01 0.  1.
<mgrwt>
<rscale>  0 0.28329121E+03</rscale>
<asrwt>0</asrwt>
<pdfrwt beam="1">  1        2 0.14287011E+00 0.28329121E+03</pdfrwt>
<pdfrwt beam="2">  1       -2 0.33238248E-02 0.28329121E+03</pdfrwt>
<totfact> 0.10559954E+04</totfact>
</mgrwt>
</event>
<event>
 9    1  0.8122655E-001  0.2729570E+03  0.7818608E-02  0.1099599E+00
          1   -1    0    0  501    0  0.00000000000E+00  0.00000000000E+00  0.63332104920E+03  0.63332104920E+03  0.00000000000E+00 0. -1.
         -1   -1    0    0    0  501 -0.00000000000E+00 -0.00000000000E+00 -0.29410638014E+02  0.29410638014E+02  0.00000000000E+00 0. -1.
         35    2    1    2    0    0 -0.71054273576E-14  0.71054273576E-14  0.60391041119E+03  0.66273168721E+03  0.27295696455E+03 0.  0.
         25    2    3    3    0    0 -0.34752746803E+02  0.41404858371E+02  0.27781563995E+03  0.30966670795E+03  0.12565756843E+03 0.  0.
         25    2    3    3    0    0  0.34752746803E+02 -0.41404858371E+02  0.32609477124E+03  0.35306497927E+03  0.12407644437E+03 0.  0.
          5    1    4    4  502    0  0.37516822051E+02 -0.10180161346E+02  0.40931210715E+02  0.56644519880E+02  0.47000000000E+01 0. -1.
         -5    1    4    4    0  502 -0.72269568854E+02  0.51585019717E+02  0.23688442923E+03  0.25302218807E+03  0.47000000000E+01 0. -1.
          5    1    5    5  503    0  0.26221582712E+02  0.22780025370E+01  0.30013900528E+03  0.30132751813E+03  0.47000000000E+01 0.  1.
         -5    1    5    5    0  503  0.85311640907E+01 -0.43682860908E+02  0.25955765961E+02  0.51737461132E+02  0.47000000000E+01 0.  1.
<mgrwt>
<rscale>  0 0.27295696E+03</rscale>
<asrwt>0</asrwt>
<pdfrwt beam="1">  1        1 0.97433998E-01 0.27295696E+03</pdfrwt>
<pdfrwt beam="2">  1       -1 0.45247140E-02 0.27295696E+03</pdfrwt>
<totfact> 0.66391998E+03</totfact>
</mgrwt>
</event>
<event>
 9    1  0.8122655E-001  0.2711246E+03  0.7818608E-02  0.1100638E+00
         -1   -1    0    0    0  501 -0.00000000000E+00  0.00000000000E+00  0.80075912341E+02  0.80075912341E+02  0.00000000000E+00 0. -1.
          1   -1    0    0  501    0  0.00000000000E+00 -0.00000000000E+00 -0.22949645165E+03  0.22949645165E+03  0.00000000000E+00 0. -1.
         35    2    1    2    0    0  0.00000000000E+00 -0.71054273576E-14 -0.14942053931E+03  0.30957236399E+03  0.27112460415E+03 0.  0.
         25    2    3    3    0    0 -0.26623399023E+02  0.15293154839E+02 -0.25521576441E+02  0.13114427781E+03  0.12491911294E+03 0.  0.
         25    2    3    3    0    0  0.26623399023E+02 -0.15293154839E+02 -0.12389896286E+03  0.17842808618E+03  0.12467133984E+03 0.  0.
          5    1    4    4  502    0 -0.36443812216E+02 -0.40427393061E+02 -0.45355632560E+02  0.71005274195E+02  0.47000000000E+01 0.  1.
         -5    1    4    4    0  502  0.98204131932E+01  0.55720547901E+02  0.19834056119E+02  0.60139003615E+02  0.47000000000E+01 0.  1.
          5    1    5    5  503    0  0.36278373298E+02 -0.65246163421E+02 -0.55944792288E+02  0.93408200896E+02  0.47000000000E+01 0.  1.
         -5    1    5    5    0  503 -0.96549742747E+01  0.49953008582E+02 -0.67954170576E+02  0.85019885281E+02  0.47000000000E+01 0.  1.
<mgrwt>
<rscale>  0 0.27112460E+03</rscale>
<asrwt>0</asrwt>
<pdfrwt beam="1">  1        1 0.35307146E-01 0.27112460E+03</pdfrwt>
<pdfrwt beam="2">  1       -1 0.12319371E-01 0.27112460E+03</pdfrwt>
<totfact> 0.53692081E+03</totfact>
</mgrwt>
</event>
<event>
 9    1  0.8122655E-001  0.2753760E+03  0.7818608E-02  0.1098242E+00
         -4   -1    0    0    0  501 -0.00000000000E+00  0.00000000000E+00  0.51332873049E+02  0.51332873049E+02  0.00000000000E+00 0. -1.
          4   -1    0    0  501    0  0.00000000000E+00 -0.00000000000E+00 -0.36931480964E+03  0.36931480964E+03  0.00000000000E+00 0. -1.
         35    2    1    2    0    0  0.00000000000E+00  0.71054273576E-14 -0.31798193659E+03  0.42064768269E+03  0.27537603555E+03 0.  0.
         25    2    3    3    0    0 -0.43376794599E+02 -0.22504101142E+02 -0.12072105385E+03  0.18153776292E+03  0.12646899084E+03 0.  0.
         25    2    3    3    0    0  0.43376794599E+02  0.22504101142E+02 -0.19726088274E+03  0.23910991977E+03  0.12599094014E+03 0.  0.
          5    1    4    4  502    0 -0.52780602526E+02 -0.24923913486E+02 -0.14423408674E+03  0.15566809321E+03  0.47000000000E+01 0.  1.
         -5    1    4    4    0  502  0.94038079274E+01  0.24198123446E+01  0.23513032885E+02  0.25869669708E+02  0.47000000000E+01 0.  1.
          5    1    5    5  503    0  0.17204474184E+02 -0.33783962825E+02 -0.68901085628E+01  0.38818985974E+02  0.47000000000E+01 0.  1.
         -5    1    5    5    0  503  0.26172320415E+02  0.56288063966E+02 -0.19037077418E+03  0.20029093380E+03  0.47000000000E+01 0.  1.
<mgrwt>
<rscale>  0 0.27537604E+03</rscale>
<asrwt>0</asrwt>
<pdfrwt beam="1">  1        4 0.56817661E-01 0.27537604E+03</pdfrwt>
<pdfrwt beam="2">  1       -4 0.78973654E-02 0.27537604E+03</pdfrwt>
<totfact> 0.62928832E+02</totfact>
</mgrwt>
</event>
<event>
 9    1  0.8122655E-001  0.2881078E+03  0.7818608E-02  0.1091341E+00
          2   -1    0    0  501    0  0.00000000000E+00  0.00000000000E+00  0.14451638968E+03  0.14451638968E+03  0.00000000000E+00 0.  1.
         -2   -1    0    0    0  501 -0.00000000000E+00 -0.00000000000E+00 -0.14359292009E+03  0.14359292009E+03  0.00000000000E+00 0.  1.
         35    2    1    2    0    0  0.71054273576E-14 -0.71054273576E-14  0.92346958682E+00  0.28810930978E+03  0.28810782979E+03 0.  0.
         25    2    3    3    0    0 -0.22243506382E+02  0.24125932580E+02  0.66054404925E+02  0.14391690390E+03  0.12358016272E+03 0.  0.
         25    2    3    3    0    0  0.22243506382E+02 -0.24125932580E+02 -0.65130935338E+02  0.14419240588E+03  0.12438881371E+03 0.  0.
          5    1    4    4  502    0  0.43285298216E+02 -0.15723846600E+02  0.44263610899E+02  0.64048525693E+02  0.47000000000E+01 0.  1.
         -5    1    4    4    0  502 -0.65528804597E+02  0.39849779180E+02  0.21790794025E+02  0.79868378204E+02  0.47000000000E+01 0.  1.
          5    1    5    5  503    0 -0.35239325765E+02  0.30490783808E+02 -0.37812620560E+02  0.60194536723E+02  0.47000000000E+01 0.  1.
         -5    1    5    5    0  503  0.57482832147E+02 -0.54616716388E+02 -0.27318314778E+02  0.83997869157E+02  0.47000000000E+01 0.  1.
<mgrwt>
<rscale>  0 0.28810783E+03</rscale>
<asrwt>0</asrwt>
<pdfrwt beam="1">  1        2 0.22233291E-01 0.28810783E+03</pdfrwt>
<pdfrwt beam="2">  1       -2 0.22091218E-01 0.28810783E+03</pdfrwt>
<totfact> 0.43294519E+03</totfact>
</mgrwt>
</event>
<event>
 9    1  0.8122655E-001  0.2764059E+03  0.7818608E-02  0.1097668E+00
          2   -1    0    0  501    0  0.00000000000E+00  0.00000000000E+00  0.52286463581E+03  0.52286463581E+03  0.00000000000E+00 0. -1.
         -2   -1    0    0    0  501 -0.00000000000E+00 -0.00000000000E+00 -0.36529646017E+02  0.36529646017E+02  0.00000000000E+00 0. -1.
         35    2    1    2    0    0  0.71054273576E-14  0.35527136788E-14  0.48633498980E+03  0.55939428183E+03  0.27640593381E+03 0.  0.
         25    2    3    3    0    0 -0.12785565503E+02  0.24939684201E+01  0.35735891430E+03  0.37891780858E+03  0.12531409123E+03 0.  0.
         25    2    3    3    0    0  0.12785565503E+02 -0.24939684201E+01  0.12897607550E+03  0.18047647326E+03  0.12556766616E+03 0.  0.
          5    1    4    4  502    0 -0.12923544425E+02 -0.53094216387E+02  0.26815288407E+03  0.27370435336E+03  0.47000000000E+01 0. -1.
         -5    1    4    4    0  502  0.13797892166E+00  0.55588184807E+02  0.89206030229E+02  0.10521345521E+03  0.47000000000E+01 0. -1.
          5    1    5    5  503    0  0.61516354940E+02 -0.20741701761E+02  0.10370430760E+03  0.12243836626E+03  0.47000000000E+01 0. -1.
         -5    1    5    5    0  503 -0.48730789437E+02  0.18247733341E+02  0.25271767892E+02  0.58038106995E+02  0.47000000000E+01 0. -1.
<mgrwt>
<rscale>  0 0.27640593E+03</rscale>
<asrwt>0</asrwt>
<pdfrwt beam="1">  1        2 0.80440708E-01 0.27640593E+03</pdfrwt>
<pdfrwt beam="2">  1       -2 0.56199459E-02 0.27640593E+03</pdfrwt>
<totfact> 0.96345458E+03</totfact>
</mgrwt>
</event>
<event>
 9    1  0.8122655E-001  0.2744890E+03  0.7818608E-02  0.1098738E+00
          2   -1    0    0  501    0  0.00000000000E+00  0.00000000000E+00  0.61896718163E+02  0.61896718163E+02  0.00000000000E+00 0.  1.
         -2   -1    0    0    0  501 -0.00000000000E+00 -0.00000000000E+00 -0.30431432817E+03  0.30431432817E+03  0.00000000000E+00 0.  1.
         35    2    1    2    0    0  0.00000000000E+00  0.14210854715E-13 -0.24241761001E+03  0.36621104634E+03  0.27448903952E+03 0.  0.
         25    2    3    3    0    0  0.27045082801E+01  0.45769563161E+02 -0.15899835470E+03  0.20778730894E+03  0.12566989171E+03 0.  0.
         25    2    3    3    0    0 -0.27045082801E+01 -0.45769563161E+02 -0.83419255305E+02  0.15842373739E+03  0.12663783454E+03 0.  0.
          5    1    4    4  502    0 -0.40175931586E+02  0.21783256970E+02 -0.51675642301E+01  0.46232126093E+02  0.47000000000E+01 0. -1.
         -5    1    4    4    0  502  0.42880439866E+02  0.23986306192E+02 -0.15383079047E+03  0.16155518285E+03  0.47000000000E+01 0. -1.
          5    1    5    5  503    0  0.50662666736E+02 -0.49122778620E+02 -0.76693989725E+02  0.10432550618E+03  0.47000000000E+01 0. -1.
         -5    1    5    5    0  503 -0.53367175016E+02  0.33532154591E+01 -0.67252655809E+01  0.54098231211E+02  0.47000000000E+01 0. -1.
<mgrwt>
<rscale>  0 0.27448904E+03</rscale>
<asrwt>0</asrwt>
<pdfrwt beam="1">  1        2 0.95225719E-02 0.27448904E+03</pdfrwt>
<pdfrwt beam="2">  1       -2 0.46817590E-01 0.27448904E+03</pdfrwt>
<totfact> 0.29730806E+03</totfact>
</mgrwt>
</event>
<event>
 9    1  0.8122655E-001  0.2752011E+03  0.7818608E-02  0.1098339E+00
         -1   -1    0    0    0  501 -0.00000000000E+00  0.00000000000E+00  0.45508310693E+02  0.45508310693E+02  0.00000000000E+00 0.  1.
          1   -1    0    0  501    0  0.00000000000E+00 -0.00000000000E+00 -0.41605391006E+03  0.41605391006E+03  0.00000000000E+00 0.  1.
         35    2    1    2    0    0  0.35527136788E-14 -0.17763568394E-14 -0.37054559936E+03  0.46156222075E+03  0.27520109450E+03 0.  0.
         25    2    3    3    0    0  0.17785877980E+02  0.93262221087E+00 -0.28511468370E+03  0.31189758577E+03  0.12518991136E+03 0.  0.
         25    2    3    3    0    0 -0.17785877980E+02 -0.93262221087E+00 -0.85430915662E+02  0.14966463498E+03  0.12158887439E+03 0.  0.
          5    1    4    4  502    0  0.29030332416E+02 -0.65907476683E+01 -0.39813453393E+01  0.30399658974E+02  0.47000000000E+01 0.  1.
         -5    1    4    4    0  502 -0.11244454436E+02  0.75233698792E+01 -0.28113333836E+03  0.28149792679E+03  0.47000000000E+01 0.  1.
          5    1    5    5  503    0  0.31357912960E+02  0.44291358226E+02 -0.26971520392E+02  0.60783188720E+02  0.47000000000E+01 0. -1.
         -5    1    5    5    0  503 -0.49143790941E+02 -0.45223980437E+02 -0.58459395270E+02  0.88881446264E+02  0.47000000000E+01 0. -1.
<mgrwt>
<rscale>  0 0.27520109E+03</rscale>
<asrwt>0</asrwt>
<pdfrwt beam="1">  1        1 0.64008297E-01 0.27520109E+03</pdfrwt>
<pdfrwt beam="2">  1       -1 0.70012782E-02 0.27520109E+03</pdfrwt>
<totfact> 0.60470622E+03</totfact>
</mgrwt>
</event>
<event>
 9    1  0.8122655E-001  0.2850876E+03  0.7818608E-02  0.1092942E+00
         -3   -1    0    0    0  501 -0.00000000000E+00  0.00000000000E+00  0.11308798439E+03  0.11308798439E+03  0.00000000000E+00 0.  1.
          3   -1    0    0  501    0  0.00000000000E+00 -0.00000000000E+00 -0.17967196928E+03  0.17967196928E+03  0.00000000000E+00 0.  1.
         35    2    1    2    0    0 -0.14210854715E-13  0.00000000000E+00 -0.66583984899E+02  0.29275995367E+03  0.28508764166E+03 0.  0.
         25    2    3    3    0    0 -0.74678767870E+02 -0.54762731783E+01 -0.48664447242E+01  0.13415906920E+03  0.11121180525E+03 0.  0.
         25    2    3    3    0    0  0.74678767870E+02  0.54762731783E+01 -0.61717540174E+02  0.15860088447E+03  0.12545229312E+03 0.  0.
          5    1    4    4  502    0 -0.44829893695E+02  0.41441314244E+02  0.30176515178E+02  0.68262830027E+02  0.47000000000E+01 0. -1.
         -5    1    4    4    0  502 -0.29848874175E+02 -0.46917587422E+02 -0.35042959902E+02  0.65896239178E+02  0.47000000000E+01 0. -1.
          5    1    5    5  503    0  0.83860597262E+02 -0.47298061759E+01  0.10646533959E+02  0.84796282495E+02  0.47000000000E+01 0.  1.
         -5    1    5    5    0  503 -0.91818293927E+01  0.10206079354E+02 -0.72364074134E+02  0.73804601971E+02  0.47000000000E+01 0.  1.
<mgrwt>
<rscale>  0 0.28508764E+03</rscale>
<asrwt>0</asrwt>
<pdfrwt beam="1">  1        3 0.27641841E-01 0.28508764E+03</pdfrwt>
<pdfrwt beam="2">  1       -3 0.17398151E-01 0.28508764E+03</pdfrwt>
<totfact> 0.91509279E+02</totfact>
</mgrwt>
</event>
<event>
 9    1  0.8122655E-001  0.2736861E+03  0.7818608E-02  0.1099188E+00
         -2   -1    0    0    0  501 -0.00000000000E+00  0.00000000000E+00  0.24241657789E+02  0.24241657789E+02  0.00000000000E+00 0.  1.
          2   -1    0    0  501    0  0.00000000000E+00 -0.00000000000E+00 -0.77247258573E+03  0.77247258573E+03  0.00000000000E+00 0.  1.
         35    2    1    2    0    0  0.35527136788E-14  0.71054273576E-14 -0.74823092794E+03  0.79671424352E+03  0.27368606888E+03 0.  0.
         25    2    3    3    0    0  0.36379706170E+01 -0.41227592143E+02 -0.48248003111E+03  0.50021742600E+03  0.12536962817E+03 0.  0.
         25    2    3    3    0    0 -0.36379706170E+01  0.41227592143E+02 -0.26575089683E+03  0.29649681752E+03  0.12479533024E+03 0.  0.
          5    1    4    4  502    0  0.32193668811E+02 -0.78406348837E+02 -0.31457112324E+03  0.32582367843E+03  0.47000000000E+01 0.  1.
         -5    1    4    4    0  502 -0.28555698194E+02  0.37178756694E+02 -0.16790890787E+03  0.17439374757E+03  0.47000000000E+01 0.  1.
          5    1    5    5  503    0 -0.47169373388E+02  0.25666988590E+02 -0.23421630336E+03  0.24033957404E+03  0.47000000000E+01 0.  1.
         -5    1    5    5    0  503  0.43531402772E+02  0.15560603553E+02 -0.31534593469E+02  0.56157243482E+02  0.47000000000E+01 0.  1.
<mgrwt>
<rscale>  0 0.27368607E+03</rscale>
<asrwt>0</asrwt>
<pdfrwt beam="1">  1        2 0.11884194E+00 0.27368607E+03</pdfrwt>
<pdfrwt beam="2">  1       -2 0.37294857E-02 0.27368607E+03</pdfrwt>
<totfact> 0.11289319E+04</totfact>
</mgrwt>
</event>
<event>
 9    1  0.8122655E-001  0.2748143E+03  0.7818608E-02  0.1098555E+00
          2   -1    0    0  501    0  0.00000000000E+00  0.00000000000E+00  0.13645789443E+04  0.13645789443E+04  0.00000000000E+00 0.  1.
         -2   -1    0    0    0  501 -0.00000000000E+00 -0.00000000000E+00 -0.13836296241E+02  0.13836296241E+02  0.00000000000E+00 0.  1.
         35    2    1    2    0    0 -0.71054273576E-14 -0.71054273576E-14  0.13507426480E+04  0.13784152405E+04  0.27481425376E+03 0.  0.
         25    2    3    3    0    0 -0.14780490330E+02 -0.30257661775E+02  0.90660677729E+03  0.91570820208E+03  0.12430476158E+03 0.  0.
         25    2    3    3    0    0  0.14780490330E+02  0.30257661775E+02  0.44413587074E+03  0.46270703843E+03  0.12532814025E+03 0.  0.
          5    1    4    4  502    0 -0.49631007541E+02  0.33151758249E+01  0.16232819107E+03  0.16984333639E+03  0.47000000000E+01 0.  1.
         -5    1    4    4    0  502  0.34850517211E+02 -0.33572837599E+02  0.74427858622E+03  0.74586486570E+03  0.47000000000E+01 0.  1.
          5    1    5    5  503    0 -0.54335115051E+02  0.16745638720E+02  0.24092844854E+03  0.24759105084E+03  0.47000000000E+01 0. -1.
         -5    1    5    5    0  503  0.69115605381E+02  0.13512023054E+02  0.20320742220E+03  0.21511598758E+03  0.47000000000E+01 0. -1.
<mgrwt>
<rscale>  0 0.27481425E+03</rscale>
<asrwt>0</asrwt>
<pdfrwt beam="1">  1        2 0.20993512E+00 0.27481425E+03</pdfrwt>
<pdfrwt beam="2">  1       -2 0.21286620E-02 0.27481425E+03</pdfrwt>
<totfact> 0.11389366E+04</totfact>
</mgrwt>
</event>
<event>
 9    1  0.8122655E-001  0.2734914E+03  0.7818608E-02  0.1099298E+00
         -2   -1    0    0    0  501 -0.00000000000E+00  0.00000000000E+00  0.18514981814E+02  0.18514981814E+02  0.00000000000E+00 0.  1.
          2   -1    0    0  501    0  0.00000000000E+00 -0.00000000000E+00 -0.10099594582E+04  0.10099594582E+04  0.00000000000E+00 0.  1.
         35    2    1    2    0    0 -0.35527136788E-14  0.00000000000E+00 -0.99144447637E+03  0.10284744400E+04  0.27349136002E+03 0.  0.
         25    2    3    3    0    0  0.23672546017E+02 -0.43917683339E+02 -0.40430591119E+03  0.42623900229E+03  0.12540839248E+03 0.  0.
         25    2    3    3    0    0 -0.23672546017E+02  0.43917683339E+02 -0.58713856518E+03  0.60223543771E+03  0.12436508902E+03 0.  0.
          5    1    4    4  502    0  0.62822862893E+02  0.11179684265E+02 -0.24298086001E+03  0.25126377728E+03  0.47000000000E+01 0. -1.
         -5    1    4    4    0  502 -0.39150316876E+02 -0.55097367604E+02 -0.16132505118E+03  0.17497522501E+03  0.47000000000E+01 0. -1.
          5    1    5    5  503    0  0.22207823321E+02 -0.20548730890E+02 -0.36674822184E+03  0.36802416494E+03  0.47000000000E+01 0.  1.
         -5    1    5    5    0  503 -0.45880369337E+02  0.64466414229E+02 -0.22039034334E+03  0.23421127276E+03  0.47000000000E+01 0.  1.
<mgrwt>
<rscale>  0 0.27349136E+03</rscale>
<asrwt>0</asrwt>
<pdfrwt beam="1">  1        2 0.15537837E+00 0.27349136E+03</pdfrwt>
<pdfrwt beam="2">  1       -2 0.28484589E-02 0.27349136E+03</pdfrwt>
<totfact> 0.11815842E+04</totfact>
</mgrwt>
</event>
<event>
 9    1  0.8122655E-001  0.2778788E+03  0.7818608E-02  0.1096853E+00
         -1   -1    0    0    0  501 -0.00000000000E+00  0.00000000000E+00  0.10359006642E+03  0.10359006642E+03  0.00000000000E+00 0.  1.
          1   -1    0    0  501    0  0.00000000000E+00 -0.00000000000E+00 -0.18635149339E+03  0.18635149339E+03  0.00000000000E+00 0.  1.
         35    2    1    2    0    0  0.71054273576E-14 -0.71054273576E-14 -0.82761426964E+02  0.28994155981E+03  0.27787884826E+03 0.  0.
         25    2    3    3    0    0 -0.49510181953E+02  0.26216121009E+02 -0.35204166041E+02  0.14475862734E+03  0.12875241266E+03 0.  0.
         25    2    3    3    0    0  0.49510181953E+02 -0.26216121009E+02 -0.47557260923E+02  0.14518293247E+03  0.12521121234E+03 0.  0.
          5    1    4    4  502    0 -0.24679971019E+01  0.67843309386E+02 -0.44175582608E+02  0.81131854021E+02  0.47000000000E+01 0. -1.
         -5    1    4    4    0  502 -0.47042184851E+02 -0.41627188377E+02  0.89714165671E+01  0.63626773319E+02  0.47000000000E+01 0. -1.
          5    1    5    5  503    0 -0.25092294314E+02  0.28726061234E+02 -0.34222546522E+02  0.51459523107E+02  0.47000000000E+01 0. -1.
         -5    1    5    5    0  503  0.74602476267E+02 -0.54942182243E+02 -0.13334714401E+02  0.93723409364E+02  0.47000000000E+01 0. -1.
<mgrwt>
<rscale>  0 0.27787885E+03</rscale>
<asrwt>0</asrwt>
<pdfrwt beam="1">  1        1 0.28669460E-01 0.27787885E+03</pdfrwt>
<pdfrwt beam="2">  1       -1 0.15936933E-01 0.27787885E+03</pdfrwt>
<totfact> 0.46518715E+03</totfact>
</mgrwt>
</event>
<event>
 9    1  0.8122655E-001  0.2753569E+03  0.7818608E-02  0.1098252E+00
         -1   -1    0    0    0  501 -0.00000000000E+00  0.00000000000E+00  0.56726661369E+02  0.56726661369E+02  0.00000000000E+00 0. -1.
          1   -1    0    0  501    0  0.00000000000E+00 -0.00000000000E+00 -0.33415260570E+03  0.33415260570E+03  0.00000000000E+00 0. -1.
         35    2    1    2    0    0  0.00000000000E+00  0.17763568394E-14 -0.27742594433E+03  0.39087926707E+03  0.27535694441E+03 0.  0.
         25    2    3    3    0    0  0.57013383263E+02 -0.10973431532E+01 -0.93120837698E+02  0.16105929323E+03  0.11839288614E+03 0.  0.
         25    2    3    3    0    0 -0.57013383263E+02  0.10973431532E+01 -0.18430510663E+03  0.22981997384E+03  0.12488842225E+03 0.  0.
          5    1    4    4  502    0  0.92395635675E+02  0.11602499786E+02 -0.61321761131E+02  0.11159758009E+03  0.47000000000E+01 0. -1.
         -5    1    4    4    0  502 -0.35382252411E+02 -0.12699842939E+02 -0.31799076568E+02  0.49461713142E+02  0.47000000000E+01 0. -1.
          5    1    5    5  503    0  0.71774160285E+01  0.22458930776E+02 -0.15343889067E+03  0.15531098493E+03  0.47000000000E+01 0. -1.
         -5    1    5    5    0  503 -0.64190799292E+02 -0.21361587623E+02 -0.30866215964E+02  0.74508988903E+02  0.47000000000E+01 0. -1.
<mgrwt>
<rscale>  0 0.27535694E+03</rscale>
<asrwt>0</asrwt>
<pdfrwt beam="1">  1        1 0.51408094E-01 0.27535694E+03</pdfrwt>
<pdfrwt beam="2">  1       -1 0.87271785E-02 0.27535694E+03</pdfrwt>
<totfact> 0.57136855E+03</totfact>
</mgrwt>
</event>
<event>
 9    1  0.8122655E-001  0.2740606E+03  0.7818608E-02  0.1098978E+00
          3   -1    0    0  501    0  0.00000000000E+00  0.00000000000E+00  0.41666533552E+03  0.41666533552E+03  0.00000000000E+00 0.  1.
         -3   -1    0    0    0  501 -0.00000000000E+00 -0.00000000000E+00 -0.45065658741E+02  0.45065658741E+02  0.00000000000E+00 0.  1.
         35    2    1    2    0    0  0.00000000000E+00  0.71054273576E-14  0.37159967678E+03  0.46173099426E+03  0.27406056133E+03 0.  0.
         25    2    3    3    0    0 -0.30904624351E+02 -0.21685990208E+02  0.25246305683E+03  0.28435258395E+03  0.12527337689E+03 0.  0.
         25    2    3    3    0    0  0.30904624351E+02  0.21685990208E+02  0.11913661994E+03  0.17737841031E+03  0.12587369961E+03 0.  0.
          5    1    4    4  502    0 -0.66564062847E+02 -0.46945688463E+02  0.19943012888E+03  0.21547421756E+03  0.47000000000E+01 0.  1.
         -5    1    4    4    0  502  0.35659438497E+02  0.25259698255E+02  0.53032927956E+02  0.68878366396E+02  0.47000000000E+01 0.  1.
          5    1    5    5  503    0  0.63550378191E+01 -0.74179493090E+01 -0.25516935332E+02  0.27723933097E+02  0.47000000000E+01 0.  1.
         -5    1    5    5    0  503  0.24549586532E+02  0.29103939517E+02  0.14465355528E+03  0.14965447721E+03  0.47000000000E+01 0.  1.
<mgrwt>
<rscale>  0 0.27406056E+03</rscale>
<asrwt>0</asrwt>
<pdfrwt beam="1">  1        3 0.64102357E-01 0.27406056E+03</pdfrwt>
<pdfrwt beam="2">  1       -3 0.69331786E-02 0.27406056E+03</pdfrwt>
<totfact> 0.82132475E+02</totfact>
</mgrwt>
</event>
<event>
 9    1  0.8122655E-001  0.2738999E+03  0.7818608E-02  0.1099068E+00
          2   -1    0    0  501    0  0.00000000000E+00  0.00000000000E+00  0.12739805281E+04  0.12739805281E+04  0.00000000000E+00 0. -1.
         -2   -1    0    0    0  501 -0.00000000000E+00 -0.00000000000E+00 -0.14721800963E+02  0.14721800963E+02  0.00000000000E+00 0. -1.
         35    2    1    2    0    0 -0.14210854715E-13 -0.17763568394E-14  0.12592587272E+04  0.12887023291E+04  0.27389989242E+03 0.  0.
         25    2    3    3    0    0  0.36885080404E+02 -0.97991528062E+01  0.81822801168E+03  0.82854767992E+03  0.12465009526E+03 0.  0.
         25    2    3    3    0    0 -0.36885080404E+02  0.97991528062E+01  0.44103071550E+03  0.46015464919E+03  0.12560922181E+03 0.  0.
          5    1    4    4  502    0 -0.42068647434E+00  0.47802900398E+02  0.53224097087E+03  0.53440418724E+03  0.47000000000E+01 0. -1.
         -5    1    4    4    0  502  0.37305766879E+02 -0.57602053204E+02  0.28598704080E+03  0.29414349268E+03  0.47000000000E+01 0. -1.
          5    1    5    5  503    0 -0.83363141315E+02  0.12054437023E+02  0.29406779013E+03  0.30592920419E+03  0.47000000000E+01 0. -1.
         -5    1    5    5    0  503  0.46478060910E+02 -0.22552842169E+01  0.14696292537E+03  0.15422544500E+03  0.47000000000E+01 0. -1.
<mgrwt>
<rscale>  0 0.27389989E+03</rscale>
<asrwt>0</asrwt>
<pdfrwt beam="1">  1        2 0.19599692E+00 0.27389989E+03</pdfrwt>
<pdfrwt beam="2">  1       -2 0.22648935E-02 0.27389989E+03</pdfrwt>
<totfact> 0.11660143E+04</totfact>
</mgrwt>
</event>
<event>
 9    1  0.8122655E-001  0.2727008E+03  0.7818608E-02  0.1099744E+00
          2   -1    0    0  501    0  0.00000000000E+00  0.00000000000E+00  0.35578670387E+03  0.35578670387E+03  0.00000000000E+00 0.  1.
         -2   -1    0    0    0  501 -0.00000000000E+00 -0.00000000000E+00 -0.52254431202E+02  0.52254431202E+02  0.00000000000E+00 0.  1.
         35    2    1    2    0    0 -0.17763568394E-14 -0.71054273576E-14  0.30353227267E+03  0.40804113507E+03  0.27270080191E+03 0.  0.
         25    2    3    3    0    0  0.10751500722E+02  0.40583526617E+02  0.92300364040E+02  0.15917426429E+03  0.12269666585E+03 0.  0.
         25    2    3    3    0    0 -0.10751500722E+02 -0.40583526617E+02  0.21123190863E+03  0.24886687078E+03  0.12471240014E+03 0.  0.
          5    1    4    4  502    0 -0.15643425858E+02  0.49305655086E+02 -0.10143202184E+02  0.52922008150E+02  0.47000000000E+01 0. -1.
         -5    1    4    4    0  502  0.26394926580E+02 -0.87221284691E+01  0.10244356622E+03  0.10625225614E+03  0.47000000000E+01 0. -1.
          5    1    5    5  503    0 -0.45129932960E+02  0.28967712559E+02  0.89100204867E+02  0.10409983538E+03  0.47000000000E+01 0.  1.
         -5    1    5    5    0  503  0.34378432238E+02 -0.69551239176E+02  0.12213170376E+03  0.14476703540E+03  0.47000000000E+01 0.  1.
<mgrwt>
<rscale>  0 0.27270080E+03</rscale>
<asrwt>0</asrwt>
<pdfrwt beam="1">  1        2 0.54736415E-01 0.27270080E+03</pdfrwt>
<pdfrwt beam="2">  1       -2 0.80391435E-02 0.27270080E+03</pdfrwt>
<totfact> 0.84528203E+03</totfact>
</mgrwt>
</event>
<event>
 9    1  0.8122655E-001  0.2854555E+03  0.7818608E-02  0.1092746E+00
          2   -1    0    0  501    0  0.00000000000E+00  0.00000000000E+00  0.21480369588E+03  0.21480369588E+03  0.00000000000E+00 0.  1.
         -2   -1    0    0    0  501 -0.00000000000E+00 -0.00000000000E+00 -0.94836397735E+02  0.94836397735E+02  0.00000000000E+00 0.  1.
         35    2    1    2    0    0  0.00000000000E+00  0.00000000000E+00  0.11996729815E+03  0.30964009362E+03  0.28545548681E+03 0.  0.
         25    2    3    3    0    0 -0.98803880901E+00 -0.61310941908E+02  0.25110942548E+02  0.14081799291E+03  0.12425433544E+03 0.  0.
         25    2    3    3    0    0  0.98803880901E+00  0.61310941908E+02  0.94856355600E+02  0.16882210070E+03  0.12547177240E+03 0.  0.
          5    1    4    4  502    0  0.32770539831E+02 -0.60664485600E+02 -0.30538854630E+02  0.75556599553E+02  0.47000000000E+01 0. -1.
         -5    1    4    4    0  502 -0.33758578640E+02 -0.64645630868E+00  0.55649797179E+02  0.65261393362E+02  0.47000000000E+01 0. -1.
          5    1    5    5  503    0  0.10368574961E+02  0.67810023508E+02  0.12141672677E+03  0.13953429032E+03  0.47000000000E+01 0. -1.
         -5    1    5    5    0  503 -0.93805361523E+01 -0.64990815993E+01 -0.26560371174E+02  0.29287810383E+02  0.47000000000E+01 0. -1.
<mgrwt>
<rscale>  0 0.28545549E+03</rscale>
<asrwt>0</asrwt>
<pdfrwt beam="1">  1        2 0.33046722E-01 0.28545549E+03</pdfrwt>
<pdfrwt beam="2">  1       -2 0.14590215E-01 0.28545549E+03</pdfrwt>
<totfact> 0.56183577E+03</totfact>
</mgrwt>
</event>
<event>
 9    1  0.8122655E-001  0.2752863E+03  0.7818608E-02  0.1098292E+00
          2   -1    0    0  501    0  0.00000000000E+00  0.00000000000E+00  0.93857599898E+03  0.93857599898E+03  0.00000000000E+00 0. -1.
         -2   -1    0    0    0  501 -0.00000000000E+00 -0.00000000000E+00 -0.20185506319E+02  0.20185506319E+02  0.00000000000E+00 0. -1.
         35    2    1    2    0    0  0.00000000000E+00  0.71054273576E-14  0.91839049266E+03  0.95876150529E+03  0.27528626379E+03 0.  0.
         25    2    3    3    0    0 -0.40121594278E+02 -0.45433345134E+02  0.47573787235E+03  0.49474976736E+03  0.12156018237E+03 0.  0.
         25    2    3    3    0    0  0.40121594278E+02  0.45433345134E+02  0.44265262031E+03  0.46401173794E+03  0.12526619455E+03 0.  0.
          5    1    4    4  502    0 -0.53476062092E+02 -0.24371767326E+02  0.46228072062E+03  0.46602492092E+03  0.47000000000E+01 0.  1.
         -5    1    4    4    0  502  0.13354467813E+02 -0.21061577808E+02  0.13457151725E+02  0.28724846438E+02  0.47000000000E+01 0.  1.
          5    1    5    5  503    0  0.57806515231E+02  0.50019710195E+02  0.13067947792E+03  0.15146874450E+03  0.47000000000E+01 0. -1.
         -5    1    5    5    0  503 -0.17684920952E+02 -0.45863650611E+01  0.31197314239E+03  0.31254299343E+03  0.47000000000E+01 0. -1.
<mgrwt>
<rscale>  0 0.27528626E+03</rscale>
<asrwt>0</asrwt>
<pdfrwt beam="1">  1        2 0.14439627E+00 0.27528626E+03</pdfrwt>
<pdfrwt beam="2">  1       -2 0.31054632E-02 0.27528626E+03</pdfrwt>
<totfact> 0.11508712E+04</totfact>
</mgrwt>
</event>
<event>
 9    1  0.8122655E-001  0.2750187E+03  0.7818608E-02  0.1098441E+00
          2   -1    0    0  501    0  0.00000000000E+00  0.00000000000E+00  0.21166911076E+03  0.21166911076E+03  0.00000000000E+00 0.  1.
         -2   -1    0    0    0  501 -0.00000000000E+00 -0.00000000000E+00 -0.89332006816E+02  0.89332006816E+02  0.00000000000E+00 0.  1.
         35    2    1    2    0    0  0.00000000000E+00  0.71054273576E-14  0.12233710395E+03  0.30100111758E+03  0.27501873715E+03 0.  0.
         25    2    3    3    0    0 -0.42017274557E+02  0.49429769873E+02  0.64157234566E+02  0.15041129955E+03  0.11957698263E+03 0.  0.
         25    2    3    3    0    0  0.42017274557E+02 -0.49429769873E+02  0.58179869380E+02  0.15058981803E+03  0.12281548185E+03 0.  0.
          5    1    4    4  502    0 -0.71074204027E+02  0.58777827807E+02  0.73628223464E+02  0.11810834353E+03  0.47000000000E+01 0.  1.
         -5    1    4    4    0  502  0.29056929470E+02 -0.93480579345E+01 -0.94709888985E+01  0.32302956027E+02  0.47000000000E+01 0.  1.
          5    1    5    5  503    0  0.20853553492E+01 -0.27712350751E+02 -0.36111183662E+02  0.45808631027E+02  0.47000000000E+01 0. -1.
         -5    1    5    5    0  503  0.39931919208E+02 -0.21717419122E+02  0.94291053043E+02  0.10478118700E+03  0.47000000000E+01 0. -1.
<mgrwt>
<rscale>  0 0.27501874E+03</rscale>
<asrwt>0</asrwt>
<pdfrwt beam="1">  1        2 0.32564478E-01 0.27501874E+03</pdfrwt>
<pdfrwt beam="2">  1       -2 0.13743386E-01 0.27501874E+03</pdfrwt>
<totfact> 0.62903741E+03</totfact>
</mgrwt>
</event>
<event>
 9    1  0.8122655E-001  0.2750820E+03  0.7818608E-02  0.1098406E+00
          2   -1    0    0  501    0  0.00000000000E+00  0.00000000000E+00  0.89502947948E+02  0.89502947948E+02  0.00000000000E+00 0.  1.
         -2   -1    0    0    0  501 -0.00000000000E+00 -0.00000000000E+00 -0.21136204517E+03  0.21136204517E+03  0.00000000000E+00 0.  1.
         35    2    1    2    0    0  0.35527136788E-14 -0.14210854715E-13 -0.12185909722E+03  0.30086499311E+03  0.27508199597E+03 0.  0.
         25    2    3    3    0    0  0.87149566145E+01 -0.36497756792E+02 -0.10427428027E+03  0.16741144581E+03  0.12548079512E+03 0.  0.
         25    2    3    3    0    0 -0.87149566145E+01  0.36497756792E+02 -0.17584816946E+02  0.13345354730E+03  0.12685655987E+03 0.  0.
          5    1    4    4  502    0 -0.25730071677E+02 -0.70195332723E+02 -0.89666588477E+02  0.11684009763E+03  0.47000000000E+01 0.  1.
         -5    1    4    4    0  502  0.34445028292E+02  0.33697575931E+02 -0.14607691795E+02  0.50571348184E+02  0.47000000000E+01 0.  1.
          5    1    5    5  503    0 -0.21041517004E+00 -0.46500298309E+02 -0.17448579275E+02  0.49888525095E+02  0.47000000000E+01 0. -1.
         -5    1    5    5    0  503 -0.85045414444E+01  0.82998055101E+02 -0.13623767072E+00  0.83565022207E+02  0.47000000000E+01 0. -1.
<mgrwt>
<rscale>  0 0.27508200E+03</rscale>
<asrwt>0</asrwt>
<pdfrwt beam="1">  1        2 0.13769684E-01 0.27508200E+03</pdfrwt>
<pdfrwt beam="2">  1       -2 0.32517237E-01 0.27508200E+03</pdfrwt>
<totfact> 0.37877870E+03</totfact>
</mgrwt>
</event>
<event>
 9    1  0.8122655E-001  0.2753483E+03  0.7818608E-02  0.1098257E+00
          2   -1    0    0  501    0  0.00000000000E+00  0.00000000000E+00  0.79777544414E+03  0.79777544414E+03  0.00000000000E+00 0. -1.
         -2   -1    0    0    0  501 -0.00000000000E+00 -0.00000000000E+00 -0.23758774632E+02  0.23758774632E+02  0.00000000000E+00 0. -1.
         35    2    1    2    0    0  0.71054273576E-14 -0.71054273576E-14  0.77401666951E+03  0.82153421877E+03  0.27534826663E+03 0.  0.
         25    2    3    3    0    0 -0.44471985330E+02  0.28328124691E+02  0.46065734669E+03  0.48020132726E+03  0.12493151533E+03 0.  0.
         25    2    3    3    0    0  0.44471985330E+02 -0.28328124691E+02  0.31335932283E+03  0.34133289151E+03  0.12463481655E+03 0.  0.
          5    1    4    4  502    0 -0.41127611248E+02  0.71831914315E+02  0.21076021106E+03  0.22648015561E+03  0.47000000000E+01 0. -1.
         -5    1    4    4    0  502 -0.33443740823E+01 -0.43503789624E+02  0.24989713563E+03  0.25372117165E+03  0.47000000000E+01 0. -1.
          5    1    5    5  503    0  0.80415526658E+02 -0.45368540215E+02  0.24805479875E+03  0.26472293922E+03  0.47000000000E+01 0.  1.
         -5    1    5    5    0  503 -0.35943541328E+02  0.17040415524E+02  0.65304524079E+02  0.76609952288E+02  0.47000000000E+01 0.  1.
<mgrwt>
<rscale>  0 0.27534827E+03</rscale>
<asrwt>0</asrwt>
<pdfrwt beam="1">  1        2 0.12273466E+00 0.27534827E+03</pdfrwt>
<pdfrwt beam="2">  1       -2 0.36551967E-02 0.27534827E+03</pdfrwt>
<totfact> 0.11173137E+04</totfact>
</mgrwt>
</event>
<event>
 9    1  0.8122655E-001  0.2746587E+03  0.7818608E-02  0.1098643E+00
          2   -1    0    0  501    0  0.00000000000E+00  0.00000000000E+00  0.62272852861E+02  0.62272852861E+02  0.00000000000E+00 0. -1.
         -2   -1    0    0    0  501 -0.00000000000E+00 -0.00000000000E+00 -0.30285020504E+03  0.30285020504E+03  0.00000000000E+00 0. -1.
         35    2    1    2    0    0 -0.71054273576E-14  0.00000000000E+00 -0.24057735218E+03  0.36512305790E+03  0.27465867004E+03 0.  0.
         25    2    3    3    0    0 -0.26360817874E+02 -0.46051092042E+02 -0.13721054688E+03  0.19283887147E+03  0.12467758570E+03 0.  0.
         25    2    3    3    0    0  0.26360817874E+02  0.46051092042E+02 -0.10336680530E+03  0.17228418643E+03  0.12720671626E+03 0.  0.
          5    1    4    4  502    0 -0.14355001774E+02  0.17489996031E+02  0.14893236328E+02  0.27492990477E+02  0.47000000000E+01 0. -1.
         -5    1    4    4    0  502 -0.12005816100E+02 -0.63541088073E+02 -0.15210378321E+03  0.16534588099E+03  0.47000000000E+01 0. -1.
          5    1    5    5  503    0 -0.19524579248E+02  0.69254154470E+01 -0.10945192773E+03  0.11149432747E+03  0.47000000000E+01 0. -1.
         -5    1    5    5    0  503  0.45885397122E+02  0.39125676595E+02  0.60851224330E+01  0.60789858966E+02  0.47000000000E+01 0. -1.
<mgrwt>
<rscale>  0 0.27465867E+03</rscale>
<asrwt>0</asrwt>
<pdfrwt beam="1">  1        2 0.95804389E-02 0.27465867E+03</pdfrwt>
<pdfrwt beam="2">  1       -2 0.46592339E-01 0.27465867E+03</pdfrwt>
<totfact> 0.29788721E+03</totfact>
</mgrwt>
</event>
<event>
 9    1  0.8122655E-001  0.2805093E+03  0.7818608E-02  0.1095411E+00
          3   -1    0    0  501    0  0.00000000000E+00  0.00000000000E+00  0.42532265874E+02  0.42532265874E+02  0.00000000000E+00 0. -1.
         -3   -1    0    0    0  501 -0.00000000000E+00 -0.00000000000E+00 -0.46250468306E+03  0.46250468306E+03  0.00000000000E+00 0. -1.
         35    2    1    2    0    0  0.00000000000E+00 -0.71054273576E-14 -0.41997241718E+03  0.50503694893E+03  0.28050933780E+03 0.  0.
         25    2    3    3    0    0  0.19534151049E+02  0.48657556259E+02 -0.14021754344E+03  0.19444659382E+03  0.12409422839E+03 0.  0.
         25    2    3    3    0    0 -0.19534151049E+02 -0.48657556259E+02 -0.27975487374E+03  0.31059035511E+03  0.12431588181E+03 0.  0.
          5    1    4    4  502    0 -0.47213805022E+02 -0.42356868149E+01 -0.65922640237E+02  0.81332459223E+02  0.47000000000E+01 0.  1.
         -5    1    4    4    0  502  0.66747956071E+02  0.52893243074E+02 -0.74294903207E+02  0.11311413459E+03  0.47000000000E+01 0.  1.
          5    1    5    5  503    0 -0.62186965341E+02 -0.63876434801E+02 -0.19134769723E+03  0.21114793112E+03  0.47000000000E+01 0.  1.
         -5    1    5    5    0  503  0.42652814292E+02  0.15218878542E+02 -0.88407176514E+02  0.99442423996E+02  0.47000000000E+01 0.  1.
<mgrwt>
<rscale>  0 0.28050934E+03</rscale>
<asrwt>0</asrwt>
<pdfrwt beam="1">  1        3 0.65434251E-02 0.28050934E+03</pdfrwt>
<pdfrwt beam="2">  1       -3 0.71154572E-01 0.28050934E+03</pdfrwt>
<totfact> 0.72375832E+02</totfact>
</mgrwt>
</event>
<event>
 9    1  0.8122655E-001  0.2757876E+03  0.7818608E-02  0.1098012E+00
         -1   -1    0    0    0  501 -0.00000000000E+00  0.00000000000E+00  0.31053509225E+03  0.31053509225E+03  0.00000000000E+00 0. -1.
          1   -1    0    0  501    0  0.00000000000E+00 -0.00000000000E+00 -0.61232051511E+02  0.61232051511E+02  0.00000000000E+00 0. -1.
         35    2    1    2    0    0  0.00000000000E+00  0.71054273576E-14  0.24930304074E+03  0.37176714376E+03  0.27578760498E+03 0.  0.
         25    2    3    3    0    0 -0.63637191103E+01  0.42075282138E+02  0.72414238724E+02  0.15040590861E+03  0.12476894280E+03 0.  0.
         25    2    3    3    0    0  0.63637191103E+01 -0.42075282138E+02  0.17688880202E+03  0.22136123515E+03  0.12609647838E+03 0.  0.
          5    1    4    4  502    0  0.44108405031E+02 -0.27093450213E+01  0.69760894800E+02  0.82713749692E+02  0.47000000000E+01 0.  1.
         -5    1    4    4    0  502 -0.50472124142E+02  0.44784627159E+02  0.26533439234E+01  0.67692158919E+02  0.47000000000E+01 0.  1.
          5    1    5    5  503    0  0.36344760751E+01 -0.46914507227E+02  0.19562598378E+03  0.20126051757E+03  0.47000000000E+01 0. -1.
         -5    1    5    5    0  503  0.27292430352E+01  0.48392250894E+01 -0.18737181758E+02  0.20100717581E+02  0.47000000000E+01 0. -1.
<mgrwt>
<rscale>  0 0.27578760E+03</rscale>
<asrwt>0</asrwt>
<pdfrwt beam="1">  1        1 0.94203158E-02 0.27578760E+03</pdfrwt>
<pdfrwt beam="2">  1       -1 0.47774629E-01 0.27578760E+03</pdfrwt>
<totfact> 0.30984476E+03</totfact>
</mgrwt>
</event>
<event>
 9    1  0.8122655E-001  0.2776027E+03  0.7818608E-02  0.1097006E+00
          3   -1    0    0  501    0  0.00000000000E+00  0.00000000000E+00  0.20409696200E+02  0.20409696200E+02  0.00000000000E+00 0.  1.
         -3   -1    0    0    0  501 -0.00000000000E+00 -0.00000000000E+00 -0.94395391478E+03  0.94395391478E+03  0.00000000000E+00 0.  1.
         35    2    1    2    0    0  0.00000000000E+00  0.00000000000E+00 -0.92354421858E+03  0.96436361098E+03  0.27760268462E+03 0.  0.
         25    2    3    3    0    0  0.31480212149E+01 -0.57911600486E+02 -0.40167692855E+03  0.42467588534E+03  0.12506633902E+03 0.  0.
         25    2    3    3    0    0 -0.31480212149E+01  0.57911600486E+02 -0.52186729003E+03  0.53968772563E+03  0.12471451115E+03 0.  0.
          5    1    4    4  502    0  0.55257614003E+02 -0.51500176068E+01 -0.10525311289E+03  0.11908078921E+03  0.47000000000E+01 0. -1.
         -5    1    4    4    0  502 -0.52109592788E+02 -0.52761582879E+02 -0.29642381566E+03  0.30559509613E+03  0.47000000000E+01 0. -1.
          5    1    5    5  503    0  0.22839635245E+02 -0.11807234055E+02 -0.36574884111E+03  0.36668155733E+03  0.47000000000E+01 0.  1.
         -5    1    5    5    0  503 -0.25987656460E+02  0.69718834541E+02 -0.15611844892E+03  0.17300616830E+03  0.47000000000E+01 0.  1.
<mgrwt>
<rscale>  0 0.27760268E+03</rscale>
<asrwt>0</asrwt>
<pdfrwt beam="1">  1        3 0.31399537E-02 0.27760268E+03</pdfrwt>
<pdfrwt beam="2">  1       -3 0.14522366E+00 0.27760268E+03</pdfrwt>
<totfact> 0.44664829E+02</totfact>
</mgrwt>
</event>
<event>
 9    1  0.8122655E-001  0.2751090E+03  0.7818608E-02  0.1098391E+00
          1   -1    0    0  501    0  0.00000000000E+00  0.00000000000E+00  0.37060231816E+02  0.37060231816E+02  0.00000000000E+00 0. -1.
         -1   -1    0    0    0  501 -0.00000000000E+00 -0.00000000000E+00 -0.51055358755E+03  0.51055358755E+03  0.00000000000E+00 0. -1.
         35    2    1    2    0    0  0.00000000000E+00  0.00000000000E+00 -0.47349335574E+03  0.54761381937E+03  0.27510895521E+03 0.  0.
         25    2    3    3    0    0 -0.54318526771E+02  0.18202812341E+02 -0.22316862447E+03  0.26217056491E+03  0.12508926984E+03 0.  0.
         25    2    3    3    0    0  0.54318526771E+02 -0.18202812341E+02 -0.25032473127E+03  0.28544325446E+03  0.12463360585E+03 0.  0.
          5    1    4    4  502    0 -0.25855256650E+02  0.66749161975E+02 -0.17039044416E+03  0.18487546723E+03  0.47000000000E+01 0. -1.
         -5    1    4    4    0  502 -0.28463270121E+02 -0.48546349634E+02 -0.52778180310E+02  0.77295097681E+02  0.47000000000E+01 0. -1.
          5    1    5    5  503    0  0.27069539769E+02 -0.71281204779E+02 -0.12370974123E+03  0.14539587412E+03  0.47000000000E+01 0.  1.
         -5    1    5    5    0  503  0.27248987002E+02  0.53078392438E+02 -0.12661499004E+03  0.14004738034E+03  0.47000000000E+01 0.  1.
<mgrwt>
<rscale>  0 0.27510896E+03</rscale>
<asrwt>0</asrwt>
<pdfrwt beam="1">  1        1 0.57015741E-02 0.27510896E+03</pdfrwt>
<pdfrwt beam="2">  1       -1 0.78546706E-01 0.27510896E+03</pdfrwt>
<totfact> 0.23456969E+03</totfact>
</mgrwt>
</event>
<event>
 9    1  0.8122655E-001  0.2940369E+03  0.7818608E-02  0.1088260E+00
         -2   -1    0    0    0  501 -0.00000000000E+00  0.00000000000E+00  0.71158388916E+02  0.71158388916E+02  0.00000000000E+00 0. -1.
          2   -1    0    0  501    0  0.00000000000E+00 -0.00000000000E+00 -0.30375091167E+03  0.30375091167E+03  0.00000000000E+00 0. -1.
         35    2    1    2    0    0  0.14210854715E-13  0.00000000000E+00 -0.23259252275E+03  0.37490930059E+03  0.29403690589E+03 0.  0.
         25    2    3    3    0    0  0.76392027778E+02 -0.45714991554E+01 -0.78808344250E+02  0.16624258393E+03  0.12477660468E+03 0.  0.
         25    2    3    3    0    0 -0.76392027778E+02  0.45714991554E+01 -0.15378417850E+03  0.20866671666E+03  0.11847187248E+03 0.  0.
          5    1    4    4  502    0 -0.10440175670E+02  0.34613968730E+02 -0.58176034924E+02  0.68656136934E+02  0.47000000000E+01 0. -1.
         -5    1    4    4    0  502  0.86832203448E+02 -0.39185467885E+02 -0.20632309326E+02  0.97586446995E+02  0.47000000000E+01 0. -1.
          5    1    5    5  503    0 -0.44089813463E+02 -0.42555048274E+02 -0.13501633692E+03  0.14834535725E+03  0.47000000000E+01 0. -1.
         -5    1    5    5    0  503 -0.32302214316E+02  0.47126547429E+02 -0.18767841589E+02  0.60321359403E+02  0.47000000000E+01 0. -1.
<mgrwt>
<rscale>  0 0.29403691E+03</rscale>
<asrwt>0</asrwt>
<pdfrwt beam="1">  1        2 0.46730910E-01 0.29403691E+03</pdfrwt>
<pdfrwt beam="2">  1       -2 0.10947444E-01 0.29403691E+03</pdfrwt>
<totfact> 0.61653611E+03</totfact>
</mgrwt>
</event>
<event>
 9    1  0.8122655E-001  0.2749432E+03  0.7818608E-02  0.1098483E+00
         -1   -1    0    0    0  501 -0.00000000000E+00  0.00000000000E+00  0.50363705825E+02  0.50363705825E+02  0.00000000000E+00 0. -1.
          1   -1    0    0  501    0  0.00000000000E+00 -0.00000000000E+00 -0.37523920542E+03  0.37523920542E+03  0.00000000000E+00 0. -1.
         35    2    1    2    0    0  0.35527136788E-14  0.00000000000E+00 -0.32487549960E+03  0.42560291125E+03  0.27494317199E+03 0.  0.
         25    2    3    3    0    0 -0.10736737611E+00  0.54259491161E+02 -0.19622642801E+03  0.23833696896E+03  0.12391769775E+03 0.  0.
         25    2    3    3    0    0  0.10736737611E+00 -0.54259491161E+02 -0.12864907159E+03  0.18726594229E+03  0.12479521470E+03 0.  0.
          5    1    4    4  502    0 -0.19078873594E+02  0.43105990653E+02 -0.20773023798E+03  0.21306353893E+03  0.47000000000E+01 0. -1.
         -5    1    4    4    0  502  0.18971506217E+02  0.11153500509E+02  0.11503809974E+02  0.25273430034E+02  0.47000000000E+01 0. -1.
          5    1    5    5  503    0 -0.55410771548E+02 -0.14879334569E+02 -0.95266695506E+02  0.11130849686E+03  0.47000000000E+01 0.  1.
         -5    1    5    5    0  503  0.55518138924E+02 -0.39380156592E+02 -0.33382376084E+02  0.75957445428E+02  0.47000000000E+01 0.  1.
<mgrwt>
<rscale>  0 0.27494317E+03</rscale>
<asrwt>0</asrwt>
<pdfrwt beam="1">  1        1 0.57729112E-01 0.27494317E+03</pdfrwt>
<pdfrwt beam="2">  1       -1 0.77482620E-02 0.27494317E+03</pdfrwt>
<totfact> 0.59155202E+03</totfact>
</mgrwt>
</event>
<event>
 9    1  0.8122655E-001  0.2763786E+03  0.7818608E-02  0.1097683E+00
          1   -1    0    0  501    0  0.00000000000E+00  0.00000000000E+00  0.63614714841E+03  0.63614714841E+03  0.00000000000E+00 0.  1.
         -1   -1    0    0    0  501 -0.00000000000E+00 -0.00000000000E+00 -0.30018657582E+02  0.30018657582E+02  0.00000000000E+00 0.  1.
         35    2    1    2    0    0 -0.14210854715E-13  0.00000000000E+00  0.60612849082E+03  0.66616580599E+03  0.27637860568E+03 0.  0.
         25    2    3    3    0    0 -0.42820626298E+02 -0.29296049096E+02  0.22734270142E+03  0.26469226649E+03  0.12524147685E+03 0.  0.
         25    2    3    3    0    0  0.42820626298E+02  0.29296049096E+02  0.37878578941E+03  0.40147353950E+03  0.12251719932E+03 0.  0.
          5    1    4    4  502    0  0.26699092312E+02  0.20004739962E+02  0.17098529036E+02  0.37782017501E+02  0.47000000000E+01 0.  1.
         -5    1    4    4    0  502 -0.69519718610E+02 -0.49300789058E+02  0.21024417238E+03  0.22691024899E+03  0.47000000000E+01 0.  1.
          5    1    5    5  503    0 -0.21188335144E+01  0.14070928059E+02  0.33911950377E+03  0.33945045045E+03  0.47000000000E+01 0. -1.
         -5    1    5    5    0  503  0.44939459813E+02  0.15225121037E+02  0.39666285640E+02  0.62023089050E+02  0.47000000000E+01 0. -1.
<mgrwt>
<rscale>  0 0.27637861E+03</rscale>
<asrwt>0</asrwt>
<pdfrwt beam="1">  1        1 0.97868782E-01 0.27637861E+03</pdfrwt>
<pdfrwt beam="2">  1       -1 0.46182555E-02 0.27637861E+03</pdfrwt>
<totfact> 0.64012697E+03</totfact>
</mgrwt>
</event>
<event>
 9    1  0.8122655E-001  0.2730517E+03  0.7818608E-02  0.1099546E+00
          2   -1    0    0  501    0  0.00000000000E+00  0.00000000000E+00  0.70913007339E+02  0.70913007339E+02  0.00000000000E+00 0. -1.
         -2   -1    0    0    0  501 -0.00000000000E+00 -0.00000000000E+00 -0.26284742537E+03  0.26284742537E+03  0.00000000000E+00 0. -1.
         35    2    1    2    0    0  0.71054273576E-14  0.00000000000E+00 -0.19193441803E+03  0.33376043271E+03  0.27305165375E+03 0.  0.
         25    2    3    3    0    0 -0.29114357217E+02 -0.45810260909E+02 -0.10662351524E+03  0.17276363229E+03  0.12462934180E+03 0.  0.
         25    2    3    3    0    0  0.29114357217E+02  0.45810260909E+02 -0.85310902792E+02  0.16099680042E+03  0.12528285521E+03 0.  0.
          5    1    4    4  502    0  0.28973554734E+00 -0.29126730611E+02  0.23825207767E+02  0.37923355705E+02  0.47000000000E+01 0. -1.
         -5    1    4    4    0  502 -0.29404092765E+02 -0.16683530298E+02 -0.13044872301E+03  0.13484027658E+03  0.47000000000E+01 0. -1.
          5    1    5    5  503    0  0.63067700086E+01 -0.38883199538E+02 -0.16672830377E+01  0.39705772716E+02  0.47000000000E+01 0. -1.
         -5    1    5    5    0  503  0.22807587209E+02  0.84693460447E+02 -0.83643619755E+02  0.12129102771E+03  0.47000000000E+01 0. -1.
<mgrwt>
<rscale>  0 0.27305165E+03</rscale>
<asrwt>0</asrwt>
<pdfrwt beam="1">  1        2 0.10909693E-01 0.27305165E+03</pdfrwt>
<pdfrwt beam="2">  1       -2 0.40438065E-01 0.27305165E+03</pdfrwt>
<totfact> 0.33373720E+03</totfact>
</mgrwt>
</event>
<event>
 9    1  0.8122655E-001  0.2730687E+03  0.7818608E-02  0.1099536E+00
         -2   -1    0    0    0  501 -0.00000000000E+00  0.00000000000E+00  0.20854139415E+02  0.20854139415E+02  0.00000000000E+00 0.  1.
          2   -1    0    0  501    0  0.00000000000E+00 -0.00000000000E+00 -0.89390531841E+03  0.89390531841E+03  0.00000000000E+00 0.  1.
         35    2    1    2    0    0  0.00000000000E+00  0.00000000000E+00 -0.87305117899E+03  0.91475945782E+03  0.27306868099E+03 0.  0.
         25    2    3    3    0    0 -0.31377588121E+02 -0.38433343595E+02 -0.35929339345E+03  0.38362364035E+03  0.12495471149E+03 0.  0.
         25    2    3    3    0    0  0.31377588121E+02  0.38433343595E+02 -0.51375778555E+03  0.53113581747E+03  0.12528575122E+03 0.  0.
          5    1    4    4  502    0 -0.56661492709E+02 -0.68353355312E+02 -0.29578128451E+03  0.30885492421E+03  0.47000000000E+01 0. -1.
         -5    1    4    4    0  502  0.25283904588E+02  0.29920011718E+02 -0.63512108933E+02  0.74768716142E+02  0.47000000000E+01 0. -1.
          5    1    5    5  503    0 -0.30456101851E+02 -0.17641056110E+02 -0.59835972211E+02  0.69578837092E+02  0.47000000000E+01 0.  1.
         -5    1    5    5    0  503  0.61833689972E+02  0.56074399704E+02 -0.45392181334E+03  0.46155698038E+03  0.47000000000E+01 0.  1.
<mgrwt>
<rscale>  0 0.27306868E+03</rscale>
<asrwt>0</asrwt>
<pdfrwt beam="1">  1        2 0.13752386E+00 0.27306868E+03</pdfrwt>
<pdfrwt beam="2">  1       -2 0.32083298E-02 0.27306868E+03</pdfrwt>
<totfact> 0.11705683E+04</totfact>
</mgrwt>
</event>
<event>
 9    1  0.8122655E-001  0.2756412E+03  0.7818608E-02  0.1098094E+00
         -1   -1    0    0    0  501 -0.00000000000E+00  0.00000000000E+00  0.32541703702E+02  0.32541703702E+02  0.00000000000E+00 0.  1.
          1   -1    0    0  501    0  0.00000000000E+00 -0.00000000000E+00 -0.58369772674E+03  0.58369772674E+03  0.00000000000E+00 0.  1.
         35    2    1    2    0    0  0.71054273576E-14 -0.71054273576E-14 -0.55115602304E+03  0.61623943044E+03  0.27564120501E+03 0.  0.
         25    2    3    3    0    0 -0.84280974662E+01 -0.52670005667E+02 -0.33209596401E+03  0.35867453978E+03  0.12455735165E+03 0.  0.
         25    2    3    3    0    0  0.84280974662E+01  0.52670005667E+02 -0.21906005902E+03  0.25756489066E+03  0.12452791300E+03 0.  0.
          5    1    4    4  502    0 -0.57150572658E+02 -0.90575543398E+01 -0.23099088912E+03  0.23817453286E+03  0.47000000000E+01 0. -1.
         -5    1    4    4    0  502  0.48722475192E+02 -0.43612451328E+02 -0.10110507489E+03  0.12050000692E+03  0.47000000000E+01 0. -1.
          5    1    5    5  503    0 -0.51984423727E+02  0.47362849537E+02 -0.85500812343E+02  0.11080658256E+03  0.47000000000E+01 0. -1.
         -5    1    5    5    0  503  0.60412521193E+02  0.53071561308E+01 -0.13355924668E+03  0.14675830810E+03  0.47000000000E+01 0. -1.
<mgrwt>
<rscale>  0 0.27564121E+03</rscale>
<asrwt>0</asrwt>
<pdfrwt beam="1">  1        1 0.89799658E-01 0.27564121E+03</pdfrwt>
<pdfrwt beam="2">  1       -1 0.50064155E-02 0.27564121E+03</pdfrwt>
<totfact> 0.63963737E+03</totfact>
</mgrwt>
</event>
<event>
 9    1  0.8122655E-001  0.2771377E+03  0.7818608E-02  0.1097263E+00
         -2   -1    0    0    0  501 -0.00000000000E+00  0.00000000000E+00  0.53066590448E+01  0.53066590448E+01  0.00000000000E+00 0.  1.
          2   -1    0    0  501    0  0.00000000000E+00 -0.00000000000E+00 -0.36183465868E+04  0.36183465868E+04  0.00000000000E+00 0.  1.
         35    2    1    2    0    0 -0.71054273576E-14  0.00000000000E+00 -0.36130399278E+04  0.36236532459E+04  0.27713773935E+03 0.  0.
         25    2    3    3    0    0 -0.34651901888E+02 -0.40125952139E+02 -0.22352510223E+04  0.22392041977E+04  0.12197319413E+03 0.  0.
         25    2    3    3    0    0  0.34651901888E+02  0.40125952139E+02 -0.13777889055E+04  0.13844490482E+04  0.12484411280E+03 0.  0.
          5    1    4    4  502    0 -0.17920934216E+02  0.33563696493E+02 -0.14010673007E+04  0.14015917211E+04  0.47000000000E+01 0.  1.
         -5    1    4    4    0  502 -0.16730967673E+02 -0.73689648632E+02 -0.83418372157E+03  0.83761247658E+03  0.47000000000E+01 0.  1.
          5    1    5    5  503    0 -0.16666708180E+02 -0.22046718537E+02 -0.93215587466E+02  0.97339985137E+02  0.47000000000E+01 0.  1.
         -5    1    5    5    0  503  0.51318610068E+02  0.62172670676E+02 -0.12845733181E+04  0.12871090631E+04  0.47000000000E+01 0.  1.
<mgrwt>
<rscale>  0 0.27713774E+03</rscale>
<asrwt>0</asrwt>
<pdfrwt beam="1">  1        2 0.55666602E+00 0.27713774E+03</pdfrwt>
<pdfrwt beam="2">  1       -2 0.81641303E-03 0.27713774E+03</pdfrwt>
<totfact> 0.24153520E+03</totfact>
</mgrwt>
</event>
<event>
 9    1  0.8122655E-001  0.2752103E+03  0.7818608E-02  0.1098334E+00
         -3   -1    0    0    0  501 -0.00000000000E+00  0.00000000000E+00  0.25863351633E+03  0.25863351633E+03  0.00000000000E+00 0. -1.
          3   -1    0    0  501    0  0.00000000000E+00 -0.00000000000E+00 -0.73212376168E+02  0.73212376168E+02  0.00000000000E+00 0. -1.
         35    2    1    2    0    0 -0.35527136788E-14 -0.17763568394E-14  0.18542114016E+03  0.33184589250E+03  0.27521027806E+03 0.  0.
         25    2    3    3    0    0 -0.17394220265E+02 -0.58862731949E+00  0.15792588003E+03  0.20323936087E+03  0.12673890027E+03 0.  0.
         25    2    3    3    0    0  0.17394220265E+02  0.58862731949E+00  0.27495260137E+02  0.12860653163E+03  0.12442164309E+03 0.  0.
          5    1    4    4  502    0  0.45347840693E+01  0.23260342246E+02  0.16741899512E+03  0.16915323738E+03  0.47000000000E+01 0.  1.
         -5    1    4    4    0  502 -0.21929004334E+02 -0.23848969565E+02 -0.94931150930E+01  0.34086123490E+02  0.47000000000E+01 0.  1.
          5    1    5    5  503    0 -0.30393587901E+02 -0.13940068656E+02  0.59985552345E+02  0.68836416160E+02  0.47000000000E+01 0. -1.
         -5    1    5    5    0  503  0.47787808166E+02  0.14528695976E+02 -0.32490292207E+02  0.59770115474E+02  0.47000000000E+01 0. -1.
<mgrwt>
<rscale>  0 0.27521028E+03</rscale>
<asrwt>0</asrwt>
<pdfrwt beam="1">  1        3 0.11263443E-01 0.27521028E+03</pdfrwt>
<pdfrwt beam="2">  1       -3 0.39789771E-01 0.27521028E+03</pdfrwt>
<totfact> 0.96455600E+02</totfact>
</mgrwt>
</event>
<event>
 9    1  0.8122655E-001  0.2735168E+03  0.7818608E-02  0.1099284E+00
         -2   -1    0    0    0  501 -0.00000000000E+00  0.00000000000E+00  0.12342920354E+02  0.12342920354E+02  0.00000000000E+00 0. -1.
          2   -1    0    0  501    0  0.00000000000E+00 -0.00000000000E+00 -0.15152706087E+04  0.15152706087E+04  0.00000000000E+00 0. -1.
         35    2    1    2    0    0  0.71054273576E-14  0.71054273576E-14 -0.15029276883E+04  0.15276135290E+04  0.27351683267E+03 0.  0.
         25    2    3    3    0    0  0.18176110826E+02 -0.18864564940E+02 -0.47383852778E+03  0.49072381893E+03  0.12490265505E+03 0.  0.
         25    2    3    3    0    0 -0.18176110826E+02  0.18864564940E+02 -0.10290891605E+04  0.10368897101E+04  0.12421565021E+03 0.  0.
          5    1    4    4  502    0 -0.16162026885E+02  0.44624500151E+02 -0.11209225476E+03  0.12181675051E+03  0.47000000000E+01 0.  1.
         -5    1    4    4    0  502  0.34338137711E+02 -0.63489065092E+02 -0.36174627302E+03  0.36890706842E+03  0.47000000000E+01 0.  1.
          5    1    5    5  503    0 -0.38905716507E+02  0.60560600457E+02 -0.43311922173E+03  0.43908494774E+03  0.47000000000E+01 0. -1.
         -5    1    5    5    0  503  0.20729605681E+02 -0.41696035517E+02 -0.59596993882E+03  0.59780476236E+03  0.47000000000E+01 0. -1.
<mgrwt>
<rscale>  0 0.27351683E+03</rscale>
<asrwt>0</asrwt>
<pdfrwt beam="1">  1        2 0.23311866E+00 0.27351683E+03</pdfrwt>
<pdfrwt beam="2">  1       -2 0.18989099E-02 0.27351683E+03</pdfrwt>
<totfact> 0.11170919E+04</totfact>
</mgrwt>
</event>
<event>
 9    1  0.8122655E-001  0.2730737E+03  0.7818608E-02  0.1099533E+00
         -3   -1    0    0    0  501 -0.00000000000E+00  0.00000000000E+00  0.33024126880E+03  0.33024126880E+03  0.00000000000E+00 0.  1.
          3   -1    0    0  501    0  0.00000000000E+00 -0.00000000000E+00 -0.56450584615E+02  0.56450584615E+02  0.00000000000E+00 0.  1.
         35    2    1    2    0    0  0.71054273576E-14  0.00000000000E+00  0.27379068418E+03  0.38669185341E+03  0.27307370937E+03 0.  0.
         25    2    3    3    0    0  0.28736014154E+02 -0.34078795379E+02  0.90983910411E+02  0.16090918606E+03  0.12500628545E+03 0.  0.
         25    2    3    3    0    0 -0.28736014154E+02  0.34078795379E+02  0.18280677377E+03  0.22578266735E+03  0.12478931659E+03 0.  0.
          5    1    4    4  502    0 -0.39861950137E+02  0.18834415958E+02  0.42993340584E+02  0.61759433512E+02  0.47000000000E+01 0.  1.
         -5    1    4    4    0  502  0.68597964290E+02 -0.52913211337E+02  0.47990569827E+02  0.99149752552E+02  0.47000000000E+01 0.  1.
          5    1    5    5  503    0 -0.38485509271E+02  0.77705492220E+02  0.13130675880E+03  0.15742564230E+03  0.47000000000E+01 0. -1.
         -5    1    5    5    0  503  0.97494951173E+01 -0.43626696841E+02  0.51500014968E+02  0.68357025052E+02  0.47000000000E+01 0. -1.
<mgrwt>
<rscale>  0 0.27307371E+03</rscale>
<asrwt>0</asrwt>
<pdfrwt beam="1">  1        3 0.86847056E-02 0.27307371E+03</pdfrwt>
<pdfrwt beam="2">  1       -3 0.50806348E-01 0.27307371E+03</pdfrwt>
<totfact> 0.91592835E+02</totfact>
</mgrwt>
</event>
<event>
 9    1  0.8122655E-001  0.2757364E+03  0.7818608E-02  0.1098041E+00
         -1   -1    0    0    0  501 -0.00000000000E+00  0.00000000000E+00  0.31709661571E+02  0.31709661571E+02  0.00000000000E+00 0. -1.
          1   -1    0    0  501    0  0.00000000000E+00 -0.00000000000E+00 -0.59942755215E+03  0.59942755215E+03  0.00000000000E+00 0. -1.
         35    2    1    2    0    0  0.71054273576E-14  0.71054273576E-14 -0.56771789058E+03  0.63113721373E+03  0.27573643078E+03 0.  0.
         25    2    3    3    0    0 -0.21369254322E+02 -0.35561457927E+02 -0.22110838616E+03  0.26035774557E+03  0.13105714374E+03 0.  0.
         25    2    3    3    0    0  0.21369254322E+02  0.35561457927E+02 -0.34660950442E+03  0.37077946816E+03  0.12497200940E+03 0.  0.
          5    1    4    4  502    0 -0.43599328589E+02 -0.75621516438E+02 -0.17256576914E+03  0.19344391922E+03  0.47000000000E+01 0. -1.
         -5    1    4    4    0  502  0.22230074267E+02  0.40060058511E+02 -0.48542617020E+02  0.66913826351E+02  0.47000000000E+01 0. -1.
          5    1    5    5  503    0  0.59716907036E+02  0.39657928782E+02 -0.11259026435E+03  0.13355717100E+03  0.47000000000E+01 0.  1.
         -5    1    5    5    0  503 -0.38347652714E+02 -0.40964708544E+01 -0.23401924007E+03  0.23722229715E+03  0.47000000000E+01 0.  1.
<mgrwt>
<rscale>  0 0.27573643E+03</rscale>
<asrwt>0</asrwt>
<pdfrwt beam="1">  1        1 0.92219621E-01 0.27573643E+03</pdfrwt>
<pdfrwt beam="2">  1       -1 0.48784096E-02 0.27573643E+03</pdfrwt>
<totfact> 0.64092582E+03</totfact>
</mgrwt>
</event>
<event>
 9    1  0.8122655E-001  0.2772574E+03  0.7818608E-02  0.1097196E+00
          2   -1    0    0  501    0  0.00000000000E+00  0.00000000000E+00  0.27546569752E+04  0.27546569752E+04  0.00000000000E+00 0.  1.
         -2   -1    0    0    0  501 -0.00000000000E+00 -0.00000000000E+00 -0.69765204901E+01  0.69765204901E+01  0.00000000000E+00 0.  1.
         35    2    1    2    0    0  0.35527136788E-14 -0.35527136788E-14  0.27476804547E+04  0.27616334957E+04  0.27725743150E+03 0.  0.
         25    2    3    3    0    0 -0.17596736025E+02  0.16915838669E+02  0.80661558377E+03  0.81653572511E+03  0.12452349047E+03 0.  0.
         25    2    3    3    0    0  0.17596736025E+02 -0.16915838669E+02  0.19410648709E+04  0.19450977706E+04  0.12278726813E+03 0.  0.
          5    1    4    4  502    0 -0.37328194204E+02  0.30763404708E+02  0.11981542157E+03  0.12929658309E+03  0.47000000000E+01 0. -1.
         -5    1    4    4    0  502  0.19731458179E+02 -0.13847566039E+02  0.68680016220E+03  0.68723914202E+03  0.47000000000E+01 0. -1.
          5    1    5    5  503    0 -0.12800579570E+02 -0.57801836876E+02  0.57147971428E+03  0.57455727392E+03  0.47000000000E+01 0.  1.
         -5    1    5    5    0  503  0.30397315595E+02  0.40885998208E+02  0.13695851566E+04  0.13705404966E+04  0.47000000000E+01 0.  1.
<mgrwt>
<rscale>  0 0.27725743E+03</rscale>
<asrwt>0</asrwt>
<pdfrwt beam="1">  1        2 0.42379251E+00 0.27725743E+03</pdfrwt>
<pdfrwt beam="2">  1       -2 0.10733130E-02 0.27725743E+03</pdfrwt>
<totfact> 0.55618708E+03</totfact>
</mgrwt>
</event>
<event>
 9    1  0.8122655E-001  0.2772631E+03  0.7818608E-02  0.1097193E+00
         -1   -1    0    0    0  501 -0.00000000000E+00  0.00000000000E+00  0.59686568852E+02  0.59686568852E+02  0.00000000000E+00 0. -1.
          1   -1    0    0  501    0  0.00000000000E+00 -0.00000000000E+00 -0.32199390349E+03  0.32199390349E+03  0.00000000000E+00 0. -1.
         35    2    1    2    0    0  0.71054273576E-14  0.26645352591E-14 -0.26230733464E+03  0.38168047234E+03  0.27726313344E+03 0.  0.
         25    2    3    3    0    0 -0.52156666476E+02 -0.74173199172E+01 -0.16778867370E+03  0.21577571916E+03  0.12502314772E+03 0.  0.
         25    2    3    3    0    0  0.52156666476E+02  0.74173199172E+01 -0.94518660943E+02  0.16590475318E+03  0.12575879838E+03 0.  0.
          5    1    4    4  502    0  0.33754177989E+02 -0.28047555793E+02 -0.35580363359E+02  0.56692699481E+02  0.47000000000E+01 0.  1.
         -5    1    4    4    0  502 -0.85910844465E+02  0.20630235876E+02 -0.13220831034E+03  0.15908301968E+03  0.47000000000E+01 0.  1.
          5    1    5    5  503    0 -0.26410892801E+02  0.12747272196E+02  0.13106351312E+02  0.32463743649E+02  0.47000000000E+01 0.  1.
         -5    1    5    5    0  503  0.78567559277E+02 -0.53299522792E+01 -0.10762501225E+03  0.13344100953E+03  0.47000000000E+01 0.  1.
<mgrwt>
<rscale>  0 0.27726313E+03</rscale>
<asrwt>0</asrwt>
<pdfrwt beam="1">  1        1 0.49537523E-01 0.27726313E+03</pdfrwt>
<pdfrwt beam="2">  1       -1 0.91825491E-02 0.27726313E+03</pdfrwt>
<totfact> 0.55386846E+03</totfact>
</mgrwt>
</event>
<event>
 9    1  0.8122655E-001  0.2745296E+03  0.7818608E-02  0.1098715E+00
          1   -1    0    0  501    0  0.00000000000E+00  0.00000000000E+00  0.53809669860E+02  0.53809669860E+02  0.00000000000E+00 0.  1.
         -1   -1    0    0    0  501 -0.00000000000E+00 -0.00000000000E+00 -0.35015315982E+03  0.35015315982E+03  0.00000000000E+00 0.  1.
         35    2    1    2    0    0  0.00000000000E+00  0.00000000000E+00 -0.29634348996E+03  0.40396282968E+03  0.27452960445E+03 0.  0.
         25    2    3    3    0    0 -0.45428841243E+02  0.20845321122E+02 -0.18518686573E+03  0.22910674677E+03  0.12528934171E+03 0.  0.
         25    2    3    3    0    0  0.45428841243E+02 -0.20845321122E+02 -0.11115662423E+03  0.17485608291E+03  0.12538160787E+03 0.  0.
          5    1    4    4  502    0 -0.47498333405E+02 -0.43846735250E+02 -0.12398808957E+03  0.13990626942E+03  0.47000000000E+01 0.  1.
         -5    1    4    4    0  502  0.20694921616E+01  0.64692056372E+02 -0.61198776160E+02  0.89200477347E+02  0.47000000000E+01 0.  1.
          5    1    5    5  503    0  0.32804658503E+02 -0.72984257524E+02 -0.56066815596E+02  0.97818327919E+02  0.47000000000E+01 0.  1.
         -5    1    5    5    0  503  0.12624182740E+02  0.52138936402E+02 -0.55089808635E+02  0.77037754994E+02  0.47000000000E+01 0.  1.
<mgrwt>
<rscale>  0 0.27452960E+03</rscale>
<asrwt>0</asrwt>
<pdfrwt beam="1">  1        1 0.82784108E-02 0.27452960E+03</pdfrwt>
<pdfrwt beam="2">  1       -1 0.53869716E-01 0.27452960E+03</pdfrwt>
<totfact> 0.29533002E+03</totfact>
</mgrwt>
</event>
<event>
 9    1  0.8122655E-001  0.2746973E+03  0.7818608E-02  0.1098621E+00
          2   -1    0    0  501    0  0.00000000000E+00  0.00000000000E+00  0.24418541024E+04  0.24418541024E+04  0.00000000000E+00 0. -1.
         -2   -1    0    0    0  501 -0.00000000000E+00 -0.00000000000E+00 -0.77255420959E+01  0.77255420959E+01  0.00000000000E+00 0. -1.
         35    2    1    2    0    0  0.00000000000E+00  0.35527136788E-14  0.24341285603E+04  0.24495796445E+04  0.27469726362E+03 0.  0.
         25    2    3    3    0    0  0.14074193779E+02 -0.86833511203E+01  0.75587339479E+03  0.76655126904E+03  0.12642300265E+03 0.  0.
         25    2    3    3    0    0 -0.14074193779E+02  0.86833511203E+01  0.16782551655E+04  0.16830283755E+04  0.12558116298E+03 0.  0.
          5    1    4    4  502    0 -0.84894162634E+01  0.69633340713E+01  0.72448698514E+03  0.72458542619E+03  0.47000000000E+01 0.  1.
         -5    1    4    4    0  502  0.22563610042E+02 -0.15646685192E+02  0.31386409657E+02  0.41965842858E+02  0.47000000000E+01 0.  1.
          5    1    5    5  503    0 -0.12480525879E+02  0.63302021871E+02  0.62318452418E+03  0.62653327978E+03  0.47000000000E+01 0.  1.
         -5    1    5    5    0  503 -0.15936678994E+01 -0.54618670751E+02  0.10550706414E+04  0.10564950957E+04  0.47000000000E+01 0.  1.
<mgrwt>
<rscale>  0 0.27469726E+03</rscale>
<asrwt>0</asrwt>
<pdfrwt beam="1">  1        2 0.37566925E+00 0.27469726E+03</pdfrwt>
<pdfrwt beam="2">  1       -2 0.11885469E-02 0.27469726E+03</pdfrwt>
<totfact> 0.71541021E+03</totfact>
</mgrwt>
</event>
<event>
 9    1  0.8122655E-001  0.2709984E+03  0.7818608E-02  0.1100710E+00
         -2   -1    0    0    0  501 -0.00000000000E+00  0.00000000000E+00  0.13211663017E+02  0.13211663017E+02  0.00000000000E+00 0. -1.
          2   -1    0    0  501    0  0.00000000000E+00 -0.00000000000E+00 -0.13896835608E+04  0.13896835608E+04  0.00000000000E+00 0. -1.
         35    2    1    2    0    0  0.00000000000E+00  0.71054273576E-14 -0.13764718977E+04  0.14028952238E+04  0.27099838305E+03 0.  0.
         25    2    3    3    0    0 -0.40514925997E+01 -0.26856921186E+02 -0.45577707141E+03  0.47326068261E+03  0.12451998261E+03 0.  0.
         25    2    3    3    0    0  0.40514925997E+01  0.26856921186E+02 -0.92069482634E+03  0.92963454118E+03  0.12571280003E+03 0.  0.
          5    1    4    4  502    0  0.22323611979E+02 -0.34710275778E+02 -0.43842818986E+03  0.44039131981E+03  0.47000000000E+01 0. -1.
         -5    1    4    4    0  502 -0.26375104578E+02  0.78533545922E+01 -0.17348881550E+02  0.32869362801E+02  0.47000000000E+01 0. -1.
          5    1    5    5  503    0 -0.25348085432E+02 -0.42680237958E+02 -0.46981547917E+03  0.47245402169E+03  0.47000000000E+01 0.  1.
         -5    1    5    5    0  503  0.29399578032E+02  0.69537159144E+02 -0.45087934717E+03  0.45718051948E+03  0.47000000000E+01 0.  1.
<mgrwt>
<rscale>  0 0.27099838E+03</rscale>
<asrwt>0</asrwt>
<pdfrwt beam="1">  1        2 0.21379724E+00 0.27099838E+03</pdfrwt>
<pdfrwt beam="2">  1       -2 0.20325657E-02 0.27099838E+03</pdfrwt>
<totfact> 0.11808916E+04</totfact>
</mgrwt>
</event>
<event>
 9    1  0.8122655E-001  0.3028867E+03  0.7818608E-02  0.1083806E+00
          4   -1    0    0  501    0  0.00000000000E+00  0.00000000000E+00  0.59329404213E+02  0.59329404213E+02  0.00000000000E+00 0. -1.
         -4   -1    0    0    0  501 -0.00000000000E+00 -0.00000000000E+00 -0.38657213661E+03  0.38657213661E+03  0.00000000000E+00 0. -1.
         35    2    1    2    0    0 -0.14210854715E-13  0.00000000000E+00 -0.32724273240E+03  0.44590154082E+03  0.30288674154E+03 0.  0.
         25    2    3    3    0    0 -0.81423884699E+02  0.15505414451E+02 -0.13665149242E+03  0.20314579390E+03  0.12539663600E+03 0.  0.
         25    2    3    3    0    0  0.81423884699E+02 -0.15505414451E+02 -0.19059123997E+03  0.24275574693E+03  0.12543948754E+03 0.  0.
          5    1    4    4  502    0 -0.32430277340E+02  0.64765933699E+02 -0.10247215169E+03  0.12557460304E+03  0.47000000000E+01 0. -1.
         -5    1    4    4    0  502 -0.48993607359E+02 -0.49260519248E+02 -0.34179340738E+02  0.77571190863E+02  0.47000000000E+01 0. -1.
          5    1    5    5  503    0  0.28907313675E+02  0.48909111067E+02 -0.36716786640E+02  0.67808158436E+02  0.47000000000E+01 0. -1.
         -5    1    5    5    0  503  0.52516571024E+02 -0.64414525518E+02 -0.15387445333E+03  0.17494758849E+03  0.47000000000E+01 0. -1.
<mgrwt>
<rscale>  0 0.30288674E+03</rscale>
<asrwt>0</asrwt>
<pdfrwt beam="1">  1        4 0.91276008E-02 0.30288674E+03</pdfrwt>
<pdfrwt beam="2">  1       -4 0.59472636E-01 0.30288674E+03</pdfrwt>
<totfact> 0.45350930E+02</totfact>
</mgrwt>
</event>
<event>
 9    1  0.8122655E-001  0.2688998E+03  0.7818608E-02  0.1101911E+00
          1   -1    0    0  501    0  0.00000000000E+00  0.00000000000E+00  0.68023373978E+03  0.68023373978E+03  0.00000000000E+00 0.  1.
         -1   -1    0    0    0  501 -0.00000000000E+00 -0.00000000000E+00 -0.26574365307E+02  0.26574365307E+02  0.00000000000E+00 0.  1.
         35    2    1    2    0    0 -0.35527136788E-14 -0.14210854715E-13  0.65365937448E+03  0.70680810509E+03  0.26889983187E+03 0.  0.
         25    2    3    3    0    0  0.20018041521E+02  0.34364309872E+02  0.36882552443E+03  0.39138125811E+03  0.12476134799E+03 0.  0.
         25    2    3    3    0    0 -0.20018041521E+02 -0.34364309872E+02  0.28483385005E+03  0.31542684698E+03  0.12954592191E+03 0.  0.
          5    1    4    4  502    0  0.39007652817E+02 -0.13018570428E+02  0.36684229789E+02  0.55307349145E+02  0.47000000000E+01 0.  1.
         -5    1    4    4    0  502 -0.18989611296E+02  0.47382880300E+02  0.33214129464E+03  0.33607390897E+03  0.47000000000E+01 0.  1.
          5    1    5    5  503    0 -0.28836896937E+02 -0.79398402196E+02  0.22123472274E+03  0.23685980124E+03  0.47000000000E+01 0.  1.
         -5    1    5    5    0  503  0.88188554161E+01  0.45034092323E+02  0.63599127305E+02  0.78567045739E+02  0.47000000000E+01 0.  1.
<mgrwt>
<rscale>  0 0.26889983E+03</rscale>
<asrwt>0</asrwt>
<pdfrwt beam="1">  1        1 0.10465133E+00 0.26889983E+03</pdfrwt>
<pdfrwt beam="2">  1       -1 0.40883644E-02 0.26889983E+03</pdfrwt>
<totfact> 0.69704496E+03</totfact>
</mgrwt>
</event>
<event>
 9    1  0.8122655E-001  0.2784479E+03  0.7818608E-02  0.1096540E+00
          1   -1    0    0  501    0  0.00000000000E+00  0.00000000000E+00  0.92851055013E+03  0.92851055013E+03  0.00000000000E+00 0.  1.
         -1   -1    0    0    0  501 -0.00000000000E+00 -0.00000000000E+00 -0.20875705674E+02  0.20875705674E+02  0.00000000000E+00 0.  1.
         35    2    1    2    0    0 -0.35527136788E-14  0.00000000000E+00  0.90763484445E+03  0.94938625580E+03  0.27844793381E+03 0.  0.
         25    2    3    3    0    0 -0.17594647938E+02 -0.19654018112E+02  0.28828538618E+03  0.31705337068E+03  0.12930013115E+03 0.  0.
         25    2    3    3    0    0  0.17594647938E+02  0.19654018112E+02  0.61934945828E+03  0.63233288512E+03  0.12472078443E+03 0.  0.
          5    1    4    4  502    0  0.29130620100E+02 -0.58081909256E+02  0.10104451913E+03  0.12022556324E+03  0.47000000000E+01 0. -1.
         -5    1    4    4    0  502 -0.46725268038E+02  0.38427891144E+02  0.18724086704E+03  0.19682780744E+03  0.47000000000E+01 0. -1.
          5    1    5    5  503    0  0.26115802356E+02  0.56007385163E+02  0.54955811128E+03  0.55304165304E+03  0.47000000000E+01 0.  1.
         -5    1    5    5    0  503 -0.85211544183E+01 -0.36353367051E+02  0.69791346996E+02  0.79291232076E+02  0.47000000000E+01 0.  1.
<mgrwt>
<rscale>  0 0.27844793E+03</rscale>
<asrwt>0</asrwt>
<pdfrwt beam="1">  1        1 0.14284774E+00 0.27844793E+03</pdfrwt>
<pdfrwt beam="2">  1       -1 0.32116477E-02 0.27844793E+03</pdfrwt>
<totfact> 0.61802696E+03</totfact>
</mgrwt>
</event>
<event>
 9    1  0.8122655E-001  0.2741170E+03  0.7818608E-02  0.1098946E+00
          2   -1    0    0  501    0  0.00000000000E+00  0.00000000000E+00  0.43143054659E+02  0.43143054659E+02  0.00000000000E+00 0.  1.
         -2   -1    0    0    0  501 -0.00000000000E+00 -0.00000000000E+00 -0.43541251109E+03  0.43541251109E+03  0.00000000000E+00 0.  1.
         35    2    1    2    0    0  0.00000000000E+00  0.00000000000E+00 -0.39226945643E+03  0.47855556575E+03  0.27411695143E+03 0.  0.
         25    2    3    3    0    0 -0.56712147410E+02  0.34775282234E+01 -0.21858349358E+03  0.25809917870E+03  0.12493230773E+03 0.  0.
         25    2    3    3    0    0  0.56712147410E+02 -0.34775282234E+01 -0.17368596284E+03  0.22045638704E+03  0.12331197846E+03 0.  0.
          5    1    4    4  502    0 -0.11265053935E+02  0.39300160963E+02 -0.11067399938E+02  0.42614333660E+02  0.47000000000E+01 0.  1.
         -5    1    4    4    0  502 -0.45447093475E+02 -0.35822632740E+02 -0.20751609365E+03  0.21548484504E+03  0.47000000000E+01 0.  1.
          5    1    5    5  503    0  0.29134279880E+02 -0.52921645730E+02 -0.14427945024E+03  0.15648692154E+03  0.47000000000E+01 0.  1.
         -5    1    5    5    0  503  0.27577867529E+02  0.49444117506E+02 -0.29406512605E+02  0.63969465505E+02  0.47000000000E+01 0.  1.
<mgrwt>
<rscale>  0 0.27411695E+03</rscale>
<asrwt>0</asrwt>
<pdfrwt beam="1">  1        2 0.66373931E-02 0.27411695E+03</pdfrwt>
<pdfrwt beam="2">  1       -2 0.66986540E-01 0.27411695E+03</pdfrwt>
<totfact> 0.22631875E+03</totfact>
</mgrwt>
</event>
<event>
 9    1  0.8122655E-001  0.2791533E+03  0.7818608E-02  0.1096152E+00
          4   -1    0    0  501    0  0.00000000000E+00  0.00000000000E+00  0.83596872672E+02  0.83596872672E+02  0.00000000000E+00 0. -1.
         -4   -1    0    0    0  501 -0.00000000000E+00 -0.00000000000E+00 -0.23304269524E+03  0.23304269524E+03  0.00000000000E+00 0. -1.
         35    2    1    2    0    0  0.14210854715E-13  0.35527136788E-14 -0.14944582257E+03  0.31663956791E+03  0.27915329495E+03 0.  0.
         25    2    3    3    0    0  0.45649643229E+02  0.15068916904E+02 -0.35483790816E+02  0.14113429126E+03  0.12786252999E+03 0.  0.
         25    2    3    3    0    0 -0.45649643229E+02 -0.15068916904E+02 -0.11396203175E+03  0.17550527665E+03  0.12451423721E+03 0.  0.
          5    1    4    4  502    0  0.77185750802E+02  0.33484523184E+02 -0.53833293817E+02  0.99994834581E+02  0.47000000000E+01 0.  1.
         -5    1    4    4    0  502 -0.31536107573E+02 -0.18415606280E+02  0.18349503000E+02  0.41139456680E+02  0.47000000000E+01 0.  1.
          5    1    5    5  503    0  0.27944180740E+02  0.17300981898E+02 -0.82699171975E+02  0.89114781362E+02  0.47000000000E+01 0. -1.
         -5    1    5    5    0  503 -0.73593823969E+02 -0.32369898802E+02 -0.31262859774E+02  0.86390495287E+02  0.47000000000E+01 0. -1.
<mgrwt>
<rscale>  0 0.27915329E+03</rscale>
<asrwt>0</asrwt>
<pdfrwt beam="1">  1        4 0.12861057E-01 0.27915329E+03</pdfrwt>
<pdfrwt beam="2">  1       -4 0.35852722E-01 0.27915329E+03</pdfrwt>
<totfact> 0.69866313E+02</totfact>
</mgrwt>
</event>
<event>
 9    1  0.8122655E-001  0.2751458E+03  0.7818608E-02  0.1098370E+00
         -2   -1    0    0    0  501 -0.00000000000E+00  0.00000000000E+00  0.97651632852E+01  0.97651632852E+01  0.00000000000E+00 0. -1.
          2   -1    0    0  501    0  0.00000000000E+00 -0.00000000000E+00 -0.19381455790E+04  0.19381455790E+04  0.00000000000E+00 0. -1.
         35    2    1    2    0    0  0.17763568394E-14 -0.35527136788E-14 -0.19283804157E+04  0.19479107423E+04  0.27514583805E+03 0.  0.
         25    2    3    3    0    0 -0.32186628863E+01 -0.17415982003E+02 -0.13507032842E+04  0.13565332557E+04  0.12437618656E+03 0.  0.
         25    2    3    3    0    0  0.32186628863E+01  0.17415982003E+02 -0.57767713157E+03  0.59137748659E+03  0.12531076206E+03 0.  0.
          5    1    4    4  502    0  0.24038213058E+02  0.12264024185E+02 -0.12043341048E+04  0.12046455777E+04  0.47000000000E+01 0. -1.
         -5    1    4    4    0  502 -0.27256875945E+02 -0.29680006187E+02 -0.14636917939E+03  0.15188767800E+03  0.47000000000E+01 0. -1.
          5    1    5    5  503    0 -0.14527868133E+01 -0.54239463807E+02 -0.26235773394E+03  0.26795092943E+03  0.47000000000E+01 0. -1.
         -5    1    5    5    0  503  0.46714496996E+01  0.71655445810E+02 -0.31531939763E+03  0.32342655716E+03  0.47000000000E+01 0. -1.
<mgrwt>
<rscale>  0 0.27514584E+03</rscale>
<asrwt>0</asrwt>
<pdfrwt beam="1">  1        2 0.29817599E+00 0.27514584E+03</pdfrwt>
<pdfrwt beam="2">  1       -2 0.15023341E-02 0.27514584E+03</pdfrwt>
<totfact> 0.94257364E+03</totfact>
</mgrwt>
</event>
<event>
 9    1  0.8122655E-001  0.2778485E+03  0.7818608E-02  0.1096870E+00
          4   -1    0    0  501    0  0.00000000000E+00  0.00000000000E+00  0.90731103302E+02  0.90731103302E+02  0.00000000000E+00 0.  1.
         -4   -1    0    0    0  501 -0.00000000000E+00 -0.00000000000E+00 -0.21271593207E+03  0.21271593207E+03  0.00000000000E+00 0.  1.
         35    2    1    2    0    0 -0.35527136788E-14  0.00000000000E+00 -0.12198482876E+03  0.30344703537E+03  0.27784852856E+03 0.  0.
         25    2    3    3    0    0 -0.10305399505E+02 -0.28606082740E+02 -0.11917106835E+03  0.17524609294E+03  0.12483965849E+03 0.  0.
         25    2    3    3    0    0  0.10305399505E+02  0.28606082740E+02 -0.28137604121E+01  0.12820094242E+03  0.12451126520E+03 0.  0.
          5    1    4    4  502    0 -0.13253291926E+02 -0.43731774945E+02  0.83684340299E+01  0.46693024905E+02  0.47000000000E+01 0.  1.
         -5    1    4    4    0  502  0.29478924206E+01  0.15125692205E+02 -0.12753950238E+03  0.12855306804E+03  0.47000000000E+01 0.  1.
          5    1    5    5  503    0 -0.39460773316E+02  0.57378298079E+02 -0.81858125134E+01  0.70274598879E+02  0.47000000000E+01 0.  1.
         -5    1    5    5    0  503  0.49766172821E+02 -0.28772215339E+02  0.53720521013E+01  0.57926343545E+02  0.47000000000E+01 0.  1.
<mgrwt>
<rscale>  0 0.27784853E+03</rscale>
<asrwt>0</asrwt>
<pdfrwt beam="1">  1        4 0.13958631E-01 0.27784853E+03</pdfrwt>
<pdfrwt beam="2">  1       -4 0.32725528E-01 0.27784853E+03</pdfrwt>
<totfact> 0.72273138E+02</totfact>
</mgrwt>
</event>
<event>
 9    1  0.8122655E-001  0.2705595E+03  0.7818608E-02  0.1100960E+00
         -1   -1    0    0    0  501 -0.00000000000E+00  0.00000000000E+00  0.70318882563E+03  0.70318882563E+03  0.00000000000E+00 0. -1.
          1   -1    0    0  501    0  0.00000000000E+00 -0.00000000000E+00 -0.26025171199E+02  0.26025171199E+02  0.00000000000E+00 0. -1.
         35    2    1    2    0    0  0.35527136788E-14  0.00000000000E+00  0.67716365443E+03  0.72921399683E+03  0.27055949122E+03 0.  0.
         25    2    3    3    0    0 -0.28688088327E+02  0.33837543312E+02  0.26075392411E+03  0.29217543333E+03  0.12412046228E+03 0.  0.
         25    2    3    3    0    0  0.28688088327E+02 -0.33837543312E+02  0.41640973033E+03  0.43703856350E+03  0.12505061665E+03 0.  0.
          5    1    4    4  502    0  0.27103003125E+02 -0.33131005019E+02  0.66699922777E+02  0.79392732479E+02  0.47000000000E+01 0.  1.
         -5    1    4    4    0  502 -0.55791091452E+02  0.66968548331E+02  0.19405400133E+03  0.21278270085E+03  0.47000000000E+01 0.  1.
          5    1    5    5  503    0 -0.28078514872E+02 -0.61943291431E+02  0.18874022165E+03  0.20067470099E+03  0.47000000000E+01 0.  1.
         -5    1    5    5    0  503  0.56766603199E+02  0.28105748119E+02  0.22766950868E+03  0.23636386250E+03  0.47000000000E+01 0.  1.
<mgrwt>
<rscale>  0 0.27055949E+03</rscale>
<asrwt>0</asrwt>
<pdfrwt beam="1">  1        1 0.40038730E-02 0.27055949E+03</pdfrwt>
<pdfrwt beam="2">  1       -1 0.10818288E+00 0.27055949E+03</pdfrwt>
<totfact> 0.19117748E+03</totfact>
</mgrwt>
</event>
<event>
 9    1  0.8122655E-001  0.3058969E+03  0.7818608E-02  0.1082329E+00
         -2   -1    0    0    0  501 -0.00000000000E+00  0.00000000000E+00  0.83279250432E+01  0.83279250432E+01  0.00000000000E+00 0.  1.
          2   -1    0    0  501    0  0.00000000000E+00 -0.00000000000E+00 -0.28090100372E+04  0.28090100372E+04  0.00000000000E+00 0.  1.
         35    2    1    2    0    0  0.14210854715E-13 -0.71054273576E-14 -0.28006821121E+04  0.28173379622E+04  0.30589687828E+03 0.  0.
         25    2    3    3    0    0  0.41898669540E+02  0.63607937442E+01 -0.68241279505E+03  0.69497297177E+03  0.12451606495E+03 0.  0.
         25    2    3    3    0    0 -0.41898669540E+02 -0.63607937442E+01 -0.21182693171E+04  0.21223649904E+04  0.12478900111E+03 0.  0.
          5    1    4    4  502    0  0.84398047923E+01 -0.48813555891E+02 -0.47758319902E+03  0.48016850744E+03  0.47000000000E+01 0.  1.
         -5    1    4    4    0  502  0.33458864748E+02  0.55174349636E+02 -0.20482959603E+03  0.21480446433E+03  0.47000000000E+01 0.  1.
          5    1    5    5  503    0 -0.39904746322E+02  0.53707055592E+02 -0.83939513711E+03  0.84207073503E+03  0.47000000000E+01 0. -1.
         -5    1    5    5    0  503 -0.19939232181E+01 -0.60067849336E+02 -0.12788741799E+04  0.12802942554E+04  0.47000000000E+01 0. -1.
<mgrwt>
<rscale>  0 0.30589688E+03</rscale>
<asrwt>0</asrwt>
<pdfrwt beam="1">  1        2 0.43215580E+00 0.30589688E+03</pdfrwt>
<pdfrwt beam="2">  1       -2 0.12812180E-02 0.30589688E+03</pdfrwt>
<totfact> 0.39927871E+03</totfact>
</mgrwt>
</event>
<event>
 9    1  0.8122655E-001  0.2754350E+03  0.7818608E-02  0.1098209E+00
         -2   -1    0    0    0  501 -0.00000000000E+00  0.00000000000E+00  0.18523681572E+02  0.18523681572E+02  0.00000000000E+00 0. -1.
          2   -1    0    0  501    0  0.00000000000E+00 -0.00000000000E+00 -0.10238845682E+04  0.10238845682E+04  0.00000000000E+00 0. -1.
         35    2    1    2    0    0  0.00000000000E+00  0.17763568394E-14 -0.10053608866E+04  0.10424082497E+04  0.27543501380E+03 0.  0.
         25    2    3    3    0    0  0.40133488296E+02  0.43503159764E+01 -0.60026538235E+03  0.61444586793E+03  0.12488223748E+03 0.  0.
         25    2    3    3    0    0 -0.40133488296E+02 -0.43503159764E+01 -0.40509550425E+03  0.42796238182E+03  0.13198412993E+03 0.  0.
          5    1    4    4  502    0 -0.31697355712E+02  0.38731228797E+02 -0.27371488543E+03  0.27829257796E+03  0.47000000000E+01 0. -1.
         -5    1    4    4    0  502  0.71830844008E+02 -0.34380912821E+02 -0.32655049693E+03  0.33615328997E+03  0.47000000000E+01 0. -1.
          5    1    5    5  503    0 -0.45344356629E+01 -0.76691664900E+00 -0.38795751790E+03  0.38801324071E+03  0.47000000000E+01 0.  1.
         -5    1    5    5    0  503 -0.35599052633E+02 -0.35833993274E+01 -0.17137986350E+02  0.39949141108E+02  0.47000000000E+01 0.  1.
<mgrwt>
<rscale>  0 0.27543501E+03</rscale>
<asrwt>0</asrwt>
<pdfrwt beam="1">  1        2 0.15752071E+00 0.27543501E+03</pdfrwt>
<pdfrwt beam="2">  1       -2 0.28497970E-02 0.27543501E+03</pdfrwt>
<totfact> 0.11582313E+04</totfact>
</mgrwt>
</event>
<event>
 9    1  0.8122655E-001  0.2745911E+03  0.7818608E-02  0.1098680E+00
         -1   -1    0    0    0  501 -0.00000000000E+00  0.00000000000E+00  0.16543717999E+04  0.16543717999E+04  0.00000000000E+00 0. -1.
          1   -1    0    0  501    0  0.00000000000E+00 -0.00000000000E+00 -0.11394097306E+02  0.11394097306E+02  0.00000000000E+00 0. -1.
         35    2    1    2    0    0 -0.14210854715E-13 -0.35527136788E-14  0.16429777026E+04  0.16657658972E+04  0.27459113801E+03 0.  0.
         25    2    3    3    0    0 -0.49393695598E+02  0.21760256558E+02  0.70277464501E+03  0.71573839354E+03  0.12440257387E+03 0.  0.
         25    2    3    3    0    0  0.49393695598E+02 -0.21760256558E+02  0.94020305757E+03  0.95002750365E+03  0.12512882284E+03 0.  0.
          5    1    4    4  502    0 -0.43185460919E+02 -0.42484942456E+02  0.20625260452E+03  0.21501669991E+03  0.47000000000E+01 0.  1.
         -5    1    4    4    0  502 -0.62082346789E+01  0.64245199014E+02  0.49652204050E+03  0.50072169363E+03  0.47000000000E+01 0.  1.
          5    1    5    5  503    0  0.36159980770E+02  0.84902023431E+01  0.88313706501E+03  0.88393031023E+03  0.47000000000E+01 0.  1.
         -5    1    5    5    0  503  0.13233714827E+02 -0.30250458901E+02  0.57065992554E+02  0.66097193420E+02  0.47000000000E+01 0.  1.
<mgrwt>
<rscale>  0 0.27459114E+03</rscale>
<asrwt>0</asrwt>
<pdfrwt beam="1">  1        1 0.17529394E-02 0.27459114E+03</pdfrwt>
<pdfrwt beam="2">  1       -1 0.25451855E+00 0.27459114E+03</pdfrwt>
<totfact> 0.54200447E+02</totfact>
</mgrwt>
</event>
<event>
 9    1  0.8122655E-001  0.2732434E+03  0.7818608E-02  0.1099438E+00
         -1   -1    0    0    0  501 -0.00000000000E+00  0.00000000000E+00  0.40486083755E+02  0.40486083755E+02  0.00000000000E+00 0. -1.
          1   -1    0    0  501    0  0.00000000000E+00 -0.00000000000E+00 -0.46103456187E+03  0.46103456187E+03  0.00000000000E+00 0. -1.
         35    2    1    2    0    0 -0.71054273576E-14  0.00000000000E+00 -0.42054847812E+03  0.50152064563E+03  0.27324336322E+03 0.  0.
         25    2    3    3    0    0  0.26546771182E+02 -0.39056139243E+02 -0.15384769028E+03  0.20295292200E+03  0.12365542315E+03 0.  0.
         25    2    3    3    0    0 -0.26546771182E+02  0.39056139243E+02 -0.26670078784E+03  0.29856772363E+03  0.12563145419E+03 0.  0.
          5    1    4    4  502    0  0.30337826768E+02 -0.50971955379E+02 -0.12280788288E+02  0.60757153728E+02  0.47000000000E+01 0. -1.
         -5    1    4    4    0  502 -0.37910555855E+01  0.11915816136E+02 -0.14156690199E+03  0.14219576828E+03  0.47000000000E+01 0. -1.
          5    1    5    5  503    0  0.45740740379E+02  0.39297366982E+02 -0.14212988608E+03  0.15446518345E+03  0.47000000000E+01 0.  1.
         -5    1    5    5    0  503 -0.72287511561E+02 -0.24122773853E+00 -0.12457090176E+03  0.14410254017E+03  0.47000000000E+01 0.  1.
<mgrwt>
<rscale>  0 0.27324336E+03</rscale>
<asrwt>0</asrwt>
<pdfrwt beam="1">  1        1 0.70928389E-01 0.27324336E+03</pdfrwt>
<pdfrwt beam="2">  1       -1 0.62286287E-02 0.27324336E+03</pdfrwt>
<totfact> 0.63163378E+03</totfact>
</mgrwt>
</event>
<event>
 9    1  0.8122655E-001  0.2867249E+03  0.7818608E-02  0.1092072E+00
         -2   -1    0    0    0  501 -0.00000000000E+00  0.00000000000E+00  0.18342641006E+03  0.18342641006E+03  0.00000000000E+00 0.  1.
          2   -1    0    0  501    0  0.00000000000E+00 -0.00000000000E+00 -0.11204927161E+03  0.11204927161E+03  0.00000000000E+00 0.  1.
         35    2    1    2    0    0 -0.71054273576E-14  0.71054273576E-14  0.71377138447E+02  0.29547568166E+03  0.28672492490E+03 0.  0.
         25    2    3    3    0    0 -0.52882950898E+02  0.49050783488E+02  0.36882339010E+02  0.14706501728E+03  0.12274048443E+03 0.  0.
         25    2    3    3    0    0  0.52882950898E+02 -0.49050783488E+02  0.34494799438E+02  0.14841066439E+03  0.12503298868E+03 0.  0.
          5    1    4    4  502    0 -0.26313997684E+02 -0.28990222324E+02  0.49763291660E+02  0.63492792200E+02  0.47000000000E+01 0.  1.
         -5    1    4    4    0  502 -0.26568953214E+02  0.78041005811E+02 -0.12880952651E+02  0.83572225076E+02  0.47000000000E+01 0.  1.
          5    1    5    5  503    0  0.10138177685E+02 -0.85521800713E+02  0.31921014998E+02  0.91966310367E+02  0.47000000000E+01 0. -1.
         -5    1    5    5    0  503  0.42744773213E+02  0.36471017225E+02  0.25737844397E+01  0.56444354020E+02  0.47000000000E+01 0. -1.
<mgrwt>
<rscale>  0 0.28672492E+03</rscale>
<asrwt>0</asrwt>
<pdfrwt beam="1">  1        2 0.17238350E-01 0.28672492E+03</pdfrwt>
<pdfrwt beam="2">  1       -2 0.28219448E-01 0.28672492E+03</pdfrwt>
<totfact> 0.37636203E+03</totfact>
</mgrwt>
</event>
<event>
 9    1  0.8122655E-001  0.3009695E+03  0.7818608E-02  0.1084757E+00
         -2   -1    0    0    0  501 -0.00000000000E+00  0.00000000000E+00  0.26415568341E+02  0.26415568341E+02  0.00000000000E+00 0. -1.
          2   -1    0    0  501    0  0.00000000000E+00 -0.00000000000E+00 -0.85728469274E+03  0.85728469274E+03  0.00000000000E+00 0. -1.
         35    2    1    2    0    0  0.00000000000E+00  0.00000000000E+00 -0.83086912440E+03  0.88370026108E+03  0.30096951599E+03 0.  0.
         25    2    3    3    0    0 -0.44748621972E+02  0.72255804265E+02 -0.40191124842E+03  0.42925300495E+03  0.12450763120E+03 0.  0.
         25    2    3    3    0    0  0.44748621972E+02 -0.72255804265E+02 -0.42895787598E+03  0.45444725614E+03  0.12366935283E+03 0.  0.
          5    1    4    4  502    0 -0.32089784690E+02  0.96713849237E+01 -0.33477824757E+03  0.33648455390E+03  0.47000000000E+01 0.  1.
         -5    1    4    4    0  502 -0.12658837282E+02  0.62584419341E+02 -0.67133000853E+02  0.92768451044E+02  0.47000000000E+01 0.  1.
          5    1    5    5  503    0 -0.72813210679E+01  0.42589036515E+01 -0.27209967309E+03  0.27227096428E+03  0.47000000000E+01 0. -1.
         -5    1    5    5    0  503  0.52029943040E+02 -0.76514707916E+02 -0.15685820289E+03  0.18217629185E+03  0.47000000000E+01 0. -1.
<mgrwt>
<rscale>  0 0.30096952E+03</rscale>
<asrwt>0</asrwt>
<pdfrwt beam="1">  1        2 0.13188996E+00 0.30096952E+03</pdfrwt>
<pdfrwt beam="2">  1       -2 0.40639332E-02 0.30096952E+03</pdfrwt>
<totfact> 0.87040588E+03</totfact>
</mgrwt>
</event>
<event>
 9    1  0.8122655E-001  0.2745670E+03  0.7818608E-02  0.1098694E+00
         -1   -1    0    0    0  501 -0.00000000000E+00  0.00000000000E+00  0.12632342786E+03  0.12632342786E+03  0.00000000000E+00 0. -1.
          1   -1    0    0  501    0  0.00000000000E+00 -0.00000000000E+00 -0.14919451118E+03  0.14919451118E+03  0.00000000000E+00 0. -1.
         35    2    1    2    0    0  0.00000000000E+00  0.00000000000E+00 -0.22871083315E+02  0.27551793904E+03  0.27456701965E+03 0.  0.
         25    2    3    3    0    0 -0.24636272674E+02 -0.19223191509E+02 -0.52474760297E+02  0.14416518640E+03  0.13058913997E+03 0.  0.
         25    2    3    3    0    0  0.24636272674E+02  0.19223191509E+02  0.29603676981E+02  0.13135275264E+03  0.12409952019E+03 0.  0.
          5    1    4    4  502    0 -0.61621667341E+02 -0.20284669963E+02  0.15286917929E+02  0.66816746263E+02  0.47000000000E+01 0.  1.
         -5    1    4    4    0  502  0.36985394668E+02  0.10614784535E+01 -0.67761678225E+02  0.77348440134E+02  0.47000000000E+01 0.  1.
          5    1    5    5  503    0 -0.35281773161E+02 -0.18397703704E+02 -0.20036742768E+02  0.44797768691E+02  0.47000000000E+01 0. -1.
         -5    1    5    5    0  503  0.59918045835E+02  0.37620895213E+02  0.49640419749E+02  0.86554983948E+02  0.47000000000E+01 0. -1.
<mgrwt>
<rscale>  0 0.27456702E+03</rscale>
<asrwt>0</asrwt>
<pdfrwt beam="1">  1        1 0.22953002E-01 0.27456702E+03</pdfrwt>
<pdfrwt beam="2">  1       -1 0.19434373E-01 0.27456702E+03</pdfrwt>
<totfact> 0.44848189E+03</totfact>
</mgrwt>
</event>
<event>
 9    1  0.8122655E-001  0.2552680E+03  0.7818608E-02  0.1110020E+00
         -1   -1    0    0    0  501 -0.00000000000E+00  0.00000000000E+00  0.99862084658E+02  0.99862084658E+02  0.00000000000E+00 0.  1.
          1   -1    0    0  501    0  0.00000000000E+00 -0.00000000000E+00 -0.16312938590E+03  0.16312938590E+03  0.00000000000E+00 0.  1.
         35    2    1    2    0    0 -0.71054273576E-14  0.00000000000E+00 -0.63267301245E+02  0.26299147056E+03  0.25526802029E+03 0.  0.
         25    2    3    3    0    0  0.13388829920E+02 -0.23652229632E+02 -0.32239975570E+02  0.13172684613E+03  0.12479526127E+03 0.  0.
         25    2    3    3    0    0 -0.13388829920E+02  0.23652229632E+02 -0.31027325676E+02  0.13126462443E+03  0.12461548040E+03 0.  0.
          5    1    4    4  502    0 -0.47785955624E+02  0.17275841569E+02 -0.27138251529E+02  0.57797291916E+02  0.47000000000E+01 0.  1.
         -5    1    4    4    0  502  0.61174785544E+02 -0.40928071201E+02 -0.51017240404E+01  0.73929554218E+02  0.47000000000E+01 0.  1.
          5    1    5    5  503    0 -0.64833353766E+02 -0.56431970161E+01 -0.30134465119E+02  0.71870615839E+02  0.47000000000E+01 0.  1.
         -5    1    5    5    0  503  0.51444523846E+02  0.29295426648E+02 -0.89286055666E+00  0.59394008589E+02  0.47000000000E+01 0.  1.
<mgrwt>
<rscale>  0 0.25526802E+03</rscale>
<asrwt>0</asrwt>
<pdfrwt beam="1">  1        1 0.25096829E-01 0.25526802E+03</pdfrwt>
<pdfrwt beam="2">  1       -1 0.15363398E-01 0.25526802E+03</pdfrwt>
<totfact> 0.58201405E+03</totfact>
</mgrwt>
</event>
<event>
 9    1  0.8122655E-001  0.2753775E+03  0.7818608E-02  0.1098241E+00
         -2   -1    0    0    0  501 -0.00000000000E+00  0.00000000000E+00  0.36189727245E+02  0.36189727245E+02  0.00000000000E+00 0. -1.
          2   -1    0    0  501    0  0.00000000000E+00 -0.00000000000E+00 -0.52385550548E+03  0.52385550548E+03  0.00000000000E+00 0. -1.
         35    2    1    2    0    0  0.00000000000E+00  0.35527136788E-14 -0.48766577823E+03  0.56004523272E+03  0.27537747082E+03 0.  0.
         25    2    3    3    0    0  0.21448086858E+02 -0.26615553666E+02 -0.14562982233E+03  0.19433308286E+03  0.12405198030E+03 0.  0.
         25    2    3    3    0    0 -0.21448086858E+02  0.26615553666E+02 -0.34203595590E+03  0.36571214986E+03  0.12485340724E+03 0.  0.
          5    1    4    4  502    0  0.22584790454E+02 -0.39478132938E+02  0.22852442860E+01  0.45781088689E+02  0.47000000000E+01 0.  1.
         -5    1    4    4    0  502 -0.11367035958E+01  0.12862579271E+02 -0.14791506661E+03  0.14855199417E+03  0.47000000000E+01 0.  1.
          5    1    5    5  503    0  0.15201539927E+02 -0.44390963227E+02 -0.95516673529E+02  0.10652309306E+03  0.47000000000E+01 0.  1.
         -5    1    5    5    0  503 -0.36649626786E+02  0.71006516894E+02 -0.24651928237E+03  0.25918905680E+03  0.47000000000E+01 0.  1.
<mgrwt>
<rscale>  0 0.27537747E+03</rscale>
<asrwt>0</asrwt>
<pdfrwt beam="1">  1        2 0.80593154E-01 0.27537747E+03</pdfrwt>
<pdfrwt beam="2">  1       -2 0.55676504E-02 0.27537747E+03</pdfrwt>
<totfact> 0.97509603E+03</totfact>
</mgrwt>
</event>
<event>
 9    1  0.8122655E-001  0.2666853E+03  0.7818608E-02  0.1103192E+00
         -2   -1    0    0    0  501 -0.00000000000E+00  0.00000000000E+00  0.99081796042E+02  0.99081796042E+02  0.00000000000E+00 0. -1.
          2   -1    0    0  501    0  0.00000000000E+00 -0.00000000000E+00 -0.17945037712E+03  0.17945037712E+03  0.00000000000E+00 0. -1.
         35    2    1    2    0    0 -0.71054273576E-14  0.17763568394E-14 -0.80368581080E+02  0.27853217316E+03  0.26668532517E+03 0.  0.
         25    2    3    3    0    0  0.11607721274E+02 -0.13535415141E+01 -0.89129515871E+02  0.15261148201E+03  0.12332729858E+03 0.  0.
         25    2    3    3    0    0 -0.11607721274E+02  0.13535415141E+01  0.87609347918E+01  0.12592069115E+03  0.12507076083E+03 0.  0.
          5    1    4    4  502    0  0.35479306145E+02  0.51196153792E+02 -0.28145055000E+02  0.68513220976E+02  0.47000000000E+01 0.  1.
         -5    1    4    4    0  502 -0.23871584871E+02 -0.52549695306E+02 -0.60984460872E+02  0.84098261033E+02  0.47000000000E+01 0.  1.
          5    1    5    5  503    0  0.38609009996E+02 -0.80282447925E+01 -0.39120671391E+02  0.55746078762E+02  0.47000000000E+01 0. -1.
         -5    1    5    5    0  503 -0.50216731270E+02  0.93817863066E+01  0.47881606183E+02  0.70174612392E+02  0.47000000000E+01 0. -1.
<mgrwt>
<rscale>  0 0.26668533E+03</rscale>
<asrwt>0</asrwt>
<pdfrwt beam="1">  1        2 0.27607750E-01 0.26668533E+03</pdfrwt>
<pdfrwt beam="2">  1       -2 0.15243353E-01 0.26668533E+03</pdfrwt>
<totfact> 0.63510798E+03</totfact>
</mgrwt>
</event>
<event>
 9    1  0.8122655E-001  0.2756263E+03  0.7818608E-02  0.1098102E+00
          2   -1    0    0  501    0  0.00000000000E+00  0.00000000000E+00  0.42905943012E+04  0.42905943012E+04  0.00000000000E+00 0. -1.
         -2   -1    0    0    0  501 -0.00000000000E+00 -0.00000000000E+00 -0.44265341384E+01  0.44265341384E+01  0.00000000000E+00 0. -1.
         35    2    1    2    0    0 -0.35527136788E-14  0.00000000000E+00  0.42861677670E+04  0.42950208353E+04  0.27562628429E+03 0.  0.
         25    2    3    3    0    0 -0.27246505238E+02  0.24621084652E+02  0.14407699007E+04  0.14466511738E+04  0.12503256354E+03 0.  0.
         25    2    3    3    0    0  0.27246505238E+02 -0.24621084652E+02  0.28453978663E+04  0.28483696616E+04  0.12478838568E+03 0.  0.
          5    1    4    4  502    0 -0.67345452128E+02  0.47657231964E+02  0.10122956617E+04  0.10156629453E+04  0.47000000000E+01 0. -1.
         -5    1    4    4    0  502  0.40098946890E+02 -0.23036147311E+02  0.42847423899E+03  0.43098822850E+03  0.47000000000E+01 0. -1.
          5    1    5    5  503    0  0.24427594104E+01 -0.62208823535E+02  0.78656690187E+03  0.78904086454E+03  0.47000000000E+01 0.  1.
         -5    1    5    5    0  503  0.24803745827E+02  0.37587738883E+02  0.20588309645E+04  0.20593287970E+04  0.47000000000E+01 0.  1.
<mgrwt>
<rscale>  0 0.27562628E+03</rscale>
<asrwt>0</asrwt>
<pdfrwt beam="1">  1        2 0.66008810E+00 0.27562628E+03</pdfrwt>
<pdfrwt beam="2">  1       -2 0.68100868E-03 0.27562628E+03</pdfrwt>
<totfact> 0.96943918E+02</totfact>
</mgrwt>
</event>
<event>
 9    1  0.8122655E-001  0.2722190E+03  0.7818608E-02  0.1100016E+00
         -4   -1    0    0    0  501 -0.00000000000E+00  0.00000000000E+00  0.95271025671E+02  0.95271025671E+02  0.00000000000E+00 0. -1.
          4   -1    0    0  501    0  0.00000000000E+00 -0.00000000000E+00 -0.19445360117E+03  0.19445360117E+03  0.00000000000E+00 0. -1.
         35    2    1    2    0    0  0.35527136788E-14  0.00000000000E+00 -0.99182575494E+02  0.28972462684E+03  0.27221898559E+03 0.  0.
         25    2    3    3    0    0 -0.12278988360E+02 -0.52485770085E+02 -0.43215908416E+02  0.14263615162E+03  0.12478752899E+03 0.  0.
         25    2    3    3    0    0  0.12278988360E+02  0.52485770085E+02 -0.55966667078E+02  0.14708847522E+03  0.12488883898E+03 0.  0.
          5    1    4    4  502    0 -0.39687796823E+02  0.24022384041E+02  0.67564123462E+01  0.47116188932E+02  0.47000000000E+01 0. -1.
         -5    1    4    4    0  502  0.27408808464E+02 -0.76508154126E+02 -0.49972320762E+02  0.95519962686E+02  0.47000000000E+01 0. -1.
          5    1    5    5  503    0  0.38116241067E+02  0.25972639422E+02 -0.86980761324E+02  0.98565555201E+02  0.47000000000E+01 0. -1.
         -5    1    5    5    0  503 -0.25837252707E+02  0.26513130663E+02  0.31014094246E+02  0.48522920016E+02  0.47000000000E+01 0. -1.
<mgrwt>
<rscale>  0 0.27221899E+03</rscale>
<asrwt>0</asrwt>
<pdfrwt beam="1">  1        4 0.29915938E-01 0.27221899E+03</pdfrwt>
<pdfrwt beam="2">  1       -4 0.14657081E-01 0.27221899E+03</pdfrwt>
<totfact> 0.78582974E+02</totfact>
</mgrwt>
</event>
<event>
 9    1  0.8122655E-001  0.2768544E+03  0.7818608E-02  0.1097420E+00
         -2   -1    0    0    0  501 -0.00000000000E+00  0.00000000000E+00  0.29364480233E+03  0.29364480233E+03  0.00000000000E+00 0.  1.
          2   -1    0    0  501    0  0.00000000000E+00 -0.00000000000E+00 -0.65256005536E+02  0.65256005536E+02  0.00000000000E+00 0.  1.
         35    2    1    2    0    0  0.71054273576E-14  0.71054273576E-14  0.22838879680E+03  0.35890080787E+03  0.27685437939E+03 0.  0.
         25    2    3    3    0    0 -0.22715037461E+02  0.42218953724E+02  0.14138846423E+03  0.19761405125E+03  0.12946892467E+03 0.  0.
         25    2    3    3    0    0  0.22715037461E+02 -0.42218953724E+02  0.87000332571E+02  0.16128675661E+03  0.12706670300E+03 0.  0.
          5    1    4    4  502    0 -0.65428305833E+02  0.40155321302E+02  0.13321573105E+03  0.15382403594E+03  0.47000000000E+01 0. -1.
         -5    1    4    4    0  502  0.42713268372E+02  0.20636324226E+01  0.81727331765E+01  0.43790015316E+02  0.47000000000E+01 0. -1.
          5    1    5    5  503    0  0.73005022348E+02 -0.60213920271E+01  0.42073102087E+02  0.84606302184E+02  0.47000000000E+01 0.  1.
         -5    1    5    5    0  503 -0.50289984888E+02 -0.36197561697E+02  0.44927230484E+02  0.76680454431E+02  0.47000000000E+01 0.  1.
<mgrwt>
<rscale>  0 0.27685438E+03</rscale>
<asrwt>0</asrwt>
<pdfrwt beam="1">  1        2 0.10039386E-01 0.27685438E+03</pdfrwt>
<pdfrwt beam="2">  1       -2 0.45176123E-01 0.27685438E+03</pdfrwt>
<totfact> 0.29863752E+03</totfact>
</mgrwt>
</event>
<event>
 9    1  0.8122655E-001  0.2746798E+03  0.7818608E-02  0.1098631E+00
          2   -1    0    0  501    0  0.00000000000E+00  0.00000000000E+00  0.39207007616E+04  0.39207007616E+04  0.00000000000E+00 0.  1.
         -2   -1    0    0    0  501 -0.00000000000E+00 -0.00000000000E+00 -0.48109386020E+01  0.48109386020E+01  0.00000000000E+00 0.  1.
         35    2    1    2    0    0  0.00000000000E+00  0.00000000000E+00  0.39158898230E+04  0.39255117002E+04  0.27467981827E+03 0.  0.
         25    2    3    3    0    0 -0.25427843084E+02 -0.32136859834E+02  0.25300720122E+04  0.25335272560E+04  0.12576413262E+03 0.  0.
         25    2    3    3    0    0  0.25427843084E+02  0.32136859834E+02  0.13858178109E+04  0.13919844443E+04  0.12429937727E+03 0.  0.
          5    1    4    4  502    0  0.27466972549E+02  0.13941086794E+02  0.17540770375E+04  0.17543537648E+04  0.47000000000E+01 0. -1.
         -5    1    4    4    0  502 -0.52894815633E+02 -0.46077946629E+02  0.77599497461E+03  0.77917349115E+03  0.47000000000E+01 0. -1.
          5    1    5    5  503    0 -0.35692401118E+02 -0.57341465514E+01  0.16216370874E+03  0.16621066863E+03  0.47000000000E+01 0. -1.
         -5    1    5    5    0  503  0.61120244202E+02  0.37871006386E+02  0.12236541021E+04  0.12257737756E+04  0.47000000000E+01 0. -1.
<mgrwt>
<rscale>  0 0.27467982E+03</rscale>
<asrwt>0</asrwt>
<pdfrwt beam="1">  1        2 0.60318218E+00 0.27467982E+03</pdfrwt>
<pdfrwt beam="2">  1       -2 0.74014753E-03 0.27467982E+03</pdfrwt>
<totfact> 0.16940483E+03</totfact>
</mgrwt>
</event>
<event>
 9    1  0.8122655E-001  0.2737027E+03  0.7818608E-02  0.1099179E+00
         -2   -1    0    0    0  501 -0.00000000000E+00  0.00000000000E+00  0.33081987603E+02  0.33081987603E+02  0.00000000000E+00 0.  1.
          2   -1    0    0  501    0  0.00000000000E+00 -0.00000000000E+00 -0.56611729293E+03  0.56611729293E+03  0.00000000000E+00 0.  1.
         35    2    1    2    0    0  0.00000000000E+00  0.00000000000E+00 -0.53303530532E+03  0.59919928053E+03  0.27370265082E+03 0.  0.
         25    2    3    3    0    0  0.51735832627E+01  0.59614686535E+02 -0.28394444379E+03  0.31514043535E+03  0.12291610970E+03 0.  0.
         25    2    3    3    0    0 -0.51735832627E+01 -0.59614686535E+02 -0.24909086154E+03  0.28405884518E+03  0.12272935022E+03 0.  0.
          5    1    4    4  502    0  0.79169785209E+01  0.97682587163E+02 -0.19751232802E+03  0.22053973815E+03  0.47000000000E+01 0.  1.
         -5    1    4    4    0  502 -0.27433952582E+01 -0.38067900628E+02 -0.86432115769E+02  0.94600697207E+02  0.47000000000E+01 0.  1.
          5    1    5    5  503    0  0.26329168166E+02 -0.35794948371E+02 -0.23884305204E+03  0.24298682461E+03  0.47000000000E+01 0. -1.
         -5    1    5    5    0  503 -0.31502751429E+02 -0.23819738163E+02 -0.10247809496E+02  0.41072020564E+02  0.47000000000E+01 0. -1.
<mgrwt>
<rscale>  0 0.27370265E+03</rscale>
<asrwt>0</asrwt>
<pdfrwt beam="1">  1        2 0.87094958E-01 0.27370265E+03</pdfrwt>
<pdfrwt beam="2">  1       -2 0.50895371E-02 0.27370265E+03</pdfrwt>
<totfact> 0.10235058E+04</totfact>
</mgrwt>
</event>
<event>
 9    1  0.8122655E-001  0.2737649E+03  0.7818608E-02  0.1099144E+00
         -1   -1    0    0    0  501 -0.00000000000E+00  0.00000000000E+00  0.15657775133E+03  0.15657775133E+03  0.00000000000E+00 0. -1.
          1   -1    0    0  501    0  0.00000000000E+00 -0.00000000000E+00 -0.11966452153E+03  0.11966452153E+03  0.00000000000E+00 0. -1.
         35    2    1    2    0    0  0.00000000000E+00  0.35527136788E-14  0.36913229801E+02  0.27624227286E+03  0.27376487500E+03 0.  0.
         25    2    3    3    0    0 -0.34980054154E+02 -0.59101875692E+01 -0.24588507038E+02  0.13266783689E+03  0.12544969414E+03 0.  0.
         25    2    3    3    0    0  0.34980054154E+02  0.59101875692E+01  0.61501736839E+02  0.14357443598E+03  0.12479030622E+03 0.  0.
          5    1    4    4  502    0 -0.88880240809E+01 -0.57064768453E+02  0.18384662441E+02  0.60790382329E+02  0.47000000000E+01 0. -1.
         -5    1    4    4    0  502 -0.26092030073E+02  0.51154580884E+02 -0.42973169479E+02  0.71877454558E+02  0.47000000000E+01 0. -1.
          5    1    5    5  503    0  0.27345642968E+02  0.25639847099E+02  0.95813111127E+02  0.10299236968E+03  0.47000000000E+01 0. -1.
         -5    1    5    5    0  503  0.76344111854E+01 -0.19729659530E+02 -0.34311374288E+02  0.40582066296E+02  0.47000000000E+01 0. -1.
<mgrwt>
<rscale>  0 0.27376487E+03</rscale>
<asrwt>0</asrwt>
<pdfrwt beam="1">  1        1 0.18409926E-01 0.27376487E+03</pdfrwt>
<pdfrwt beam="2">  1       -1 0.24088885E-01 0.27376487E+03</pdfrwt>
<totfact> 0.41895721E+03</totfact>
</mgrwt>
</event>
<event>
 9    1  0.8122655E-001  0.2698878E+03  0.7818608E-02  0.1101344E+00
          1   -1    0    0  501    0  0.00000000000E+00  0.00000000000E+00  0.48063202461E+04  0.48063202461E+04  0.00000000000E+00 0.  1.
         -1   -1    0    0    0  501 -0.00000000000E+00 -0.00000000000E+00 -0.37887325471E+01  0.37887325471E+01  0.00000000000E+00 0.  1.
         35    2    1    2    0    0  0.71054273576E-14 -0.71054273576E-14  0.48025315135E+04  0.48101089786E+04  0.26988784299E+03 0.  0.
         25    2    3    3    0    0  0.23926552776E+02 -0.40547929595E+02  0.21023440975E+04  0.21065918114E+04  0.12514687826E+03 0.  0.
         25    2    3    3    0    0 -0.23926552776E+02  0.40547929595E+02  0.27001874160E+04  0.27035171672E+04  0.12560404907E+03 0.  0.
          5    1    4    4  502    0 -0.33065883879E+02  0.28527624323E+02  0.73215065937E+03  0.73346701088E+03  0.47000000000E+01 0.  1.
         -5    1    4    4    0  502  0.56992436656E+02 -0.69075553918E+02  0.13701934381E+04  0.13731248006E+04  0.47000000000E+01 0.  1.
          5    1    5    5  503    0 -0.21660167473E+02 -0.26128572049E+02  0.24130616112E+03  0.24372652406E+03  0.47000000000E+01 0.  1.
         -5    1    5    5    0  503 -0.22663853037E+01  0.66676501644E+02  0.24588812549E+04  0.24597906431E+04  0.47000000000E+01 0.  1.
<mgrwt>
<rscale>  0 0.26988784E+03</rscale>
<asrwt>0</asrwt>
<pdfrwt beam="1">  1        1 0.73942901E+00 0.26988784E+03</pdfrwt>
<pdfrwt beam="2">  1       -1 0.58288577E-03 0.26988784E+03</pdfrwt>
<totfact> 0.86884275E+01</totfact>
</mgrwt>
</event>
<event>
 9    1  0.8122655E-001  0.2838253E+03  0.7818608E-02  0.1093618E+00
         -2   -1    0    0    0  501 -0.00000000000E+00  0.00000000000E+00  0.11074043553E+02  0.11074043553E+02  0.00000000000E+00 0.  1.
          2   -1    0    0  501    0  0.00000000000E+00 -0.00000000000E+00 -0.18185947820E+04  0.18185947820E+04  0.00000000000E+00 0.  1.
         35    2    1    2    0    0  0.00000000000E+00 -0.71054273576E-14 -0.18075207385E+04  0.18296688256E+04  0.28382528302E+03 0.  0.
         25    2    3    3    0    0  0.33891905502E+02  0.53923131135E+02 -0.69580612570E+03  0.70902090327E+03  0.12044962178E+03 0.  0.
         25    2    3    3    0    0 -0.33891905502E+02 -0.53923131135E+02 -0.11117146128E+04  0.11206479223E+04  0.12603975635E+03 0.  0.
          5    1    4    4  502    0  0.67957211126E+02  0.71872250968E+01 -0.24156336711E+03  0.25108721408E+03  0.47000000000E+01 0. -1.
         -5    1    4    4    0  502 -0.34065305624E+02  0.46735906039E+02 -0.45424275859E+03  0.45793368919E+03  0.47000000000E+01 0. -1.
          5    1    5    5  503    0  0.73105068925E+01  0.16419276333E+02 -0.26486823148E+02  0.32352402489E+02  0.47000000000E+01 0.  1.
         -5    1    5    5    0  503 -0.41202412395E+02 -0.70342407469E+02 -0.10852277896E+04  0.10882955198E+04  0.47000000000E+01 0.  1.
<mgrwt>
<rscale>  0 0.28382528E+03</rscale>
<asrwt>0</asrwt>
<pdfrwt beam="1">  1        2 0.27978351E+00 0.28382528E+03</pdfrwt>
<pdfrwt beam="2">  1       -2 0.17037008E-02 0.28382528E+03</pdfrwt>
<totfact> 0.90618870E+03</totfact>
</mgrwt>
</event>
<event>
 9    1  0.8122655E-001  0.2787252E+03  0.7818608E-02  0.1096387E+00
         -2   -1    0    0    0  501 -0.00000000000E+00  0.00000000000E+00  0.77583953374E+01  0.77583953374E+01  0.00000000000E+00 0. -1.
          2   -1    0    0  501    0  0.00000000000E+00 -0.00000000000E+00 -0.25033441801E+04  0.25033441801E+04  0.00000000000E+00 0. -1.
         35    2    1    2    0    0  0.00000000000E+00 -0.71054273576E-14 -0.24955857848E+04  0.25111025755E+04  0.27872519667E+03 0.  0.
         25    2    3    3    0    0  0.19407718739E+02  0.30075266223E+02 -0.16938822420E+04  0.16989213651E+04  0.12575998516E+03 0.  0.
         25    2    3    3    0    0 -0.19407718739E+02 -0.30075266223E+02 -0.80170354277E+03  0.81218121034E+03  0.12501426619E+03 0.  0.
          5    1    4    4  502    0  0.66195590586E+00  0.56043176818E+01 -0.32998588061E+01  0.80514365451E+01  0.47000000000E+01 0.  1.
         -5    1    4    4    0  502  0.18745762834E+02  0.24470948541E+02 -0.16905823832E+04  0.16908699286E+04  0.47000000000E+01 0.  1.
          5    1    5    5  503    0 -0.35098455445E+02  0.69858527146E+00 -0.74344927926E+03  0.74429248984E+03  0.47000000000E+01 0. -1.
         -5    1    5    5    0  503  0.15690736706E+02 -0.30773851495E+02 -0.58254263509E+02  0.67888720500E+02  0.47000000000E+01 0. -1.
<mgrwt>
<rscale>  0 0.27872520E+03</rscale>
<asrwt>0</asrwt>
<pdfrwt beam="1">  1        2 0.38512995E+00 0.27872520E+03</pdfrwt>
<pdfrwt beam="2">  1       -2 0.11935990E-02 0.27872520E+03</pdfrwt>
<totfact> 0.65802265E+03</totfact>
</mgrwt>
</event>
<event>
 9    1  0.8122655E-001  0.2719968E+03  0.7818608E-02  0.1100142E+00
         -2   -1    0    0    0  501 -0.00000000000E+00  0.00000000000E+00  0.24007075343E+03  0.24007075343E+03  0.00000000000E+00 0. -1.
          2   -1    0    0  501    0  0.00000000000E+00 -0.00000000000E+00 -0.77042158697E+02  0.77042158697E+02  0.00000000000E+00 0. -1.
         35    2    1    2    0    0  0.00000000000E+00  0.71054273576E-14  0.16302859473E+03  0.31711291212E+03  0.27199683148E+03 0.  0.
         25    2    3    3    0    0 -0.29191192305E+02 -0.16217387186E+01  0.27553293084E+02  0.13123152805E+03  0.12493107799E+03 0.  0.
         25    2    3    3    0    0  0.29191192305E+02  0.16217387186E+01  0.13547530164E+03  0.18588138408E+03  0.12386918844E+03 0.  0.
          5    1    4    4  502    0 -0.37690262629E+02 -0.57062284146E+02 -0.38671291740E-01  0.68547440977E+02  0.47000000000E+01 0.  1.
         -5    1    4    4    0  502  0.84990703243E+01  0.55440545427E+02  0.27591964376E+02  0.62684087070E+02  0.47000000000E+01 0.  1.
          5    1    5    5  503    0 -0.31800239926E+02 -0.34930313084E+02  0.23042278568E+02  0.52767590746E+02  0.47000000000E+01 0. -1.
         -5    1    5    5    0  503  0.60991432231E+02  0.36552051803E+02  0.11243302308E+03  0.13311379333E+03  0.47000000000E+01 0. -1.
<mgrwt>
<rscale>  0 0.27199683E+03</rscale>
<asrwt>0</asrwt>
<pdfrwt beam="1">  1        2 0.11852640E-01 0.27199683E+03</pdfrwt>
<pdfrwt beam="2">  1       -2 0.36933962E-01 0.27199683E+03</pdfrwt>
<totfact> 0.35806383E+03</totfact>
</mgrwt>
</event>
<event>
 9    1  0.8122655E-001  0.2758406E+03  0.7818608E-02  0.1097983E+00
          2   -1    0    0  501    0  0.00000000000E+00  0.00000000000E+00  0.21052737353E+04  0.21052737353E+04  0.00000000000E+00 0.  1.
         -2   -1    0    0    0  501 -0.00000000000E+00 -0.00000000000E+00 -0.90354116711E+01  0.90354116711E+01  0.00000000000E+00 0.  1.
         35    2    1    2    0    0  0.00000000000E+00 -0.35527136788E-14  0.20962383236E+04  0.21143091469E+04  0.27584064152E+03 0.  0.
         25    2    3    3    0    0  0.47210886689E+02  0.15894357160E+02  0.12826298184E+04  0.12896368444E+04  0.12466932679E+03 0.  0.
         25    2    3    3    0    0 -0.47210886689E+02 -0.15894357160E+02  0.81360850519E+03  0.82467230250E+03  0.12507641021E+03 0.  0.
          5    1    4    4  502    0 -0.20026657356E+02  0.46882018365E+02  0.31163725872E+03  0.31581460016E+03  0.47000000000E+01 0.  1.
         -5    1    4    4    0  502  0.67237544045E+02 -0.30987661206E+02  0.97099255968E+03  0.97382224427E+03  0.47000000000E+01 0.  1.
          5    1    5    5  503    0 -0.58824646005E+02 -0.62255426313E+02  0.56400029518E+03  0.57048619619E+03  0.47000000000E+01 0.  1.
         -5    1    5    5    0  503  0.11613759316E+02  0.46361069153E+02  0.24960821001E+03  0.25418610631E+03  0.47000000000E+01 0.  1.
<mgrwt>
<rscale>  0 0.27584064E+03</rscale>
<asrwt>0</asrwt>
<pdfrwt beam="1">  1        2 0.32388788E+00 0.27584064E+03</pdfrwt>
<pdfrwt beam="2">  1       -2 0.13900650E-02 0.27584064E+03</pdfrwt>
<totfact> 0.86219964E+03</totfact>
</mgrwt>
</event>
<event>
 9    1  0.8122655E-001  0.2738899E+03  0.7818608E-02  0.1099074E+00
         -1   -1    0    0    0  501 -0.00000000000E+00  0.00000000000E+00  0.71521648057E+01  0.71521648057E+01  0.00000000000E+00 0.  1.
          1   -1    0    0  501    0  0.00000000000E+00 -0.00000000000E+00 -0.26221324772E+04  0.26221324772E+04  0.00000000000E+00 0.  1.
         35    2    1    2    0    0  0.00000000000E+00  0.71054273576E-14 -0.26149803124E+04  0.26292846420E+04  0.27388993131E+03 0.  0.
         25    2    3    3    0    0 -0.15733039630E+02  0.48850010007E+02 -0.11075747343E+04  0.11158289854E+04  0.12537416262E+03 0.  0.
         25    2    3    3    0    0  0.15733039630E+02 -0.48850010007E+02 -0.15074055780E+04  0.15134556565E+04  0.12507036234E+03 0.  0.
          5    1    4    4  502    0 -0.25973423937E+02  0.23939243934E+02 -0.10625910196E+04  0.10631883516E+04  0.47000000000E+01 0. -1.
         -5    1    4    4    0  502  0.10240384307E+02  0.24910766073E+02 -0.44983714740E+02  0.52640633819E+02  0.47000000000E+01 0. -1.
          5    1    5    5  503    0 -0.43167661854E+02 -0.16218074860E+02 -0.10574346278E+04  0.10584500721E+04  0.47000000000E+01 0.  1.
         -5    1    5    5    0  503  0.58900701484E+02 -0.32631935147E+02 -0.44997095021E+03  0.45500558443E+03  0.47000000000E+01 0.  1.
<mgrwt>
<rscale>  0 0.27388993E+03</rscale>
<asrwt>0</asrwt>
<pdfrwt beam="1">  1        1 0.40340517E+00 0.27388993E+03</pdfrwt>
<pdfrwt beam="2">  1       -1 0.11003326E-02 0.27388993E+03</pdfrwt>
<totfact> 0.21518137E+03</totfact>
</mgrwt>
</event>
<event>
 9    1  0.8122655E-001  0.2930332E+03  0.7818608E-02  0.1088776E+00
         -1   -1    0    0    0  501 -0.00000000000E+00  0.00000000000E+00  0.98276020963E+02  0.98276020963E+02  0.00000000000E+00 0.  1.
          1   -1    0    0  501    0  0.00000000000E+00 -0.00000000000E+00 -0.21843700590E+03  0.21843700590E+03  0.00000000000E+00 0.  1.
         35    2    1    2    0    0  0.00000000000E+00  0.71054273576E-14 -0.12016098494E+03  0.31671302687E+03  0.29303323887E+03 0.  0.
         25    2    3    3    0    0  0.71664559504E+02 -0.20682848438E+02 -0.74843782049E+02  0.16353887558E+03  0.12481900018E+03 0.  0.
         25    2    3    3    0    0 -0.71664559504E+02  0.20682848438E+02 -0.45317202890E+02  0.15317415129E+03  0.12587725146E+03 0.  0.
          5    1    4    4  502    0  0.45902817537E+02  0.50935297356E+02 -0.41720562661E+02  0.80400053006E+02  0.47000000000E+01 0.  1.
         -5    1    4    4    0  502  0.25761741967E+02 -0.71618145795E+02 -0.33123219388E+02  0.83138822573E+02  0.47000000000E+01 0.  1.
          5    1    5    5  503    0 -0.48403829350E+02  0.21635577834E+02  0.38735964357E+02  0.65830037663E+02  0.47000000000E+01 0. -1.
         -5    1    5    5    0  503 -0.23260730153E+02 -0.95272939604E+00 -0.84053167247E+02  0.87344113624E+02  0.47000000000E+01 0. -1.
<mgrwt>
<rscale>  0 0.29303324E+03</rscale>
<asrwt>0</asrwt>
<pdfrwt beam="1">  1        1 0.33605693E-01 0.29303324E+03</pdfrwt>
<pdfrwt beam="2">  1       -1 0.15119388E-01 0.29303324E+03</pdfrwt>
<totfact> 0.41458652E+03</totfact>
</mgrwt>
</event>
<event>
 9    1  0.8122655E-001  0.2763983E+03  0.7818608E-02  0.1097673E+00
          3   -1    0    0  501    0  0.00000000000E+00  0.00000000000E+00  0.97114746846E+01  0.97114746846E+01  0.00000000000E+00 0. -1.
         -3   -1    0    0    0  501 -0.00000000000E+00 -0.00000000000E+00 -0.19666433068E+04  0.19666433068E+04  0.00000000000E+00 0. -1.
         35    2    1    2    0    0  0.00000000000E+00 -0.71054273576E-14 -0.19569318321E+04  0.19763547815E+04  0.27639831177E+03 0.  0.
         25    2    3    3    0    0  0.47937653616E+02 -0.34424349851E+02 -0.95217415926E+03  0.96221827230E+03  0.12548035497E+03 0.  0.
         25    2    3    3    0    0 -0.47937653616E+02  0.34424349851E+02 -0.10047576729E+04  0.10141365092E+04  0.12430536435E+03 0.  0.
          5    1    4    4  502    0 -0.13579033448E+01 -0.12732981922E+02 -0.66952633724E+01  0.15195041354E+02  0.47000000000E+01 0. -1.
         -5    1    4    4    0  502  0.49295556961E+02 -0.21691367929E+02 -0.94547889589E+03  0.94702323094E+03  0.47000000000E+01 0. -1.
          5    1    5    5  503    0  0.17466015622E+02 -0.85071123307E+01 -0.67108203562E+03  0.67137964014E+03  0.47000000000E+01 0.  1.
         -5    1    5    5    0  503 -0.65403669238E+02  0.42931462181E+02 -0.33367563724E+03  0.34275686906E+03  0.47000000000E+01 0.  1.
<mgrwt>
<rscale>  0 0.27639831E+03</rscale>
<asrwt>0</asrwt>
<pdfrwt beam="1">  1        3 0.14940735E-02 0.27639831E+03</pdfrwt>
<pdfrwt beam="2">  1       -3 0.30256040E+00 0.27639831E+03</pdfrwt>
<totfact> 0.16000916E+02</totfact>
</mgrwt>
</event>
<event>
 9    1  0.8122655E-001  0.2675970E+03  0.7818608E-02  0.1102663E+00
          2   -1    0    0  501    0  0.00000000000E+00  0.00000000000E+00  0.13866520288E+02  0.13866520288E+02  0.00000000000E+00 0. -1.
         -2   -1    0    0    0  501 -0.00000000000E+00 -0.00000000000E+00 -0.12910257684E+04  0.12910257684E+04  0.00000000000E+00 0. -1.
         35    2    1    2    0    0  0.00000000000E+00  0.00000000000E+00 -0.12771592481E+04  0.13048922887E+04  0.26759697315E+03 0.  0.
         25    2    3    3    0    0 -0.12229998729E+02 -0.43624997047E+02 -0.54474555757E+03  0.56062238523E+03  0.12448703988E+03 0.  0.
         25    2    3    3    0    0  0.12229998729E+02  0.43624997047E+02 -0.73241369052E+03  0.74426990343E+03  0.12431879124E+03 0.  0.
          5    1    4    4  502    0  0.27191161537E+02 -0.66468867580E+02 -0.19437952335E+03  0.20727507984E+03  0.47000000000E+01 0.  1.
         -5    1    4    4    0  502 -0.39421160266E+02  0.22843870533E+02 -0.35036603422E+03  0.35334730540E+03  0.47000000000E+01 0.  1.
          5    1    5    5  503    0 -0.50501833173E+02  0.21420427641E+02 -0.19149055376E+03  0.19924856851E+03  0.47000000000E+01 0. -1.
         -5    1    5    5    0  503  0.62731831902E+02  0.22204569406E+02 -0.54092313676E+03  0.54502133492E+03  0.47000000000E+01 0. -1.
<mgrwt>
<rscale>  0 0.26759697E+03</rscale>
<asrwt>0</asrwt>
<pdfrwt beam="1">  1        2 0.21333100E-02 0.26759697E+03</pdfrwt>
<pdfrwt beam="2">  1       -2 0.19861943E+00 0.26759697E+03</pdfrwt>
<totfact> 0.73654599E+02</totfact>
</mgrwt>
</event>
<event>
 9    1  0.8122655E-001  0.2690794E+03  0.7818608E-02  0.1101808E+00
         -4   -1    0    0    0  501 -0.00000000000E+00  0.00000000000E+00  0.18689278333E+03  0.18689278333E+03  0.00000000000E+00 0. -1.
          4   -1    0    0  501    0  0.00000000000E+00 -0.00000000000E+00 -0.96851922857E+02  0.96851922857E+02  0.00000000000E+00 0. -1.
         35    2    1    2    0    0 -0.71054273576E-14  0.71054273576E-14  0.90040860470E+02  0.28374470618E+03  0.26907935954E+03 0.  0.
         25    2    3    3    0    0 -0.41280150329E+02 -0.25803944662E+02  0.30917961686E+02  0.13785704255E+03  0.12521481324E+03 0.  0.
         25    2    3    3    0    0  0.41280150329E+02  0.25803944662E+02  0.59122898784E+02  0.14588766363E+03  0.12416842943E+03 0.  0.
          5    1    4    4  502    0 -0.57256458938E+02  0.37265345710E+02  0.91263899860E+01  0.69082480233E+02  0.47000000000E+01 0.  1.
         -5    1    4    4    0  502  0.15976308609E+02 -0.63069290372E+02  0.21791571700E+02  0.68774562318E+02  0.47000000000E+01 0.  1.
          5    1    5    5  503    0  0.37545794656E+02  0.58571970042E+02  0.80347965117E+02  0.10638725426E+03  0.47000000000E+01 0.  1.
         -5    1    5    5    0  503  0.37343556736E+01 -0.32768025379E+02 -0.21225066334E+02  0.39500409370E+02  0.47000000000E+01 0.  1.
<mgrwt>
<rscale>  0 0.26907936E+03</rscale>
<asrwt>0</asrwt>
<pdfrwt beam="1">  1        4 0.14900296E-01 0.26907936E+03</pdfrwt>
<pdfrwt beam="2">  1       -4 0.28752736E-01 0.26907936E+03</pdfrwt>
<totfact> 0.82184995E+02</totfact>
</mgrwt>
</event>
<event>
 9    1  0.8122655E-001  0.2690410E+03  0.7818608E-02  0.1101830E+00
         -4   -1    0    0    0  501 -0.00000000000E+00  0.00000000000E+00  0.93777504740E+02  0.93777504740E+02  0.00000000000E+00 0.  1.
          4   -1    0    0  501    0  0.00000000000E+00 -0.00000000000E+00 -0.19296488007E+03  0.19296488007E+03  0.00000000000E+00 0.  1.
         35    2    1    2    0    0 -0.14210854715E-13  0.17763568394E-14 -0.99187375335E+02  0.28674238482E+03  0.26904100027E+03 0.  0.
         25    2    3    3    0    0  0.45707925620E+02 -0.15268838774E+02 -0.62568444689E+02  0.14814123031E+03  0.12533420102E+03 0.  0.
         25    2    3    3    0    0 -0.45707925620E+02  0.15268838774E+02 -0.36618930646E+02  0.13860115450E+03  0.12468753765E+03 0.  0.
          5    1    4    4  502    0  0.88150210065E+02  0.17941033920E+01 -0.41460303839E+02  0.97543452552E+02  0.47000000000E+01 0. -1.
         -5    1    4    4    0  502 -0.42442284445E+02 -0.17062942166E+02 -0.21108140850E+02  0.50597777762E+02  0.47000000000E+01 0. -1.
          5    1    5    5  503    0 -0.14759177928E+01  0.45176269424E+02 -0.63936119747E+02  0.78441003696E+02  0.47000000000E+01 0.  1.
         -5    1    5    5    0  503 -0.44232007827E+02 -0.29907430651E+02  0.27317189102E+02  0.60160150805E+02  0.47000000000E+01 0.  1.
<mgrwt>
<rscale>  0 0.26904100E+03</rscale>
<asrwt>0</asrwt>
<pdfrwt beam="1">  1        4 0.29686905E-01 0.26904100E+03</pdfrwt>
<pdfrwt beam="2">  1       -4 0.14427308E-01 0.26904100E+03</pdfrwt>
<totfact> 0.81849551E+02</totfact>
</mgrwt>
</event>
<event>
 9    1  0.8122655E-001  0.2739375E+03  0.7818608E-02  0.1099047E+00
         -1   -1    0    0    0  501 -0.00000000000E+00  0.00000000000E+00  0.30745543226E+02  0.30745543226E+02  0.00000000000E+00 0. -1.
          1   -1    0    0  501    0  0.00000000000E+00 -0.00000000000E+00 -0.61018412420E+03  0.61018412420E+03  0.00000000000E+00 0. -1.
         35    2    1    2    0    0 -0.35527136788E-14 -0.71054273576E-14 -0.57943858097E+03  0.64092966742E+03  0.27393752840E+03 0.  0.
         25    2    3    3    0    0  0.23678528124E+02  0.14849251360E+02 -0.17807198447E+03  0.21968403394E+03  0.12557973626E+03 0.  0.
         25    2    3    3    0    0 -0.23678528124E+02 -0.14849251360E+02 -0.40136659651E+03  0.42124563348E+03  0.12478608085E+03 0.  0.
          5    1    4    4  502    0 -0.33302315402E+02  0.48251511073E+02 -0.10988836082E+03  0.12463865523E+03  0.47000000000E+01 0. -1.
         -5    1    4    4    0  502  0.56980843526E+02 -0.33402259712E+02 -0.68183623641E+02  0.95045378718E+02  0.47000000000E+01 0. -1.
          5    1    5    5  503    0  0.30127586885E+02 -0.52022592022E+02 -0.22971806728E+03  0.23750053054E+03  0.47000000000E+01 0. -1.
         -5    1    5    5    0  503 -0.53806115009E+02  0.37173340662E+02 -0.17164852923E+03  0.18374510294E+03  0.47000000000E+01 0. -1.
<mgrwt>
<rscale>  0 0.27393753E+03</rscale>
<asrwt>0</asrwt>
<pdfrwt beam="1">  1        1 0.93874476E-01 0.27393753E+03</pdfrwt>
<pdfrwt beam="2">  1       -1 0.47300838E-02 0.27393753E+03</pdfrwt>
<totfact> 0.65468984E+03</totfact>
</mgrwt>
</event>
<event>
 9    1  0.8122655E-001  0.2786393E+03  0.7818608E-02  0.1096434E+00
          1   -1    0    0  501    0  0.00000000000E+00  0.00000000000E+00  0.83284939455E+02  0.83284939455E+02  0.00000000000E+00 0. -1.
         -1   -1    0    0    0  501 -0.00000000000E+00 -0.00000000000E+00 -0.23305487793E+03  0.23305487793E+03  0.00000000000E+00 0. -1.
         35    2    1    2    0    0  0.71054273576E-14  0.35527136788E-14 -0.14976993848E+03  0.31633981739E+03  0.27863927504E+03 0.  0.
         25    2    3    3    0    0 -0.42121901370E+02  0.13233989412E+02 -0.25977132515E+02  0.13531571536E+03  0.12524431468E+03 0.  0.
         25    2    3    3    0    0  0.42121901370E+02 -0.13233989412E+02 -0.12379280596E+03  0.18102410202E+03  0.12448161975E+03 0.  0.
          5    1    4    4  502    0 -0.34640673750E+02  0.39859437123E+02 -0.67111184691E+02  0.85526324113E+02  0.47000000000E+01 0.  1.
         -5    1    4    4    0  502 -0.74812276202E+01 -0.26625447712E+02  0.41134052177E+02  0.49789391250E+02  0.47000000000E+01 0.  1.
          5    1    5    5  503    0 -0.24674996250E+02  0.34529687870E+02 -0.16373529831E+02  0.45731141069E+02  0.47000000000E+01 0.  1.
         -5    1    5    5    0  503  0.66796897621E+02 -0.47763677281E+02 -0.10741927613E+03  0.13529296095E+03  0.47000000000E+01 0.  1.
<mgrwt>
<rscale>  0 0.27863928E+03</rscale>
<asrwt>0</asrwt>
<pdfrwt beam="1">  1        1 0.12813068E-01 0.27863928E+03</pdfrwt>
<pdfrwt beam="2">  1       -1 0.35854596E-01 0.27863928E+03</pdfrwt>
<totfact> 0.34305463E+03</totfact>
</mgrwt>
</event>
<event>
 9    1  0.8122655E-001  0.2848894E+03  0.7818608E-02  0.1093048E+00
          2   -1    0    0  501    0  0.00000000000E+00  0.00000000000E+00  0.12271918479E+03  0.12271918479E+03  0.00000000000E+00 0. -1.
         -2   -1    0    0    0  501 -0.00000000000E+00 -0.00000000000E+00 -0.16534080322E+03  0.16534080322E+03  0.00000000000E+00 0. -1.
         35    2    1    2    0    0  0.00000000000E+00 -0.88817841970E-15 -0.42621618429E+02  0.28805998800E+03  0.28488937209E+03 0.  0.
         25    2    3    3    0    0  0.49999531272E+02  0.78973414706E+01 -0.54114868745E+02  0.15248193363E+03  0.13326664975E+03 0.  0.
         25    2    3    3    0    0 -0.49999531272E+02 -0.78973414706E+01  0.11493250316E+02  0.13557805437E+03  0.12524772610E+03 0.  0.
          5    1    4    4  502    0  0.72842395916E+02 -0.76560394942E+01 -0.83973301207E+02  0.11152683488E+03  0.47000000000E+01 0. -1.
         -5    1    4    4    0  502 -0.22842864644E+02  0.15553380965E+02  0.29858432463E+02  0.40955098751E+02  0.47000000000E+01 0. -1.
          5    1    5    5  503    0 -0.35583227034E+02 -0.59217266652E+02  0.34458205707E+02  0.77345385489E+02  0.47000000000E+01 0.  1.
         -5    1    5    5    0  503 -0.14416304238E+02  0.51319925181E+02 -0.22964955392E+02  0.58232668878E+02  0.47000000000E+01 0.  1.
<mgrwt>
<rscale>  0 0.28488937E+03</rscale>
<asrwt>0</asrwt>
<pdfrwt beam="1">  1        2 0.18879875E-01 0.28488937E+03</pdfrwt>
<pdfrwt beam="2">  1       -2 0.25437047E-01 0.28488937E+03</pdfrwt>
<totfact> 0.40750410E+03</totfact>
</mgrwt>
</event>
<event>
 9    1  0.8122655E-001  0.2744809E+03  0.7818608E-02  0.1098742E+00
         -2   -1    0    0    0  501 -0.00000000000E+00  0.00000000000E+00  0.63088769945E+01  0.63088769945E+01  0.00000000000E+00 0.  1.
          2   -1    0    0  501    0  0.00000000000E+00 -0.00000000000E+00 -0.29854676018E+04  0.29854676018E+04  0.00000000000E+00 0.  1.
         35    2    1    2    0    0  0.00000000000E+00  0.00000000000E+00 -0.29791587248E+04  0.29917764788E+04  0.27448094922E+03 0.  0.
         25    2    3    3    0    0  0.32916656197E+02 -0.44626277381E+02 -0.14295709762E+04  0.14361244922E+04  0.12532106851E+03 0.  0.
         25    2    3    3    0    0 -0.32916656197E+02  0.44626277381E+02 -0.15495877486E+04  0.15556519866E+04  0.12552251544E+03 0.  0.
          5    1    4    4  502    0  0.44796524241E+02 -0.69262585346E+02 -0.55525491813E+03  0.56136810421E+03  0.47000000000E+01 0.  1.
         -5    1    4    4    0  502 -0.11879868044E+02  0.24636307965E+02 -0.87431605807E+03  0.87475638799E+03  0.47000000000E+01 0.  1.
          5    1    5    5  503    0 -0.63965546760E+02 -0.23202319303E+01 -0.11829044136E+04  0.11846442151E+04  0.47000000000E+01 0.  1.
         -5    1    5    5    0  503  0.31048890563E+02  0.46946509311E+02 -0.36668333505E+03  0.37100777154E+03  0.47000000000E+01 0.  1.
<mgrwt>
<rscale>  0 0.27448095E+03</rscale>
<asrwt>0</asrwt>
<pdfrwt beam="1">  1        2 0.45930325E+00 0.27448095E+03</pdfrwt>
<pdfrwt beam="2">  1       -2 0.97059532E-03 0.27448095E+03</pdfrwt>
<totfact> 0.47323545E+03</totfact>
</mgrwt>
</event>
<event>
 9    1  0.8122655E-001  0.2734994E+03  0.7818608E-02  0.1099293E+00
         -2   -1    0    0    0  501 -0.00000000000E+00  0.00000000000E+00  0.13178729432E+02  0.13178729432E+02  0.00000000000E+00 0.  1.
          2   -1    0    0  501    0  0.00000000000E+00 -0.00000000000E+00 -0.14189897929E+04  0.14189897929E+04  0.00000000000E+00 0.  1.
         35    2    1    2    0    0 -0.14210854715E-13 -0.71054273576E-14 -0.14058110634E+04  0.14321685223E+04  0.27349941534E+03 0.  0.
         25    2    3    3    0    0 -0.45549380368E+02 -0.24571630633E+02 -0.81081638455E+03  0.82191687822E+03  0.12428046577E+03 0.  0.
         25    2    3    3    0    0  0.45549380368E+02  0.24571630633E+02 -0.59499467888E+03  0.61025164407E+03  0.12533910049E+03 0.  0.
          5    1    4    4  502    0 -0.73857843520E+02 -0.34548404184E+02 -0.32337688696E+03  0.33353151920E+03  0.47000000000E+01 0. -1.
         -5    1    4    4    0  502  0.28308463152E+02  0.99767735512E+01 -0.48743949759E+03  0.48838535902E+03  0.47000000000E+01 0. -1.
          5    1    5    5  503    0  0.61940136607E+02  0.96806544697E+00 -0.56515337569E+03  0.56855777695E+03  0.47000000000E+01 0.  1.
         -5    1    5    5    0  503 -0.16390756239E+02  0.23603565186E+02 -0.29841303188E+02  0.41693867121E+02  0.47000000000E+01 0.  1.
<mgrwt>
<rscale>  0 0.27349942E+03</rscale>
<asrwt>0</asrwt>
<pdfrwt beam="1">  1        2 0.21830628E+00 0.27349942E+03</pdfrwt>
<pdfrwt beam="2">  1       -2 0.20274953E-02 0.27349942E+03</pdfrwt>
<totfact> 0.11428865E+04</totfact>
</mgrwt>
</event>
<event>
 9    1  0.8122655E-001  0.2741817E+03  0.7818608E-02  0.1098910E+00
         -2   -1    0    0    0  501 -0.00000000000E+00  0.00000000000E+00  0.45611044351E+02  0.45611044351E+02  0.00000000000E+00 0. -1.
          2   -1    0    0  501    0  0.00000000000E+00 -0.00000000000E+00 -0.41204713672E+03  0.41204713672E+03  0.00000000000E+00 0. -1.
         35    2    1    2    0    0  0.00000000000E+00  0.00000000000E+00 -0.36643609237E+03  0.45765818107E+03  0.27418169324E+03 0.  0.
         25    2    3    3    0    0 -0.46925536256E+02  0.26679333917E+02 -0.19835955041E+03  0.24046487515E+03  0.12475196243E+03 0.  0.
         25    2    3    3    0    0  0.46925536256E+02 -0.26679333917E+02 -0.16807654195E+03  0.21719330592E+03  0.12652831845E+03 0.  0.
          5    1    4    4  502    0 -0.78148505338E+02  0.49503372196E+02 -0.16478300913E+03  0.18903254441E+03  0.47000000000E+01 0. -1.
         -5    1    4    4    0  502  0.31222969083E+02 -0.22824038278E+02 -0.33576541280E+02  0.51432330746E+02  0.47000000000E+01 0. -1.
          5    1    5    5  503    0  0.82537821415E+02  0.13312553426E+02 -0.10571137872E+03  0.13485807960E+03  0.47000000000E+01 0. -1.
         -5    1    5    5    0  503 -0.35612285159E+02 -0.39991887343E+02 -0.62365163230E+02  0.82335226314E+02  0.47000000000E+01 0. -1.
<mgrwt>
<rscale>  0 0.27418169E+03</rscale>
<asrwt>0</asrwt>
<pdfrwt beam="1">  1        2 0.63391867E-01 0.27418169E+03</pdfrwt>
<pdfrwt beam="2">  1       -2 0.70170838E-02 0.27418169E+03</pdfrwt>
<totfact> 0.89093144E+03</totfact>
</mgrwt>
</event>
<event>
 9    1  0.8122655E-001  0.2896761E+03  0.7818608E-02  0.1090518E+00
          2   -1    0    0  501    0  0.00000000000E+00  0.00000000000E+00  0.42927636826E+03  0.42927636826E+03  0.00000000000E+00 0.  1.
         -2   -1    0    0    0  501 -0.00000000000E+00 -0.00000000000E+00 -0.48868419975E+02  0.48868419975E+02  0.00000000000E+00 0.  1.
         35    2    1    2    0    0  0.10658141036E-13 -0.14210854715E-13  0.38040794829E+03  0.47814478824E+03  0.28967608013E+03 0.  0.
         25    2    3    3    0    0 -0.20072065663E+02 -0.57377909945E+02  0.12230093047E+03  0.18500580360E+03  0.12479790625E+03 0.  0.
         25    2    3    3    0    0  0.20072065663E+02  0.57377909945E+02  0.25810701782E+03  0.29313898464E+03  0.12496447213E+03 0.  0.
          5    1    4    4  502    0 -0.70062160094E+02 -0.39490665374E+02  0.48723083215E+02  0.94150134183E+02  0.47000000000E+01 0.  1.
         -5    1    4    4    0  502  0.49990094431E+02 -0.17887244571E+02  0.73577847250E+02  0.90855669419E+02  0.47000000000E+01 0.  1.
          5    1    5    5  503    0  0.14436797448E+02 -0.19591918302E+02  0.18525310797E+03  0.18690390150E+03  0.47000000000E+01 0.  1.
         -5    1    5    5    0  503  0.56352682151E+01  0.76969828248E+02  0.72853909852E+02  0.10623508314E+03  0.47000000000E+01 0.  1.
<mgrwt>
<rscale>  0 0.28967608E+03</rscale>
<asrwt>0</asrwt>
<pdfrwt beam="1">  1        2 0.66042516E-01 0.28967608E+03</pdfrwt>
<pdfrwt beam="2">  1       -2 0.75182187E-02 0.28967608E+03</pdfrwt>
<totfact> 0.76685770E+03</totfact>
</mgrwt>
</event>
<event>
 9    1  0.8122655E-001  0.2715122E+03  0.7818608E-02  0.1100417E+00
          4   -1    0    0  501    0  0.00000000000E+00  0.00000000000E+00  0.12668647650E+03  0.12668647650E+03  0.00000000000E+00 0.  1.
         -4   -1    0    0    0  501 -0.00000000000E+00 -0.00000000000E+00 -0.14547498246E+03  0.14547498246E+03  0.00000000000E+00 0.  1.
         35    2    1    2    0    0  0.00000000000E+00 -0.53290705182E-14 -0.18788505953E+02  0.27216145896E+03  0.27151215772E+03 0.  0.
         25    2    3    3    0    0  0.24599931115E+02 -0.14897660951E+02  0.35274429154E+02  0.13314339307E+03  0.12512306284E+03 0.  0.
         25    2    3    3    0    0 -0.24599931115E+02  0.14897660951E+02 -0.54062935107E+02  0.13901806589E+03  0.12480434599E+03 0.  0.
          5    1    4    4  502    0 -0.13183687096E+02 -0.63729712557E+01 -0.43008700453E+02  0.45675624602E+02  0.47000000000E+01 0.  1.
         -5    1    4    4    0  502  0.37783618211E+02 -0.85246896950E+01  0.78283129608E+02  0.87467768468E+02  0.47000000000E+01 0.  1.
          5    1    5    5  503    0  0.34884457051E+02  0.33345881024E+02  0.10044497677E+02  0.49516210059E+02  0.47000000000E+01 0.  1.
         -5    1    5    5    0  503 -0.59484388166E+02 -0.18448220073E+02 -0.64107432784E+02  0.89501855833E+02  0.47000000000E+01 0.  1.
<mgrwt>
<rscale>  0 0.27151216E+03</rscale>
<asrwt>0</asrwt>
<pdfrwt beam="1">  1        4 0.19490227E-01 0.27151216E+03</pdfrwt>
<pdfrwt beam="2">  1       -4 0.22380766E-01 0.27151216E+03</pdfrwt>
<totfact> 0.81350603E+02</totfact>
</mgrwt>
</event>
<event>
 9    1  0.8122655E-001  0.2768729E+03  0.7818608E-02  0.1097409E+00
          1   -1    0    0  501    0  0.00000000000E+00  0.00000000000E+00  0.10762193840E+04  0.10762193840E+04  0.00000000000E+00 0. -1.
         -1   -1    0    0    0  501 -0.00000000000E+00 -0.00000000000E+00 -0.17807380576E+02  0.17807380576E+02  0.00000000000E+00 0. -1.
         35    2    1    2    0    0  0.35527136788E-14  0.00000000000E+00  0.10584120034E+04  0.10940267645E+04  0.27687288169E+03 0.  0.
         25    2    3    3    0    0 -0.19022135538E+02 -0.55585393801E+02  0.52601432503E+03  0.54393453009E+03  0.12538789911E+03 0.  0.
         25    2    3    3    0    0  0.19022135538E+02  0.55585393801E+02  0.53239767836E+03  0.55009223445E+03  0.12531001890E+03 0.  0.
          5    1    4    4  502    0 -0.34161310821E+02  0.12903942299E+02  0.46583088113E+02  0.59376602985E+02  0.47000000000E+01 0.  1.
         -5    1    4    4    0  502  0.15139175283E+02 -0.68489336100E+02  0.47943123692E+03  0.48455792711E+03  0.47000000000E+01 0.  1.
          5    1    5    5  503    0  0.29222466038E+02 -0.27267118623E+02  0.74993151421E+02  0.85108818811E+02  0.47000000000E+01 0. -1.
         -5    1    5    5    0  503 -0.10200330500E+02  0.82852512423E+02  0.45740452693E+03  0.46498341564E+03  0.47000000000E+01 0. -1.
<mgrwt>
<rscale>  0 0.27687288E+03</rscale>
<asrwt>0</asrwt>
<pdfrwt beam="1">  1        1 0.16557216E+00 0.27687288E+03</pdfrwt>
<pdfrwt beam="2">  1       -1 0.27395979E-02 0.27687288E+03</pdfrwt>
<totfact> 0.60562084E+03</totfact>
</mgrwt>
</event>
<event>
 9    1  0.8122655E-001  0.2771184E+03  0.7818608E-02  0.1097273E+00
          1   -1    0    0  501    0  0.00000000000E+00  0.00000000000E+00  0.75264600766E+03  0.75264600766E+03  0.00000000000E+00 0.  1.
         -1   -1    0    0    0  501 -0.00000000000E+00 -0.00000000000E+00 -0.25508217847E+02  0.25508217847E+02  0.00000000000E+00 0.  1.
         35    2    1    2    0    0  0.71054273576E-14  0.00000000000E+00  0.72713778981E+03  0.77815422551E+03  0.27711844634E+03 0.  0.
         25    2    3    3    0    0 -0.54491877334E+02  0.28400365288E+02  0.39468344292E+03  0.41879924593E+03  0.12586438269E+03 0.  0.
         25    2    3    3    0    0  0.54491877334E+02 -0.28400365288E+02  0.33245434689E+03  0.35935497958E+03  0.12179557930E+03 0.  0.
          5    1    4    4  502    0 -0.90735249546E+02 -0.37696263493E+01  0.27248746570E+03  0.28726051687E+03  0.47000000000E+01 0. -1.
         -5    1    4    4    0  502  0.36243372211E+02  0.32169991638E+02  0.12219597723E+03  0.13153872905E+03  0.47000000000E+01 0. -1.
          5    1    5    5  503    0  0.10818647609E+02 -0.67136504038E+01 -0.77585454453E+01  0.15633338263E+02  0.47000000000E+01 0. -1.
         -5    1    5    5    0  503  0.43673229726E+02 -0.21686714885E+02  0.34021289234E+03  0.34372164132E+03  0.47000000000E+01 0. -1.
<mgrwt>
<rscale>  0 0.27711845E+03</rscale>
<asrwt>0</asrwt>
<pdfrwt beam="1">  1        1 0.11579168E+00 0.27711845E+03</pdfrwt>
<pdfrwt beam="2">  1       -1 0.39243418E-02 0.27711845E+03</pdfrwt>
<totfact> 0.63889069E+03</totfact>
</mgrwt>
</event>
<event>
 9    1  0.8122655E-001  0.2735751E+03  0.7818608E-02  0.1099251E+00
         -2   -1    0    0    0  501 -0.00000000000E+00  0.00000000000E+00  0.69044633975E+03  0.69044633975E+03  0.00000000000E+00 0.  1.
          2   -1    0    0  501    0  0.00000000000E+00 -0.00000000000E+00 -0.27099623902E+02  0.27099623902E+02  0.00000000000E+00 0.  1.
         35    2    1    2    0    0 -0.71054273576E-14  0.00000000000E+00  0.66334671585E+03  0.71754596365E+03  0.27357511679E+03 0.  0.
         25    2    3    3    0    0  0.35693938673E+02  0.34532528304E+02  0.39739852473E+03  0.41922674586E+03  0.12393112690E+03 0.  0.
         25    2    3    3    0    0 -0.35693938673E+02 -0.34532528304E+02  0.26594819111E+03  0.29831921779E+03  0.12569551535E+03 0.  0.
          5    1    4    4  502    0  0.64502824775E+02 -0.17112136277E+02  0.27756460276E+03  0.28551293896E+03  0.47000000000E+01 0.  1.
         -5    1    4    4    0  502 -0.28808886102E+02  0.51644664581E+02  0.11983392198E+03  0.13371380690E+03  0.47000000000E+01 0.  1.
          5    1    5    5  503    0 -0.51354251835E+02 -0.75278120089E+02  0.17954385516E+03  0.20140044804E+03  0.47000000000E+01 0. -1.
         -5    1    5    5    0  503  0.15660313162E+02  0.40745591785E+02  0.86404335955E+02  0.96918769751E+02  0.47000000000E+01 0. -1.
<mgrwt>
<rscale>  0 0.27357512E+03</rscale>
<asrwt>0</asrwt>
<pdfrwt beam="1">  1        2 0.41691734E-02 0.27357512E+03</pdfrwt>
<pdfrwt beam="2">  1       -2 0.10622250E+00 0.27357512E+03</pdfrwt>
<totfact> 0.14901958E+03</totfact>
</mgrwt>
</event>
<event>
 9    1  0.8122655E-001  0.2771698E+03  0.7818608E-02  0.1097245E+00
         -2   -1    0    0    0  501 -0.00000000000E+00  0.00000000000E+00  0.11312518296E+02  0.11312518296E+02  0.00000000000E+00 0. -1.
          2   -1    0    0  501    0  0.00000000000E+00 -0.00000000000E+00 -0.16977455680E+04  0.16977455680E+04  0.00000000000E+00 0. -1.
         35    2    1    2    0    0 -0.35527136788E-14  0.00000000000E+00 -0.16864330497E+04  0.17090580863E+04  0.27716982376E+03 0.  0.
         25    2    3    3    0    0  0.17248605257E+02 -0.17960102923E+02 -0.11816079874E+04  0.11883810575E+04  0.12422569140E+03 0.  0.
         25    2    3    3    0    0 -0.17248605257E+02  0.17960102923E+02 -0.50482506230E+03  0.52067702873E+03  0.12504457222E+03 0.  0.
          5    1    4    4  502    0  0.25489495243E+02  0.26293737870E+02 -0.10168398890E+04  0.10175099631E+04  0.47000000000E+01 0.  1.
         -5    1    4    4    0  502 -0.82408899862E+01 -0.44253840793E+02 -0.16476809833E+03  0.17087109446E+03  0.47000000000E+01 0.  1.
          5    1    5    5  503    0 -0.69156058781E+02  0.76230151218E+01 -0.35301765341E+03  0.35983916469E+03  0.47000000000E+01 0. -1.
         -5    1    5    5    0  503  0.51907453524E+02  0.10337087801E+02 -0.15180740889E+03  0.16083786405E+03  0.47000000000E+01 0. -1.
<mgrwt>
<rscale>  0 0.27716982E+03</rscale>
<asrwt>0</asrwt>
<pdfrwt beam="1">  1        2 0.26119169E+00 0.27716982E+03</pdfrwt>
<pdfrwt beam="2">  1       -2 0.17403870E-02 0.27716982E+03</pdfrwt>
<totfact> 0.10164117E+04</totfact>
</mgrwt>
</event>
<event>
 9    1  0.8122655E-001  0.2743375E+03  0.7818608E-02  0.1098822E+00
         -1   -1    0    0    0  501 -0.00000000000E+00  0.00000000000E+00  0.66965618600E+02  0.66965618600E+02  0.00000000000E+00 0.  1.
          1   -1    0    0  501    0  0.00000000000E+00 -0.00000000000E+00 -0.28096905655E+03  0.28096905655E+03  0.00000000000E+00 0.  1.
         35    2    1    2    0    0 -0.35527136788E-14  0.00000000000E+00 -0.21400343795E+03  0.34793467515E+03  0.27433750512E+03 0.  0.
         25    2    3    3    0    0 -0.16399688660E+02  0.56292074114E+02 -0.92940894609E+02  0.16650713568E+03  0.12509543934E+03 0.  0.
         25    2    3    3    0    0  0.16399688660E+02 -0.56292074114E+02 -0.12106254334E+03  0.18142753947E+03  0.12174590458E+03 0.  0.
          5    1    4    4  502    0 -0.36494217265E+01 -0.27329859353E+02 -0.74812839950E+02  0.79870460827E+02  0.47000000000E+01 0. -1.
         -5    1    4    4    0  502 -0.12750266933E+02  0.83621933467E+02 -0.18128054659E+02  0.86636674852E+02  0.47000000000E+01 0. -1.
          5    1    5    5  503    0  0.26188355081E+02 -0.68934452387E+02 -0.13870458182E+03  0.15715864496E+03  0.47000000000E+01 0.  1.
         -5    1    5    5    0  503 -0.97886664213E+01  0.12642378273E+02  0.17642038484E+02  0.24268894506E+02  0.47000000000E+01 0.  1.
<mgrwt>
<rscale>  0 0.27433751E+03</rscale>
<asrwt>0</asrwt>
<pdfrwt beam="1">  1        1 0.43226009E-01 0.27433751E+03</pdfrwt>
<pdfrwt beam="2">  1       -1 0.10302403E-01 0.27433751E+03</pdfrwt>
<totfact> 0.55030196E+03</totfact>
</mgrwt>
</event>
<event>
 9    1  0.8122655E-001  0.2791902E+03  0.7818608E-02  0.1096132E+00
          2   -1    0    0  501    0  0.00000000000E+00  0.00000000000E+00  0.28303034104E+04  0.28303034104E+04  0.00000000000E+00 0. -1.
         -2   -1    0    0    0  501 -0.00000000000E+00 -0.00000000000E+00 -0.68850541379E+01  0.68850541379E+01  0.00000000000E+00 0. -1.
         35    2    1    2    0    0  0.35527136788E-14  0.14210854715E-13  0.28234183562E+04  0.28371884645E+04  0.27919020188E+03 0.  0.
         25    2    3    3    0    0 -0.28881794292E+02  0.37555222073E+02  0.10116343517E+04  0.10204662993E+04  0.12531102758E+03 0.  0.
         25    2    3    3    0    0  0.28881794292E+02 -0.37555222073E+02  0.18117840045E+04  0.18167221652E+04  0.12519422467E+03 0.  0.
          5    1    4    4  502    0 -0.61038322367E+02  0.63192780456E+02  0.79986006846E+03  0.80468454901E+03  0.47000000000E+01 0. -1.
         -5    1    4    4    0  502  0.32156528075E+02 -0.25637558383E+02  0.21177428325E+03  0.21578175025E+03  0.47000000000E+01 0. -1.
          5    1    5    5  503    0 -0.11451169488E+02  0.19291643977E+02  0.72529356086E+02  0.76065066254E+02  0.47000000000E+01 0. -1.
         -5    1    5    5    0  503  0.40332963780E+02 -0.56846866051E+02  0.17392546484E+04  0.17406570990E+04  0.47000000000E+01 0. -1.
<mgrwt>
<rscale>  0 0.27919020E+03</rscale>
<asrwt>0</asrwt>
<pdfrwt beam="1">  1        2 0.43543036E+00 0.27919020E+03</pdfrwt>
<pdfrwt beam="2">  1       -2 0.10592414E-02 0.27919020E+03</pdfrwt>
<totfact> 0.51316561E+03</totfact>
</mgrwt>
</event>
<event>
 9    1  0.8122655E-001  0.2829354E+03  0.7818608E-02  0.1094096E+00
         -1   -1    0    0    0  501 -0.00000000000E+00  0.00000000000E+00  0.68764083235E+02  0.68764083235E+02  0.00000000000E+00 0. -1.
          1   -1    0    0  501    0  0.00000000000E+00 -0.00000000000E+00 -0.29104026017E+03  0.29104026017E+03  0.00000000000E+00 0. -1.
         35    2    1    2    0    0  0.00000000000E+00  0.00000000000E+00 -0.22227617693E+03  0.35980434340E+03  0.28293544617E+03 0.  0.
         25    2    3    3    0    0 -0.48592754003E+02  0.25990181884E+02 -0.76369679602E+02  0.15972230543E+03  0.12900442471E+03 0.  0.
         25    2    3    3    0    0  0.48592754003E+02 -0.25990181884E+02 -0.14590649733E+03  0.20008203797E+03  0.12532904954E+03 0.  0.
          5    1    4    4  502    0 -0.37400699529E+01  0.35116010280E+02  0.28226638892E+02  0.45452782581E+02  0.47000000000E+01 0.  1.
         -5    1    4    4    0  502 -0.44852684050E+02 -0.91258283954E+01 -0.10459631849E+03  0.11426952285E+03  0.47000000000E+01 0.  1.
          5    1    5    5  503    0  0.50461307942E+02 -0.39921271121E+02 -0.16426962072E+03  0.17648413464E+03  0.47000000000E+01 0. -1.
         -5    1    5    5    0  503 -0.18685539387E+01  0.13931089237E+02  0.18363123388E+02  0.23597903333E+02  0.47000000000E+01 0. -1.
<mgrwt>
<rscale>  0 0.28293545E+03</rscale>
<asrwt>0</asrwt>
<pdfrwt beam="1">  1        1 0.44775425E-01 0.28293545E+03</pdfrwt>
<pdfrwt beam="2">  1       -1 0.10579090E-01 0.28293545E+03</pdfrwt>
<totfact> 0.50578663E+03</totfact>
</mgrwt>
</event>
<event>
 9    1  0.8122655E-001  0.2758300E+03  0.7818608E-02  0.1097989E+00
         -2   -1    0    0    0  501 -0.00000000000E+00  0.00000000000E+00  0.30303053052E+02  0.30303053052E+02  0.00000000000E+00 0. -1.
          2   -1    0    0  501    0  0.00000000000E+00 -0.00000000000E+00 -0.62767736656E+03  0.62767736656E+03  0.00000000000E+00 0. -1.
         35    2    1    2    0    0 -0.35527136788E-14  0.00000000000E+00 -0.59737431351E+03  0.65798041962E+03  0.27582995152E+03 0.  0.
         25    2    3    3    0    0  0.16717484606E+02  0.79156992252E+01 -0.43288256053E+03  0.45077407854E+03  0.12436971532E+03 0.  0.
         25    2    3    3    0    0 -0.16717484606E+02 -0.79156992252E+01 -0.16449175298E+03  0.20720634107E+03  0.12463867135E+03 0.  0.
          5    1    4    4  502    0  0.64925815403E+02  0.30049039642E+02 -0.27289140610E+03  0.28215264630E+03  0.47000000000E+01 0.  1.
         -5    1    4    4    0  502 -0.48208330798E+02 -0.22133340417E+02 -0.15999115443E+03  0.16862143225E+03  0.47000000000E+01 0.  1.
          5    1    5    5  503    0  0.14900777908E+02 -0.61364924607E+02 -0.74653381906E+02  0.97892311160E+02  0.47000000000E+01 0. -1.
         -5    1    5    5    0  503 -0.31618262513E+02  0.53449225382E+02 -0.89838371073E+02  0.10931402991E+03  0.47000000000E+01 0. -1.
<mgrwt>
<rscale>  0 0.27582995E+03</rscale>
<asrwt>0</asrwt>
<pdfrwt beam="1">  1        2 0.96565745E-01 0.27582995E+03</pdfrwt>
<pdfrwt beam="2">  1       -2 0.46620084E-02 0.27582995E+03</pdfrwt>
<totfact> 0.10376546E+04</totfact>
</mgrwt>
</event>
<event>
 9    1  0.8122655E-001  0.2725810E+03  0.7818608E-02  0.1099811E+00
         -2   -1    0    0    0  501 -0.00000000000E+00  0.00000000000E+00  0.90239158757E+01  0.90239158757E+01  0.00000000000E+00 0. -1.
          2   -1    0    0  501    0  0.00000000000E+00 -0.00000000000E+00 -0.20584294072E+04  0.20584294072E+04  0.00000000000E+00 0. -1.
         35    2    1    2    0    0  0.35527136788E-14  0.00000000000E+00 -0.20494054914E+04  0.20674533231E+04  0.27258095170E+03 0.  0.
         25    2    3    3    0    0 -0.12971869861E+02  0.46326548273E+02 -0.12329786714E+04  0.12402801311E+04  0.12547502178E+03 0.  0.
         25    2    3    3    0    0  0.12971869861E+02 -0.46326548273E+02 -0.81642682001E+03  0.82717319202E+03  0.12388833151E+03 0.  0.
          5    1    4    4  502    0  0.85604394600E+01 -0.80556556677E+01 -0.99818278479E+03  0.99826305980E+03  0.47000000000E+01 0.  1.
         -5    1    4    4    0  502 -0.21532309321E+02  0.54382203941E+02 -0.23479588656E+03  0.24201707129E+03  0.47000000000E+01 0.  1.
          5    1    5    5  503    0 -0.28690868829E+02 -0.25074906259E+01 -0.46744476503E+02  0.55105258795E+02  0.47000000000E+01 0. -1.
         -5    1    5    5    0  503  0.41662738690E+02 -0.43819057647E+02 -0.76968234351E+03  0.77206793323E+03  0.47000000000E+01 0. -1.
<mgrwt>
<rscale>  0 0.27258095E+03</rscale>
<asrwt>0</asrwt>
<pdfrwt beam="1">  1        2 0.31668105E+00 0.27258095E+03</pdfrwt>
<pdfrwt beam="2">  1       -2 0.13882965E-02 0.27258095E+03</pdfrwt>
<totfact> 0.91434260E+03</totfact>
</mgrwt>
</event>
<event>
 9    1  0.8122655E-001  0.2737509E+03  0.7818608E-02  0.1099152E+00
          2   -1    0    0  501    0  0.00000000000E+00  0.00000000000E+00  0.30756227825E+03  0.30756227825E+03  0.00000000000E+00 0.  1.
         -2   -1    0    0    0  501 -0.00000000000E+00 -0.00000000000E+00 -0.60914122200E+02  0.60914122200E+02  0.00000000000E+00 0.  1.
         35    2    1    2    0    0 -0.35527136788E-14  0.00000000000E+00  0.24664815605E+03  0.36847640045E+03  0.27375088092E+03 0.  0.
         25    2    3    3    0    0 -0.20863655338E+02 -0.52550529727E+02  0.12582028656E+03  0.18561157925E+03  0.12419365344E+03 0.  0.
         25    2    3    3    0    0  0.20863655338E+02  0.52550529727E+02  0.12082786949E+03  0.18286482119E+03  0.12507325252E+03 0.  0.
          5    1    4    4  502    0  0.20850091729E+02  0.14117206666E+02 -0.10883712421E+02  0.27831044630E+02  0.47000000000E+01 0.  1.
         -5    1    4    4    0  502 -0.41713747067E+02 -0.66667736393E+02  0.13670399898E+03  0.15778053462E+03  0.47000000000E+01 0.  1.
          5    1    5    5  503    0  0.31809657786E+01  0.86497920415E+02  0.11477096517E+03  0.14382792922E+03  0.47000000000E+01 0. -1.
         -5    1    5    5    0  503  0.17682689560E+02 -0.33947390688E+02  0.60569043233E+01  0.39036891969E+02  0.47000000000E+01 0. -1.
<mgrwt>
<rscale>  0 0.27375088E+03</rscale>
<asrwt>0</asrwt>
<pdfrwt beam="1">  1        2 0.47317272E-01 0.27375088E+03</pdfrwt>
<pdfrwt beam="2">  1       -2 0.93714036E-02 0.27375088E+03</pdfrwt>
<totfact> 0.77723490E+03</totfact>
</mgrwt>
</event>
<event>
 9    1  0.8122655E-001  0.2811260E+03  0.7818608E-02  0.1095076E+00
         -2   -1    0    0    0  501 -0.00000000000E+00  0.00000000000E+00  0.89329635332E+02  0.89329635332E+02  0.00000000000E+00 0.  1.
          2   -1    0    0  501    0  0.00000000000E+00 -0.00000000000E+00 -0.22118034603E+03  0.22118034603E+03  0.00000000000E+00 0.  1.
         35    2    1    2    0    0  0.71054273576E-14 -0.71054273576E-14 -0.13185071070E+03  0.31050998136E+03  0.28112601910E+03 0.  0.
         25    2    3    3    0    0  0.27500291458E+02 -0.50323053991E+02 -0.99300360820E+02  0.16915861634E+03  0.12435996152E+03 0.  0.
         25    2    3    3    0    0 -0.27500291458E+02  0.50323053991E+02 -0.32550349877E+02  0.14135136503E+03  0.12502802615E+03 0.  0.
          5    1    4    4  502    0  0.38489411551E+02 -0.28985015897E+02 -0.12477899474E+03  0.13384115016E+03  0.47000000000E+01 0.  1.
         -5    1    4    4    0  502 -0.10989120093E+02 -0.21338038094E+02  0.25478633924E+02  0.35317466171E+02  0.47000000000E+01 0.  1.
          5    1    5    5  503    0 -0.47565243641E+02  0.60425446805E+02  0.23693532980E+02  0.80604965910E+02  0.47000000000E+01 0. -1.
         -5    1    5    5    0  503  0.20064952182E+02 -0.10102392814E+02 -0.56243882857E+02  0.60746399116E+02  0.47000000000E+01 0. -1.
<mgrwt>
<rscale>  0 0.28112602E+03</rscale>
<asrwt>0</asrwt>
<pdfrwt beam="1">  1        2 0.34027745E-01 0.28112602E+03</pdfrwt>
<pdfrwt beam="2">  1       -2 0.13743021E-01 0.28112602E+03</pdfrwt>
<totfact> 0.60012486E+03</totfact>
</mgrwt>
</event>
<event>
 9    1  0.8122655E-001  0.2760848E+03  0.7818608E-02  0.1097847E+00
         -1   -1    0    0    0  501 -0.00000000000E+00  0.00000000000E+00  0.24544296708E+02  0.24544296708E+02  0.00000000000E+00 0. -1.
          1   -1    0    0  501    0  0.00000000000E+00 -0.00000000000E+00 -0.77638003049E+03  0.77638003049E+03  0.00000000000E+00 0. -1.
         35    2    1    2    0    0 -0.35527136788E-14 -0.71054273576E-14 -0.75183573378E+03  0.80092432720E+03  0.27608478282E+03 0.  0.
         25    2    3    3    0    0  0.23200642700E+02  0.42199378548E+02 -0.28184081370E+03  0.31196150076E+03  0.12476648717E+03 0.  0.
         25    2    3    3    0    0 -0.23200642700E+02 -0.42199378548E+02 -0.46999492009E+03  0.48896282644E+03  0.12597763039E+03 0.  0.
          5    1    4    4  502    0  0.34229537445E+02  0.57006612681E+01 -0.86335465607E+01  0.36066423427E+02  0.47000000000E+01 0.  1.
         -5    1    4    4    0  502 -0.11028894745E+02  0.36498717280E+02 -0.27320726713E+03  0.27589507733E+03  0.47000000000E+01 0.  1.
          5    1    5    5  503    0 -0.22053680469E+02 -0.81577131475E+02 -0.21780613636E+03  0.23367241223E+03  0.47000000000E+01 0. -1.
         -5    1    5    5    0  503 -0.11469622305E+01  0.39377752927E+02 -0.25218878372E+03  0.25529041420E+03  0.47000000000E+01 0. -1.
<mgrwt>
<rscale>  0 0.27608478E+03</rscale>
<asrwt>0</asrwt>
<pdfrwt beam="1">  1        1 0.11944306E+00 0.27608478E+03</pdfrwt>
<pdfrwt beam="2">  1       -1 0.37760463E-02 0.27608478E+03</pdfrwt>
<totfact> 0.64547382E+03</totfact>
</mgrwt>
</event>
<event>
 9    1  0.8122655E-001  0.2802378E+03  0.7818608E-02  0.1095559E+00
          2   -1    0    0  501    0  0.00000000000E+00  0.00000000000E+00  0.39969660829E+03  0.39969660829E+03  0.00000000000E+00 0.  1.
         -2   -1    0    0    0  501 -0.00000000000E+00 -0.00000000000E+00 -0.49120517170E+02  0.49120517170E+02  0.00000000000E+00 0.  1.
         35    2    1    2    0    0  0.00000000000E+00  0.00000000000E+00  0.35057609112E+03  0.44881712546E+03  0.28023778553E+03 0.  0.
         25    2    3    3    0    0 -0.62491137334E+02  0.92095139685E+01  0.17388356780E+03  0.22299273544E+03  0.12450023097E+03 0.  0.
         25    2    3    3    0    0  0.62491137334E+02 -0.92095139685E+01  0.17669252331E+03  0.22582439002E+03  0.12564414010E+03 0.  0.
          5    1    4    4  502    0 -0.75418778122E+02 -0.39247540748E+02  0.82031781994E+02  0.11823563255E+03  0.47000000000E+01 0.  1.
         -5    1    4    4    0  502  0.12927640788E+02  0.48457054717E+02  0.91851785810E+02  0.10475710288E+03  0.47000000000E+01 0.  1.
          5    1    5    5  503    0 -0.80604088040E+01  0.39500028538E+02  0.15991570580E+02  0.43623878487E+02  0.47000000000E+01 0. -1.
         -5    1    5    5    0  503  0.70551546138E+02 -0.48709542507E+02  0.16070095273E+03  0.18220051153E+03  0.47000000000E+01 0. -1.
<mgrwt>
<rscale>  0 0.28023779E+03</rscale>
<asrwt>0</asrwt>
<pdfrwt beam="1">  1        2 0.61491784E-01 0.28023779E+03</pdfrwt>
<pdfrwt beam="2">  1       -2 0.75570029E-02 0.28023779E+03</pdfrwt>
<totfact> 0.82149732E+03</totfact>
</mgrwt>
</event>
<event>
 9    1  0.8122655E-001  0.2693646E+03  0.7818608E-02  0.1101644E+00
         -2   -1    0    0    0  501 -0.00000000000E+00  0.00000000000E+00  0.84761547918E+01  0.84761547918E+01  0.00000000000E+00 0. -1.
          2   -1    0    0  501    0  0.00000000000E+00 -0.00000000000E+00 -0.21400407109E+04  0.21400407109E+04  0.00000000000E+00 0. -1.
         35    2    1    2    0    0  0.35527136788E-14  0.00000000000E+00 -0.21315645561E+04  0.21485168657E+04  0.26936455837E+03 0.  0.
         25    2    3    3    0    0  0.27881226346E+02 -0.87892215161E+01 -0.12666381513E+04  0.12736007209E+04  0.12973810797E+03 0.  0.
         25    2    3    3    0    0 -0.27881226346E+02  0.87892215161E+01 -0.86492640481E+03  0.87491614483E+03  0.12855334126E+03 0.  0.
          5    1    4    4  502    0  0.71455311247E+01  0.60025574802E+02 -0.53422649336E+03  0.53765617680E+03  0.47000000000E+01 0.  1.
         -5    1    4    4    0  502  0.20735695221E+02 -0.68814796318E+02 -0.73241165797E+03  0.73594454409E+03  0.47000000000E+01 0.  1.
          5    1    5    5  503    0 -0.27366805957E+02 -0.18379187961E+02 -0.53468166676E+02  0.62989455197E+02  0.47000000000E+01 0. -1.
         -5    1    5    5    0  503 -0.51442038916E+00  0.27168409477E+02 -0.81145823813E+03  0.81192668963E+03  0.47000000000E+01 0. -1.
<mgrwt>
<rscale>  0 0.26936456E+03</rscale>
<asrwt>0</asrwt>
<pdfrwt beam="1">  1        2 0.32923692E+00 0.26936456E+03</pdfrwt>
<pdfrwt beam="2">  1       -2 0.13040243E-02 0.26936456E+03</pdfrwt>
<totfact> 0.90707928E+03</totfact>
</mgrwt>
</event>
<event>
 9    1  0.8122655E-001  0.2695763E+03  0.7818608E-02  0.1101522E+00
          2   -1    0    0  501    0  0.00000000000E+00  0.00000000000E+00  0.11002816208E+04  0.11002816208E+04  0.00000000000E+00 0. -1.
         -2   -1    0    0    0  501 -0.00000000000E+00 -0.00000000000E+00 -0.16511994769E+02  0.16511994769E+02  0.00000000000E+00 0. -1.
         35    2    1    2    0    0  0.71054273576E-14 -0.35527136788E-14  0.10837696261E+04  0.11167936156E+04  0.26957629248E+03 0.  0.
         25    2    3    3    0    0  0.23509463544E+02 -0.23845768985E+02  0.38079640962E+03  0.40209834716E+03  0.12472313193E+03 0.  0.
         25    2    3    3    0    0 -0.23509463544E+02  0.23845768985E+02  0.70297321645E+03  0.71469526845E+03  0.12448561409E+03 0.  0.
          5    1    4    4  502    0  0.48520229431E+02 -0.36873642373E+02  0.36367201873E+03  0.36877270150E+03  0.47000000000E+01 0. -1.
         -5    1    4    4    0  502 -0.25010765887E+02  0.13027873388E+02  0.17124390884E+02  0.33325645656E+02  0.47000000000E+01 0. -1.
          5    1    5    5  503    0  0.10187247080E+02 -0.40914552275E+00  0.63367836796E+03  0.63377780919E+03  0.47000000000E+01 0. -1.
         -5    1    5    5    0  503 -0.33696710624E+02  0.24254914508E+02  0.69294848497E+02  0.80917459258E+02  0.47000000000E+01 0. -1.
<mgrwt>
<rscale>  0 0.26957629E+03</rscale>
<asrwt>0</asrwt>
<pdfrwt beam="1">  1        2 0.16927404E+00 0.26957629E+03</pdfrwt>
<pdfrwt beam="2">  1       -2 0.25403077E-02 0.26957629E+03</pdfrwt>
<totfact> 0.12359366E+04</totfact>
</mgrwt>
</event>
<event>
 9    1  0.8122655E-001  0.2674762E+03  0.7818608E-02  0.1102733E+00
          2   -1    0    0  501    0  0.00000000000E+00  0.00000000000E+00  0.13435704234E+04  0.13435704234E+04  0.00000000000E+00 0.  1.
         -2   -1    0    0    0  501 -0.00000000000E+00 -0.00000000000E+00 -0.13312204905E+02  0.13312204905E+02  0.00000000000E+00 0.  1.
         35    2    1    2    0    0  0.71054273576E-14  0.00000000000E+00  0.13302582185E+04  0.13568826283E+04  0.26747624029E+03 0.  0.
         25    2    3    3    0    0 -0.84330245729E+01 -0.33357761601E+02  0.84022359705E+03  0.85002748737E+03  0.12404507275E+03 0.  0.
         25    2    3    3    0    0  0.84330245729E+01  0.33357761601E+02  0.49003462142E+03  0.50685514092E+03  0.12483728417E+03 0.  0.
          5    1    4    4  502    0  0.54612750086E+02 -0.10527796548E+02  0.26002152203E+03  0.26594486062E+03  0.47000000000E+01 0.  1.
         -5    1    4    4    0  502 -0.63045774659E+02 -0.22829965053E+02  0.58020207502E+03  0.58408262674E+03  0.47000000000E+01 0.  1.
          5    1    5    5  503    0  0.40764162223E+02  0.31793773077E+02  0.45847227761E+03  0.46140164744E+03  0.47000000000E+01 0.  1.
         -5    1    5    5    0  503 -0.32331137650E+02  0.15639885239E+01  0.31562343813E+02  0.45453493473E+02  0.47000000000E+01 0.  1.
<mgrwt>
<rscale>  0 0.26747624E+03</rscale>
<asrwt>0</asrwt>
<pdfrwt beam="1">  1        2 0.20670303E+00 0.26747624E+03</pdfrwt>
<pdfrwt beam="2">  1       -2 0.20480326E-02 0.26747624E+03</pdfrwt>
<totfact> 0.12370607E+04</totfact>
</mgrwt>
</event>
<event>
 9    1  0.8122655E-001  0.2760041E+03  0.7818608E-02  0.1097892E+00
          3   -1    0    0  501    0  0.00000000000E+00  0.00000000000E+00  0.37547356006E+02  0.37547356006E+02  0.00000000000E+00 0.  1.
         -3   -1    0    0    0  501 -0.00000000000E+00 -0.00000000000E+00 -0.50721451884E+03  0.50721451884E+03  0.00000000000E+00 0.  1.
         35    2    1    2    0    0  0.00000000000E+00  0.00000000000E+00 -0.46966716284E+03  0.54476187485E+03  0.27600408772E+03 0.  0.
         25    2    3    3    0    0 -0.39109303346E+02  0.34392765386E+02 -0.28440992031E+03  0.31497367589E+03  0.12492803456E+03 0.  0.
         25    2    3    3    0    0  0.39109303346E+02 -0.34392765386E+02 -0.18525724253E+03  0.22978819895E+03  0.12557854335E+03 0.  0.
          5    1    4    4  502    0 -0.15282668230E+02 -0.20421611219E+02 -0.17168429292E+01  0.25993070282E+02  0.47000000000E+01 0. -1.
         -5    1    4    4    0  502 -0.23826635116E+02  0.54814376605E+02 -0.28269307738E+03  0.28898060561E+03  0.47000000000E+01 0. -1.
          5    1    5    5  503    0  0.58676453543E+02 -0.70843913774E+01 -0.18664716548E+03  0.19583760922E+03  0.47000000000E+01 0.  1.
         -5    1    5    5    0  503 -0.19567150197E+02 -0.27308374009E+02  0.13899229478E+01  0.33950589739E+02  0.47000000000E+01 0.  1.
<mgrwt>
<rscale>  0 0.27600409E+03</rscale>
<asrwt>0</asrwt>
<pdfrwt beam="1">  1        3 0.57765168E-02 0.27600409E+03</pdfrwt>
<pdfrwt beam="2">  1       -3 0.78032997E-01 0.27600409E+03</pdfrwt>
<totfact> 0.72371252E+02</totfact>
</mgrwt>
</event>
<event>
 9    1  0.8122655E-001  0.2766875E+03  0.7818608E-02  0.1097512E+00
          1   -1    0    0  501    0  0.00000000000E+00  0.00000000000E+00  0.14348946197E+03  0.14348946197E+03  0.00000000000E+00 0.  1.
         -1   -1    0    0    0  501 -0.00000000000E+00 -0.00000000000E+00 -0.13338257107E+03  0.13338257107E+03  0.00000000000E+00 0.  1.
         35    2    1    2    0    0  0.71054273576E-14  0.00000000000E+00  0.10106890902E+02  0.27687203304E+03  0.27668750141E+03 0.  0.
         25    2    3    3    0    0 -0.49366443398E+02 -0.26062455715E+02  0.21776936093E+02  0.13858297017E+03  0.12495882260E+03 0.  0.
         25    2    3    3    0    0  0.49366443398E+02  0.26062455715E+02 -0.11670045192E+02  0.13828906286E+03  0.12598165589E+03 0.  0.
          5    1    4    4  502    0  0.33664522323E+02  0.64644018359E+01  0.33930854612E+02  0.48461133385E+02  0.47000000000E+01 0.  1.
         -5    1    4    4    0  502 -0.83030965721E+02 -0.32526857551E+02 -0.12153918519E+02  0.90121836788E+02  0.47000000000E+01 0.  1.
          5    1    5    5  503    0  0.46388300310E+02  0.54025302472E+02  0.38125536879E+02  0.80908925807E+02  0.47000000000E+01 0. -1.
         -5    1    5    5    0  503  0.29781430877E+01 -0.27962846757E+02 -0.49795582071E+02  0.57380137058E+02  0.47000000000E+01 0. -1.
<mgrwt>
<rscale>  0 0.27668750E+03</rscale>
<asrwt>0</asrwt>
<pdfrwt beam="1">  1        1 0.22075302E-01 0.27668750E+03</pdfrwt>
<pdfrwt beam="2">  1       -1 0.20520396E-01 0.27668750E+03</pdfrwt>
<totfact> 0.43164842E+03</totfact>
</mgrwt>
</event>
<event>
 9    1  0.8122655E-001  0.2634808E+03  0.7818608E-02  0.1105070E+00
         -1   -1    0    0    0  501 -0.00000000000E+00  0.00000000000E+00  0.10874368050E+02  0.10874368050E+02  0.00000000000E+00 0.  1.
          1   -1    0    0  501    0  0.00000000000E+00 -0.00000000000E+00 -0.15960039152E+04  0.15960039152E+04  0.00000000000E+00 0.  1.
         35    2    1    2    0    0  0.35527136788E-14  0.00000000000E+00 -0.15851295472E+04  0.16068782833E+04  0.26348080752E+03 0.  0.
         25    2    3    3    0    0  0.31197356677E+02  0.15465864918E+01 -0.94703116382E+03  0.95584191275E+03  0.12565854502E+03 0.  0.
         25    2    3    3    0    0 -0.31197356677E+02 -0.15465864918E+01 -0.63809838336E+03  0.65103637053E+03  0.12531217781E+03 0.  0.
          5    1    4    4  502    0 -0.23595094500E+01 -0.26196273151E+02 -0.83685388691E+03  0.83728031748E+03  0.47000000000E+01 0.  1.
         -5    1    4    4    0  502  0.33556866127E+02  0.27742859642E+02 -0.11017727692E+03  0.11856159527E+03  0.47000000000E+01 0.  1.
          5    1    5    5  503    0 -0.54214247038E+02  0.25286986483E+02 -0.57834198668E+03  0.58144660961E+03  0.47000000000E+01 0.  1.
         -5    1    5    5    0  503  0.23016890362E+02 -0.26833572975E+02 -0.59756396683E+02  0.69589760921E+02  0.47000000000E+01 0.  1.
<mgrwt>
<rscale>  0 0.26348081E+03</rscale>
<asrwt>0</asrwt>
<pdfrwt beam="1">  1        1 0.24553904E+00 0.26348081E+03</pdfrwt>
<pdfrwt beam="2">  1       -1 0.16729799E-02 0.26348081E+03</pdfrwt>
<totfact> 0.55022579E+03</totfact>
</mgrwt>
</event>
<event>
 9    1  0.8122655E-001  0.2828121E+03  0.7818608E-02  0.1094163E+00
         -1   -1    0    0    0  501 -0.00000000000E+00  0.00000000000E+00  0.17404956921E+02  0.17404956921E+02  0.00000000000E+00 0.  1.
          1   -1    0    0  501    0  0.00000000000E+00 -0.00000000000E+00 -0.11488491803E+04  0.11488491803E+04  0.00000000000E+00 0.  1.
         35    2    1    2    0    0  0.35527136788E-14 -0.71054273576E-14 -0.11314442234E+04  0.11662541373E+04  0.28281209658E+03 0.  0.
         25    2    3    3    0    0 -0.14102870327E+02 -0.55176794915E+02 -0.71398133567E+03  0.72692766893E+03  0.12414152618E+03 0.  0.
         25    2    3    3    0    0  0.14102870327E+02  0.55176794915E+02 -0.41746288774E+03  0.43932646832E+03  0.12445526699E+03 0.  0.
          5    1    4    4  502    0  0.23152987472E+02 -0.10786829699E+01 -0.23593235839E+02  0.33405915092E+02  0.47000000000E+01 0. -1.
         -5    1    4    4    0  502 -0.37255857799E+02 -0.54098111945E+02 -0.69038809984E+03  0.69352175384E+03  0.47000000000E+01 0. -1.
          5    1    5    5  503    0  0.56238047375E+01  0.88088513875E+02 -0.37207107836E+03  0.38242671299E+03  0.47000000000E+01 0. -1.
         -5    1    5    5    0  503  0.84790655893E+01 -0.32911718960E+02 -0.45391809381E+02  0.56899755334E+02  0.47000000000E+01 0. -1.
<mgrwt>
<rscale>  0 0.28281210E+03</rscale>
<asrwt>0</asrwt>
<pdfrwt beam="1">  1        1 0.17674603E+00 0.28281210E+03</pdfrwt>
<pdfrwt beam="2">  1       -1 0.26776857E-02 0.28281210E+03</pdfrwt>
<totfact> 0.55563980E+03</totfact>
</mgrwt>
</event>
<event>
 9    1  0.8122655E-001  0.2795517E+03  0.7818608E-02  0.1095934E+00
         -1   -1    0    0    0  501 -0.00000000000E+00  0.00000000000E+00  0.27950585424E+03  0.27950585424E+03  0.00000000000E+00 0.  1.
          1   -1    0    0  501    0  0.00000000000E+00 -0.00000000000E+00 -0.69899376745E+02  0.69899376745E+02  0.00000000000E+00 0.  1.
         35    2    1    2    0    0 -0.35527136788E-14  0.00000000000E+00  0.20960647750E+03  0.34940523099E+03  0.27955167686E+03 0.  0.
         25    2    3    3    0    0 -0.30103056990E+02 -0.50739954750E+02  0.13298270028E+03  0.19179631817E+03  0.12498276698E+03 0.  0.
         25    2    3    3    0    0  0.30103056990E+02  0.50739954750E+02  0.76623777217E+02  0.15760891282E+03  0.12445332103E+03 0.  0.
          5    1    4    4  502    0  0.12468444908E+02  0.91469757460E+01 -0.17772595872E+02  0.24022582038E+02  0.47000000000E+01 0.  1.
         -5    1    4    4    0  502 -0.42571501898E+02 -0.59886930496E+02  0.15075529615E+03  0.16777373613E+03  0.47000000000E+01 0.  1.
          5    1    5    5  503    0  0.77246935263E+01  0.50082507434E+02 -0.22670685784E+02  0.55713359573E+02  0.47000000000E+01 0. -1.
         -5    1    5    5    0  503  0.22378363463E+02  0.65744731562E+00  0.99294463000E+02  0.10189555324E+03  0.47000000000E+01 0. -1.
<mgrwt>
<rscale>  0 0.27955168E+03</rscale>
<asrwt>0</asrwt>
<pdfrwt beam="1">  1        1 0.10753750E-01 0.27955168E+03</pdfrwt>
<pdfrwt beam="2">  1       -1 0.43000900E-01 0.27955168E+03</pdfrwt>
<totfact> 0.31407002E+03</totfact>
</mgrwt>
</event>
<event>
 9    1  0.8122655E-001  0.2732160E+03  0.7818608E-02  0.1099453E+00
          2   -1    0    0  501    0  0.00000000000E+00  0.00000000000E+00  0.96170515661E+02  0.96170515661E+02  0.00000000000E+00 0. -1.
         -2   -1    0    0    0  501 -0.00000000000E+00 -0.00000000000E+00 -0.19404845371E+03  0.19404845371E+03  0.00000000000E+00 0. -1.
         35    2    1    2    0    0  0.71054273576E-14  0.00000000000E+00 -0.97877938049E+02  0.29021896937E+03  0.27321595749E+03 0.  0.
         25    2    3    3    0    0 -0.40529871920E+02  0.37700812393E+02 -0.60715889989E+02  0.14845077090E+03  0.12364137783E+03 0.  0.
         25    2    3    3    0    0  0.40529871920E+02 -0.37700812393E+02 -0.37162048060E+02  0.14176819847E+03  0.12511267925E+03 0.  0.
          5    1    4    4  502    0 -0.74521368646E+02  0.10846317002E+02 -0.71080767793E+02  0.10366119104E+03  0.47000000000E+01 0.  1.
         -5    1    4    4    0  502  0.33991496726E+02  0.26854495390E+02  0.10364877804E+02  0.44789579862E+02  0.47000000000E+01 0.  1.
          5    1    5    5  503    0 -0.18909815749E+02  0.95795480538E+01 -0.58779240987E+02  0.62661296217E+02  0.47000000000E+01 0.  1.
         -5    1    5    5    0  503  0.59439687669E+02 -0.47280360447E+02  0.21617192927E+02  0.79106902254E+02  0.47000000000E+01 0.  1.
<mgrwt>
<rscale>  0 0.27321596E+03</rscale>
<asrwt>0</asrwt>
<pdfrwt beam="1">  1        2 0.14795464E-01 0.27321596E+03</pdfrwt>
<pdfrwt beam="2">  1       -2 0.29853608E-01 0.27321596E+03</pdfrwt>
<totfact> 0.40636197E+03</totfact>
</mgrwt>
</event>
<event>
 9    1  0.8122655E-001  0.2746015E+03  0.7818608E-02  0.1098675E+00
          2   -1    0    0  501    0  0.00000000000E+00  0.00000000000E+00  0.17060218967E+03  0.17060218967E+03  0.00000000000E+00 0. -1.
         -2   -1    0    0    0  501 -0.00000000000E+00 -0.00000000000E+00 -0.11049975572E+03  0.11049975572E+03  0.00000000000E+00 0. -1.
         35    2    1    2    0    0 -0.35527136788E-14 -0.71054273576E-14  0.60102433948E+02  0.28110194538E+03  0.27460153155E+03 0.  0.
         25    2    3    3    0    0  0.65101230382E+01  0.57857297779E+02  0.47865411786E+02  0.14301797207E+03  0.12154502903E+03 0.  0.
         25    2    3    3    0    0 -0.65101230382E+01 -0.57857297779E+02  0.12237022162E+02  0.13808397331E+03  0.12460975229E+03 0.  0.
          5    1    4    4  502    0  0.39540898351E+02  0.51697613129E+02 -0.19062165026E+02  0.67982218125E+02  0.47000000000E+01 0. -1.
         -5    1    4    4    0  502 -0.33030775313E+02  0.61596846495E+01  0.66927576812E+02  0.75035753949E+02  0.47000000000E+01 0. -1.
          5    1    5    5  503    0  0.24915189102E+02  0.25779039037E+02  0.29862565701E+02  0.46895504390E+02  0.47000000000E+01 0. -1.
         -5    1    5    5    0  503 -0.31425312141E+02 -0.83636336816E+02 -0.17625543539E+02  0.91188468921E+02  0.47000000000E+01 0. -1.
<mgrwt>
<rscale>  0 0.27460153E+03</rscale>
<asrwt>0</asrwt>
<pdfrwt beam="1">  1        2 0.26246491E-01 0.27460153E+03</pdfrwt>
<pdfrwt beam="2">  1       -2 0.16999962E-01 0.27460153E+03</pdfrwt>
<totfact> 0.56080782E+03</totfact>
</mgrwt>
</event>
<event>
 9    1  0.8122655E-001  0.2778298E+03  0.7818608E-02  0.1096880E+00
          2   -1    0    0  501    0  0.00000000000E+00  0.00000000000E+00  0.41954088494E+03  0.41954088494E+03  0.00000000000E+00 0.  1.
         -2   -1    0    0    0  501 -0.00000000000E+00 -0.00000000000E+00 -0.45996344512E+02  0.45996344512E+02  0.00000000000E+00 0.  1.
         35    2    1    2    0    0  0.71054273576E-14  0.00000000000E+00  0.37354454043E+03  0.46553722945E+03  0.27782978300E+03 0.  0.
         25    2    3    3    0    0 -0.42829839790E+02  0.18281764989E+02  0.21075363016E+03  0.24986208429E+03  0.12587831597E+03 0.  0.
         25    2    3    3    0    0  0.42829839790E+02 -0.18281764989E+02  0.16279091027E+03  0.21567514516E+03  0.13358993101E+03 0.  0.
          5    1    4    4  502    0  0.13429347336E+02  0.56807079824E+02  0.13866256497E+03  0.15052172140E+03  0.47000000000E+01 0. -1.
         -5    1    4    4    0  502 -0.56259187126E+02 -0.38525314835E+02  0.72091065191E+02  0.99340362892E+02  0.47000000000E+01 0. -1.
          5    1    5    5  503    0 -0.40167202112E+02 -0.29481855856E+02  0.96707958507E+02  0.10889032642E+03  0.47000000000E+01 0. -1.
         -5    1    5    5    0  503  0.82997041901E+02  0.11200090867E+02  0.66082951759E+02  0.10678481874E+03  0.47000000000E+01 0. -1.
<mgrwt>
<rscale>  0 0.27782978E+03</rscale>
<asrwt>0</asrwt>
<pdfrwt beam="1">  1        2 0.64544749E-01 0.27782978E+03</pdfrwt>
<pdfrwt beam="2">  1       -2 0.70763610E-02 0.27782978E+03</pdfrwt>
<totfact> 0.86270804E+03</totfact>
</mgrwt>
</event>
<event>
 9    1  0.8122655E-001  0.2903614E+03  0.7818608E-02  0.1090161E+00
          1   -1    0    0  501    0  0.00000000000E+00  0.00000000000E+00  0.12652622809E+04  0.12652622809E+04  0.00000000000E+00 0.  1.
         -1   -1    0    0    0  501 -0.00000000000E+00 -0.00000000000E+00 -0.16658544972E+02  0.16658544972E+02  0.00000000000E+00 0.  1.
         35    2    1    2    0    0  0.00000000000E+00 -0.71054273576E-14  0.12486037359E+04  0.12819208259E+04  0.29036135148E+03 0.  0.
         25    2    3    3    0    0 -0.48191884759E+02  0.15397599580E+02  0.39193057690E+03  0.41424994056E+03  0.12423321743E+03 0.  0.
         25    2    3    3    0    0  0.48191884759E+02 -0.15397599580E+02  0.85667315904E+03  0.86767088533E+03  0.12807935039E+03 0.  0.
          5    1    4    4  502    0  0.15336848491E+02  0.37187494848E+02  0.28518327535E+03  0.28804464799E+03  0.47000000000E+01 0. -1.
         -5    1    4    4    0  502 -0.63528733250E+02 -0.21789895268E+02  0.10674730155E+03  0.12620529257E+03  0.47000000000E+01 0. -1.
          5    1    5    5  503    0  0.52729412837E+02 -0.55497829368E+02  0.74313193572E+03  0.74707935584E+03  0.47000000000E+01 0. -1.
         -5    1    5    5    0  503 -0.45375280777E+01  0.40100229788E+02  0.11354122333E+03  0.12059152949E+03  0.47000000000E+01 0. -1.
<mgrwt>
<rscale>  0 0.29036135E+03</rscale>
<asrwt>0</asrwt>
<pdfrwt beam="1">  1        1 0.19465566E+00 0.29036135E+03</pdfrwt>
<pdfrwt beam="2">  1       -1 0.25628541E-02 0.29036135E+03</pdfrwt>
<totfact> 0.49147434E+03</totfact>
</mgrwt>
</event>
<event>
 9    1  0.8122655E-001  0.2760969E+03  0.7818608E-02  0.1097840E+00
         -1   -1    0    0    0  501 -0.00000000000E+00  0.00000000000E+00  0.67474694309E+03  0.67474694309E+03  0.00000000000E+00 0.  1.
          1   -1    0    0  501    0  0.00000000000E+00 -0.00000000000E+00 -0.28243745408E+02  0.28243745408E+02  0.00000000000E+00 0.  1.
         35    2    1    2    0    0  0.00000000000E+00  0.00000000000E+00  0.64650319768E+03  0.70299068849E+03  0.27609694584E+03 0.  0.
         25    2    3    3    0    0  0.36532554248E+02 -0.20209235352E+02  0.42218288125E+03  0.44272660520E+03  0.12659155192E+03 0.  0.
         25    2    3    3    0    0 -0.36532554248E+02  0.20209235352E+02  0.22432031643E+03  0.26026408329E+03  0.12519883377E+03 0.  0.
          5    1    4    4  502    0  0.20187324486E+02  0.52705754544E+02  0.21842641923E+03  0.22564931919E+03  0.47000000000E+01 0. -1.
         -5    1    4    4    0  502  0.16345229762E+02 -0.72914989896E+02  0.20375646202E+03  0.21707728601E+03  0.47000000000E+01 0. -1.
          5    1    5    5  503    0 -0.55308048824E+02 -0.19667161623E+02  0.41236520215E+02  0.71891015506E+02  0.47000000000E+01 0.  1.
         -5    1    5    5    0  503  0.18775494576E+02  0.39876396976E+02  0.18308379621E+03  0.18837306779E+03  0.47000000000E+01 0.  1.
<mgrwt>
<rscale>  0 0.27609695E+03</rscale>
<asrwt>0</asrwt>
<pdfrwt beam="1">  1        1 0.43451921E-02 0.27609695E+03</pdfrwt>
<pdfrwt beam="2">  1       -1 0.10380721E+00 0.27609695E+03</pdfrwt>
<totfact> 0.18745466E+03</totfact>
</mgrwt>
</event>
<event>
 9    1  0.8122655E-001  0.2780854E+03  0.7818608E-02  0.1096739E+00
          2   -1    0    0  501    0  0.00000000000E+00  0.00000000000E+00  0.17651350888E+04  0.17651350888E+04  0.00000000000E+00 0. -1.
         -2   -1    0    0    0  501 -0.00000000000E+00 -0.00000000000E+00 -0.10952633252E+02  0.10952633252E+02  0.00000000000E+00 0. -1.
         35    2    1    2    0    0  0.71054273576E-14  0.17763568394E-14  0.17541824555E+04  0.17760877220E+04  0.27808543483E+03 0.  0.
         25    2    3    3    0    0  0.33372306802E+02  0.65069494185E+01  0.12146914985E+04  0.12216137889E+04  0.12533459756E+03 0.  0.
         25    2    3    3    0    0 -0.33372306802E+02 -0.65069494185E+01  0.53949095698E+03  0.55447393312E+03  0.12342932634E+03 0.  0.
          5    1    4    4  502    0  0.30517724492E+02  0.56646660222E+02  0.38313405590E+03  0.38852795320E+03  0.47000000000E+01 0. -1.
         -5    1    4    4    0  502  0.28545823093E+01 -0.50139710804E+02  0.83155744263E+03  0.83308583569E+03  0.47000000000E+01 0. -1.
          5    1    5    5  503    0  0.15991601442E+02  0.98558033826E+01  0.88852511458E+01  0.21305066649E+02  0.47000000000E+01 0.  1.
         -5    1    5    5    0  503 -0.49363908244E+02 -0.16362752801E+02  0.53060570583E+03  0.53316886647E+03  0.47000000000E+01 0.  1.
<mgrwt>
<rscale>  0 0.27808543E+03</rscale>
<asrwt>0</asrwt>
<pdfrwt beam="1">  1        2 0.27155902E+00 0.27808543E+03</pdfrwt>
<pdfrwt beam="2">  1       -2 0.16850219E-02 0.27808543E+03</pdfrwt>
<totfact> 0.98225940E+03</totfact>
</mgrwt>
</event>
<event>
 9    1  0.8122655E-001  0.2724860E+03  0.7818608E-02  0.1099865E+00
          1   -1    0    0  501    0  0.00000000000E+00  0.00000000000E+00  0.20146710654E+04  0.20146710654E+04  0.00000000000E+00 0. -1.
         -1   -1    0    0    0  501 -0.00000000000E+00 -0.00000000000E+00 -0.92134921649E+01  0.92134921649E+01  0.00000000000E+00 0. -1.
         35    2    1    2    0    0  0.00000000000E+00  0.00000000000E+00  0.20054575732E+04  0.20238845575E+04  0.27248600753E+03 0.  0.
         25    2    3    3    0    0 -0.39517993202E+02  0.14895850020E+02  0.12523134521E+04  0.12592670497E+04  0.12522364762E+03 0.  0.
         25    2    3    3    0    0  0.39517993202E+02 -0.14895850020E+02  0.75314412108E+03  0.76461750784E+03  0.12502123041E+03 0.  0.
          5    1    4    4  502    0  0.16925037365E+02  0.12220043648E+02  0.37843816382E+02  0.43474484412E+02  0.47000000000E+01 0.  1.
         -5    1    4    4    0  502 -0.56443030566E+02  0.26758063711E+01  0.12144696357E+04  0.12157925653E+04  0.47000000000E+01 0.  1.
          5    1    5    5  503    0  0.11528159450E+02 -0.23231051788E+02  0.26513240054E+02  0.37384784681E+02  0.47000000000E+01 0.  1.
         -5    1    5    5    0  503  0.27989833752E+02  0.83352017681E+01  0.72663088102E+03  0.72723272316E+03  0.47000000000E+01 0.  1.
<mgrwt>
<rscale>  0 0.27248601E+03</rscale>
<asrwt>0</asrwt>
<pdfrwt beam="1">  1        1 0.30994904E+00 0.27248601E+03</pdfrwt>
<pdfrwt beam="2">  1       -1 0.14174619E-02 0.27248601E+03</pdfrwt>
<totfact> 0.37408448E+03</totfact>
</mgrwt>
</event>
<event>
 9    1  0.8122655E-001  0.2586689E+03  0.7818608E-02  0.1107946E+00
         -2   -1    0    0    0  501 -0.00000000000E+00  0.00000000000E+00  0.34437472434E+03  0.34437472434E+03  0.00000000000E+00 0. -1.
          2   -1    0    0  501    0  0.00000000000E+00 -0.00000000000E+00 -0.48573243218E+02  0.48573243218E+02  0.00000000000E+00 0. -1.
         35    2    1    2    0    0  0.00000000000E+00  0.35527136788E-14  0.29580148112E+03  0.39294796756E+03  0.25866887902E+03 0.  0.
         25    2    3    3    0    0 -0.25134679120E+02 -0.22094452279E+02  0.16860295746E+03  0.21141684930E+03  0.12308618926E+03 0.  0.
         25    2    3    3    0    0  0.25134679120E+02  0.22094452279E+02  0.12719852366E+03  0.18153111826E+03  0.12511660784E+03 0.  0.
          5    1    4    4  502    0 -0.66403232425E+02 -0.44393516227E+02  0.97900628068E+02  0.12643890436E+03  0.47000000000E+01 0. -1.
         -5    1    4    4    0  502  0.41268553306E+02  0.22299063948E+02  0.70702329389E+02  0.84977944938E+02  0.47000000000E+01 0. -1.
          5    1    5    5  503    0 -0.49659011115E+02  0.10848066469E+02  0.33649881709E+02  0.61140023471E+02  0.47000000000E+01 0.  1.
         -5    1    5    5    0  503  0.74793690235E+02  0.11246385810E+02  0.93548641955E+02  0.12039109479E+03  0.47000000000E+01 0.  1.
<mgrwt>
<rscale>  0 0.25866888E+03</rscale>
<asrwt>0</asrwt>
<pdfrwt beam="1">  1        2 0.74728069E-02 0.25866888E+03</pdfrwt>
<pdfrwt beam="2">  1       -2 0.52980725E-01 0.25866888E+03</pdfrwt>
<totfact> 0.31504850E+03</totfact>
</mgrwt>
</event>
<event>
 9    1  0.8122655E-001  0.2745359E+03  0.7818608E-02  0.1098711E+00
          2   -1    0    0  501    0  0.00000000000E+00  0.00000000000E+00  0.12013858161E+04  0.12013858161E+04  0.00000000000E+00 0.  1.
         -2   -1    0    0    0  501 -0.00000000000E+00 -0.00000000000E+00 -0.15683959787E+02  0.15683959787E+02  0.00000000000E+00 0.  1.
         35    2    1    2    0    0  0.00000000000E+00  0.35527136788E-14  0.11857018563E+04  0.12170697759E+04  0.27453587618E+03 0.  0.
         25    2    3    3    0    0  0.33623120625E+02 -0.10053151043E+02  0.39079139168E+03  0.41180119570E+03  0.12502292945E+03 0.  0.
         25    2    3    3    0    0 -0.33623120625E+02  0.10053151043E+02  0.79491046462E+03  0.80526858017E+03  0.12386791092E+03 0.  0.
          5    1    4    4  502    0  0.49328464489E+02  0.12312214402E+02  0.55687069507E+02  0.75551490671E+02  0.47000000000E+01 0. -1.
         -5    1    4    4    0  502 -0.15705343864E+02 -0.22365365445E+02  0.33510432217E+03  0.33624970503E+03  0.47000000000E+01 0. -1.
          5    1    5    5  503    0  0.32226756281E+02 -0.31174404476E+02  0.18510565821E+03  0.19051667122E+03  0.47000000000E+01 0.  1.
         -5    1    5    5    0  503 -0.65849876906E+02  0.41227555519E+02  0.60980480642E+03  0.61475190895E+03  0.47000000000E+01 0.  1.
<mgrwt>
<rscale>  0 0.27453588E+03</rscale>
<asrwt>0</asrwt>
<pdfrwt beam="1">  1        2 0.18482851E+00 0.27453588E+03</pdfrwt>
<pdfrwt beam="2">  1       -2 0.24129179E-02 0.27453588E+03</pdfrwt>
<totfact> 0.11666589E+04</totfact>
</mgrwt>
</event>
<event>
 9    1  0.8122655E-001  0.2754720E+03  0.7818608E-02  0.1098188E+00
          1   -1    0    0  501    0  0.00000000000E+00  0.00000000000E+00  0.14499935909E+03  0.14499935909E+03  0.00000000000E+00 0. -1.
         -1   -1    0    0    0  501 -0.00000000000E+00 -0.00000000000E+00 -0.13083646052E+03  0.13083646052E+03  0.00000000000E+00 0. -1.
         35    2    1    2    0    0 -0.71054273576E-14  0.17763568394E-14  0.14162898570E+02  0.27583581961E+03  0.27547197985E+03 0.  0.
         25    2    3    3    0    0 -0.60941835999E+02  0.67175736516E+01  0.56345971160E+01  0.13667811950E+03  0.12202510600E+03 0.  0.
         25    2    3    3    0    0  0.60941835999E+02 -0.67175736516E+01  0.85283014539E+01  0.13915770012E+03  0.12463185951E+03 0.  0.
          5    1    4    4  502    0 -0.25212590812E+01 -0.51419779737E+02 -0.10009674297E+02  0.52655807611E+02  0.47000000000E+01 0.  1.
         -5    1    4    4    0  502 -0.58420576918E+02  0.58137353389E+02  0.15644271413E+02  0.84022311885E+02  0.47000000000E+01 0.  1.
          5    1    5    5  503    0  0.98529974698E+02 -0.90637961427E+01  0.16374274061E+02  0.10040176874E+03  0.47000000000E+01 0. -1.
         -5    1    5    5    0  503 -0.37588138699E+02  0.23462224910E+01 -0.78459726068E+01  0.38755931378E+02  0.47000000000E+01 0. -1.
<mgrwt>
<rscale>  0 0.27547198E+03</rscale>
<asrwt>0</asrwt>
<pdfrwt beam="1">  1        1 0.22307594E-01 0.27547198E+03</pdfrwt>
<pdfrwt beam="2">  1       -1 0.20128686E-01 0.27547198E+03</pdfrwt>
<totfact> 0.43941851E+03</totfact>
</mgrwt>
</event>
<event>
 9    1  0.8122655E-001  0.2747199E+03  0.7818608E-02  0.1098608E+00
         -2   -1    0    0    0  501 -0.00000000000E+00  0.00000000000E+00  0.14731429217E+02  0.14731429217E+02  0.00000000000E+00 0. -1.
          2   -1    0    0  501    0  0.00000000000E+00 -0.00000000000E+00 -0.12807822292E+04  0.12807822292E+04  0.00000000000E+00 0. -1.
         35    2    1    2    0    0 -0.17763568394E-14  0.00000000000E+00 -0.12660508000E+04  0.12955136584E+04  0.27471987734E+03 0.  0.
         25    2    3    3    0    0 -0.86651467086E+01 -0.50888905172E+02 -0.51595730483E+03  0.53331071693E+03  0.12467403474E+03 0.  0.
         25    2    3    3    0    0  0.86651467086E+01  0.50888905172E+02 -0.75009349512E+03  0.76220294146E+03  0.12509319372E+03 0.  0.
          5    1    4    4  502    0 -0.10847218587E+02 -0.53032955006E+01 -0.46325563771E+03  0.46343679501E+03  0.47000000000E+01 0.  1.
         -5    1    4    4    0  502  0.21820718782E+01 -0.45585609671E+02 -0.52701667121E+02  0.69873921918E+02  0.47000000000E+01 0.  1.
          5    1    5    5  503    0  0.15693832665E+02  0.45917866348E+02 -0.75078875646E+03  0.75236998455E+03  0.47000000000E+01 0.  1.
         -5    1    5    5    0  503 -0.70286859563E+01  0.49710388236E+01  0.69526133752E+00  0.98329569096E+01  0.47000000000E+01 0.  1.
<mgrwt>
<rscale>  0 0.27471988E+03</rscale>
<asrwt>0</asrwt>
<pdfrwt beam="1">  1        2 0.19704350E+00 0.27471988E+03</pdfrwt>
<pdfrwt beam="2">  1       -2 0.22663728E-02 0.27471988E+03</pdfrwt>
<totfact> 0.11548682E+04</totfact>
</mgrwt>
</event>
<event>
 9    1  0.8122655E-001  0.2759149E+03  0.7818608E-02  0.1097941E+00
          2   -1    0    0  501    0  0.00000000000E+00  0.00000000000E+00  0.72609698842E+02  0.72609698842E+02  0.00000000000E+00 0. -1.
         -2   -1    0    0    0  501 -0.00000000000E+00 -0.00000000000E+00 -0.26211726295E+03  0.26211726295E+03  0.00000000000E+00 0. -1.
         35    2    1    2    0    0  0.71054273576E-14 -0.71054273576E-14 -0.18950756411E+03  0.33472696180E+03  0.27591488198E+03 0.  0.
         25    2    3    3    0    0 -0.18213553501E+02  0.39419338995E+02 -0.51682408265E+02  0.14287526201E+03  0.12592319625E+03 0.  0.
         25    2    3    3    0    0  0.18213553501E+02 -0.39419338995E+02 -0.13782515585E+03  0.19185169978E+03  0.12619700197E+03 0.  0.
          5    1    4    4  502    0 -0.70368975005E+02  0.39494107280E+02 -0.31763386639E+02  0.86848027519E+02  0.47000000000E+01 0. -1.
         -5    1    4    4    0  502  0.52155421504E+02 -0.74768284177E-01 -0.19919021625E+02  0.56027234495E+02  0.47000000000E+01 0. -1.
          5    1    5    5  503    0 -0.42520107181E+02 -0.48652682405E+02 -0.39681623528E+02  0.75972128216E+02  0.47000000000E+01 0. -1.
         -5    1    5    5    0  503  0.60733660682E+02  0.92333434092E+01 -0.98143532320E+02  0.11587957157E+03  0.47000000000E+01 0. -1.
<mgrwt>
<rscale>  0 0.27591488E+03</rscale>
<asrwt>0</asrwt>
<pdfrwt beam="1">  1        2 0.11170723E-01 0.27591488E+03</pdfrwt>
<pdfrwt beam="2">  1       -2 0.40325733E-01 0.27591488E+03</pdfrwt>
<totfact> 0.32601482E+03</totfact>
</mgrwt>
</event>
<event>
 9    1  0.8122655E-001  0.2796847E+03  0.7818608E-02  0.1095861E+00
          1   -1    0    0  501    0  0.00000000000E+00  0.00000000000E+00  0.98661185376E+01  0.98661185376E+01  0.00000000000E+00 0. -1.
         -1   -1    0    0    0  501 -0.00000000000E+00 -0.00000000000E+00 -0.19821254923E+04  0.19821254923E+04  0.00000000000E+00 0. -1.
         35    2    1    2    0    0  0.14210854715E-13  0.00000000000E+00 -0.19722593737E+04  0.19919916108E+04  0.27968471580E+03 0.  0.
         25    2    3    3    0    0  0.43132903501E+02  0.41260146889E+02 -0.89498444578E+03  0.90583726618E+03  0.12641656352E+03 0.  0.
         25    2    3    3    0    0 -0.43132903501E+02 -0.41260146889E+02 -0.10772749279E+04  0.10861543446E+04  0.12508854010E+03 0.  0.
          5    1    4    4  502    0  0.14907197168E+02 -0.42122385458E+02 -0.18388224568E+03  0.18929154804E+03  0.47000000000E+01 0.  1.
         -5    1    4    4    0  502  0.28225706333E+02  0.83382532347E+02 -0.71110220010E+03  0.71654571814E+03  0.47000000000E+01 0.  1.
          5    1    5    5  503    0 -0.37270263152E+02  0.34276708604E+02 -0.66556455809E+03  0.66750448407E+03  0.47000000000E+01 0.  1.
         -5    1    5    5    0  503 -0.58626403487E+01 -0.75536855493E+02 -0.41171036985E+03  0.41864986054E+03  0.47000000000E+01 0.  1.
<mgrwt>
<rscale>  0 0.27968472E+03</rscale>
<asrwt>0</asrwt>
<pdfrwt beam="1">  1        1 0.15178664E-02 0.27968472E+03</pdfrwt>
<pdfrwt beam="2">  1       -1 0.30494198E+00 0.27968472E+03</pdfrwt>
<totfact> 0.32172889E+02</totfact>
</mgrwt>
</event>
<event>
 9    1  0.8122655E-001  0.2842890E+03  0.7818608E-02  0.1093369E+00
         -2   -1    0    0    0  501 -0.00000000000E+00  0.00000000000E+00  0.87859984946E+01  0.87859984946E+01  0.00000000000E+00 0.  1.
          2   -1    0    0  501    0  0.00000000000E+00 -0.00000000000E+00 -0.22996885473E+04  0.22996885473E+04  0.00000000000E+00 0.  1.
         35    2    1    2    0    0  0.14210854715E-13  0.00000000000E+00 -0.22909025488E+04  0.23084745458E+04  0.28428900868E+03 0.  0.
         25    2    3    3    0    0 -0.54221319966E+02 -0.33503511626E+02 -0.13185615485E+04  0.13260019184E+04  0.12495636612E+03 0.  0.
         25    2    3    3    0    0  0.54221319966E+02  0.33503511626E+02 -0.97234100030E+03  0.98247262745E+03  0.12547113608E+03 0.  0.
          5    1    4    4  502    0  0.20354893285E+01 -0.68210716635E+02 -0.85438306887E+03  0.85711689020E+03  0.47000000000E+01 0. -1.
         -5    1    4    4    0  502 -0.56256809294E+02  0.34707205009E+02 -0.46417847964E+03  0.46888502816E+03  0.47000000000E+01 0. -1.
          5    1    5    5  503    0  0.17689187843E+02 -0.22113640648E+02 -0.74484629698E+03  0.74539923303E+03  0.47000000000E+01 0.  1.
         -5    1    5    5    0  503  0.36532132122E+02  0.55617152274E+02 -0.22749470332E+03  0.23707339443E+03  0.47000000000E+01 0.  1.
<mgrwt>
<rscale>  0 0.28428901E+03</rscale>
<asrwt>0</asrwt>
<pdfrwt beam="1">  1        2 0.35379869E+00 0.28428901E+03</pdfrwt>
<pdfrwt beam="2">  1       -2 0.13516904E-02 0.28428901E+03</pdfrwt>
<totfact> 0.70772520E+03</totfact>
</mgrwt>
</event>
<event>
 9    1  0.8122655E-001  0.2873377E+03  0.7818608E-02  0.1091747E+00
         -1   -1    0    0    0  501 -0.00000000000E+00  0.00000000000E+00  0.34569850231E+03  0.34569850231E+03  0.00000000000E+00 0. -1.
          1   -1    0    0  501    0  0.00000000000E+00 -0.00000000000E+00 -0.59707330613E+02  0.59707330613E+02  0.00000000000E+00 0. -1.
         35    2    1    2    0    0 -0.35527136788E-14 -0.35527136788E-14  0.28599117170E+03  0.40540583293E+03  0.28733767432E+03 0.  0.
         25    2    3    3    0    0 -0.23982400642E+02 -0.18543171829E+02  0.23204989910E+03  0.26541134130E+03  0.12520790571E+03 0.  0.
         25    2    3    3    0    0  0.23982400642E+02  0.18543171829E+02  0.53941272599E+02  0.13999449163E+03  0.12557783258E+03 0.  0.
          5    1    4    4  502    0 -0.21608839160E+02 -0.23296675490E+02 -0.11131481767E+01  0.32140412530E+02  0.47000000000E+01 0. -1.
         -5    1    4    4    0  502 -0.23735614826E+01  0.47535036608E+01  0.23316304728E+03  0.23327092877E+03  0.47000000000E+01 0. -1.
          5    1    5    5  503    0 -0.25398492931E+02 -0.38806511703E+02 -0.54958868603E+00  0.46619961834E+02  0.47000000000E+01 0.  1.
         -5    1    5    5    0  503  0.49380893574E+02  0.57349683532E+02  0.54490861285E+02  0.93374529798E+02  0.47000000000E+01 0.  1.
<mgrwt>
<rscale>  0 0.28733767E+03</rscale>
<asrwt>0</asrwt>
<pdfrwt beam="1">  1        1 0.91857434E-02 0.28733767E+03</pdfrwt>
<pdfrwt beam="2">  1       -1 0.53184384E-01 0.28733767E+03</pdfrwt>
<totfact> 0.26303633E+03</totfact>
</mgrwt>
</event>
<event>
 9    1  0.8122655E-001  0.2751395E+03  0.7818608E-02  0.1098374E+00
          2   -1    0    0  501    0  0.00000000000E+00  0.00000000000E+00  0.43425175329E+03  0.43425175329E+03  0.00000000000E+00 0.  1.
         -2   -1    0    0    0  501 -0.00000000000E+00 -0.00000000000E+00 -0.43581726143E+02  0.43581726143E+02  0.00000000000E+00 0.  1.
         35    2    1    2    0    0 -0.71054273576E-14  0.00000000000E+00  0.39067002714E+03  0.47783347943E+03  0.27513953543E+03 0.  0.
         25    2    3    3    0    0 -0.53295270667E+02  0.13738488410E+02  0.17866361400E+03  0.22549706195E+03  0.12609165731E+03 0.  0.
         25    2    3    3    0    0  0.53295270667E+02 -0.13738488410E+02  0.21200641314E+03  0.25233641748E+03  0.12529092717E+03 0.  0.
          5    1    4    4  502    0  0.17275075914E+02  0.11019041250E+02 -0.10519352680E+02  0.23507324363E+02  0.47000000000E+01 0. -1.
         -5    1    4    4    0  502 -0.70570346581E+02  0.27194471609E+01  0.18918296668E+03  0.20198973759E+03  0.47000000000E+01 0. -1.
          5    1    5    5  503    0 -0.14932476484E+02  0.40459032762E+02  0.10912806329E+03  0.11743481759E+03  0.47000000000E+01 0. -1.
         -5    1    5    5    0  503  0.68227747151E+02 -0.54197521173E+02  0.10287834986E+03  0.13490159989E+03  0.47000000000E+01 0. -1.
<mgrwt>
<rscale>  0 0.27513954E+03</rscale>
<asrwt>0</asrwt>
<pdfrwt beam="1">  1        2 0.66807959E-01 0.27513954E+03</pdfrwt>
<pdfrwt beam="2">  1       -2 0.67048812E-02 0.27513954E+03</pdfrwt>
<totfact> 0.90273059E+03</totfact>
</mgrwt>
</event>
<event>
 9    1  0.8122655E-001  0.2752560E+03  0.7818608E-02  0.1098309E+00
          2   -1    0    0  501    0  0.00000000000E+00  0.00000000000E+00  0.34828111949E+03  0.34828111949E+03  0.00000000000E+00 0.  1.
         -2   -1    0    0    0  501 -0.00000000000E+00 -0.00000000000E+00 -0.54385581276E+02  0.54385581276E+02  0.00000000000E+00 0.  1.
         35    2    1    2    0    0 -0.71054273576E-14  0.00000000000E+00  0.29389553822E+03  0.40266670077E+03  0.27525603449E+03 0.  0.
         25    2    3    3    0    0  0.61587596057E+02  0.14973791982E+02  0.12008117463E+03  0.18448248552E+03  0.12488816007E+03 0.  0.
         25    2    3    3    0    0 -0.61587596057E+02 -0.14973791982E+02  0.17381436358E+03  0.21818421525E+03  0.11565324191E+03 0.  0.
          5    1    4    4  502    0  0.10974648098E+02 -0.49318373785E+02  0.76106940429E+02  0.91471860564E+02  0.47000000000E+01 0. -1.
         -5    1    4    4    0  502  0.50612947960E+02  0.64292165766E+02  0.43974234204E+02  0.93010624952E+02  0.47000000000E+01 0. -1.
          5    1    5    5  503    0 -0.68490422962E+02 -0.43857267553E+02  0.16916738070E+03  0.18776072712E+03  0.47000000000E+01 0. -1.
         -5    1    5    5    0  503  0.69028269045E+01  0.28883475572E+02  0.46469828821E+01  0.30423488135E+02  0.47000000000E+01 0. -1.
<mgrwt>
<rscale>  0 0.27525603E+03</rscale>
<asrwt>0</asrwt>
<pdfrwt beam="1">  1        2 0.53581709E-01 0.27525603E+03</pdfrwt>
<pdfrwt beam="2">  1       -2 0.83670127E-02 0.27525603E+03</pdfrwt>
<totfact> 0.81280890E+03</totfact>
</mgrwt>
</event>
<event>
 9    1  0.8122655E-001  0.2795590E+03  0.7818608E-02  0.1095930E+00
         -1   -1    0    0    0  501 -0.00000000000E+00  0.00000000000E+00  0.14740723633E+03  0.14740723633E+03  0.00000000000E+00 0. -1.
          1   -1    0    0  501    0  0.00000000000E+00 -0.00000000000E+00 -0.13254651119E+03  0.13254651119E+03  0.00000000000E+00 0. -1.
         35    2    1    2    0    0  0.00000000000E+00  0.14210854715E-13  0.14860725140E+02  0.27995374752E+03  0.27955904492E+03 0.  0.
         25    2    3    3    0    0 -0.42687373752E+02 -0.38267919609E+02 -0.18637057003E+02  0.13844247174E+03  0.12462877894E+03 0.  0.
         25    2    3    3    0    0  0.42687373752E+02  0.38267919609E+02  0.33497782143E+02  0.14151127577E+03  0.12496677244E+03 0.  0.
          5    1    4    4  502    0 -0.50215867823E+02  0.35593056259E+02  0.86905158806E-01  0.61730029868E+02  0.47000000000E+01 0. -1.
         -5    1    4    4    0  502  0.75284940705E+01 -0.73860975868E+02 -0.18723962161E+02  0.76712441873E+02  0.47000000000E+01 0. -1.
          5    1    5    5  503    0  0.57044588435E+02  0.72711336859E+02  0.21703164367E+01  0.92562540215E+02  0.47000000000E+01 0. -1.
         -5    1    5    5    0  503 -0.14357214683E+02 -0.34443417250E+02  0.31327465706E+02  0.48948735559E+02  0.47000000000E+01 0. -1.
<mgrwt>
<rscale>  0 0.27955904E+03</rscale>
<asrwt>0</asrwt>
<pdfrwt beam="1">  1        1 0.20391771E-01 0.27955904E+03</pdfrwt>
<pdfrwt beam="2">  1       -1 0.22678036E-01 0.27955904E+03</pdfrwt>
<totfact> 0.40587164E+03</totfact>
</mgrwt>
</event>
<event>
 9    1  0.8122655E-001  0.2791082E+03  0.7818608E-02  0.1096177E+00
         -3   -1    0    0    0  501 -0.00000000000E+00  0.00000000000E+00  0.74576225851E+02  0.74576225851E+02  0.00000000000E+00 0.  1.
          3   -1    0    0  501    0  0.00000000000E+00 -0.00000000000E+00 -0.26114681176E+03  0.26114681176E+03  0.00000000000E+00 0.  1.
         35    2    1    2    0    0  0.71054273576E-14  0.14210854715E-13 -0.18657058590E+03  0.33572303761E+03  0.27910817698E+03 0.  0.
         25    2    3    3    0    0 -0.20860818143E+02 -0.55237580639E+02 -0.11498526228E+03  0.17910729326E+03  0.12398164343E+03 0.  0.
         25    2    3    3    0    0  0.20860818143E+02  0.55237580639E+02 -0.71585323621E+02  0.15661574435E+03  0.12616524391E+03 0.  0.
          5    1    4    4  502    0 -0.72317356078E+02 -0.35457776112E+02 -0.80166135925E+02  0.11373545281E+03  0.47000000000E+01 0.  1.
         -5    1    4    4    0  502  0.51456537935E+02 -0.19779804527E+02 -0.34819126358E+02  0.65371840449E+02  0.47000000000E+01 0.  1.
          5    1    5    5  503    0  0.66486450004E+01  0.55492432747E+02 -0.10553423088E+03  0.11951225234E+03  0.47000000000E+01 0. -1.
         -5    1    5    5    0  503  0.14212173143E+02 -0.25485210775E+00  0.33948907258E+02  0.37103492006E+02  0.47000000000E+01 0. -1.
<mgrwt>
<rscale>  0 0.27910818E+03</rscale>
<asrwt>0</asrwt>
<pdfrwt beam="1">  1        3 0.40176433E-01 0.27910818E+03</pdfrwt>
<pdfrwt beam="2">  1       -3 0.11473265E-01 0.27910818E+03</pdfrwt>
<totfact> 0.91923721E+02</totfact>
</mgrwt>
</event>
<event>
 9    1  0.8122655E-001  0.2760479E+03  0.7818608E-02  0.1097867E+00
          2   -1    0    0  501    0  0.00000000000E+00  0.00000000000E+00  0.77620369939E+02  0.77620369939E+02  0.00000000000E+00 0. -1.
         -2   -1    0    0    0  501 -0.00000000000E+00 -0.00000000000E+00 -0.24543306616E+03  0.24543306616E+03  0.00000000000E+00 0. -1.
         35    2    1    2    0    0  0.71054273576E-14  0.71054273576E-14 -0.16781269623E+03  0.32305343610E+03  0.27604786100E+03 0.  0.
         25    2    3    3    0    0  0.34991949986E+02  0.42584649189E+02 -0.11040186291E+03  0.17487156131E+03  0.12390965544E+03 0.  0.
         25    2    3    3    0    0 -0.34991949986E+02 -0.42584649189E+02 -0.57410833316E+02  0.14818187479E+03  0.12499590123E+03 0.  0.
          5    1    4    4  502    0  0.62526461579E+02  0.66283046658E+01 -0.11285497782E+03  0.12927423888E+03  0.47000000000E+01 0.  1.
         -5    1    4    4    0  502 -0.27534511593E+02  0.35956344523E+02  0.24531149055E+01  0.45597322431E+02  0.47000000000E+01 0.  1.
          5    1    5    5  503    0  0.23950406559E+02  0.25584886686E+01  0.26449111081E+02  0.36080650155E+02  0.47000000000E+01 0. -1.
         -5    1    5    5    0  503 -0.58942356545E+02 -0.45143137857E+02 -0.83859944397E+02  0.11210122464E+03  0.47000000000E+01 0. -1.
<mgrwt>
<rscale>  0 0.27604786E+03</rscale>
<asrwt>0</asrwt>
<pdfrwt beam="1">  1        2 0.11941595E-01 0.27604786E+03</pdfrwt>
<pdfrwt beam="2">  1       -2 0.37758933E-01 0.27604786E+03</pdfrwt>
<totfact> 0.34049729E+03</totfact>
</mgrwt>
</event>
<event>
 9    1  0.8122655E-001  0.2733357E+03  0.7818608E-02  0.1099386E+00
          2   -1    0    0  501    0  0.00000000000E+00  0.00000000000E+00  0.53201938530E+03  0.53201938530E+03  0.00000000000E+00 0.  1.
         -2   -1    0    0    0  501 -0.00000000000E+00 -0.00000000000E+00 -0.35107937352E+02  0.35107937352E+02  0.00000000000E+00 0.  1.
         35    2    1    2    0    0  0.71054273576E-14 -0.35527136788E-14  0.49691144795E+03  0.56712732265E+03  0.27333571482E+03 0.  0.
         25    2    3    3    0    0 -0.47807574851E+02  0.20480044999E+02  0.18133070178E+03  0.22664870425E+03  0.12563365501E+03 0.  0.
         25    2    3    3    0    0  0.47807574851E+02 -0.20480044999E+02  0.31558074617E+03  0.34047861841E+03  0.11674538871E+03 0.  0.
          5    1    4    4  502    0 -0.95979041137E+01  0.69321677235E+02  0.12183695574E+03  0.14058431094E+03  0.47000000000E+01 0. -1.
         -5    1    4    4    0  502 -0.38209670737E+02 -0.48841632236E+02  0.59493746046E+02  0.86064393311E+02  0.47000000000E+01 0. -1.
          5    1    5    5  503    0  0.73243471341E+02 -0.25261017808E+02  0.11855239318E+03  0.14170209964E+03  0.47000000000E+01 0. -1.
         -5    1    5    5    0  503 -0.25435896490E+02  0.47809728085E+01  0.19702835299E+03  0.19877651877E+03  0.47000000000E+01 0. -1.
<mgrwt>
<rscale>  0 0.27333571E+03</rscale>
<asrwt>0</asrwt>
<pdfrwt beam="1">  1        2 0.81849130E-01 0.27333571E+03</pdfrwt>
<pdfrwt beam="2">  1       -2 0.54012215E-02 0.27333571E+03</pdfrwt>
<totfact> 0.10033583E+04</totfact>
</mgrwt>
</event>
<event>
 9    1  0.8122655E-001  0.2772627E+03  0.7818608E-02  0.1097193E+00
          2   -1    0    0  501    0  0.00000000000E+00  0.00000000000E+00  0.20814380557E+04  0.20814380557E+04  0.00000000000E+00 0. -1.
         -2   -1    0    0    0  501 -0.00000000000E+00 -0.00000000000E+00 -0.92333508083E+01  0.92333508083E+01  0.00000000000E+00 0. -1.
         35    2    1    2    0    0 -0.35527136788E-14  0.00000000000E+00  0.20722047049E+04  0.20906714065E+04  0.27726267512E+03 0.  0.
         25    2    3    3    0    0 -0.70375680337E+01  0.49027879827E+02  0.12061892139E+04  0.12135610918E+04  0.12403565402E+03 0.  0.
         25    2    3    3    0    0  0.70375680337E+01 -0.49027879827E+02  0.86601549101E+03  0.87711031472E+03  0.12994773235E+03 0.  0.
          5    1    4    4  502    0  0.51053469068E+02  0.51702969223E+02  0.78119694570E+03  0.78458295400E+03  0.47000000000E+01 0. -1.
         -5    1    4    4    0  502 -0.58091037102E+02 -0.26750893965E+01  0.42499226821E+03  0.42897813782E+03  0.47000000000E+01 0. -1.
          5    1    5    5  503    0  0.17978397370E+02 -0.14147455286E+02  0.21356229544E+02  0.31647303256E+02  0.47000000000E+01 0.  1.
         -5    1    5    5    0  503 -0.10940829336E+02 -0.34880424541E+02  0.84465926147E+03  0.84546301146E+03  0.47000000000E+01 0.  1.
<mgrwt>
<rscale>  0 0.27726268E+03</rscale>
<asrwt>0</asrwt>
<pdfrwt beam="1">  1        2 0.32022087E+00 0.27726268E+03</pdfrwt>
<pdfrwt beam="2">  1       -2 0.14205172E-02 0.27726268E+03</pdfrwt>
<totfact> 0.85993027E+03</totfact>
</mgrwt>
</event>
<event>
 9    1  0.8122655E-001  0.2707949E+03  0.7818608E-02  0.1100826E+00
          1   -1    0    0  501    0  0.00000000000E+00  0.00000000000E+00  0.31780835041E+03  0.31780835041E+03  0.00000000000E+00 0. -1.
         -1   -1    0    0    0  501 -0.00000000000E+00 -0.00000000000E+00 -0.57684049398E+02  0.57684049398E+02  0.00000000000E+00 0. -1.
         35    2    1    2    0    0  0.00000000000E+00 -0.35527136788E-14  0.26012430101E+03  0.37549239981E+03  0.27079492303E+03 0.  0.
         25    2    3    3    0    0 -0.20084492924E+02  0.29383243811E+02  0.75988952688E+02  0.15091842211E+03  0.12544037359E+03 0.  0.
         25    2    3    3    0    0  0.20084492924E+02 -0.29383243811E+02  0.18413534832E+03  0.22457397770E+03  0.12353494682E+03 0.  0.
          5    1    4    4  502    0  0.36051947423E+02  0.49341273643E+02  0.10366023637E+02  0.62159863608E+02  0.47000000000E+01 0. -1.
         -5    1    4    4    0  502 -0.56136440347E+02 -0.19958029831E+02  0.65622929050E+02  0.88758558499E+02  0.47000000000E+01 0. -1.
          5    1    5    5  503    0  0.18026816350E+02 -0.12931153302E+02 -0.13365191983E+02  0.26322978368E+02  0.47000000000E+01 0. -1.
         -5    1    5    5    0  503  0.20576765744E+01 -0.16452090509E+02  0.19750054031E+03  0.19825099933E+03  0.47000000000E+01 0. -1.
<mgrwt>
<rscale>  0 0.27079492E+03</rscale>
<asrwt>0</asrwt>
<pdfrwt beam="1">  1        1 0.48893591E-01 0.27079492E+03</pdfrwt>
<pdfrwt beam="2">  1       -1 0.88744693E-02 0.27079492E+03</pdfrwt>
<totfact> 0.59294165E+03</totfact>
</mgrwt>
</event>
<event>
 9    1  0.8122655E-001  0.2731685E+03  0.7818608E-02  0.1099480E+00
         -1   -1    0    0    0  501 -0.00000000000E+00  0.00000000000E+00  0.20063834153E+03  0.20063834153E+03  0.00000000000E+00 0. -1.
          1   -1    0    0  501    0  0.00000000000E+00 -0.00000000000E+00 -0.92979530157E+02  0.92979530157E+02  0.00000000000E+00 0. -1.
         35    2    1    2    0    0  0.35527136788E-14  0.71054273576E-14  0.10765881138E+03  0.29361787169E+03  0.27316851010E+03 0.  0.
         25    2    3    3    0    0 -0.10636099382E+02  0.32119503523E+02  0.99347319131E+02  0.16394952772E+03  0.12595542348E+03 0.  0.
         25    2    3    3    0    0  0.10636099382E+02 -0.32119503523E+02  0.83114922446E+01  0.12966834397E+03  0.12489999763E+03 0.  0.
          5    1    4    4  502    0  0.47911696193E+02 -0.13837956621E+02  0.64403607838E+02  0.81590038473E+02  0.47000000000E+01 0.  1.
         -5    1    4    4    0  502 -0.58547795575E+02  0.45957460144E+02  0.34943711293E+02  0.82359489244E+02  0.47000000000E+01 0.  1.
          5    1    5    5  503    0  0.39212085719E+02 -0.31795055066E+02 -0.45780183345E+02  0.68311261006E+02  0.47000000000E+01 0.  1.
         -5    1    5    5    0  503 -0.28575986337E+02 -0.32444845681E+00  0.54091675590E+02  0.61357082966E+02  0.47000000000E+01 0.  1.
<mgrwt>
<rscale>  0 0.27316851E+03</rscale>
<asrwt>0</asrwt>
<pdfrwt beam="1">  1        1 0.14304543E-01 0.27316851E+03</pdfrwt>
<pdfrwt beam="2">  1       -1 0.30867437E-01 0.27316851E+03</pdfrwt>
<totfact> 0.38388564E+03</totfact>
</mgrwt>
</event>
<event>
 9    1  0.8122655E-001  0.2986373E+03  0.7818608E-02  0.1085924E+00
         -2   -1    0    0    0  501 -0.00000000000E+00  0.00000000000E+00  0.23193028610E+02  0.23193028610E+02  0.00000000000E+00 0.  1.
          2   -1    0    0  501    0  0.00000000000E+00 -0.00000000000E+00 -0.96132586086E+03  0.96132586086E+03  0.00000000000E+00 0.  1.
         35    2    1    2    0    0  0.00000000000E+00  0.00000000000E+00 -0.93813283225E+03  0.98451888947E+03  0.29863729301E+03 0.  0.
         25    2    3    3    0    0  0.46743970975E+02  0.34529315740E+02 -0.26700485869E+03  0.30014925076E+03  0.12418013407E+03 0.  0.
         25    2    3    3    0    0 -0.46743970975E+02 -0.34529315740E+02 -0.67112797356E+03  0.68436963871E+03  0.12071359919E+03 0.  0.
          5    1    4    4  502    0  0.55309635035E+02  0.74934870427E+02 -0.15774329278E+03  0.18324690161E+03  0.47000000000E+01 0.  1.
         -5    1    4    4    0  502 -0.85656640597E+01 -0.40405554687E+02 -0.10926156591E+03  0.11690234915E+03  0.47000000000E+01 0.  1.
          5    1    5    5  503    0 -0.60405432749E+02  0.16217152096E+02 -0.18407863551E+03  0.19447068257E+03  0.47000000000E+01 0. -1.
         -5    1    5    5    0  503  0.13661461774E+02 -0.50746467836E+02 -0.48704933805E+03  0.48989895614E+03  0.47000000000E+01 0. -1.
<mgrwt>
<rscale>  0 0.29863729E+03</rscale>
<asrwt>0</asrwt>
<pdfrwt beam="1">  1        2 0.14789629E+00 0.29863729E+03</pdfrwt>
<pdfrwt beam="2">  1       -2 0.35681581E-02 0.29863729E+03</pdfrwt>
<totfact> 0.90681678E+03</totfact>
</mgrwt>
</event>
<event>
 9    1  0.8122655E-001  0.2816480E+03  0.7818608E-02  0.1094792E+00
          1   -1    0    0  501    0  0.00000000000E+00  0.00000000000E+00  0.57273507773E+03  0.57273507773E+03  0.00000000000E+00 0.  1.
         -1   -1    0    0    0  501 -0.00000000000E+00 -0.00000000000E+00 -0.34625776891E+02  0.34625776891E+02  0.00000000000E+00 0.  1.
         35    2    1    2    0    0 -0.71054273576E-14  0.00000000000E+00  0.53810930084E+03  0.60736085462E+03  0.28164798610E+03 0.  0.
         25    2    3    3    0    0  0.56140940635E+02  0.22350860977E+02  0.32269154956E+03  0.35322844191E+03  0.13034235618E+03 0.  0.
         25    2    3    3    0    0 -0.56140940635E+02 -0.22350860977E+02  0.21541775128E+03  0.25413241271E+03  0.12052845897E+03 0.  0.
          5    1    4    4  502    0  0.93967272389E+02 -0.25599158069E+01  0.17537405449E+03  0.19903404341E+03  0.47000000000E+01 0. -1.
         -5    1    4    4    0  502 -0.37826331754E+02  0.24910776784E+02  0.14731749507E+03  0.15419439850E+03  0.47000000000E+01 0. -1.
          5    1    5    5  503    0 -0.37368032231E+02  0.27451872749E+02  0.18874576984E+03  0.19441458480E+03  0.47000000000E+01 0.  1.
         -5    1    5    5    0  503 -0.18772908405E+02 -0.49802733726E+02  0.26671981438E+02  0.59717827911E+02  0.47000000000E+01 0.  1.
<mgrwt>
<rscale>  0 0.28164799E+03</rscale>
<asrwt>0</asrwt>
<pdfrwt beam="1">  1        1 0.88113082E-01 0.28164799E+03</pdfrwt>
<pdfrwt beam="2">  1       -1 0.53270430E-02 0.28164799E+03</pdfrwt>
<totfact> 0.59851698E+03</totfact>
</mgrwt>
</event>
<event>
 9    1  0.8122655E-001  0.3017295E+03  0.7818608E-02  0.1084379E+00
          2   -1    0    0  501    0  0.00000000000E+00  0.00000000000E+00  0.20334649126E+04  0.20334649126E+04  0.00000000000E+00 0.  1.
         -2   -1    0    0    0  501 -0.00000000000E+00 -0.00000000000E+00 -0.11192806036E+02  0.11192806036E+02  0.00000000000E+00 0.  1.
         35    2    1    2    0    0  0.00000000000E+00  0.00000000000E+00  0.20222721066E+04  0.20446577187E+04  0.30172953682E+03 0.  0.
         25    2    3    3    0    0 -0.40083038888E+02 -0.68087249949E+02  0.79371571065E+03  0.80716324364E+03  0.12363393116E+03 0.  0.
         25    2    3    3    0    0  0.40083038888E+02  0.68087249949E+02  0.12285563959E+04  0.12374944750E+04  0.12569500427E+03 0.  0.
          5    1    4    4  502    0  0.43368059083E+02 -0.10049015792E+02  0.22342319608E+03  0.22786352453E+03  0.47000000000E+01 0.  1.
         -5    1    4    4    0  502 -0.83451097971E+02 -0.58038234157E+02  0.57029251458E+03  0.57929971911E+03  0.47000000000E+01 0.  1.
          5    1    5    5  503    0  0.43454315773E+02  0.43103016295E+02  0.11875087275E+04  0.11890942836E+04  0.47000000000E+01 0. -1.
         -5    1    5    5    0  503 -0.33712768854E+01  0.24984233654E+02  0.41047668475E+02  0.48400191387E+02  0.47000000000E+01 0. -1.
<mgrwt>
<rscale>  0 0.30172954E+03</rscale>
<asrwt>0</asrwt>
<pdfrwt beam="1">  1        2 0.31284046E+00 0.30172954E+03</pdfrwt>
<pdfrwt beam="2">  1       -2 0.17219718E-02 0.30172954E+03</pdfrwt>
<totfact> 0.68775879E+03</totfact>
</mgrwt>
</event>
<event>
 9    1  0.8122655E-001  0.2738948E+03  0.7818608E-02  0.1099071E+00
         -1   -1    0    0    0  501 -0.00000000000E+00  0.00000000000E+00  0.94866785269E+01  0.94866785269E+01  0.00000000000E+00 0. -1.
          1   -1    0    0  501    0  0.00000000000E+00 -0.00000000000E+00 -0.19769395696E+04  0.19769395696E+04  0.00000000000E+00 0. -1.
         35    2    1    2    0    0  0.14210854715E-13  0.00000000000E+00 -0.19674528911E+04  0.19864262481E+04  0.27389479852E+03 0.  0.
         25    2    3    3    0    0  0.32232018222E+02  0.35457387962E+02 -0.78119006475E+03  0.79249201838E+03  0.12445703107E+03 0.  0.
         25    2    3    3    0    0 -0.32232018222E+02 -0.35457387962E+02 -0.11862628263E+04  0.11939342298E+04  0.12634604256E+03 0.  0.
          5    1    4    4  502    0 -0.52484052713E+01 -0.43117585522E+02 -0.33764080790E+03  0.34045569036E+03  0.47000000000E+01 0.  1.
         -5    1    4    4    0  502  0.37480423493E+02  0.78574973484E+02 -0.44354925685E+03  0.45203632803E+03  0.47000000000E+01 0.  1.
          5    1    5    5  503    0  0.41117560718E+01 -0.68518831385E+02 -0.95438271508E+03  0.95685954749E+03  0.47000000000E+01 0. -1.
         -5    1    5    5    0  503 -0.36343774293E+02  0.33061443423E+02 -0.23188011126E+03  0.23707468226E+03  0.47000000000E+01 0. -1.
<mgrwt>
<rscale>  0 0.27389480E+03</rscale>
<asrwt>0</asrwt>
<pdfrwt beam="1">  1        1 0.30414475E+00 0.27389480E+03</pdfrwt>
<pdfrwt beam="2">  1       -1 0.14594881E-02 0.27389480E+03</pdfrwt>
<totfact> 0.37931426E+03</totfact>
</mgrwt>
</event>
<event>
 9    1  0.8122655E-001  0.3050184E+03  0.7818608E-02  0.1082759E+00
         -1   -1    0    0    0  501 -0.00000000000E+00  0.00000000000E+00  0.13427876468E+03  0.13427876468E+03  0.00000000000E+00 0.  1.
          1   -1    0    0  501    0  0.00000000000E+00 -0.00000000000E+00 -0.17321466653E+03  0.17321466653E+03  0.00000000000E+00 0.  1.
         35    2    1    2    0    0  0.35527136788E-14  0.14210854715E-13 -0.38935901850E+02  0.30749343120E+03  0.30501836958E+03 0.  0.
         25    2    3    3    0    0 -0.13598380061E+01 -0.70128819139E+02  0.35553204815E+02  0.14807767095E+03  0.12547137453E+03 0.  0.
         25    2    3    3    0    0  0.13598380061E+01  0.70128819139E+02 -0.74489106665E+02  0.15941576026E+03  0.12224916021E+03 0.  0.
          5    1    4    4  502    0 -0.46056128829E+02 -0.83091913184E+02  0.34837048676E+02  0.10129730006E+03  0.47000000000E+01 0.  1.
         -5    1    4    4    0  502  0.44696290823E+02  0.12963094045E+02  0.71615613845E+00  0.46780370885E+02  0.47000000000E+01 0.  1.
          5    1    5    5  503    0 -0.23567054455E+02  0.98343024388E+02 -0.42524840205E+02  0.10980532107E+03  0.47000000000E+01 0.  1.
         -5    1    5    5    0  503  0.24926892461E+02 -0.28214205249E+02 -0.31964266459E+02  0.49610439182E+02  0.47000000000E+01 0.  1.
<mgrwt>
<rscale>  0 0.30501837E+03</rscale>
<asrwt>0</asrwt>
<pdfrwt beam="1">  1        1 0.26648410E-01 0.30501837E+03</pdfrwt>
<pdfrwt beam="2">  1       -1 0.20658272E-01 0.30501837E+03</pdfrwt>
<totfact> 0.33654688E+03</totfact>
</mgrwt>
</event>
<event>
 9    1  0.8122655E-001  0.2736278E+03  0.7818608E-02  0.1099221E+00
          2   -1    0    0  501    0  0.00000000000E+00  0.00000000000E+00  0.26290359557E+02  0.26290359557E+02  0.00000000000E+00 0. -1.
         -2   -1    0    0    0  501 -0.00000000000E+00 -0.00000000000E+00 -0.71197379390E+03  0.71197379390E+03  0.00000000000E+00 0. -1.
         35    2    1    2    0    0  0.17763568394E-14 -0.71054273576E-14 -0.68568343434E+03  0.73826415345E+03  0.27362782780E+03 0.  0.
         25    2    3    3    0    0  0.14992109047E+02 -0.12786161492E+02 -0.20487832755E+03  0.24127026378E+03  0.12588868825E+03 0.  0.
         25    2    3    3    0    0 -0.14992109047E+02  0.12786161492E+02 -0.48080510679E+03  0.49699388967E+03  0.12426232894E+03 0.  0.
          5    1    4    4  502    0  0.30881565005E+02  0.51330018985E+02 -0.81673101212E+02  0.10139540112E+03  0.47000000000E+01 0.  1.
         -5    1    4    4    0  502 -0.15889455958E+02 -0.64116180477E+02 -0.12320522634E+03  0.13987486267E+03  0.47000000000E+01 0.  1.
          5    1    5    5  503    0  0.35062263034E+02  0.27982017346E+02 -0.38588579078E+03  0.38851292013E+03  0.47000000000E+01 0.  1.
         -5    1    5    5    0  503 -0.50054372081E+02 -0.15195855854E+02 -0.94919316009E+02  0.10848096953E+03  0.47000000000E+01 0.  1.
<mgrwt>
<rscale>  0 0.27362783E+03</rscale>
<asrwt>0</asrwt>
<pdfrwt beam="1">  1        2 0.40446708E-02 0.27362783E+03</pdfrwt>
<pdfrwt beam="2">  1       -2 0.10953443E+00 0.27362783E+03</pdfrwt>
<totfact> 0.14432424E+03</totfact>
</mgrwt>
</event>
<event>
 9    1  0.8122655E-001  0.2708556E+03  0.7818608E-02  0.1100791E+00
         -1   -1    0    0    0  501 -0.00000000000E+00  0.00000000000E+00  0.67515034407E+01  0.67515034407E+01  0.00000000000E+00 0.  1.
          1   -1    0    0  501    0  0.00000000000E+00 -0.00000000000E+00 -0.27165350227E+04  0.27165350227E+04  0.00000000000E+00 0.  1.
         35    2    1    2    0    0 -0.14210854715E-13  0.00000000000E+00 -0.27097835193E+04  0.27232865262E+04  0.27085564829E+03 0.  0.
         25    2    3    3    0    0 -0.34313345395E+02  0.39636598796E+02 -0.12766115275E+04  0.12836665713E+04  0.12375139867E+03 0.  0.
         25    2    3    3    0    0  0.34313345395E+02 -0.39636598796E+02 -0.14331719918E+04  0.14396199548E+04  0.12559932553E+03 0.  0.
          5    1    4    4  502    0 -0.43727384821E+02  0.57551453278E+02 -0.38156440358E+03  0.38837834393E+03  0.47000000000E+01 0. -1.
         -5    1    4    4    0  502  0.94140394260E+01 -0.17914854482E+02 -0.89504712389E+03  0.89528822741E+03  0.47000000000E+01 0. -1.
          5    1    5    5  503    0 -0.44931014990E+02 -0.31186252874E+02 -0.48630455924E+03  0.48939308619E+03  0.47000000000E+01 0. -1.
         -5    1    5    5    0  503  0.79244360385E+02 -0.84503459212E+01 -0.94686743260E+03  0.95022686866E+03  0.47000000000E+01 0. -1.
<mgrwt>
<rscale>  0 0.27085565E+03</rscale>
<asrwt>0</asrwt>
<pdfrwt beam="1">  1        1 0.41792794E+00 0.27085565E+03</pdfrwt>
<pdfrwt beam="2">  1       -1 0.10386941E-02 0.27085565E+03</pdfrwt>
<totfact> 0.20205452E+03</totfact>
</mgrwt>
</event>
<event>
 9    1  0.8122655E-001  0.2756999E+03  0.7818608E-02  0.1098061E+00
         -1   -1    0    0    0  501 -0.00000000000E+00  0.00000000000E+00  0.30137795468E+02  0.30137795468E+02  0.00000000000E+00 0.  1.
          1   -1    0    0  501    0  0.00000000000E+00 -0.00000000000E+00 -0.63052440263E+03  0.63052440263E+03  0.00000000000E+00 0.  1.
         35    2    1    2    0    0 -0.35527136788E-14 -0.71054273576E-14 -0.60038660717E+03  0.66066219810E+03  0.27569994910E+03 0.  0.
         25    2    3    3    0    0  0.42815679857E+01  0.41071102727E+02 -0.21836396335E+03  0.25624878417E+03  0.12757527813E+03 0.  0.
         25    2    3    3    0    0 -0.42815679857E+01 -0.41071102727E+02 -0.38202264381E+03  0.40441341394E+03  0.12611003800E+03 0.  0.
          5    1    4    4  502    0  0.55587725763E+02 -0.59103742942E+01 -0.54705844272E+02  0.78356538829E+02  0.47000000000E+01 0.  1.
         -5    1    4    4    0  502 -0.51306157778E+02  0.46981477021E+02 -0.16365811908E+03  0.17789224534E+03  0.47000000000E+01 0.  1.
          5    1    5    5  503    0  0.75614974225E+01  0.30283818079E+02 -0.26420950366E+03  0.26608840204E+03  0.47000000000E+01 0.  1.
         -5    1    5    5    0  503 -0.11843065408E+02 -0.71354920806E+02 -0.11781314016E+03  0.13832501189E+03  0.47000000000E+01 0.  1.
<mgrwt>
<rscale>  0 0.27569995E+03</rscale>
<asrwt>0</asrwt>
<pdfrwt beam="1">  1        1 0.97003744E-01 0.27569995E+03</pdfrwt>
<pdfrwt beam="2">  1       -1 0.46365844E-02 0.27569995E+03</pdfrwt>
<totfact> 0.64432808E+03</totfact>
</mgrwt>
</event>
<event>
 9    1  0.8122655E-001  0.2773709E+03  0.7818608E-02  0.1097134E+00
          1   -1    0    0  501    0  0.00000000000E+00  0.00000000000E+00  0.44818372975E+02  0.44818372975E+02  0.00000000000E+00 0.  1.
         -1   -1    0    0    0  501 -0.00000000000E+00 -0.00000000000E+00 -0.42914666075E+03  0.42914666075E+03  0.00000000000E+00 0.  1.
         35    2    1    2    0    0 -0.71054273576E-14  0.00000000000E+00 -0.38432828778E+03  0.47396503372E+03  0.27737090765E+03 0.  0.
         25    2    3    3    0    0 -0.47125715486E+02 -0.14852726205E+02 -0.25587369522E+03  0.28820931965E+03  0.12309275971E+03 0.  0.
         25    2    3    3    0    0  0.47125715486E+02  0.14852726205E+02 -0.12845459256E+03  0.18575571407E+03  0.12475242052E+03 0.  0.
          5    1    4    4  502    0 -0.52639154343E+02  0.17371026746E+02 -0.24812451214E+03  0.25428428316E+03  0.47000000000E+01 0. -1.
         -5    1    4    4    0  502  0.55134388578E+01 -0.32223752951E+02 -0.77491830836E+01  0.33925036489E+02  0.47000000000E+01 0. -1.
          5    1    5    5  503    0  0.49130215391E+02 -0.30774248375E+02 -0.10397090506E+02  0.59084870470E+02  0.47000000000E+01 0. -1.
         -5    1    5    5    0  503 -0.20044999058E+01  0.45626974581E+02 -0.11805750205E+03  0.12667084360E+03  0.47000000000E+01 0. -1.
<mgrwt>
<rscale>  0 0.27737091E+03</rscale>
<asrwt>0</asrwt>
<pdfrwt beam="1">  1        1 0.68951344E-02 0.27737091E+03</pdfrwt>
<pdfrwt beam="2">  1       -1 0.66022562E-01 0.27737091E+03</pdfrwt>
<totfact> 0.25636605E+03</totfact>
</mgrwt>
</event>
<event>
 9    1  0.8122655E-001  0.2755700E+03  0.7818608E-02  0.1098133E+00
          2   -1    0    0  501    0  0.00000000000E+00  0.00000000000E+00  0.14036480495E+03  0.14036480495E+03  0.00000000000E+00 0.  1.
         -2   -1    0    0    0  501 -0.00000000000E+00 -0.00000000000E+00 -0.13525265349E+03  0.13525265349E+03  0.00000000000E+00 0.  1.
         35    2    1    2    0    0 -0.35527136788E-14  0.35527136788E-14  0.51121514660E+01  0.27561745844E+03  0.27557004428E+03 0.  0.
         25    2    3    3    0    0 -0.57722300438E+01 -0.17957976875E+02 -0.54748840345E+02  0.13573618115E+03  0.12276427730E+03 0.  0.
         25    2    3    3    0    0  0.57722300438E+01  0.17957976875E+02  0.59860991811E+02  0.13988127729E+03  0.12501050284E+03 0.  0.
          5    1    4    4  502    0  0.20047074056E+02 -0.36502813335E+02  0.25661817026E+02  0.49142236545E+02  0.47000000000E+01 0.  1.
         -5    1    4    4    0  502 -0.25819304100E+02  0.18544836460E+02 -0.80410657371E+02  0.86593944605E+02  0.47000000000E+01 0.  1.
          5    1    5    5  503    0  0.36963075756E+02 -0.34216803757E+02 -0.50353599870E+01  0.50838012145E+02  0.47000000000E+01 0.  1.
         -5    1    5    5    0  503 -0.31190845712E+02  0.52174780632E+02  0.64896351798E+02  0.89043265141E+02  0.47000000000E+01 0.  1.
<mgrwt>
<rscale>  0 0.27557004E+03</rscale>
<asrwt>0</asrwt>
<pdfrwt beam="1">  1        2 0.21594585E-01 0.27557004E+03</pdfrwt>
<pdfrwt beam="2">  1       -2 0.20808101E-01 0.27557004E+03</pdfrwt>
<totfact> 0.49552976E+03</totfact>
</mgrwt>
</event>
<event>
 9    1  0.8122655E-001  0.2746706E+03  0.7818608E-02  0.1098636E+00
          1   -1    0    0  501    0  0.00000000000E+00  0.00000000000E+00  0.22608650889E+03  0.22608650889E+03  0.00000000000E+00 0. -1.
         -1   -1    0    0    0  501 -0.00000000000E+00 -0.00000000000E+00 -0.83423761248E+02  0.83423761248E+02  0.00000000000E+00 0. -1.
         35    2    1    2    0    0 -0.71054273576E-14  0.00000000000E+00  0.14266274764E+03  0.30951027014E+03  0.27467061684E+03 0.  0.
         25    2    3    3    0    0 -0.28236347768E+02 -0.40481406425E+02  0.46426802914E+02  0.14159712375E+03  0.12433125843E+03 0.  0.
         25    2    3    3    0    0  0.28236347768E+02  0.40481406425E+02  0.96235944729E+02  0.16791314639E+03  0.12844232975E+03 0.  0.
          5    1    4    4  502    0  0.76301306478E+01  0.15307490379E+02 -0.33332718113E+02  0.37758419620E+02  0.47000000000E+01 0.  1.
         -5    1    4    4    0  502 -0.35866478416E+02 -0.55788896805E+02  0.79759521027E+02  0.10383870413E+03  0.47000000000E+01 0.  1.
          5    1    5    5  503    0 -0.41086624142E+02  0.52168803575E+02  0.54389191590E+02  0.85964928382E+02  0.47000000000E+01 0.  1.
         -5    1    5    5    0  503  0.69322971910E+02 -0.11687397150E+02  0.41846753138E+02  0.81948218009E+02  0.47000000000E+01 0.  1.
<mgrwt>
<rscale>  0 0.27467062E+03</rscale>
<asrwt>0</asrwt>
<pdfrwt beam="1">  1        1 0.34782540E-01 0.27467062E+03</pdfrwt>
<pdfrwt beam="2">  1       -1 0.12834425E-01 0.27467062E+03</pdfrwt>
<totfact> 0.51333236E+03</totfact>
</mgrwt>
</event>
<event>
 9    1  0.8122655E-001  0.2736040E+03  0.7818608E-02  0.1099234E+00
          2   -1    0    0  501    0  0.00000000000E+00  0.00000000000E+00  0.55290103612E+03  0.55290103612E+03  0.00000000000E+00 0. -1.
         -2   -1    0    0    0  501 -0.00000000000E+00 -0.00000000000E+00 -0.33848351879E+02  0.33848351879E+02  0.00000000000E+00 0. -1.
         35    2    1    2    0    0  0.21316282073E-13  0.00000000000E+00  0.51905268424E+03  0.58674938800E+03  0.27360401185E+03 0.  0.
         25    2    3    3    0    0 -0.54302616204E+02 -0.13506719399E+02  0.24460672657E+03  0.28029124488E+03  0.12489806115E+03 0.  0.
         25    2    3    3    0    0  0.54302616204E+02  0.13506719399E+02  0.27444595767E+03  0.30645814312E+03  0.12435756593E+03 0.  0.
          5    1    4    4  502    0  0.35468125814E+02 -0.45763389280E+00  0.28083005235E+02  0.45485630264E+02  0.47000000000E+01 0.  1.
         -5    1    4    4    0  502 -0.89770742017E+02 -0.13049085507E+02  0.21652372133E+03  0.23480561461E+03  0.47000000000E+01 0.  1.
          5    1    5    5  503    0  0.84069750547E+02 -0.23768129570E+01  0.11014499776E+03  0.13866283831E+03  0.47000000000E+01 0. -1.
         -5    1    5    5    0  503 -0.29767134344E+02  0.15883532356E+02  0.16430095991E+03  0.16779530481E+03  0.47000000000E+01 0. -1.
<mgrwt>
<rscale>  0 0.27360401E+03</rscale>
<asrwt>0</asrwt>
<pdfrwt beam="1">  1        2 0.85061691E-01 0.27360401E+03</pdfrwt>
<pdfrwt beam="2">  1       -2 0.52074392E-02 0.27360401E+03</pdfrwt>
<totfact> 0.10154799E+04</totfact>
</mgrwt>
</event>
<event>
 9    1  0.8122655E-001  0.2735549E+03  0.7818608E-02  0.1099262E+00
          2   -1    0    0  501    0  0.00000000000E+00  0.00000000000E+00  0.78480999457E+03  0.78480999457E+03  0.00000000000E+00 0.  1.
         -2   -1    0    0    0  501 -0.00000000000E+00 -0.00000000000E+00 -0.23837700596E+02  0.23837700596E+02  0.00000000000E+00 0.  1.
         35    2    1    2    0    0  0.00000000000E+00 -0.71054273576E-14  0.76097229398E+03  0.80864769517E+03  0.27355486232E+03 0.  0.
         25    2    3    3    0    0  0.23966774733E+02  0.31282823664E+02  0.26329613550E+03  0.29393829148E+03  0.12458668822E+03 0.  0.
         25    2    3    3    0    0 -0.23966774733E+02 -0.31282823664E+02  0.49767615848E+03  0.51470940369E+03  0.12526448092E+03 0.  0.
          5    1    4    4  502    0  0.36914972556E+02  0.53201555142E+02  0.58129914813E+02  0.87145267596E+02  0.47000000000E+01 0.  1.
         -5    1    4    4    0  502 -0.12948197822E+02 -0.21918731478E+02  0.20516622069E+03  0.20679302389E+03  0.47000000000E+01 0.  1.
          5    1    5    5  503    0 -0.44927909523E+02 -0.70526575854E+02  0.27047671118E+03  0.28314705764E+03  0.47000000000E+01 0. -1.
         -5    1    5    5    0  503  0.20961134790E+02  0.39243752190E+02  0.22719944729E+03  0.23156234605E+03  0.47000000000E+01 0. -1.
<mgrwt>
<rscale>  0 0.27355486E+03</rscale>
<asrwt>0</asrwt>
<pdfrwt beam="1">  1        2 0.12073998E+00 0.27355486E+03</pdfrwt>
<pdfrwt beam="2">  1       -2 0.36673392E-02 0.27355486E+03</pdfrwt>
<totfact> 0.11348413E+04</totfact>
</mgrwt>
</event>
<event>
 9    1  0.8122655E-001  0.2783496E+03  0.7818608E-02  0.1096594E+00
          2   -1    0    0  501    0  0.00000000000E+00  0.00000000000E+00  0.40462617274E+04  0.40462617274E+04  0.00000000000E+00 0.  1.
         -2   -1    0    0    0  501 -0.00000000000E+00 -0.00000000000E+00 -0.47870417939E+01  0.47870417939E+01  0.00000000000E+00 0.  1.
         35    2    1    2    0    0  0.00000000000E+00  0.00000000000E+00  0.40414746856E+04  0.40510487692E+04  0.27834959312E+03 0.  0.
         25    2    3    3    0    0 -0.58022388371E+02  0.17452237205E+02  0.17003049057E+04  0.17059737446E+04  0.12505385569E+03 0.  0.
         25    2    3    3    0    0  0.58022388371E+02 -0.17452237205E+02  0.23411697799E+04  0.23450750246E+04  0.12095352180E+03 0.  0.
          5    1    4    4  502    0  0.21861324257E+02  0.42941719474E+02  0.39244216834E+03  0.39541731659E+03  0.47000000000E+01 0. -1.
         -5    1    4    4    0  502 -0.79883712628E+02 -0.25489482269E+02  0.13078627373E+04  0.13105564280E+04  0.47000000000E+01 0. -1.
          5    1    5    5  503    0  0.31881349621E+01 -0.43065762178E+02  0.17978393294E+04  0.17983640256E+04  0.47000000000E+01 0.  1.
         -5    1    5    5    0  503  0.54834253409E+02  0.25613524973E+02  0.54333045051E+03  0.54671099903E+03  0.47000000000E+01 0.  1.
<mgrwt>
<rscale>  0 0.27834959E+03</rscale>
<asrwt>0</asrwt>
<pdfrwt beam="1">  1        2 0.62249907E+00 0.27834959E+03</pdfrwt>
<pdfrwt beam="2">  1       -2 0.73647120E-03 0.27834959E+03</pdfrwt>
<totfact> 0.13674723E+03</totfact>
</mgrwt>
</event>
<event>
 9    1  0.8122655E-001  0.2741245E+03  0.7818608E-02  0.1098942E+00
          2   -1    0    0  501    0  0.00000000000E+00  0.00000000000E+00  0.20565477649E+03  0.20565477649E+03  0.00000000000E+00 0. -1.
         -2   -1    0    0    0  501 -0.00000000000E+00 -0.00000000000E+00 -0.91347535587E+02  0.91347535587E+02  0.00000000000E+00 0. -1.
         35    2    1    2    0    0 -0.71054273576E-14 -0.10658141036E-13  0.11430724091E+03  0.29700231208E+03  0.27412447548E+03 0.  0.
         25    2    3    3    0    0 -0.48521408995E+02 -0.27631612415E+02  0.49111092512E+02  0.14574427993E+03  0.12534617102E+03 0.  0.
         25    2    3    3    0    0  0.48521408995E+02  0.27631612415E+02  0.65196148394E+02  0.15125803215E+03  0.12454164520E+03 0.  0.
          5    1    4    4  502    0 -0.28905928972E+02 -0.11385026273E+02  0.91124269375E+02  0.96389283752E+02  0.47000000000E+01 0.  1.
         -5    1    4    4    0  502 -0.19615480023E+02 -0.16246586142E+02 -0.42013176863E+02  0.49354996180E+02  0.47000000000E+01 0.  1.
          5    1    5    5  503    0  0.66677375927E+01  0.73228865782E+02  0.43151434347E+02  0.85387714541E+02  0.47000000000E+01 0.  1.
         -5    1    5    5    0  503  0.41853671402E+02 -0.45597253367E+02  0.22044714047E+02  0.65870317608E+02  0.47000000000E+01 0.  1.
<mgrwt>
<rscale>  0 0.27412448E+03</rscale>
<asrwt>0</asrwt>
<pdfrwt beam="1">  1        2 0.31639196E-01 0.27412448E+03</pdfrwt>
<pdfrwt beam="2">  1       -2 0.14053467E-01 0.27412448E+03</pdfrwt>
<totfact> 0.62576790E+03</totfact>
</mgrwt>
</event>
<event>
 9    1  0.8122655E-001  0.2748071E+03  0.7818608E-02  0.1098559E+00
          2   -1    0    0  501    0  0.00000000000E+00  0.00000000000E+00  0.10652238441E+03  0.10652238441E+03  0.00000000000E+00 0.  1.
         -2   -1    0    0    0  501 -0.00000000000E+00 -0.00000000000E+00 -0.17723730096E+03  0.17723730096E+03  0.00000000000E+00 0.  1.
         35    2    1    2    0    0  0.00000000000E+00 -0.71054273576E-14 -0.70714916556E+02  0.28375968537E+03  0.27480713168E+03 0.  0.
         25    2    3    3    0    0  0.53587333463E+02 -0.16999796019E+02 -0.49195300475E+02  0.14547556155E+03  0.12482934770E+03 0.  0.
         25    2    3    3    0    0 -0.53587333463E+02  0.16999796019E+02 -0.21519616081E+02  0.13828412383E+03  0.12449421534E+03 0.  0.
          5    1    4    4  502    0 -0.16587824526E+02 -0.19677123129E+02 -0.67802064310E+02  0.72674307852E+02  0.47000000000E+01 0.  1.
         -5    1    4    4    0  502  0.70175157988E+02  0.26773271095E+01  0.18606763835E+02  0.72801253695E+02  0.47000000000E+01 0.  1.
          5    1    5    5  503    0 -0.67516238622E+02 -0.37488490701E+02 -0.26123876894E+02  0.81660127092E+02  0.47000000000E+01 0.  1.
         -5    1    5    5    0  503  0.13928905159E+02  0.54488286721E+02  0.46042608132E+01  0.56623996736E+02  0.47000000000E+01 0.  1.
<mgrwt>
<rscale>  0 0.27480713E+03</rscale>
<asrwt>0</asrwt>
<pdfrwt beam="1">  1        2 0.16388059E-01 0.27480713E+03</pdfrwt>
<pdfrwt beam="2">  1       -2 0.27267277E-01 0.27480713E+03</pdfrwt>
<totfact> 0.42412931E+03</totfact>
</mgrwt>
</event>
<event>
 9    1  0.8122655E-001  0.2747057E+03  0.7818608E-02  0.1098616E+00
          1   -1    0    0  501    0  0.00000000000E+00  0.00000000000E+00  0.26019831445E+03  0.26019831445E+03  0.00000000000E+00 0.  1.
         -1   -1    0    0    0  501 -0.00000000000E+00 -0.00000000000E+00 -0.72505476020E+02  0.72505476020E+02  0.00000000000E+00 0.  1.
         35    2    1    2    0    0  0.00000000000E+00  0.00000000000E+00  0.18769283843E+03  0.33270379047E+03  0.27470567995E+03 0.  0.
         25    2    3    3    0    0  0.45088447312E+02 -0.25797078918E+02  0.64176061028E+02  0.14960907102E+03  0.12476317550E+03 0.  0.
         25    2    3    3    0    0 -0.45088447312E+02  0.25797078918E+02  0.12351677740E+03  0.18309471945E+03  0.12477509619E+03 0.  0.
          5    1    4    4  502    0  0.11558428691E+02 -0.52770178926E+02 -0.17660511767E+02  0.57028700963E+02  0.47000000000E+01 0.  1.
         -5    1    4    4    0  502  0.33530018621E+02  0.26973100008E+02  0.81836572795E+02  0.92580370056E+02  0.47000000000E+01 0.  1.
          5    1    5    5  503    0 -0.57017910085E+02  0.27824458041E+02  0.14480324071E+03  0.15816229341E+03  0.47000000000E+01 0.  1.
         -5    1    5    5    0  503  0.11929462773E+02 -0.20273791230E+01 -0.21286463309E+02  0.24932426043E+02  0.47000000000E+01 0.  1.
<mgrwt>
<rscale>  0 0.27470568E+03</rscale>
<asrwt>0</asrwt>
<pdfrwt beam="1">  1        1 0.40030509E-01 0.27470568E+03</pdfrwt>
<pdfrwt beam="2">  1       -1 0.11154689E-01 0.27470568E+03</pdfrwt>
<totfact> 0.53568704E+03</totfact>
</mgrwt>
</event>
<event>
 9    1  0.8122655E-001  0.2777059E+03  0.7818608E-02  0.1096949E+00
         -1   -1    0    0    0  501 -0.00000000000E+00  0.00000000000E+00  0.25234946045E+02  0.25234946045E+02  0.00000000000E+00 0.  1.
          1   -1    0    0  501    0  0.00000000000E+00 -0.00000000000E+00 -0.76402524254E+03  0.76402524254E+03  0.00000000000E+00 0.  1.
         35    2    1    2    0    0  0.00000000000E+00  0.00000000000E+00 -0.73879029650E+03  0.78926018859E+03  0.27770585714E+03 0.  0.
         25    2    3    3    0    0 -0.94032814025E+01 -0.17237724363E+02 -0.53391372921E+03  0.54879349051E+03  0.12539882035E+03 0.  0.
         25    2    3    3    0    0  0.94032814025E+01  0.17237724363E+02 -0.20487656729E+03  0.24046669808E+03  0.12435539481E+03 0.  0.
          5    1    4    4  502    0 -0.59799407892E+02  0.19753988182E+02 -0.23216076952E+03  0.24059697034E+03  0.47000000000E+01 0.  1.
         -5    1    4    4    0  502  0.50396126490E+02 -0.36991712546E+02 -0.30175295968E+03  0.30819652016E+03  0.47000000000E+01 0.  1.
          5    1    5    5  503    0  0.57411440744E+02 -0.25238218098E+01 -0.16515021520E+03  0.17492606091E+03  0.47000000000E+01 0.  1.
         -5    1    5    5    0  503 -0.48008159342E+02  0.19761546173E+02 -0.39726352096E+02  0.65540637175E+02  0.47000000000E+01 0.  1.
<mgrwt>
<rscale>  0 0.27770586E+03</rscale>
<asrwt>0</asrwt>
<pdfrwt beam="1">  1        1 0.11754235E+00 0.27770586E+03</pdfrwt>
<pdfrwt beam="2">  1       -1 0.38822993E-02 0.27770586E+03</pdfrwt>
<totfact> 0.63473996E+03</totfact>
</mgrwt>
</event>
<event>
 9    1  0.8122655E-001  0.2728051E+03  0.7818608E-02  0.1099685E+00
          1   -1    0    0  501    0  0.00000000000E+00  0.00000000000E+00  0.12517574564E+04  0.12517574564E+04  0.00000000000E+00 0.  1.
         -1   -1    0    0    0  501 -0.00000000000E+00 -0.00000000000E+00 -0.14863626342E+02  0.14863626342E+02  0.00000000000E+00 0.  1.
         35    2    1    2    0    0  0.00000000000E+00 -0.17763568394E-14  0.12368938300E+04  0.12666210827E+04  0.27280509601E+03 0.  0.
         25    2    3    3    0    0  0.42213837282E+02  0.12031037278E+01  0.45922524461E+03  0.47859592236E+03  0.12799521901E+03 0.  0.
         25    2    3    3    0    0 -0.42213837282E+02 -0.12031037278E+01  0.77766858543E+03  0.78802516037E+03  0.12013229830E+03 0.  0.
          5    1    4    4  502    0  0.66429490842E+02 -0.46266039942E+02  0.28920379403E+03  0.30035703452E+03  0.47000000000E+01 0. -1.
         -5    1    4    4    0  502 -0.24215653559E+02  0.47469143670E+02  0.17002145058E+03  0.17823888783E+03  0.47000000000E+01 0. -1.
          5    1    5    5  503    0  0.35347983996E+02  0.15106845295E+02  0.13418347644E+03  0.13966027387E+03  0.47000000000E+01 0.  1.
         -5    1    5    5    0  503 -0.77561821278E+02 -0.16309949023E+02  0.64348510898E+03  0.64836488650E+03  0.47000000000E+01 0.  1.
<mgrwt>
<rscale>  0 0.27280510E+03</rscale>
<asrwt>0</asrwt>
<pdfrwt beam="1">  1        1 0.19257799E+00 0.27280510E+03</pdfrwt>
<pdfrwt beam="2">  1       -1 0.22867127E-02 0.27280510E+03</pdfrwt>
<totfact> 0.59321851E+03</totfact>
</mgrwt>
</event>
<event>
 9    1  0.8122655E-001  0.2760893E+03  0.7818608E-02  0.1097844E+00
          2   -1    0    0  501    0  0.00000000000E+00  0.00000000000E+00  0.19094599200E+04  0.19094599200E+04  0.00000000000E+00 0.  1.
         -2   -1    0    0    0  501 -0.00000000000E+00 -0.00000000000E+00 -0.99799552117E+01  0.99799552117E+01  0.00000000000E+00 0.  1.
         35    2    1    2    0    0  0.00000000000E+00 -0.71054273576E-14  0.18994799648E+04  0.19194398752E+04  0.27608929338E+03 0.  0.
         25    2    3    3    0    0 -0.14905332739E+02  0.46215111256E+02  0.11661661029E+04  0.11739108026E+04  0.12555949715E+03 0.  0.
         25    2    3    3    0    0  0.14905332739E+02 -0.46215111256E+02  0.73331386187E+03  0.74552907265E+03  0.12532506813E+03 0.  0.
          5    1    4    4  502    0 -0.28544944512E+02 -0.38188062955E+02  0.34958930793E+03  0.35285679280E+03  0.47000000000E+01 0.  1.
         -5    1    4    4    0  502  0.13639611772E+02  0.84403174211E+02  0.81657679499E+03  0.82105400976E+03  0.47000000000E+01 0.  1.
          5    1    5    5  503    0  0.14344957018E+02 -0.83901327812E+01  0.76906371863E+01  0.18905237905E+02  0.47000000000E+01 0.  1.
         -5    1    5    5    0  503  0.56037572175E+00 -0.37824978475E+02  0.72562322468E+03  0.72662383474E+03  0.47000000000E+01 0.  1.
<mgrwt>
<rscale>  0 0.27608929E+03</rscale>
<asrwt>0</asrwt>
<pdfrwt beam="1">  1        2 0.29376277E+00 0.27608929E+03</pdfrwt>
<pdfrwt beam="2">  1       -2 0.15353792E-02 0.27608929E+03</pdfrwt>
<totfact> 0.94530102E+03</totfact>
</mgrwt>
</event>
<event>
 9    1  0.8122655E-001  0.2754137E+03  0.7818608E-02  0.1098221E+00
          1   -1    0    0  501    0  0.00000000000E+00  0.00000000000E+00  0.22220746784E+03  0.22220746784E+03  0.00000000000E+00 0.  1.
         -1   -1    0    0    0  501 -0.00000000000E+00 -0.00000000000E+00 -0.85339945477E+02  0.85339945477E+02  0.00000000000E+00 0.  1.
         35    2    1    2    0    0  0.00000000000E+00  0.71054273576E-14  0.13686752237E+03  0.30754741332E+03  0.27541367570E+03 0.  0.
         25    2    3    3    0    0 -0.32078405276E+02  0.27299975190E+02  0.11121318389E+03  0.17239971146E+03  0.12481576627E+03 0.  0.
         25    2    3    3    0    0  0.32078405276E+02 -0.27299975190E+02  0.25654338471E+02  0.13514770186E+03  0.12582703805E+03 0.  0.
          5    1    4    4  502    0 -0.21803383563E+02 -0.49328996943E+02  0.49644663731E+02  0.73453523477E+02  0.47000000000E+01 0.  1.
         -5    1    4    4    0  502 -0.10275021712E+02  0.76628972133E+02  0.61568520163E+02  0.98946187983E+02  0.47000000000E+01 0.  1.
          5    1    5    5  503    0  0.63521207199E+02 -0.27662148559E+02  0.57492149474E+02  0.90153066937E+02  0.47000000000E+01 0.  1.
         -5    1    5    5    0  503 -0.31442801923E+02  0.36217336881E+00 -0.31837811003E+02  0.44994634922E+02  0.47000000000E+01 0.  1.
<mgrwt>
<rscale>  0 0.27541368E+03</rscale>
<asrwt>0</asrwt>
<pdfrwt beam="1">  1        1 0.34185764E-01 0.27541368E+03</pdfrwt>
<pdfrwt beam="2">  1       -1 0.13129222E-01 0.27541368E+03</pdfrwt>
<totfact> 0.50628622E+03</totfact>
</mgrwt>
</event>
<event>
 9    1  0.8122655E-001  0.2770189E+03  0.7818608E-02  0.1097328E+00
          2   -1    0    0  501    0  0.00000000000E+00  0.00000000000E+00  0.21513307464E+04  0.21513307464E+04  0.00000000000E+00 0.  1.
         -2   -1    0    0    0  501 -0.00000000000E+00 -0.00000000000E+00 -0.89176719686E+01  0.89176719686E+01  0.00000000000E+00 0.  1.
         35    2    1    2    0    0  0.00000000000E+00  0.71054273576E-14  0.21424130744E+04  0.21602484183E+04  0.27701885778E+03 0.  0.
         25    2    3    3    0    0 -0.57205993773E+01  0.54556926358E+02  0.12851438296E+04  0.12921253973E+04  0.12240995137E+03 0.  0.
         25    2    3    3    0    0  0.57205993773E+01 -0.54556926358E+02  0.85726924483E+03  0.86812302104E+03  0.12537080223E+03 0.  0.
          5    1    4    4  502    0  0.57826988935E+02  0.18953110609E+02  0.61152389291E+03  0.61456223660E+03  0.47000000000E+01 0. -1.
         -5    1    4    4    0  502 -0.63547588312E+02  0.35603815750E+02  0.67361993665E+03  0.67756316069E+03  0.47000000000E+01 0. -1.
          5    1    5    5  503    0  0.62257216846E+02 -0.78357802046E+01  0.36140326135E+03  0.36684024836E+03  0.47000000000E+01 0.  1.
         -5    1    5    5    0  503 -0.56536617468E+02 -0.46721146154E+02  0.49586598348E+03  0.50128277268E+03  0.47000000000E+01 0.  1.
<mgrwt>
<rscale>  0 0.27701886E+03</rscale>
<asrwt>0</asrwt>
<pdfrwt beam="1">  1        2 0.33097355E+00 0.27701886E+03</pdfrwt>
<pdfrwt beam="2">  1       -2 0.13719512E-02 0.27701886E+03</pdfrwt>
<totfact> 0.83090708E+03</totfact>
</mgrwt>
</event>
<event>
 9    1  0.8122655E-001  0.2737063E+03  0.7818608E-02  0.1099177E+00
          2   -1    0    0  501    0  0.00000000000E+00  0.00000000000E+00  0.12928983236E+04  0.12928983236E+04  0.00000000000E+00 0.  1.
         -2   -1    0    0    0  501 -0.00000000000E+00 -0.00000000000E+00 -0.14485896425E+02  0.14485896425E+02  0.00000000000E+00 0.  1.
         35    2    1    2    0    0  0.00000000000E+00  0.13322676296E-14  0.12784124272E+04  0.13073842200E+04  0.27370634778E+03 0.  0.
         25    2    3    3    0    0 -0.45330626366E+02 -0.19666838257E+01  0.78898292796E+03  0.80018343904E+03  0.12546211370E+03 0.  0.
         25    2    3    3    0    0  0.45330626366E+02  0.19666838257E+01  0.48942949921E+03  0.50720078098E+03  0.12511060704E+03 0.  0.
          5    1    4    4  502    0  0.33982108908E+02 -0.33433728961E+02  0.27242427436E+03  0.27660381996E+03  0.47000000000E+01 0. -1.
         -5    1    4    4    0  502 -0.79312735274E+02  0.31467045135E+02  0.51655865360E+03  0.52357961908E+03  0.47000000000E+01 0. -1.
          5    1    5    5  503    0  0.12057377676E+02  0.23672189430E+01 -0.31081936731E+01  0.13517949174E+02  0.47000000000E+01 0. -1.
         -5    1    5    5    0  503  0.33273248690E+02 -0.40053511723E+00  0.49253769288E+03  0.49368283180E+03  0.47000000000E+01 0. -1.
<mgrwt>
<rscale>  0 0.27370635E+03</rscale>
<asrwt>0</asrwt>
<pdfrwt beam="1">  1        2 0.19890734E+00 0.27370635E+03</pdfrwt>
<pdfrwt beam="2">  1       -2 0.22286005E-02 0.27370635E+03</pdfrwt>
<totfact> 0.11655531E+04</totfact>
</mgrwt>
</event>
<event>
 9    1  0.8122655E-001  0.2663360E+03  0.7818608E-02  0.1103395E+00
         -2   -1    0    0    0  501 -0.00000000000E+00  0.00000000000E+00  0.18542153490E+02  0.18542153490E+02  0.00000000000E+00 0. -1.
          2   -1    0    0  501    0  0.00000000000E+00 -0.00000000000E+00 -0.95640000466E+03  0.95640000466E+03  0.00000000000E+00 0. -1.
         35    2    1    2    0    0  0.00000000000E+00  0.00000000000E+00 -0.93785785117E+03  0.97494215815E+03  0.26633599595E+03 0.  0.
         25    2    3    3    0    0 -0.39656831063E+02  0.23757567761E+02 -0.51318259851E+03  0.53018484456E+03  0.12490998246E+03 0.  0.
         25    2    3    3    0    0  0.39656831063E+02 -0.23757567761E+02 -0.42467525266E+03  0.44475731359E+03  0.12378574833E+03 0.  0.
          5    1    4    4  502    0  0.68697290800E+01  0.44787908759E+02 -0.43043422693E+03  0.43283814950E+03  0.47000000000E+01 0. -1.
         -5    1    4    4    0  502 -0.46526560143E+02 -0.21030340997E+02 -0.82748371576E+02  0.97346695063E+02  0.47000000000E+01 0. -1.
          5    1    5    5  503    0  0.20131110401E+00 -0.69314631824E+02 -0.18617394862E+03  0.19871433732E+03  0.47000000000E+01 0.  1.
         -5    1    5    5    0  503  0.39455519959E+02  0.45557064062E+02 -0.23850130404E+03  0.24604297627E+03  0.47000000000E+01 0.  1.
<mgrwt>
<rscale>  0 0.26633600E+03</rscale>
<asrwt>0</asrwt>
<pdfrwt beam="1">  1        2 0.14713850E+00 0.26633600E+03</pdfrwt>
<pdfrwt beam="2">  1       -2 0.28526382E-02 0.26633600E+03</pdfrwt>
<totfact> 0.12711350E+04</totfact>
</mgrwt>
</event>
<event>
 9    1  0.8122655E-001  0.2771751E+03  0.7818608E-02  0.1097242E+00
          1   -1    0    0  501    0  0.00000000000E+00  0.00000000000E+00  0.33496994941E+03  0.33496994941E+03  0.00000000000E+00 0. -1.
         -1   -1    0    0    0  501 -0.00000000000E+00 -0.00000000000E+00 -0.57338010975E+02  0.57338010975E+02  0.00000000000E+00 0. -1.
         35    2    1    2    0    0  0.35527136788E-14 -0.71054273576E-14  0.27763193844E+03  0.39230796038E+03  0.27717511169E+03 0.  0.
         25    2    3    3    0    0  0.13977481894E+02  0.39916406258E+02  0.11357401434E+03  0.18161387477E+03  0.13526216503E+03 0.  0.
         25    2    3    3    0    0 -0.13977481894E+02 -0.39916406258E+02  0.16405792409E+03  0.21069408561E+03  0.12525296709E+03 0.  0.
          5    1    4    4  502    0 -0.66846805791E+01 -0.17678413098E+02  0.11846017958E+03  0.12005047018E+03  0.47000000000E+01 0. -1.
         -5    1    4    4    0  502  0.20662162473E+02  0.57594819356E+02 -0.48861652358E+01  0.61563404596E+02  0.47000000000E+01 0. -1.
          5    1    5    5  503    0  0.41101871661E+02  0.19410944345E+02  0.32218825783E+02  0.55913248423E+02  0.47000000000E+01 0. -1.
         -5    1    5    5    0  503 -0.55079353555E+02 -0.59327350603E+02  0.13183909831E+03  0.15478083719E+03  0.47000000000E+01 0. -1.
<mgrwt>
<rscale>  0 0.27717511E+03</rscale>
<asrwt>0</asrwt>
<pdfrwt beam="1">  1        1 0.51533837E-01 0.27717511E+03</pdfrwt>
<pdfrwt beam="2">  1       -1 0.88212327E-02 0.27717511E+03</pdfrwt>
<totfact> 0.56043165E+03</totfact>
</mgrwt>
</event>
<event>
 9    1  0.8122655E-001  0.2697068E+03  0.7818608E-02  0.1101448E+00
          1   -1    0    0  501    0  0.00000000000E+00  0.00000000000E+00  0.25280005346E+02  0.25280005346E+02  0.00000000000E+00 0. -1.
         -1   -1    0    0    0  501 -0.00000000000E+00 -0.00000000000E+00 -0.71936053177E+03  0.71936053177E+03  0.00000000000E+00 0. -1.
         35    2    1    2    0    0  0.71054273576E-14  0.00000000000E+00 -0.69408052643E+03  0.74464053712E+03  0.26970678960E+03 0.  0.
         25    2    3    3    0    0 -0.46112948664E+02  0.33963831267E+01 -0.38552549799E+03  0.40801992772E+03  0.12534916178E+03 0.  0.
         25    2    3    3    0    0  0.46112948664E+02 -0.33963831267E+01 -0.30855502844E+03  0.33662060940E+03  0.12636965478E+03 0.  0.
          5    1    4    4  502    0 -0.74330303808E+00 -0.53756797863E+02 -0.22875228530E+03  0.23503200600E+03  0.47000000000E+01 0. -1.
         -5    1    4    4    0  502 -0.45369645626E+02  0.57153180990E+02 -0.15677321270E+03  0.17298792172E+03  0.47000000000E+01 0. -1.
          5    1    5    5  503    0 -0.23503780627E+02 -0.18928450450E+02 -0.14147879795E+02  0.33659566885E+02  0.47000000000E+01 0. -1.
         -5    1    5    5    0  503  0.69616729291E+02  0.15532067323E+02 -0.29440714864E+03  0.30296104252E+03  0.47000000000E+01 0. -1.
<mgrwt>
<rscale>  0 0.26970679E+03</rscale>
<asrwt>0</asrwt>
<pdfrwt beam="1">  1        1 0.38892315E-02 0.26970679E+03</pdfrwt>
<pdfrwt beam="2">  1       -1 0.11067085E+00 0.26970679E+03</pdfrwt>
<totfact> 0.18893550E+03</totfact>
</mgrwt>
</event>
<event>
 9    1  0.8122655E-001  0.2745712E+03  0.7818608E-02  0.1098692E+00
          2   -1    0    0  501    0  0.00000000000E+00  0.00000000000E+00  0.52581056212E+03  0.52581056212E+03  0.00000000000E+00 0.  1.
         -2   -1    0    0    0  501 -0.00000000000E+00 -0.00000000000E+00 -0.35844353967E+02  0.35844353967E+02  0.00000000000E+00 0.  1.
         35    2    1    2    0    0  0.00000000000E+00  0.00000000000E+00  0.48996620815E+03  0.56165491609E+03  0.27457122871E+03 0.  0.
         25    2    3    3    0    0 -0.11359679535E+02  0.21523517056E+02  0.34610032714E+03  0.36894702275E+03  0.12547575482E+03 0.  0.
         25    2    3    3    0    0  0.11359679535E+02 -0.21523517056E+02  0.14386588102E+03  0.19270789334E+03  0.12588342356E+03 0.  0.
          5    1    4    4  502    0 -0.72179338300E+01 -0.31964968760E+02  0.28734118522E+03  0.28924194806E+03  0.47000000000E+01 0.  1.
         -5    1    4    4    0  502 -0.41417457054E+01  0.53488485815E+02  0.58759141920E+02  0.79705074691E+02  0.47000000000E+01 0.  1.
          5    1    5    5  503    0  0.52666179379E+02 -0.52654303878E+02  0.99690167870E+02  0.12452478363E+03  0.47000000000E+01 0. -1.
         -5    1    5    5    0  503 -0.41306499844E+02  0.31130786822E+02  0.44175713149E+02  0.68183109710E+02  0.47000000000E+01 0. -1.
<mgrwt>
<rscale>  0 0.27457123E+03</rscale>
<asrwt>0</asrwt>
<pdfrwt beam="1">  1        2 0.80893927E-01 0.27457123E+03</pdfrwt>
<pdfrwt beam="2">  1       -2 0.55145164E-02 0.27457123E+03</pdfrwt>
<totfact> 0.98522192E+03</totfact>
</mgrwt>
</event>
<event>
 9    1  0.8122655E-001  0.2609877E+03  0.7818608E-02  0.1106551E+00
         -2   -1    0    0    0  501 -0.00000000000E+00  0.00000000000E+00  0.48441357263E+02  0.48441357263E+02  0.00000000000E+00 0. -1.
          2   -1    0    0  501    0  0.00000000000E+00 -0.00000000000E+00 -0.35153108866E+03  0.35153108866E+03  0.00000000000E+00 0. -1.
         35    2    1    2    0    0  0.10658141036E-13  0.71054273576E-14 -0.30308973139E+03  0.39997244592E+03  0.26098768595E+03 0.  0.
         25    2    3    3    0    0  0.31821407260E+02  0.16484478608E+02 -0.15330388636E+03  0.20114756440E+03  0.12519553145E+03 0.  0.
         25    2    3    3    0    0 -0.31821407260E+02 -0.16484478608E+02 -0.14978584504E+03  0.19882488152E+03  0.12574257093E+03 0.  0.
          5    1    4    4  502    0 -0.46132298712E+02  0.45103483963E+01 -0.83980162570E+02  0.96037960893E+02  0.47000000000E+01 0. -1.
         -5    1    4    4    0  502  0.77953705972E+02  0.11974130212E+02 -0.69323723787E+02  0.10510960350E+03  0.47000000000E+01 0. -1.
          5    1    5    5  503    0  0.24815594618E+02  0.41998307390E+02 -0.51036935774E+02  0.70756839762E+02  0.47000000000E+01 0. -1.
         -5    1    5    5    0  503 -0.56637001878E+02 -0.58482785998E+02 -0.98748909261E+02  0.12806804176E+03  0.47000000000E+01 0. -1.
<mgrwt>
<rscale>  0 0.26098769E+03</rscale>
<asrwt>0</asrwt>
<pdfrwt beam="1">  1        2 0.54081707E-01 0.26098769E+03</pdfrwt>
<pdfrwt beam="2">  1       -2 0.74525164E-02 0.26098769E+03</pdfrwt>
<totfact> 0.96188305E+03</totfact>
</mgrwt>
</event>
<event>
 9    1  0.8122655E-001  0.2742996E+03  0.7818608E-02  0.1098844E+00
         -2   -1    0    0    0  501 -0.00000000000E+00  0.00000000000E+00  0.30945319156E+02  0.30945319156E+02  0.00000000000E+00 0.  1.
          2   -1    0    0  501    0  0.00000000000E+00 -0.00000000000E+00 -0.60784866882E+03  0.60784866882E+03  0.00000000000E+00 0.  1.
         35    2    1    2    0    0  0.00000000000E+00  0.71054273576E-14 -0.57690334967E+03  0.63879398798E+03  0.27429962490E+03 0.  0.
         25    2    3    3    0    0  0.11591080450E+02 -0.36519868045E+02 -0.38667395566E+03  0.40822147205E+03  0.12513979522E+03 0.  0.
         25    2    3    3    0    0 -0.11591080450E+02  0.36519868045E+02 -0.19022939401E+03  0.23057251593E+03  0.12453276216E+03 0.  0.
          5    1    4    4  502    0  0.52417306602E+02 -0.21927024853E+02 -0.78732191067E+02  0.97207079786E+02  0.47000000000E+01 0.  1.
         -5    1    4    4    0  502 -0.40826226152E+02 -0.14592843191E+02 -0.30794176459E+03  0.31101439226E+03  0.47000000000E+01 0.  1.
          5    1    5    5  503    0  0.40889808481E+02  0.14283797747E+02 -0.14730227316E+02  0.45989921858E+02  0.47000000000E+01 0.  1.
         -5    1    5    5    0  503 -0.52480888931E+02  0.22236070297E+02 -0.17549916670E+03  0.18458259408E+03  0.47000000000E+01 0.  1.
<mgrwt>
<rscale>  0 0.27429962E+03</rscale>
<asrwt>0</asrwt>
<pdfrwt beam="1">  1        2 0.93515170E-01 0.27429962E+03</pdfrwt>
<pdfrwt beam="2">  1       -2 0.47608188E-02 0.27429962E+03</pdfrwt>
<totfact> 0.10434542E+04</totfact>
</mgrwt>
</event>
<event>
 9    1  0.8122655E-001  0.2729968E+03  0.7818608E-02  0.1099577E+00
         -1   -1    0    0    0  501 -0.00000000000E+00  0.00000000000E+00  0.11895861826E+03  0.11895861826E+03  0.00000000000E+00 0. -1.
          1   -1    0    0  501    0  0.00000000000E+00 -0.00000000000E+00 -0.15662433819E+03  0.15662433819E+03  0.00000000000E+00 0. -1.
         35    2    1    2    0    0  0.00000000000E+00  0.00000000000E+00 -0.37665719938E+02  0.27558295645E+03  0.27299681212E+03 0.  0.
         25    2    3    3    0    0  0.58770796045E+01  0.48885405491E+02 -0.39890206024E+02  0.14107551128E+03  0.12604264521E+03 0.  0.
         25    2    3    3    0    0 -0.58770796045E+01 -0.48885405491E+02  0.22244860865E+01  0.13450744517E+03  0.12515183392E+03 0.  0.
          5    1    4    4  502    0 -0.43767585618E+02  0.64555078455E+02 -0.51318050351E+01  0.78303161673E+02  0.47000000000E+01 0. -1.
         -5    1    4    4    0  502  0.49644665222E+02 -0.15669672964E+02 -0.34758400989E+02  0.62772349606E+02  0.47000000000E+01 0. -1.
          5    1    5    5  503    0 -0.36959089176E+02 -0.10892674489E+02  0.51702973906E+02  0.64652240031E+02  0.47000000000E+01 0. -1.
         -5    1    5    5    0  503  0.31082009572E+02 -0.37992731002E+02 -0.49478487819E+02  0.69855205138E+02  0.47000000000E+01 0. -1.
<mgrwt>
<rscale>  0 0.27299681E+03</rscale>
<asrwt>0</asrwt>
<pdfrwt beam="1">  1        1 0.24096052E-01 0.27299681E+03</pdfrwt>
<pdfrwt beam="2">  1       -1 0.18301326E-01 0.27299681E+03</pdfrwt>
<totfact> 0.46440619E+03</totfact>
</mgrwt>
</event>
<event>
 9    1  0.8122655E-001  0.2791848E+03  0.7818608E-02  0.1096135E+00
         -2   -1    0    0    0  501 -0.00000000000E+00  0.00000000000E+00  0.42632498251E+01  0.42632498251E+01  0.00000000000E+00 0.  1.
          2   -1    0    0  501    0  0.00000000000E+00 -0.00000000000E+00 -0.45707000600E+04  0.45707000600E+04  0.00000000000E+00 0.  1.
         35    2    1    2    0    0  0.00000000000E+00  0.00000000000E+00 -0.45664368102E+04  0.45749633098E+04  0.27918478634E+03 0.  0.
         25    2    3    3    0    0  0.41735491366E+02 -0.35608005650E+02 -0.17980758237E+04  0.18032551171E+04  0.12507025335E+03 0.  0.
         25    2    3    3    0    0 -0.41735491366E+02  0.35608005650E+02 -0.27683609864E+04  0.27717081927E+04  0.12463535962E+03 0.  0.
          5    1    4    4  502    0  0.75479891835E+02  0.12416697688E+02 -0.11257943608E+04  0.11283999385E+04  0.47000000000E+01 0.  1.
         -5    1    4    4    0  502 -0.33744400470E+02 -0.48024703338E+02 -0.67228146291E+03  0.67485517859E+03  0.47000000000E+01 0.  1.
          5    1    5    5  503    0 -0.80793364512E+02  0.45355643907E+02 -0.21655322924E+04  0.21675186047E+04  0.47000000000E+01 0.  1.
         -5    1    5    5    0  503  0.39057873146E+02 -0.97476382571E+01 -0.60282869403E+03  0.60418958800E+03  0.47000000000E+01 0.  1.
<mgrwt>
<rscale>  0 0.27918479E+03</rscale>
<asrwt>0</asrwt>
<pdfrwt beam="1">  1        2 0.70318231E+00 0.27918479E+03</pdfrwt>
<pdfrwt beam="2">  1       -2 0.65588675E-03 0.27918479E+03</pdfrwt>
<totfact> 0.57135313E+02</totfact>
</mgrwt>
</event>
<event>
 9    1  0.8122655E-001  0.2816979E+03  0.7818608E-02  0.1094765E+00
          1   -1    0    0  501    0  0.00000000000E+00  0.00000000000E+00  0.13782289226E+03  0.13782289226E+03  0.00000000000E+00 0. -1.
         -1   -1    0    0    0  501 -0.00000000000E+00 -0.00000000000E+00 -0.14394144888E+03  0.14394144888E+03  0.00000000000E+00 0. -1.
         35    2    1    2    0    0  0.00000000000E+00  0.71054273576E-14 -0.61185566197E+01  0.28176434114E+03  0.28169790060E+03 0.  0.
         25    2    3    3    0    0  0.32453790253E+02  0.54895213862E+02 -0.16692443801E+02  0.14109665077E+03  0.12475132933E+03 0.  0.
         25    2    3    3    0    0 -0.32453790253E+02 -0.54895213862E+02  0.10573887181E+02  0.14066769038E+03  0.12493541939E+03 0.  0.
          5    1    4    4  502    0  0.54541439559E+02 -0.21415581756E+02 -0.18085074213E+02  0.61502485157E+02  0.47000000000E+01 0.  1.
         -5    1    4    4    0  502 -0.22087649306E+02  0.76310795618E+02  0.13926304127E+01  0.79594165610E+02  0.47000000000E+01 0.  1.
          5    1    5    5  503    0 -0.57891348145E+02  0.65161324781E+01 -0.26764223867E+02  0.64282827036E+02  0.47000000000E+01 0.  1.
         -5    1    5    5    0  503  0.25437557892E+02 -0.61411346340E+02  0.37338111048E+02  0.76384863340E+02  0.47000000000E+01 0.  1.
<mgrwt>
<rscale>  0 0.28169790E+03</rscale>
<asrwt>0</asrwt>
<pdfrwt beam="1">  1        1 0.21203522E-01 0.28169790E+03</pdfrwt>
<pdfrwt beam="2">  1       -1 0.22144838E-01 0.28169790E+03</pdfrwt>
<totfact> 0.40148660E+03</totfact>
</mgrwt>
</event>
<event>
 9    1  0.8122655E-001  0.2647439E+03  0.7818608E-02  0.1104326E+00
         -1   -1    0    0    0  501 -0.00000000000E+00  0.00000000000E+00  0.11905359646E+03  0.11905359646E+03  0.00000000000E+00 0. -1.
          1   -1    0    0  501    0  0.00000000000E+00 -0.00000000000E+00 -0.14718025014E+03  0.14718025014E+03  0.00000000000E+00 0. -1.
         35    2    1    2    0    0  0.00000000000E+00  0.00000000000E+00 -0.28126653682E+02  0.26623384661E+03  0.26474393748E+03 0.  0.
         25    2    3    3    0    0 -0.72221547157E+01 -0.12756843018E+00 -0.58667779146E+02  0.13830871408E+03  0.12504085847E+03 0.  0.
         25    2    3    3    0    0  0.72221547157E+01  0.12756843018E+00  0.30541125464E+02  0.12792513253E+03  0.12401573850E+03 0.  0.
          5    1    4    4  502    0  0.88440307093E+01 -0.45407065897E+02 -0.74226994502E+02  0.87588556475E+02  0.47000000000E+01 0.  1.
         -5    1    4    4    0  502 -0.16066185425E+02  0.45279497467E+02  0.15559215356E+02  0.50720157605E+02  0.47000000000E+01 0.  1.
          5    1    5    5  503    0  0.41913582913E+01  0.13239699032E+02  0.77487486175E+02  0.78862269993E+02  0.47000000000E+01 0.  1.
         -5    1    5    5    0  503  0.30307964244E+01 -0.13112130602E+02 -0.46946360711E+02  0.49062862532E+02  0.47000000000E+01 0.  1.
<mgrwt>
<rscale>  0 0.26474394E+03</rscale>
<asrwt>0</asrwt>
<pdfrwt beam="1">  1        1 0.22643115E-01 0.26474394E+03</pdfrwt>
<pdfrwt beam="2">  1       -1 0.18315938E-01 0.26474394E+03</pdfrwt>
<totfact> 0.50162685E+03</totfact>
</mgrwt>
</event>
<event>
 9    1  0.8122655E-001  0.2776673E+03  0.7818608E-02  0.1096970E+00
          1   -1    0    0  501    0  0.00000000000E+00  0.00000000000E+00  0.15671920923E+03  0.15671920923E+03  0.00000000000E+00 0.  1.
         -1   -1    0    0    0  501 -0.00000000000E+00 -0.00000000000E+00 -0.12298927838E+03  0.12298927838E+03  0.00000000000E+00 0.  1.
         35    2    1    2    0    0  0.00000000000E+00 -0.71054273576E-14  0.33729930848E+02  0.27970848761E+03  0.27766730057E+03 0.  0.
         25    2    3    3    0    0  0.38721532163E+02  0.34068771680E+02 -0.14670898818E+02  0.13569342408E+03  0.12464923510E+03 0.  0.
         25    2    3    3    0    0 -0.38721532163E+02 -0.34068771680E+02  0.48400829666E+02  0.14401506352E+03  0.12544983042E+03 0.  0.
          5    1    4    4  502    0  0.61430328579E+02  0.66644856460E+02  0.54620187119E+01  0.90923846214E+02  0.47000000000E+01 0.  1.
         -5    1    4    4    0  502 -0.22708796416E+02 -0.32576084781E+02 -0.20132917530E+02  0.44769577869E+02  0.47000000000E+01 0.  1.
          5    1    5    5  503    0  0.17151131016E+01  0.45756329523E+02  0.16874072873E+02  0.49024561596E+02  0.47000000000E+01 0.  1.
         -5    1    5    5    0  503 -0.40436645265E+02 -0.79825101203E+02  0.31526756793E+02  0.94990501926E+02  0.47000000000E+01 0.  1.
<mgrwt>
<rscale>  0 0.27766730E+03</rscale>
<asrwt>0</asrwt>
<pdfrwt beam="1">  1        1 0.24110648E-01 0.27766730E+03</pdfrwt>
<pdfrwt beam="2">  1       -1 0.18921427E-01 0.27766730E+03</pdfrwt>
<totfact> 0.43997004E+03</totfact>
</mgrwt>
</event>
<event>
 9    1  0.8122655E-001  0.2734674E+03  0.7818608E-02  0.1099311E+00
          1   -1    0    0  501    0  0.00000000000E+00  0.00000000000E+00  0.24785718281E+04  0.24785718281E+04  0.00000000000E+00 0.  1.
         -1   -1    0    0    0  501 -0.00000000000E+00 -0.00000000000E+00 -0.75430938733E+01  0.75430938733E+01  0.00000000000E+00 0.  1.
         35    2    1    2    0    0  0.00000000000E+00  0.00000000000E+00  0.24710287342E+04  0.24861149220E+04  0.27346736530E+03 0.  0.
         25    2    3    3    0    0 -0.38591010483E+02 -0.10515407699E+02  0.92398482552E+03  0.93346748643E+03  0.12654544856E+03 0.  0.
         25    2    3    3    0    0  0.38591010483E+02  0.10515407699E+02  0.15470439087E+04  0.15526474355E+04  0.12557612721E+03 0.  0.
          5    1    4    4  502    0 -0.12444396973E+02 -0.24797198333E+00  0.52685589267E+01  0.14309864405E+02  0.47000000000E+01 0. -1.
         -5    1    4    4    0  502 -0.26146613511E+02 -0.10267435715E+02  0.91871626659E+03  0.91915762203E+03  0.47000000000E+01 0. -1.
          5    1    5    5  503    0  0.11873598974E+02 -0.21651064925E+02  0.60578181202E+02  0.65586256203E+02  0.47000000000E+01 0. -1.
         -5    1    5    5    0  503  0.26717411509E+02  0.32166472623E+02  0.14864657275E+04  0.14870611793E+04  0.47000000000E+01 0. -1.
<mgrwt>
<rscale>  0 0.27346737E+03</rscale>
<asrwt>0</asrwt>
<pdfrwt beam="1">  1        1 0.38131809E+00 0.27346737E+03</pdfrwt>
<pdfrwt beam="2">  1       -1 0.11604780E-02 0.27346737E+03</pdfrwt>
<totfact> 0.24842195E+03</totfact>
</mgrwt>
</event>
<event>
 9    1  0.8122655E-001  0.2731860E+03  0.7818608E-02  0.1099470E+00
          2   -1    0    0  501    0  0.00000000000E+00  0.00000000000E+00  0.26458688580E+04  0.26458688580E+04  0.00000000000E+00 0. -1.
         -2   -1    0    0    0  501 -0.00000000000E+00 -0.00000000000E+00 -0.70516154083E+01  0.70516154083E+01  0.00000000000E+00 0. -1.
         35    2    1    2    0    0  0.00000000000E+00 -0.71054273576E-14  0.26388172426E+04  0.26529204734E+04  0.27318601434E+03 0.  0.
         25    2    3    3    0    0 -0.16380057418E+02  0.48308042425E+02  0.15080334591E+04  0.15140292363E+04  0.12456982582E+03 0.  0.
         25    2    3    3    0    0  0.16380057418E+02 -0.48308042425E+02  0.11307837835E+04  0.11388912371E+04  0.12569531258E+03 0.  0.
          5    1    4    4  502    0 -0.47310756701E+02  0.74109675784E+02  0.79895311108E+03  0.80379021856E+03  0.47000000000E+01 0.  1.
         -5    1    4    4    0  502  0.30930699283E+02 -0.25801633359E+02  0.70908034799E+03  0.71023901776E+03  0.47000000000E+01 0.  1.
          5    1    5    5  503    0 -0.47453340992E+02  0.10136240427E+02  0.37607157224E+03  0.37921824902E+03  0.47000000000E+01 0.  1.
         -5    1    5    5    0  503  0.63833398410E+02 -0.58444282852E+02  0.75471221130E+03  0.75967298809E+03  0.47000000000E+01 0.  1.
<mgrwt>
<rscale>  0 0.27318601E+03</rscale>
<asrwt>0</asrwt>
<pdfrwt beam="1">  1        2 0.40705595E+00 0.27318601E+03</pdfrwt>
<pdfrwt beam="2">  1       -2 0.10848660E-02 0.27318601E+03</pdfrwt>
<totfact> 0.63069626E+03</totfact>
</mgrwt>
</event>
<event>
 9    1  0.8122655E-001  0.2660784E+03  0.7818608E-02  0.1103545E+00
          1   -1    0    0  501    0  0.00000000000E+00  0.00000000000E+00  0.11034066646E+04  0.11034066646E+04  0.00000000000E+00 0.  1.
         -1   -1    0    0    0  501 -0.00000000000E+00 -0.00000000000E+00 -0.16040715263E+02  0.16040715263E+02  0.00000000000E+00 0.  1.
         35    2    1    2    0    0  0.00000000000E+00 -0.71054273576E-14  0.10873659493E+04  0.11194473798E+04  0.26607842548E+03 0.  0.
         25    2    3    3    0    0 -0.30626210246E+02 -0.25641893521E+02  0.59050764601E+03  0.60487496350E+03  0.12481574427E+03 0.  0.
         25    2    3    3    0    0  0.30626210246E+02  0.25641893521E+02  0.49685830330E+03  0.51457241633E+03  0.12775416485E+03 0.  0.
          5    1    4    4  502    0 -0.49005177720E+02  0.49912875106E+01  0.87060668690E+02  0.10014025378E+03  0.47000000000E+01 0. -1.
         -5    1    4    4    0  502  0.18378967474E+02 -0.30633181032E+02  0.50344697732E+03  0.50473470972E+03  0.47000000000E+01 0. -1.
          5    1    5    5  503    0  0.38006333862E+02  0.53482841237E+02  0.47103002887E+03  0.47560096070E+03  0.47000000000E+01 0.  1.
         -5    1    5    5    0  503 -0.73801236153E+01 -0.27840947716E+02  0.25828274428E+02  0.38971455634E+02  0.47000000000E+01 0.  1.
<mgrwt>
<rscale>  0 0.26607843E+03</rscale>
<asrwt>0</asrwt>
<pdfrwt beam="1">  1        1 0.16975481E+00 0.26607843E+03</pdfrwt>
<pdfrwt beam="2">  1       -1 0.24678032E-02 0.26607843E+03</pdfrwt>
<totfact> 0.67437518E+03</totfact>
</mgrwt>
</event>
<event>
 9    1  0.8122655E-001  0.2752620E+03  0.7818608E-02  0.1098305E+00
         -4   -1    0    0    0  501 -0.00000000000E+00  0.00000000000E+00  0.13885676657E+03  0.13885676657E+03  0.00000000000E+00 0.  1.
          4   -1    0    0  501    0  0.00000000000E+00 -0.00000000000E+00 -0.13641603007E+03  0.13641603007E+03  0.00000000000E+00 0.  1.
         35    2    1    2    0    0  0.00000000000E+00  0.53290705182E-14  0.24407365028E+01  0.27527279664E+03  0.27526197590E+03 0.  0.
         25    2    3    3    0    0  0.57058884397E+02 -0.84058188497E+01 -0.17882647557E+00  0.13769350647E+03  0.12503237847E+03 0.  0.
         25    2    3    3    0    0 -0.57058884397E+02  0.84058188497E+01  0.26195629784E+01  0.13757929018E+03  0.12487924125E+03 0.  0.
          5    1    4    4  502    0  0.81145641669E+02 -0.10765938768E+02  0.39475700475E+02  0.90999678721E+02  0.47000000000E+01 0.  1.
         -5    1    4    4    0  502 -0.24086757271E+02  0.23601199182E+01 -0.39654526950E+02  0.46693827746E+02  0.47000000000E+01 0.  1.
          5    1    5    5  503    0 -0.26393084776E+02  0.51160274749E+02 -0.39537625041E+02  0.69994874314E+02  0.47000000000E+01 0.  1.
         -5    1    5    5    0  503 -0.30665799621E+02 -0.42754455899E+02  0.42157188019E+02  0.67584415862E+02  0.47000000000E+01 0.  1.
<mgrwt>
<rscale>  0 0.27526198E+03</rscale>
<asrwt>0</asrwt>
<pdfrwt beam="1">  1        4 0.20987082E-01 0.27526198E+03</pdfrwt>
<pdfrwt beam="2">  1       -4 0.21362579E-01 0.27526198E+03</pdfrwt>
<totfact> 0.77601948E+02</totfact>
</mgrwt>
</event>
<event>
 9    1  0.8122655E-001  0.2754780E+03  0.7818608E-02  0.1098185E+00
         -2   -1    0    0    0  501 -0.00000000000E+00  0.00000000000E+00  0.48949264893E+01  0.48949264893E+01  0.00000000000E+00 0. -1.
          2   -1    0    0  501    0  0.00000000000E+00 -0.00000000000E+00 -0.38758550183E+04  0.38758550183E+04  0.00000000000E+00 0. -1.
         35    2    1    2    0    0 -0.14210854715E-13  0.00000000000E+00 -0.38709600918E+04  0.38807499448E+04  0.27547795119E+03 0.  0.
         25    2    3    3    0    0  0.48212922024E+02 -0.11522971072E+02 -0.15097974485E+04  0.15158020681E+04  0.12534077257E+03 0.  0.
         25    2    3    3    0    0 -0.48212922024E+02  0.11522971072E+02 -0.23611626433E+04  0.23649478767E+04  0.12422627280E+03 0.  0.
          5    1    4    4  502    0 -0.32333503762E+02 -0.34285330689E+02 -0.72343467198E+03  0.72498327842E+03  0.47000000000E+01 0. -1.
         -5    1    4    4    0  502  0.80546425786E+02  0.22762359617E+02 -0.78636277655E+03  0.79081878965E+03  0.47000000000E+01 0. -1.
          5    1    5    5  503    0 -0.45772620269E+02 -0.31807155685E+02 -0.20473134796E+04  0.20480774892E+04  0.47000000000E+01 0. -1.
         -5    1    5    5    0  503 -0.24403017554E+01  0.43330126757E+02 -0.31384916367E+03  0.31687038753E+03  0.47000000000E+01 0. -1.
<mgrwt>
<rscale>  0 0.27547795E+03</rscale>
<asrwt>0</asrwt>
<pdfrwt beam="1">  1        2 0.59628558E+00 0.27547795E+03</pdfrwt>
<pdfrwt beam="2">  1       -2 0.75306538E-03 0.27547795E+03</pdfrwt>
<totfact> 0.17833761E+03</totfact>
</mgrwt>
</event>
<event>
 9    1  0.8122655E-001  0.2732439E+03  0.7818608E-02  0.1099437E+00
         -2   -1    0    0    0  501 -0.00000000000E+00  0.00000000000E+00  0.11275727698E+02  0.11275727698E+02  0.00000000000E+00 0.  1.
          2   -1    0    0  501    0  0.00000000000E+00 -0.00000000000E+00 -0.16553749276E+04  0.16553749276E+04  0.00000000000E+00 0.  1.
         35    2    1    2    0    0  0.71054273576E-14  0.35527136788E-14 -0.16440991999E+04  0.16666506553E+04  0.27324389780E+03 0.  0.
         25    2    3    3    0    0  0.54368740383E+02  0.13161091124E+02 -0.88017503235E+03  0.89075934901E+03  0.12495981768E+03 0.  0.
         25    2    3    3    0    0 -0.54368740383E+02 -0.13161091124E+02 -0.76392416759E+03  0.77589130631E+03  0.12368512903E+03 0.  0.
          5    1    4    4  502    0 -0.25392098861E+02  0.43893792292E+02 -0.36085827365E+03  0.36443409191E+03  0.47000000000E+01 0. -1.
         -5    1    4    4    0  502  0.79760839244E+02 -0.30732701168E+02 -0.51931675870E+03  0.52632525710E+03  0.47000000000E+01 0. -1.
          5    1    5    5  503    0  0.14067586710E+02  0.27673501777E+02 -0.47804263091E+03  0.47907261106E+03  0.47000000000E+01 0. -1.
         -5    1    5    5    0  503 -0.68436327093E+02 -0.40834592901E+02 -0.28588153667E+03  0.29681869526E+03  0.47000000000E+01 0. -1.
<mgrwt>
<rscale>  0 0.27324390E+03</rscale>
<asrwt>0</asrwt>
<pdfrwt beam="1">  1        2 0.25467302E+00 0.27324390E+03</pdfrwt>
<pdfrwt beam="2">  1       -2 0.17347276E-02 0.27324390E+03</pdfrwt>
<totfact> 0.10749336E+04</totfact>
</mgrwt>
</event>
<event>
 9    1  0.8122655E-001  0.2719945E+03  0.7818608E-02  0.1100144E+00
          2   -1    0    0  501    0  0.00000000000E+00  0.00000000000E+00  0.12616160437E+04  0.12616160437E+04  0.00000000000E+00 0.  1.
         -2   -1    0    0    0  501 -0.00000000000E+00 -0.00000000000E+00 -0.14659963799E+02  0.14659963799E+02  0.00000000000E+00 0.  1.
         35    2    1    2    0    0  0.00000000000E+00  0.00000000000E+00  0.12469560799E+04  0.12762760075E+04  0.27199445236E+03 0.  0.
         25    2    3    3    0    0  0.50163371471E+02  0.25508642959E+02  0.59310464286E+03  0.60817377462E+03  0.12220952523E+03 0.  0.
         25    2    3    3    0    0 -0.50163371471E+02 -0.25508642959E+02  0.65385143706E+03  0.66810223289E+03  0.12518720840E+03 0.  0.
          5    1    4    4  502    0  0.62401137567E+02  0.39459924640E+02  0.17978776504E+03  0.19441378058E+03  0.47000000000E+01 0. -1.
         -5    1    4    4    0  502 -0.12237766096E+02 -0.13951281681E+02  0.41331687782E+03  0.41375999404E+03  0.47000000000E+01 0. -1.
          5    1    5    5  503    0 -0.36724830498E+02  0.15754090585E+02  0.58627601387E+03  0.58765513610E+03  0.47000000000E+01 0. -1.
         -5    1    5    5    0  503 -0.13438540973E+02 -0.41262733543E+02  0.67575423185E+02  0.80447096788E+02  0.47000000000E+01 0. -1.
<mgrwt>
<rscale>  0 0.27199445E+03</rscale>
<asrwt>0</asrwt>
<pdfrwt beam="1">  1        2 0.19409469E+00 0.27199445E+03</pdfrwt>
<pdfrwt beam="2">  1       -2 0.22553800E-02 0.27199445E+03</pdfrwt>
<totfact> 0.11918393E+04</totfact>
</mgrwt>
</event>
<event>
 9    1  0.8122655E-001  0.2736463E+03  0.7818608E-02  0.1099211E+00
         -1   -1    0    0    0  501 -0.00000000000E+00  0.00000000000E+00  0.96472522641E+03  0.96472522641E+03  0.00000000000E+00 0.  1.
          1   -1    0    0  501    0  0.00000000000E+00 -0.00000000000E+00 -0.19405090648E+02  0.19405090648E+02  0.00000000000E+00 0.  1.
         35    2    1    2    0    0  0.00000000000E+00 -0.71054273576E-14  0.94532013576E+03  0.98413031706E+03  0.27364634453E+03 0.  0.
         25    2    3    3    0    0 -0.19485287620E+01 -0.44276451314E+02  0.58307072204E+03  0.59813868121E+03  0.12583407393E+03 0.  0.
         25    2    3    3    0    0  0.19485287620E+01  0.44276451314E+02  0.36224941372E+03  0.38599163585E+03  0.12570085240E+03 0.  0.
          5    1    4    4  502    0  0.60874383844E+02 -0.12963711318E+02  0.30355115040E+03  0.30990182208E+03  0.47000000000E+01 0. -1.
         -5    1    4    4    0  502 -0.62822912606E+02 -0.31312739996E+02  0.27951957164E+03  0.28823685913E+03  0.47000000000E+01 0. -1.
          5    1    5    5  503    0  0.60543276025E+02  0.32888466242E+02  0.14441210987E+03  0.16007525405E+03  0.47000000000E+01 0.  1.
         -5    1    5    5    0  503 -0.58594747263E+02  0.11387985073E+02  0.21783730386E+03  0.22591638179E+03  0.47000000000E+01 0.  1.
<mgrwt>
<rscale>  0 0.27364634E+03</rscale>
<asrwt>0</asrwt>
<pdfrwt beam="1">  1        1 0.29853993E-02 0.27364634E+03</pdfrwt>
<pdfrwt beam="2">  1       -1 0.14841923E+00 0.27364634E+03</pdfrwt>
<totfact> 0.13335021E+03</totfact>
</mgrwt>
</event>
<event>
 9    1  0.8122655E-001  0.2656968E+03  0.7818608E-02  0.1103768E+00
         -2   -1    0    0    0  501 -0.00000000000E+00  0.00000000000E+00  0.95234369764E+02  0.95234369764E+02  0.00000000000E+00 0.  1.
          2   -1    0    0  501    0  0.00000000000E+00 -0.00000000000E+00 -0.18531862698E+03  0.18531862698E+03  0.00000000000E+00 0.  1.
         35    2    1    2    0    0  0.00000000000E+00  0.00000000000E+00 -0.90084257221E+02  0.28055299675E+03  0.26569683962E+03 0.  0.
         25    2    3    3    0    0 -0.20927255640E+02 -0.34179380782E+02 -0.65774059451E+02  0.14680128702E+03  0.12497284055E+03 0.  0.
         25    2    3    3    0    0  0.20927255640E+02  0.34179380782E+02 -0.24310197769E+02  0.13375170973E+03  0.12526912645E+03 0.  0.
          5    1    4    4  502    0  0.10100130586E+02 -0.68216801985E+02 -0.35071056680E+01  0.69209352700E+02  0.47000000000E+01 0.  1.
         -5    1    4    4    0  502 -0.31027386226E+02  0.34037421203E+02 -0.62266953783E+02  0.77591934320E+02  0.47000000000E+01 0.  1.
          5    1    5    5  503    0 -0.24364208637E+02  0.68482306614E+02 -0.24161679175E+02  0.76741890270E+02  0.47000000000E+01 0.  1.
         -5    1    5    5    0  503  0.45291464277E+02 -0.34302925831E+02 -0.14851859456E+00  0.57009819459E+02  0.47000000000E+01 0.  1.
<mgrwt>
<rscale>  0 0.26569684E+03</rscale>
<asrwt>0</asrwt>
<pdfrwt beam="1">  1        2 0.28510558E-01 0.26569684E+03</pdfrwt>
<pdfrwt beam="2">  1       -2 0.14651442E-01 0.26569684E+03</pdfrwt>
<totfact> 0.65427289E+03</totfact>
</mgrwt>
</event>
<event>
 9    1  0.8122655E-001  0.2760308E+03  0.7818608E-02  0.1097877E+00
         -2   -1    0    0    0  501 -0.00000000000E+00  0.00000000000E+00  0.63218495349E+01  0.63218495349E+01  0.00000000000E+00 0. -1.
          2   -1    0    0  501    0  0.00000000000E+00 -0.00000000000E+00 -0.30130826779E+04  0.30130826779E+04  0.00000000000E+00 0. -1.
         35    2    1    2    0    0  0.00000000000E+00  0.00000000000E+00 -0.30067608284E+04  0.30194045275E+04  0.27603083397E+03 0.  0.
         25    2    3    3    0    0 -0.47014434052E+02  0.33240935003E+02 -0.15243252297E+04  0.15305910480E+04  0.12580235921E+03 0.  0.
         25    2    3    3    0    0  0.47014434052E+02 -0.33240935003E+02 -0.14824355987E+04  0.14888134794E+04  0.12503981588E+03 0.  0.
          5    1    4    4  502    0 -0.61401481337E+02  0.17747771038E+02 -0.33536716225E+03  0.34143571694E+03  0.47000000000E+01 0. -1.
         -5    1    4    4    0  502  0.14387047285E+02  0.15493163966E+02 -0.11889580675E+04  0.11891553311E+04  0.47000000000E+01 0. -1.
          5    1    5    5  503    0 -0.19498586760E+02 -0.12741513895E+02 -0.10878165817E+04  0.10880760757E+04  0.47000000000E+01 0.  1.
         -5    1    5    5    0  503  0.66513020812E+02 -0.20499421108E+02 -0.39461901702E+03  0.40073740379E+03  0.47000000000E+01 0.  1.
<mgrwt>
<rscale>  0 0.27603083E+03</rscale>
<asrwt>0</asrwt>
<pdfrwt beam="1">  1        2 0.46355079E+00 0.27603083E+03</pdfrwt>
<pdfrwt beam="2">  1       -2 0.97259305E-03 0.27603083E+03</pdfrwt>
<totfact> 0.45431926E+03</totfact>
</mgrwt>
</event>
<event>
 9    1  0.8122655E-001  0.2725758E+03  0.7818608E-02  0.1099814E+00
         -1   -1    0    0    0  501 -0.00000000000E+00  0.00000000000E+00  0.54632168230E+02  0.54632168230E+02  0.00000000000E+00 0. -1.
          1   -1    0    0  501    0  0.00000000000E+00 -0.00000000000E+00 -0.33998997648E+03  0.33998997648E+03  0.00000000000E+00 0. -1.
         35    2    1    2    0    0  0.00000000000E+00  0.71054273576E-14 -0.28535780825E+03  0.39462214471E+03  0.27257578463E+03 0.  0.
         25    2    3    3    0    0  0.93363606640E+01  0.19942166171E+02 -0.21400593336E+03  0.24864920865E+03  0.12467169618E+03 0.  0.
         25    2    3    3    0    0 -0.93363606640E+01 -0.19942166171E+02 -0.71351874899E+02  0.14597293606E+03  0.12542786927E+03 0.  0.
          5    1    4    4  502    0 -0.49683108750E+02 -0.73564690346E+01 -0.14586985122E+03  0.15434582090E+03  0.47000000000E+01 0.  1.
         -5    1    4    4    0  502  0.59019469414E+02  0.27298635205E+02 -0.68136082131E+02  0.94303387755E+02  0.47000000000E+01 0.  1.
          5    1    5    5  503    0  0.71372304104E+01 -0.54210883141E+02  0.10245885100E+02  0.55828559630E+02  0.47000000000E+01 0. -1.
         -5    1    5    5    0  503 -0.16473591074E+02  0.34268716970E+02 -0.81597759999E+02  0.90144376433E+02  0.47000000000E+01 0. -1.
<mgrwt>
<rscale>  0 0.27257578E+03</rscale>
<asrwt>0</asrwt>
<pdfrwt beam="1">  1        1 0.52306151E-01 0.27257578E+03</pdfrwt>
<pdfrwt beam="2">  1       -1 0.84049489E-02 0.27257578E+03</pdfrwt>
<totfact> 0.59196656E+03</totfact>
</mgrwt>
</event>
<event>
 9    1  0.8122655E-001  0.2775211E+03  0.7818608E-02  0.1097051E+00
          2   -1    0    0  501    0  0.00000000000E+00  0.00000000000E+00  0.26582812489E+02  0.26582812489E+02  0.00000000000E+00 0.  1.
         -2   -1    0    0    0  501 -0.00000000000E+00 -0.00000000000E+00 -0.72432119540E+03  0.72432119540E+03  0.00000000000E+00 0.  1.
         35    2    1    2    0    0 -0.35527136788E-14  0.71054273576E-14 -0.69773838291E+03  0.75090400789E+03  0.27752113087E+03 0.  0.
         25    2    3    3    0    0 -0.12497323485E+02 -0.11519590825E+02 -0.50543511090E+03  0.52100069419E+03  0.12525249677E+03 0.  0.
         25    2    3    3    0    0  0.12497323485E+02  0.11519590825E+02 -0.19230327201E+03  0.22990331370E+03  0.12484430767E+03 0.  0.
          5    1    4    4  502    0 -0.24220155617E+02 -0.60178319520E+02 -0.17368337491E+03  0.18546172327E+03  0.47000000000E+01 0.  1.
         -5    1    4    4    0  502  0.11722832132E+02  0.48658728695E+02 -0.33175173599E+03  0.33553897091E+03  0.47000000000E+01 0.  1.
          5    1    5    5  503    0 -0.10303513487E+02 -0.53352199041E+02 -0.10817893222E+03  0.12115028233E+03  0.47000000000E+01 0.  1.
         -5    1    5    5    0  503  0.22800836972E+02  0.64871789866E+02 -0.84124339787E+02  0.10875303137E+03  0.47000000000E+01 0.  1.
<mgrwt>
<rscale>  0 0.27752113E+03</rscale>
<asrwt>0</asrwt>
<pdfrwt beam="1">  1        2 0.40896635E-02 0.27752113E+03</pdfrwt>
<pdfrwt beam="2">  1       -2 0.11143403E+00 0.27752113E+03</pdfrwt>
<totfact> 0.13655912E+03</totfact>
</mgrwt>
</event>
<event>
 9    1  0.8122655E-001  0.2741925E+03  0.7818608E-02  0.1098904E+00
         -1   -1    0    0    0  501 -0.00000000000E+00  0.00000000000E+00  0.56371175072E+03  0.56371175072E+03  0.00000000000E+00 0. -1.
          1   -1    0    0  501    0  0.00000000000E+00 -0.00000000000E+00 -0.33342189418E+02  0.33342189418E+02  0.00000000000E+00 0. -1.
         35    2    1    2    0    0 -0.71054273576E-14  0.00000000000E+00  0.53036956130E+03  0.59705394014E+03  0.27419251609E+03 0.  0.
         25    2    3    3    0    0 -0.40226768876E+02  0.42525614957E+02  0.26177557887E+03  0.29629201271E+03  0.12584070186E+03 0.  0.
         25    2    3    3    0    0  0.40226768876E+02 -0.42525614957E+02  0.26859398244E+03  0.30076192743E+03  0.12201798526E+03 0.  0.
          5    1    4    4  502    0 -0.43233753889E+02  0.17887955609E+02  0.16674451165E+02  0.49892522013E+02  0.47000000000E+01 0. -1.
         -5    1    4    4    0  502  0.30069850123E+01  0.24637659347E+02  0.24510112770E+03  0.24639949070E+03  0.47000000000E+01 0. -1.
          5    1    5    5  503    0  0.21490387478E+02  0.70292750352E+01  0.23857164531E+03  0.23968681108E+03  0.47000000000E+01 0.  1.
         -5    1    5    5    0  503  0.18736381398E+02 -0.49554889992E+02  0.30022337132E+02  0.61075116348E+02  0.47000000000E+01 0.  1.
<mgrwt>
<rscale>  0 0.27419252E+03</rscale>
<asrwt>0</asrwt>
<pdfrwt beam="1">  1        1 0.51295680E-02 0.27419252E+03</pdfrwt>
<pdfrwt beam="2">  1       -1 0.86724877E-01 0.27419252E+03</pdfrwt>
<totfact> 0.22063365E+03</totfact>
</mgrwt>
</event>
<event>
 9    1  0.8122655E-001  0.2855005E+03  0.7818608E-02  0.1092722E+00
          1   -1    0    0  501    0  0.00000000000E+00  0.00000000000E+00  0.40114081447E+02  0.40114081447E+02  0.00000000000E+00 0. -1.
         -1   -1    0    0    0  501 -0.00000000000E+00 -0.00000000000E+00 -0.50799186731E+03  0.50799186731E+03  0.00000000000E+00 0. -1.
         35    2    1    2    0    0  0.00000000000E+00 -0.71054273576E-14 -0.46787778586E+03  0.54810594876E+03  0.28550045282E+03 0.  0.
         25    2    3    3    0    0  0.15255522024E+02  0.14181043437E+02 -0.35937548024E+03  0.38109050197E+03  0.12508158118E+03 0.  0.
         25    2    3    3    0    0 -0.15255522024E+02 -0.14181043437E+02 -0.10850230562E+03  0.16701544678E+03  0.12525005466E+03 0.  0.
          5    1    4    4  502    0  0.15559399475E+02  0.60127789550E+02 -0.29708689256E+03  0.30354597299E+03  0.47000000000E+01 0. -1.
         -5    1    4    4    0  502 -0.30387745049E+00 -0.45946746113E+02 -0.62288587679E+02  0.77544528981E+02  0.47000000000E+01 0. -1.
          5    1    5    5  503    0 -0.27698023594E+01 -0.69120435987E+02 -0.70578889666E+02  0.98938244085E+02  0.47000000000E+01 0.  1.
         -5    1    5    5    0  503 -0.12485719665E+02  0.54939392550E+02 -0.37923415955E+02  0.68077202696E+02  0.47000000000E+01 0.  1.
<mgrwt>
<rscale>  0 0.28550045E+03</rscale>
<asrwt>0</asrwt>
<pdfrwt beam="1">  1        1 0.61713966E-02 0.28550045E+03</pdfrwt>
<pdfrwt beam="2">  1       -1 0.78152602E-01 0.28550045E+03</pdfrwt>
<totfact> 0.21267535E+03</totfact>
</mgrwt>
</event>
<event>
 9    1  0.8122655E-001  0.2742530E+03  0.7818608E-02  0.1098870E+00
          1   -1    0    0  501    0  0.00000000000E+00  0.00000000000E+00  0.20161895874E+02  0.20161895874E+02  0.00000000000E+00 0. -1.
         -1   -1    0    0    0  501 -0.00000000000E+00 -0.00000000000E+00 -0.93263414591E+03  0.93263414591E+03  0.00000000000E+00 0. -1.
         35    2    1    2    0    0 -0.14210854715E-13  0.35527136788E-14 -0.91247225004E+03  0.95279604179E+03  0.27425296745E+03 0.  0.
         25    2    3    3    0    0  0.52454559193E+02  0.69738959763E+01 -0.53897031874E+03  0.55588978121E+03  0.12539668406E+03 0.  0.
         25    2    3    3    0    0 -0.52454559193E+02 -0.69738959763E+01 -0.37350193130E+03  0.39690626057E+03  0.12341300981E+03 0.  0.
          5    1    4    4  502    0  0.64152844413E+02  0.47703100255E+02 -0.45190066207E+03  0.45894168649E+03  0.47000000000E+01 0. -1.
         -5    1    4    4    0  502 -0.11698285220E+02 -0.40729204279E+02 -0.87069656670E+02  0.96948094725E+02  0.47000000000E+01 0. -1.
          5    1    5    5  503    0 -0.87144924568E+02  0.19317469541E+02 -0.22564899394E+03  0.24270756266E+03  0.47000000000E+01 0. -1.
         -5    1    5    5    0  503  0.34690365375E+02 -0.26291365517E+02 -0.14785293737E+03  0.15419869791E+03  0.47000000000E+01 0. -1.
<mgrwt>
<rscale>  0 0.27425297E+03</rscale>
<asrwt>0</asrwt>
<pdfrwt beam="1">  1        1 0.31018303E-02 0.27425297E+03</pdfrwt>
<pdfrwt beam="2">  1       -1 0.14348217E+00 0.27425297E+03</pdfrwt>
<totfact> 0.13795660E+03</totfact>
</mgrwt>
</event>
<event>
 9    1  0.8122655E-001  0.2766655E+03  0.7818608E-02  0.1097524E+00
          1   -1    0    0  501    0  0.00000000000E+00  0.00000000000E+00  0.55430660342E+03  0.55430660342E+03  0.00000000000E+00 0. -1.
         -1   -1    0    0    0  501 -0.00000000000E+00 -0.00000000000E+00 -0.34522310867E+02  0.34522310867E+02  0.00000000000E+00 0. -1.
         35    2    1    2    0    0  0.00000000000E+00  0.35527136788E-14  0.51978429255E+03  0.58882891428E+03  0.27666546499E+03 0.  0.
         25    2    3    3    0    0  0.54897292487E+02  0.19474474440E+02  0.24013079156E+03  0.27704225380E+03  0.12528625406E+03 0.  0.
         25    2    3    3    0    0 -0.54897292487E+02 -0.19474474440E+02  0.27965350099E+03  0.31178666049E+03  0.12494748162E+03 0.  0.
          5    1    4    4  502    0 -0.36732976712E+02 -0.14960957287E+02  0.76861770912E+02  0.86619649323E+02  0.47000000000E+01 0.  1.
         -5    1    4    4    0  502  0.91630269199E+02  0.34435431726E+02  0.16326902065E+03  0.19042260447E+03  0.47000000000E+01 0.  1.
          5    1    5    5  503    0  0.21244016702E+02 -0.38357828558E+02  0.17752784613E+03  0.18292309151E+03  0.47000000000E+01 0.  1.
         -5    1    5    5    0  503 -0.76141309189E+02  0.18883354119E+02  0.10212565486E+03  0.12886356897E+03  0.47000000000E+01 0.  1.
<mgrwt>
<rscale>  0 0.27666546E+03</rscale>
<asrwt>0</asrwt>
<pdfrwt beam="1">  1        1 0.85277933E-01 0.27666546E+03</pdfrwt>
<pdfrwt beam="2">  1       -1 0.53111251E-02 0.27666546E+03</pdfrwt>
<totfact> 0.62837157E+03</totfact>
</mgrwt>
</event>
<event>
 9    1  0.8122655E-001  0.2754008E+03  0.7818608E-02  0.1098228E+00
          2   -1    0    0  501    0  0.00000000000E+00  0.00000000000E+00  0.12377958293E+04  0.12377958293E+04  0.00000000000E+00 0.  1.
         -2   -1    0    0    0  501 -0.00000000000E+00 -0.00000000000E+00 -0.15318681524E+02  0.15318681524E+02  0.00000000000E+00 0.  1.
         35    2    1    2    0    0  0.00000000000E+00 -0.71054273576E-14  0.12224771478E+04  0.12531145108E+04  0.27540079957E+03 0.  0.
         25    2    3    3    0    0  0.25321510763E+02 -0.26861478884E+02  0.40420760524E+03  0.42421220009E+03  0.12332673926E+03 0.  0.
         25    2    3    3    0    0 -0.25321510763E+02  0.26861478884E+02  0.81826954255E+03  0.82890231075E+03  0.12708768053E+03 0.  0.
          5    1    4    4  502    0  0.91408699105E+01 -0.14967130096E+02  0.40315183863E+03  0.40356048552E+03  0.47000000000E+01 0. -1.
         -5    1    4    4    0  502  0.16180640852E+02 -0.11894348789E+02  0.10557666136E+01  0.20651714569E+02  0.47000000000E+01 0. -1.
          5    1    5    5  503    0  0.94252917526E+01  0.68127555262E+02  0.60294416477E+03  0.60687227300E+03  0.47000000000E+01 0. -1.
         -5    1    5    5    0  503 -0.34746802515E+02 -0.41266076378E+02  0.21532537778E+03  0.22203003775E+03  0.47000000000E+01 0. -1.
<mgrwt>
<rscale>  0 0.27540080E+03</rscale>
<asrwt>0</asrwt>
<pdfrwt beam="1">  1        2 0.19043005E+00 0.27540080E+03</pdfrwt>
<pdfrwt beam="2">  1       -2 0.23567212E-02 0.27540080E+03</pdfrwt>
<totfact> 0.11522063E+04</totfact>
</mgrwt>
</event>
<event>
 9    1  0.8122655E-001  0.2748729E+03  0.7818608E-02  0.1098523E+00
          2   -1    0    0  501    0  0.00000000000E+00  0.00000000000E+00  0.15916085482E+04  0.15916085482E+04  0.00000000000E+00 0.  1.
         -2   -1    0    0    0  501 -0.00000000000E+00 -0.00000000000E+00 -0.11867726918E+02  0.11867726918E+02  0.00000000000E+00 0.  1.
         35    2    1    2    0    0  0.00000000000E+00  0.71054273576E-14  0.15797408213E+04  0.16034762751E+04  0.27487288415E+03 0.  0.
         25    2    3    3    0    0 -0.29241019504E+02  0.46590036859E+02  0.73163506410E+03  0.74451820932E+03  0.12645880055E+03 0.  0.
         25    2    3    3    0    0  0.29241019504E+02 -0.46590036859E+02  0.84810575717E+03  0.85895806578E+03  0.12449865329E+03 0.  0.
          5    1    4    4  502    0 -0.43023598080E+02  0.51065394784E+02  0.72469124508E+03  0.72777619859E+03  0.47000000000E+01 0. -1.
         -5    1    4    4    0  502  0.13782578577E+02 -0.44753579247E+01  0.69438190165E+01  0.16742010731E+02  0.47000000000E+01 0. -1.
          5    1    5    5  503    0 -0.21230425310E+02  0.34082905365E+02  0.22342182322E+03  0.22705016293E+03  0.47000000000E+01 0. -1.
         -5    1    5    5    0  503  0.50471444813E+02 -0.80672942224E+02  0.62468393395E+03  0.63190790285E+03  0.47000000000E+01 0. -1.
<mgrwt>
<rscale>  0 0.27487288E+03</rscale>
<asrwt>0</asrwt>
<pdfrwt beam="1">  1        2 0.24486268E+00 0.27487288E+03</pdfrwt>
<pdfrwt beam="2">  1       -2 0.18258054E-02 0.27487288E+03</pdfrwt>
<totfact> 0.10778307E+04</totfact>
</mgrwt>
</event>
<event>
 9    1  0.8122655E-001  0.2741637E+03  0.7818608E-02  0.1098920E+00
         -2   -1    0    0    0  501 -0.00000000000E+00  0.00000000000E+00  0.52623787703E+02  0.52623787703E+02  0.00000000000E+00 0. -1.
          2   -1    0    0  501    0  0.00000000000E+00 -0.00000000000E+00 -0.35709014386E+03  0.35709014386E+03  0.00000000000E+00 0. -1.
         35    2    1    2    0    0  0.00000000000E+00  0.35527136788E-14 -0.30446635616E+03  0.40971393157E+03  0.27416371694E+03 0.  0.
         25    2    3    3    0    0  0.30167432061E+02 -0.25344229521E+02 -0.89576209446E+02  0.15807491365E+03  0.12414256763E+03 0.  0.
         25    2    3    3    0    0 -0.30167432061E+02  0.25344229521E+02 -0.21489014671E+03  0.25163901792E+03  0.12486799533E+03 0.  0.
          5    1    4    4  502    0 -0.24975720314E+02 -0.59032401679E+02 -0.55246198398E+02  0.84751657746E+02  0.47000000000E+01 0.  1.
         -5    1    4    4    0  502  0.55143152375E+02  0.33688172158E+02 -0.34330011048E+02  0.73323255900E+02  0.47000000000E+01 0.  1.
          5    1    5    5  503    0 -0.78797976981E+02  0.12347662782E+02 -0.12091587571E+03  0.14492868920E+03  0.47000000000E+01 0.  1.
         -5    1    5    5    0  503  0.48630544920E+02  0.12996566739E+02 -0.93974271002E+02  0.10671032872E+03  0.47000000000E+01 0.  1.
<mgrwt>
<rscale>  0 0.27416372E+03</rscale>
<asrwt>0</asrwt>
<pdfrwt beam="1">  1        2 0.54936945E-01 0.27416372E+03</pdfrwt>
<pdfrwt beam="2">  1       -2 0.80959674E-02 0.27416372E+03</pdfrwt>
<totfact> 0.83290543E+03</totfact>
</mgrwt>
</event>
<event>
 9    1  0.8122655E-001  0.2636058E+03  0.7818608E-02  0.1104996E+00
         -2   -1    0    0    0  501 -0.00000000000E+00  0.00000000000E+00  0.44933224512E+03  0.44933224512E+03  0.00000000000E+00 0.  1.
          2   -1    0    0  501    0  0.00000000000E+00 -0.00000000000E+00 -0.38661810656E+02  0.38661810656E+02  0.00000000000E+00 0.  1.
         35    2    1    2    0    0  0.35527136788E-14  0.00000000000E+00  0.41067043446E+03  0.48799405577E+03  0.26360575246E+03 0.  0.
         25    2    3    3    0    0  0.16739022799E+02  0.16834403613E+02  0.14634586682E+03  0.19417403758E+03  0.12539079754E+03 0.  0.
         25    2    3    3    0    0 -0.16739022799E+02 -0.16834403613E+02  0.26432456764E+03  0.29382001819E+03  0.12609176817E+03 0.  0.
          5    1    4    4  502    0  0.27681153651E+02 -0.65827572453E+01  0.16135879856E+03  0.16391562108E+03  0.47000000000E+01 0. -1.
         -5    1    4    4    0  502 -0.10942130852E+02  0.23417160858E+02 -0.15012931738E+02  0.30258416509E+02  0.47000000000E+01 0. -1.
          5    1    5    5  503    0 -0.18645165944E+01 -0.61904347462E+02  0.22039035520E+03  0.22897515875E+03  0.47000000000E+01 0.  1.
         -5    1    5    5    0  503 -0.14874506205E+02  0.45069943849E+02  0.43934212436E+02  0.64844859440E+02  0.47000000000E+01 0.  1.
<mgrwt>
<rscale>  0 0.26360575E+03</rscale>
<asrwt>0</asrwt>
<pdfrwt beam="1">  1        2 0.59479712E-02 0.26360575E+03</pdfrwt>
<pdfrwt beam="2">  1       -2 0.69128034E-01 0.26360575E+03</pdfrwt>
<totfact> 0.24376716E+03</totfact>
</mgrwt>
</event>
<event>
 9    1  0.8122655E-001  0.2759226E+03  0.7818608E-02  0.1097937E+00
         -2   -1    0    0    0  501 -0.00000000000E+00  0.00000000000E+00  0.30189891775E+02  0.30189891775E+02  0.00000000000E+00 0.  1.
          2   -1    0    0  501    0  0.00000000000E+00 -0.00000000000E+00 -0.63045342343E+03  0.63045342343E+03  0.00000000000E+00 0.  1.
         35    2    1    2    0    0  0.00000000000E+00  0.00000000000E+00 -0.60026353165E+03  0.66064331520E+03  0.27592260236E+03 0.  0.
         25    2    3    3    0    0 -0.23331543747E+02 -0.16176205518E+02 -0.42148205335E+03  0.44038444183E+03  0.12443996446E+03 0.  0.
         25    2    3    3    0    0  0.23331543747E+02  0.16176205518E+02 -0.17878147830E+03  0.22025887337E+03  0.12547957505E+03 0.  0.
          5    1    4    4  502    0 -0.52075761663E+02 -0.70517437864E+01 -0.70391435073E+02  0.87969632117E+02  0.47000000000E+01 0.  1.
         -5    1    4    4    0  502  0.28744217917E+02 -0.91244617319E+01 -0.35109061828E+03  0.35241480972E+03  0.47000000000E+01 0.  1.
          5    1    5    5  503    0  0.33682882533E+02 -0.22064748117E+02 -0.37212470354E+01  0.40710285736E+02  0.47000000000E+01 0.  1.
         -5    1    5    5    0  503 -0.10351338786E+02  0.38240953636E+02 -0.17506023127E+03  0.17954858763E+03  0.47000000000E+01 0.  1.
<mgrwt>
<rscale>  0 0.27592260E+03</rscale>
<asrwt>0</asrwt>
<pdfrwt beam="1">  1        2 0.96992826E-01 0.27592260E+03</pdfrwt>
<pdfrwt beam="2">  1       -2 0.46445991E-02 0.27592260E+03</pdfrwt>
<totfact> 0.10381624E+04</totfact>
</mgrwt>
</event>
<event>
 9    1  0.8122655E-001  0.2723523E+03  0.7818608E-02  0.1099941E+00
         -2   -1    0    0    0  501 -0.00000000000E+00  0.00000000000E+00  0.14646861387E+02  0.14646861387E+02  0.00000000000E+00 0.  1.
          2   -1    0    0  501    0  0.00000000000E+00 -0.00000000000E+00 -0.12660694001E+04  0.12660694001E+04  0.00000000000E+00 0.  1.
         35    2    1    2    0    0  0.00000000000E+00  0.26645352591E-14 -0.12514225387E+04  0.12807162614E+04  0.27235229398E+03 0.  0.
         25    2    3    3    0    0  0.45034721561E+02  0.10906509403E+01 -0.76290769176E+03  0.77388252649E+03  0.12180600561E+03 0.  0.
         25    2    3    3    0    0 -0.45034721561E+02 -0.10906509403E+01 -0.48851484692E+03  0.50683373495E+03  0.12729636116E+03 0.  0.
          5    1    4    4  502    0 -0.31490665496E+02 -0.23820284167E+02 -0.13240367810E+03  0.13824576640E+03  0.47000000000E+01 0.  1.
         -5    1    4    4    0  502  0.76525387057E+02  0.24910935107E+02 -0.63050401365E+03  0.63563676010E+03  0.47000000000E+01 0.  1.
          5    1    5    5  503    0 -0.48920130566E+02  0.49146160954E+01 -0.49413341926E+03  0.49659566919E+03  0.47000000000E+01 0. -1.
         -5    1    5    5    0  503  0.38854090050E+01 -0.60052670357E+01  0.56185723489E+01  0.10238065762E+02  0.47000000000E+01 0. -1.
<mgrwt>
<rscale>  0 0.27235229E+03</rscale>
<asrwt>0</asrwt>
<pdfrwt beam="1">  1        2 0.19477998E+00 0.27235229E+03</pdfrwt>
<pdfrwt beam="2">  1       -2 0.22533625E-02 0.27235229E+03</pdfrwt>
<totfact> 0.11866417E+04</totfact>
</mgrwt>
</event>
<event>
 9    1  0.8122655E-001  0.2727248E+03  0.7818608E-02  0.1099730E+00
          2   -1    0    0  501    0  0.00000000000E+00  0.00000000000E+00  0.16831037050E+03  0.16831037050E+03  0.00000000000E+00 0.  1.
         -2   -1    0    0    0  501 -0.00000000000E+00 -0.00000000000E+00 -0.11047863875E+03  0.11047863875E+03  0.00000000000E+00 0.  1.
         35    2    1    2    0    0 -0.35527136788E-14 -0.71054273576E-14  0.57831731750E+02  0.27878900925E+03  0.27272477423E+03 0.  0.
         25    2    3    3    0    0  0.28296988180E+02  0.21667581978E+02  0.64606349100E+02  0.14867584710E+03  0.12907487563E+03 0.  0.
         25    2    3    3    0    0 -0.28296988180E+02 -0.21667581978E+02 -0.67746173499E+01  0.13011316215E+03  0.12495333479E+03 0.  0.
          5    1    4    4  502    0  0.34694940798E+02 -0.52376172662E+01 -0.32219613916E+02  0.47868205236E+02  0.47000000000E+01 0.  1.
         -5    1    4    4    0  502 -0.63979526176E+01  0.26905199244E+02  0.96825963016E+02  0.10080764186E+03  0.47000000000E+01 0.  1.
          5    1    5    5  503    0 -0.30471334529E+01 -0.71335124364E+02  0.87373601608E+01  0.72086173799E+02  0.47000000000E+01 0.  1.
         -5    1    5    5    0  503 -0.25249854727E+02  0.49667542386E+02 -0.15511977511E+02  0.58026988348E+02  0.47000000000E+01 0.  1.
<mgrwt>
<rscale>  0 0.27272477E+03</rscale>
<asrwt>0</asrwt>
<pdfrwt beam="1">  1        2 0.25893903E-01 0.27272477E+03</pdfrwt>
<pdfrwt beam="2">  1       -2 0.16996714E-01 0.27272477E+03</pdfrwt>
<totfact> 0.56935251E+03</totfact>
</mgrwt>
</event>
<event>
 9    1  0.8122655E-001  0.2741671E+03  0.7818608E-02  0.1098918E+00
          2   -1    0    0  501    0  0.00000000000E+00  0.00000000000E+00  0.49756278110E+03  0.49756278110E+03  0.00000000000E+00 0. -1.
         -2   -1    0    0    0  501 -0.00000000000E+00 -0.00000000000E+00 -0.37767898445E+02  0.37767898445E+02  0.00000000000E+00 0. -1.
         35    2    1    2    0    0 -0.35527136788E-14  0.00000000000E+00  0.45979488265E+03  0.53533067954E+03  0.27416710661E+03 0.  0.
         25    2    3    3    0    0  0.25323479141E+02  0.27747963823E+02  0.14225661350E+03  0.19291949598E+03  0.12477884337E+03 0.  0.
         25    2    3    3    0    0 -0.25323479141E+02 -0.27747963823E+02  0.31753826915E+03  0.34241118356E+03  0.12248933896E+03 0.  0.
          5    1    4    4  502    0 -0.16801799951E+02 -0.15822305163E+02 -0.12491785675E+02  0.26660467580E+02  0.47000000000E+01 0.  1.
         -5    1    4    4    0  502  0.42125279092E+02  0.43570268985E+02  0.15474839918E+03  0.16625902840E+03  0.47000000000E+01 0.  1.
          5    1    5    5  503    0 -0.67411541709E+02 -0.21091763309E+02  0.26657862194E+03  0.27581774800E+03  0.47000000000E+01 0. -1.
         -5    1    5    5    0  503  0.42088062568E+02 -0.66562005131E+01  0.50959647213E+02  0.66593435563E+02  0.47000000000E+01 0. -1.
<mgrwt>
<rscale>  0 0.27416711E+03</rscale>
<asrwt>0</asrwt>
<pdfrwt beam="1">  1        2 0.76548115E-01 0.27416711E+03</pdfrwt>
<pdfrwt beam="2">  1       -2 0.58104463E-02 0.27416711E+03</pdfrwt>
<totfact> 0.96767752E+03</totfact>
</mgrwt>
</event>
<event>
 9    1  0.8122655E-001  0.2766806E+03  0.7818608E-02  0.1097516E+00
         -2   -1    0    0    0  501 -0.00000000000E+00  0.00000000000E+00  0.45758366227E+02  0.45758366227E+02  0.00000000000E+00 0.  1.
          2   -1    0    0  501    0  0.00000000000E+00 -0.00000000000E+00 -0.41824125536E+03  0.41824125536E+03  0.00000000000E+00 0.  1.
         35    2    1    2    0    0  0.71054273576E-14 -0.35527136788E-14 -0.37248288914E+03  0.46399962159E+03  0.27668058504E+03 0.  0.
         25    2    3    3    0    0 -0.17506326444E+02  0.11405839920E+02 -0.94692715088E+02  0.15838401029E+03  0.12522866994E+03 0.  0.
         25    2    3    3    0    0  0.17506326444E+02 -0.11405839920E+02 -0.27779017405E+03  0.30561561130E+03  0.12568594362E+03 0.  0.
          5    1    4    4  502    0  0.54109023571E+02  0.91290500721E+01 -0.43890627360E+02  0.70424449995E+02  0.47000000000E+01 0.  1.
         -5    1    4    4    0  502 -0.71615350015E+02  0.22767898475E+01 -0.50802087729E+02  0.87959560295E+02  0.47000000000E+01 0.  1.
          5    1    5    5  503    0 -0.71756129618E+01  0.35012094508E+02 -0.23477378615E+03  0.23752506572E+03  0.47000000000E+01 0. -1.
         -5    1    5    5    0  503  0.24681939406E+02 -0.46417934428E+02 -0.43016387900E+02  0.68090545580E+02  0.47000000000E+01 0. -1.
<mgrwt>
<rscale>  0 0.27668059E+03</rscale>
<asrwt>0</asrwt>
<pdfrwt beam="1">  1        2 0.64344807E-01 0.27668059E+03</pdfrwt>
<pdfrwt beam="2">  1       -2 0.70397488E-02 0.27668059E+03</pdfrwt>
<totfact> 0.87248500E+03</totfact>
</mgrwt>
</event>
<event>
 9    1  0.8122655E-001  0.2776390E+03  0.7818608E-02  0.1096986E+00
         -1   -1    0    0    0  501 -0.00000000000E+00  0.00000000000E+00  0.16624097726E+02  0.16624097726E+02  0.00000000000E+00 0. -1.
          1   -1    0    0  501    0  0.00000000000E+00 -0.00000000000E+00 -0.11592116991E+04  0.11592116991E+04  0.00000000000E+00 0. -1.
         35    2    1    2    0    0 -0.71054273576E-14 -0.35527136788E-14 -0.11425876014E+04  0.11758357968E+04  0.27763896391E+03 0.  0.
         25    2    3    3    0    0 -0.57734675233E+02 -0.19863191000E+02 -0.58899158280E+03  0.60511953279E+03  0.12462233059E+03 0.  0.
         25    2    3    3    0    0  0.57734675233E+02  0.19863191000E+02 -0.55359601858E+03  0.57071626403E+03  0.12458195361E+03 0.  0.
          5    1    4    4  502    0 -0.39205413187E+02  0.16543265268E+02 -0.53760020108E+03  0.53930215116E+03  0.47000000000E+01 0.  1.
         -5    1    4    4    0  502 -0.18529262047E+02 -0.36406456268E+02 -0.51391381722E+02  0.65817381634E+02  0.47000000000E+01 0.  1.
          5    1    5    5  503    0 -0.74049504533E+01  0.94323949370E+01  0.30227816085E+00  0.12883506415E+02  0.47000000000E+01 0.  1.
         -5    1    5    5    0  503  0.65139625686E+02  0.10430796063E+02 -0.55389829674E+03  0.55783275762E+03  0.47000000000E+01 0.  1.
<mgrwt>
<rscale>  0 0.27763896E+03</rscale>
<asrwt>0</asrwt>
<pdfrwt beam="1">  1        1 0.17834026E+00 0.27763896E+03</pdfrwt>
<pdfrwt beam="2">  1       -1 0.25575536E-02 0.27763896E+03</pdfrwt>
<totfact> 0.58431891E+03</totfact>
</mgrwt>
</event>
<event>
 9    1  0.8122655E-001  0.2771793E+03  0.7818608E-02  0.1097240E+00
          1   -1    0    0  501    0  0.00000000000E+00  0.00000000000E+00  0.12872044383E+03  0.12872044383E+03  0.00000000000E+00 0. -1.
         -1   -1    0    0    0  501 -0.00000000000E+00 -0.00000000000E+00 -0.14921550181E+03  0.14921550181E+03  0.00000000000E+00 0. -1.
         35    2    1    2    0    0  0.35527136788E-14 -0.71054273576E-14 -0.20495057976E+02  0.27793594565E+03  0.27717926055E+03 0.  0.
         25    2    3    3    0    0 -0.15019989821E+02 -0.56072968395E+02  0.43238049663E+01  0.13820055899E+03  0.12534321417E+03 0.  0.
         25    2    3    3    0    0  0.15019989821E+02  0.56072968395E+02 -0.24818862943E+02  0.13973538665E+03  0.12466043657E+03 0.  0.
          5    1    4    4  502    0  0.24439206935E+02  0.23996448898E+02 -0.26593578635E+02  0.43616657597E+02  0.47000000000E+01 0. -1.
         -5    1    4    4    0  502 -0.39459196756E+02 -0.80069417293E+02  0.30917383601E+02  0.94583901395E+02  0.47000000000E+01 0. -1.
          5    1    5    5  503    0  0.40725350280E+02 -0.73943132990E+01 -0.51374201410E+02  0.66140975160E+02  0.47000000000E+01 0. -1.
         -5    1    5    5    0  503 -0.25705360459E+02  0.63467281694E+02  0.26555338467E+02  0.73594411494E+02  0.47000000000E+01 0. -1.
<mgrwt>
<rscale>  0 0.27717926E+03</rscale>
<asrwt>0</asrwt>
<pdfrwt beam="1">  1        1 0.19803145E-01 0.27717926E+03</pdfrwt>
<pdfrwt beam="2">  1       -1 0.22956231E-01 0.27717926E+03</pdfrwt>
<totfact> 0.41299748E+03</totfact>
</mgrwt>
</event>
<event>
 9    1  0.8122655E-001  0.2719198E+03  0.7818608E-02  0.1100186E+00
          2   -1    0    0  501    0  0.00000000000E+00  0.00000000000E+00  0.88690779510E+03  0.88690779510E+03  0.00000000000E+00 0. -1.
         -2   -1    0    0    0  501 -0.00000000000E+00 -0.00000000000E+00 -0.20842176461E+02  0.20842176461E+02  0.00000000000E+00 0. -1.
         35    2    1    2    0    0  0.00000000000E+00  0.39968028887E-14  0.86606561864E+03  0.90774997156E+03  0.27191975853E+03 0.  0.
         25    2    3    3    0    0  0.51524382685E+02  0.26551692044E+01  0.48133067200E+03  0.49990493194E+03  0.12475541364E+03 0.  0.
         25    2    3    3    0    0 -0.51524382685E+02 -0.26551692044E+01  0.38473494663E+03  0.40784503962E+03  0.12511908426E+03 0.  0.
          5    1    4    4  502    0  0.46033893976E+02  0.50170447984E+01  0.49273851207E+02  0.67781210862E+02  0.47000000000E+01 0.  1.
         -5    1    4    4    0  502  0.54904887085E+01 -0.23618755940E+01  0.43205682080E+03  0.43212372108E+03  0.47000000000E+01 0.  1.
          5    1    5    5  503    0 -0.26242767471E+02  0.60735787327E+02  0.20862391395E+03  0.21891447230E+03  0.47000000000E+01 0. -1.
         -5    1    5    5    0  503 -0.25281615214E+02 -0.63390956532E+02  0.17611103268E+03  0.18893056732E+03  0.47000000000E+01 0. -1.
<mgrwt>
<rscale>  0 0.27191976E+03</rscale>
<asrwt>0</asrwt>
<pdfrwt beam="1">  1        2 0.13644732E+00 0.27191976E+03</pdfrwt>
<pdfrwt beam="2">  1       -2 0.32064894E-02 0.27191976E+03</pdfrwt>
<totfact> 0.11837251E+04</totfact>
</mgrwt>
</event>
<event>
 9    1  0.8122655E-001  0.2771483E+03  0.7818608E-02  0.1097257E+00
          1   -1    0    0  501    0  0.00000000000E+00  0.00000000000E+00  0.20004427731E+04  0.20004427731E+04  0.00000000000E+00 0. -1.
         -1   -1    0    0    0  501 -0.00000000000E+00 -0.00000000000E+00 -0.95992689550E+01  0.95992689550E+01  0.00000000000E+00 0. -1.
         35    2    1    2    0    0  0.00000000000E+00 -0.71054273576E-14  0.19908435042E+04  0.20100420421E+04  0.27714825064E+03 0.  0.
         25    2    3    3    0    0 -0.47965527848E+02  0.22354500994E+02  0.81344028352E+03  0.82491179009E+03  0.12646719336E+03 0.  0.
         25    2    3    3    0    0  0.47965527848E+02 -0.22354500994E+02  0.11774032207E+04  0.11851302520E+04  0.12431795773E+03 0.  0.
          5    1    4    4  502    0 -0.87247756994E+02  0.28458778353E+02  0.65864005669E+03  0.66501946396E+03  0.47000000000E+01 0.  1.
         -5    1    4    4    0  502  0.39282229146E+02 -0.61042773591E+01  0.15480022683E+03  0.15989232613E+03  0.47000000000E+01 0.  1.
          5    1    5    5  503    0 -0.38866046393E+02 -0.74764074371E+01  0.21274544386E+03  0.21644671426E+03  0.47000000000E+01 0. -1.
         -5    1    5    5    0  503  0.86831574241E+02 -0.14878093557E+02  0.96465777680E+03  0.96868353774E+03  0.47000000000E+01 0. -1.
<mgrwt>
<rscale>  0 0.27714825E+03</rscale>
<asrwt>0</asrwt>
<pdfrwt beam="1">  1        1 0.30776009E+00 0.27714825E+03</pdfrwt>
<pdfrwt beam="2">  1       -1 0.14768122E-02 0.27714825E+03</pdfrwt>
<totfact> 0.35996785E+03</totfact>
</mgrwt>
</event>
<event>
 9    1  0.8122655E-001  0.2749079E+03  0.7818608E-02  0.1098503E+00
          1   -1    0    0  501    0  0.00000000000E+00  0.00000000000E+00  0.52897945616E+03  0.52897945616E+03  0.00000000000E+00 0. -1.
         -1   -1    0    0    0  501 -0.00000000000E+00 -0.00000000000E+00 -0.35717046767E+02  0.35717046767E+02  0.00000000000E+00 0. -1.
         35    2    1    2    0    0  0.35527136788E-14  0.00000000000E+00  0.49326240939E+03  0.56469650293E+03  0.27490786802E+03 0.  0.
         25    2    3    3    0    0 -0.10702789515E+02  0.36273379412E+02  0.33822338954E+03  0.36263554239E+03  0.12521648300E+03 0.  0.
         25    2    3    3    0    0  0.10702789515E+02 -0.36273379412E+02  0.15503901985E+03  0.20206096053E+03  0.12394041447E+03 0.  0.
          5    1    4    4  502    0  0.32377673714E+02  0.63711919359E+02  0.25507492058E+03  0.26493929027E+03  0.47000000000E+01 0.  1.
         -5    1    4    4    0  502 -0.43080463229E+02 -0.27438539947E+02  0.83148468964E+02  0.97696252116E+02  0.47000000000E+01 0.  1.
          5    1    5    5  503    0  0.21175464698E+02  0.39282446309E+02  0.25374266205E+02  0.51550502215E+02  0.47000000000E+01 0. -1.
         -5    1    5    5    0  503 -0.10472675183E+02 -0.75555825721E+02  0.12966475364E+03  0.15051045832E+03  0.47000000000E+01 0. -1.
<mgrwt>
<rscale>  0 0.27490787E+03</rscale>
<asrwt>0</asrwt>
<pdfrwt beam="1">  1        1 0.81381449E-01 0.27490787E+03</pdfrwt>
<pdfrwt beam="2">  1       -1 0.54949306E-02 0.27490787E+03</pdfrwt>
<totfact> 0.63592516E+03</totfact>
</mgrwt>
</event>
<event>
 9    1  0.8122655E-001  0.2730466E+03  0.7818608E-02  0.1099549E+00
          1   -1    0    0  501    0  0.00000000000E+00  0.00000000000E+00  0.66889606149E+03  0.66889606149E+03  0.00000000000E+00 0. -1.
         -1   -1    0    0    0  501 -0.00000000000E+00 -0.00000000000E+00 -0.27864736710E+02  0.27864736710E+02  0.00000000000E+00 0. -1.
         35    2    1    2    0    0  0.00000000000E+00 -0.35527136788E-14  0.64103132478E+03  0.69676079820E+03  0.27304660877E+03 0.  0.
         25    2    3    3    0    0 -0.48631444462E+02 -0.10616455366E+02  0.38228996729E+03  0.40527483931E+03  0.12499739905E+03 0.  0.
         25    2    3    3    0    0  0.48631444462E+02  0.10616455366E+02  0.25874135749E+03  0.29148595889E+03  0.12465651865E+03 0.  0.
          5    1    4    4  502    0 -0.88942333592E+02 -0.91035303128E+01  0.30625700971E+03  0.31907531864E+03  0.47000000000E+01 0.  1.
         -5    1    4    4    0  502  0.40310889130E+02 -0.15129250533E+01  0.76032957582E+02  0.86199520667E+02  0.47000000000E+01 0.  1.
          5    1    5    5  503    0  0.45290778582E+02  0.49684695960E+02  0.23701974215E+03  0.24641483683E+03  0.47000000000E+01 0.  1.
         -5    1    5    5    0  503  0.33406658805E+01 -0.39068240594E+02  0.21721615333E+02  0.45071122066E+02  0.47000000000E+01 0.  1.
<mgrwt>
<rscale>  0 0.27304661E+03</rscale>
<asrwt>0</asrwt>
<pdfrwt beam="1">  1        1 0.10290707E+00 0.27304661E+03</pdfrwt>
<pdfrwt beam="2">  1       -1 0.42868831E-02 0.27304661E+03</pdfrwt>
<totfact> 0.66574794E+03</totfact>
</mgrwt>
</event>
<event>
 9    1  0.8122655E-001  0.2810722E+03  0.7818608E-02  0.1095105E+00
         -2   -1    0    0    0  501 -0.00000000000E+00  0.00000000000E+00  0.20398732564E+02  0.20398732564E+02  0.00000000000E+00 0. -1.
          2   -1    0    0  501    0  0.00000000000E+00 -0.00000000000E+00 -0.96821665825E+03  0.96821665825E+03  0.00000000000E+00 0. -1.
         35    2    1    2    0    0  0.00000000000E+00  0.00000000000E+00 -0.94781792569E+03  0.98861539082E+03  0.28107218059E+03 0.  0.
         25    2    3    3    0    0  0.52185447943E+02  0.39335734381E+02 -0.50098724120E+03  0.52082222064E+03  0.12647904446E+03 0.  0.
         25    2    3    3    0    0 -0.52185447943E+02 -0.39335734381E+02 -0.44683068449E+03  0.46779317018E+03  0.12207443832E+03 0.  0.
          5    1    4    4  502    0  0.18192658296E+02 -0.13766446229E+02 -0.40629631902E+03  0.40696348326E+03  0.47000000000E+01 0. -1.
         -5    1    4    4    0  502  0.33992789648E+02  0.53102180610E+02 -0.94690922180E+02  0.11385873738E+03  0.47000000000E+01 0. -1.
          5    1    5    5  503    0 -0.36864920652E+02  0.22503370759E+02 -0.51695194272E+02  0.67527084796E+02  0.47000000000E+01 0.  1.
         -5    1    5    5    0  503 -0.15320527291E+02 -0.61839105140E+02 -0.39513549022E+03  0.40026608539E+03  0.47000000000E+01 0.  1.
<mgrwt>
<rscale>  0 0.28107218E+03</rscale>
<asrwt>0</asrwt>
<pdfrwt beam="1">  1        2 0.14895641E+00 0.28107218E+03</pdfrwt>
<pdfrwt beam="2">  1       -2 0.31382665E-02 0.28107218E+03</pdfrwt>
<totfact> 0.10862138E+04</totfact>
</mgrwt>
</event>
<event>
 9    1  0.8122655E-001  0.2724770E+03  0.7818608E-02  0.1099870E+00
          2   -1    0    0  501    0  0.00000000000E+00  0.00000000000E+00  0.25307123563E+04  0.25307123563E+04  0.00000000000E+00 0. -1.
         -2   -1    0    0    0  501 -0.00000000000E+00 -0.00000000000E+00 -0.73342718224E+01  0.73342718224E+01  0.00000000000E+00 0. -1.
         35    2    1    2    0    0  0.44408920985E-15  0.00000000000E+00  0.25233780844E+04  0.25380466281E+04  0.27247702527E+03 0.  0.
         25    2    3    3    0    0 -0.32947799464E+01 -0.48105831102E+02  0.16159831037E+04  0.16209074809E+04  0.11668180502E+03 0.  0.
         25    2    3    3    0    0  0.32947799464E+01  0.48105831102E+02  0.90739498075E+03  0.91713914720E+03  0.12431225874E+03 0.  0.
          5    1    4    4  502    0 -0.42726480097E+01  0.37286792603E+02  0.66964617557E+03  0.67071353861E+03  0.47000000000E+01 0. -1.
         -5    1    4    4    0  502  0.97786806325E+00 -0.85392623705E+02  0.94633692812E+03  0.95019394228E+03  0.47000000000E+01 0. -1.
          5    1    5    5  503    0 -0.55265446399E+02 -0.11398269658E+01  0.44290557564E+03  0.44636645002E+03  0.47000000000E+01 0.  1.
         -5    1    5    5    0  503  0.58560226346E+02  0.49245658068E+02  0.46448940511E+03  0.47077269718E+03  0.47000000000E+01 0.  1.
<mgrwt>
<rscale>  0 0.27247703E+03</rscale>
<asrwt>0</asrwt>
<pdfrwt beam="1">  1        2 0.38933967E+00 0.27247703E+03</pdfrwt>
<pdfrwt beam="2">  1       -2 0.11283515E-02 0.27247703E+03</pdfrwt>
<totfact> 0.68995731E+03</totfact>
</mgrwt>
</event>
<event>
 9    1  0.8122655E-001  0.2739292E+03  0.7818608E-02  0.1099052E+00
          1   -1    0    0  501    0  0.00000000000E+00  0.00000000000E+00  0.77803545858E+03  0.77803545858E+03  0.00000000000E+00 0.  1.
         -1   -1    0    0    0  501 -0.00000000000E+00 -0.00000000000E+00 -0.24111116919E+02  0.24111116919E+02  0.00000000000E+00 0.  1.
         35    2    1    2    0    0  0.71054273576E-14 -0.35527136788E-14  0.75392434166E+03  0.80214657550E+03  0.27392921647E+03 0.  0.
         25    2    3    3    0    0 -0.12320933574E+02 -0.22848878340E+02  0.23052479639E+03  0.26365873892E+03  0.12530112616E+03 0.  0.
         25    2    3    3    0    0  0.12320933574E+02  0.22848878340E+02  0.52339954527E+03  0.53848783657E+03  0.12388781013E+03 0.  0.
          5    1    4    4  502    0 -0.49170466512E+02 -0.55934928328E+02  0.16747038875E+03  0.18334359027E+03  0.47000000000E+01 0.  1.
         -5    1    4    4    0  502  0.36849532938E+02  0.33086049987E+02  0.63054407632E+02  0.80315148654E+02  0.47000000000E+01 0.  1.
          5    1    5    5  503    0 -0.27912245361E+02  0.39411546355E+02  0.84725827528E+02  0.97636669738E+02  0.47000000000E+01 0.  1.
         -5    1    5    5    0  503  0.40233178935E+02 -0.16562668014E+02  0.43867371775E+03  0.44085116683E+03  0.47000000000E+01 0.  1.
<mgrwt>
<rscale>  0 0.27392922E+03</rscale>
<asrwt>0</asrwt>
<pdfrwt beam="1">  1        1 0.11969774E+00 0.27392922E+03</pdfrwt>
<pdfrwt beam="2">  1       -1 0.37094032E-02 0.27392922E+03</pdfrwt>
<totfact> 0.66048371E+03</totfact>
</mgrwt>
</event>
<event>
 9    1  0.8122655E-001  0.2739080E+03  0.7818608E-02  0.1099064E+00
          2   -1    0    0  501    0  0.00000000000E+00  0.00000000000E+00  0.30085304736E+03  0.30085304736E+03  0.00000000000E+00 0. -1.
         -2   -1    0    0    0  501 -0.00000000000E+00 -0.00000000000E+00 -0.62344062181E+02  0.62344062181E+02  0.00000000000E+00 0. -1.
         35    2    1    2    0    0  0.35527136788E-14 -0.14210854715E-13  0.23850898518E+03  0.36319710954E+03  0.27390802173E+03 0.  0.
         25    2    3    3    0    0  0.65806637234E+01  0.48032088012E+02  0.82320411396E+02  0.15720467028E+03  0.12484499033E+03 0.  0.
         25    2    3    3    0    0 -0.65806637234E+01 -0.48032088012E+02  0.15618857378E+03  0.20599243926E+03  0.12525026083E+03 0.  0.
          5    1    4    4  502    0  0.61284115409E+02  0.49526220377E+02  0.46074223828E+02  0.91397556902E+02  0.47000000000E+01 0.  1.
         -5    1    4    4    0  502 -0.54703451686E+02 -0.14941323654E+01  0.36246187567E+02  0.65807113377E+02  0.47000000000E+01 0.  1.
          5    1    5    5  503    0  0.10682176531E+02 -0.85611888655E+02  0.73569205359E+02  0.11348137447E+03  0.47000000000E+01 0. -1.
         -5    1    5    5    0  503 -0.17262840254E+02  0.37579800643E+02  0.82619368422E+02  0.92511064790E+02  0.47000000000E+01 0. -1.
<mgrwt>
<rscale>  0 0.27390802E+03</rscale>
<asrwt>0</asrwt>
<pdfrwt beam="1">  1        2 0.46285083E-01 0.27390802E+03</pdfrwt>
<pdfrwt beam="2">  1       -2 0.95913943E-02 0.27390802E+03</pdfrwt>
<totfact> 0.76721179E+03</totfact>
</mgrwt>
</event>
<event>
 9    1  0.8122655E-001  0.2744167E+03  0.7818608E-02  0.1098778E+00
          2   -1    0    0  501    0  0.00000000000E+00  0.00000000000E+00  0.10123385669E+04  0.10123385669E+04  0.00000000000E+00 0.  1.
         -2   -1    0    0    0  501 -0.00000000000E+00 -0.00000000000E+00 -0.18596679885E+02  0.18596679885E+02  0.00000000000E+00 0.  1.
         35    2    1    2    0    0  0.71054273576E-14  0.00000000000E+00  0.99374188699E+03  0.10309352468E+04  0.27441673610E+03 0.  0.
         25    2    3    3    0    0 -0.18267645771E+02  0.32240173699E+02  0.36974061463E+03  0.39350682638E+03  0.12948499764E+03 0.  0.
         25    2    3    3    0    0  0.18267645771E+02 -0.32240173699E+02  0.62400127236E+03  0.63742842039E+03  0.12475683358E+03 0.  0.
          5    1    4    4  502    0 -0.59494995714E+02 -0.13026599485E+02  0.26626354385E+03  0.27318073064E+03  0.47000000000E+01 0. -1.
         -5    1    4    4    0  502  0.41227349942E+02  0.45266773184E+02  0.10347707078E+03  0.12032609573E+03  0.47000000000E+01 0. -1.
          5    1    5    5  503    0  0.20977861580E+01 -0.54394624239E+01 -0.40950439079E+01  0.85350947759E+01  0.47000000000E+01 0.  1.
         -5    1    5    5    0  503  0.16169859614E+02 -0.26800711275E+02  0.62809631627E+03  0.62889332561E+03  0.47000000000E+01 0.  1.
<mgrwt>
<rscale>  0 0.27441674E+03</rscale>
<asrwt>0</asrwt>
<pdfrwt beam="1">  1        2 0.15574435E+00 0.27441674E+03</pdfrwt>
<pdfrwt beam="2">  1       -2 0.28610285E-02 0.27441674E+03</pdfrwt>
<totfact> 0.11700945E+04</totfact>
</mgrwt>
</event>
<event>
 9    1  0.8122655E-001  0.2753922E+03  0.7818608E-02  0.1098233E+00
          2   -1    0    0  501    0  0.00000000000E+00  0.00000000000E+00  0.66456302939E+03  0.66456302939E+03  0.00000000000E+00 0. -1.
         -2   -1    0    0    0  501 -0.00000000000E+00 -0.00000000000E+00 -0.28530344911E+02  0.28530344911E+02  0.00000000000E+00 0. -1.
         35    2    1    2    0    0  0.00000000000E+00  0.00000000000E+00  0.63603268448E+03  0.69309337430E+03  0.27539217450E+03 0.  0.
         25    2    3    3    0    0  0.26601300865E+02  0.44840203391E+02  0.38558217987E+03  0.40837855984E+03  0.12402079525E+03 0.  0.
         25    2    3    3    0    0 -0.26601300865E+02 -0.44840203391E+02  0.25045050461E+03  0.28471481446E+03  0.12497518661E+03 0.  0.
          5    1    4    4  502    0  0.43147375992E+01  0.62247455442E+02  0.37095502126E+03  0.37619553488E+03  0.47000000000E+01 0.  1.
         -5    1    4    4    0  502  0.22286563266E+02 -0.17407252050E+02  0.14627158613E+02  0.32183024955E+02  0.47000000000E+01 0.  1.
          5    1    5    5  503    0 -0.71441509019E+02 -0.48710986994E+02  0.13153953372E+03  0.15748456558E+03  0.47000000000E+01 0. -1.
         -5    1    5    5    0  503  0.44840208154E+02  0.38707836024E+01  0.11891097089E+03  0.12723024889E+03  0.47000000000E+01 0. -1.
<mgrwt>
<rscale>  0 0.27539217E+03</rscale>
<asrwt>0</asrwt>
<pdfrwt beam="1">  1        2 0.10224045E+00 0.27539217E+03</pdfrwt>
<pdfrwt beam="2">  1       -2 0.43892843E-02 0.27539217E+03</pdfrwt>
<totfact> 0.10622986E+04</totfact>
</mgrwt>
</event>
<event>
 9    1  0.8122655E-001  0.2746019E+03  0.7818608E-02  0.1098674E+00
          1   -1    0    0  501    0  0.00000000000E+00  0.00000000000E+00  0.88498172871E+03  0.88498172871E+03  0.00000000000E+00 0.  1.
         -1   -1    0    0    0  501 -0.00000000000E+00 -0.00000000000E+00 -0.21301627270E+02  0.21301627270E+02  0.00000000000E+00 0.  1.
         35    2    1    2    0    0  0.00000000000E+00  0.00000000000E+00  0.86368010144E+03  0.90628335598E+03  0.27460190040E+03 0.  0.
         25    2    3    3    0    0  0.37031262058E+00  0.53516978255E+02  0.36945440708E+03  0.39374069981E+03  0.12518376765E+03 0.  0.
         25    2    3    3    0    0 -0.37031262058E+00 -0.53516978255E+02  0.49422569436E+03  0.51254265617E+03  0.12480678400E+03 0.  0.
          5    1    4    4  502    0 -0.56952668645E+02  0.40525865443E+02  0.13635845672E+03  0.15330254713E+03  0.47000000000E+01 0.  1.
         -5    1    4    4    0  502  0.57322981266E+02  0.12991112812E+02  0.23309595036E+03  0.24043815269E+03  0.47000000000E+01 0.  1.
          5    1    5    5  503    0  0.54900576473E+02 -0.29435177318E+02  0.14158249307E+03  0.15475204459E+03  0.47000000000E+01 0. -1.
         -5    1    5    5    0  503 -0.55270889094E+02 -0.24081800937E+02  0.35264320129E+03  0.35779061158E+03  0.47000000000E+01 0. -1.
<mgrwt>
<rscale>  0 0.27460190E+03</rscale>
<asrwt>0</asrwt>
<pdfrwt beam="1">  1        1 0.13615101E+00 0.27460190E+03</pdfrwt>
<pdfrwt beam="2">  1       -1 0.32771741E-02 0.27460190E+03</pdfrwt>
<totfact> 0.64861902E+03</totfact>
</mgrwt>
</event>
<event>
 9    1  0.8122655E-001  0.2831673E+03  0.7818608E-02  0.1093971E+00
          2   -1    0    0  501    0  0.00000000000E+00  0.00000000000E+00  0.99630814953E+01  0.99630814953E+01  0.00000000000E+00 0.  1.
         -2   -1    0    0    0  501 -0.00000000000E+00 -0.00000000000E+00 -0.20120211627E+04  0.20120211627E+04  0.00000000000E+00 0.  1.
         35    2    1    2    0    0  0.35527136788E-14  0.00000000000E+00 -0.20020580812E+04  0.20219842442E+04  0.28316730612E+03 0.  0.
         25    2    3    3    0    0  0.19917602339E+02 -0.50463979547E+02 -0.71812691749E+03  0.73084384954E+03  0.12443126081E+03 0.  0.
         25    2    3    3    0    0 -0.19917602339E+02  0.50463979547E+02 -0.12839311637E+04  0.12911403946E+04  0.12498384474E+03 0.  0.
          5    1    4    4  502    0 -0.16464251208E+02 -0.75153245397E+02 -0.27757017523E+03  0.28807355665E+03  0.47000000000E+01 0. -1.
         -5    1    4    4    0  502  0.36381853547E+02  0.24689265850E+02 -0.44055674226E+03  0.44277029289E+03  0.47000000000E+01 0. -1.
          5    1    5    5  503    0 -0.22036776334E+02 -0.34971701395E+02 -0.66753849924E+03  0.66883359468E+03  0.47000000000E+01 0.  1.
         -5    1    5    5    0  503  0.21191739952E+01  0.85435680942E+02 -0.61639266444E+03  0.62230679994E+03  0.47000000000E+01 0.  1.
<mgrwt>
<rscale>  0 0.28316731E+03</rscale>
<asrwt>0</asrwt>
<pdfrwt beam="1">  1        2 0.15327822E-02 0.28316731E+03</pdfrwt>
<pdfrwt beam="2">  1       -2 0.30954163E+00 0.28316731E+03</pdfrwt>
<totfact> 0.25507039E+02</totfact>
</mgrwt>
</event>
<event>
 9    1  0.8122655E-001  0.2727696E+03  0.7818608E-02  0.1099705E+00
         -1   -1    0    0    0  501 -0.00000000000E+00  0.00000000000E+00  0.14222151975E+02  0.14222151975E+02  0.00000000000E+00 0.  1.
          1   -1    0    0  501    0  0.00000000000E+00 -0.00000000000E+00 -0.13078759719E+04  0.13078759719E+04  0.00000000000E+00 0.  1.
         35    2    1    2    0    0  0.71054273576E-14 -0.71054273576E-14 -0.12936538199E+04  0.13220981239E+04  0.27276957922E+03 0.  0.
         25    2    3    3    0    0  0.34908107947E+02  0.41511590431E+02 -0.70081263005E+03  0.71387697567E+03  0.12466036185E+03 0.  0.
         25    2    3    3    0    0 -0.34908107947E+02 -0.41511590431E+02 -0.59284118990E+03  0.60822114823E+03  0.12462142901E+03 0.  0.
          5    1    4    4  502    0 -0.19090445217E+02  0.36588579406E+02 -0.57865040561E+03  0.58013925152E+03  0.47000000000E+01 0.  1.
         -5    1    4    4    0  502  0.53998553164E+02  0.49230110248E+01 -0.12216222444E+03  0.13373772415E+03  0.47000000000E+01 0.  1.
          5    1    5    5  503    0 -0.61575866222E+02 -0.70807735891E+02 -0.36408496376E+03  0.37601233171E+03  0.47000000000E+01 0. -1.
         -5    1    5    5    0  503  0.26667758274E+02  0.29296145460E+02 -0.22875622614E+03  0.23220881652E+03  0.47000000000E+01 0. -1.
<mgrwt>
<rscale>  0 0.27276958E+03</rscale>
<asrwt>0</asrwt>
<pdfrwt beam="1">  1        1 0.20121169E+00 0.27276958E+03</pdfrwt>
<pdfrwt beam="2">  1       -1 0.21880233E-02 0.27276958E+03</pdfrwt>
<totfact> 0.57911529E+03</totfact>
</mgrwt>
</event>
<event>
 9    1  0.8122655E-001  0.2742978E+03  0.7818608E-02  0.1098845E+00
         -2   -1    0    0    0  501 -0.00000000000E+00  0.00000000000E+00  0.55135257743E+02  0.55135257743E+02  0.00000000000E+00 0. -1.
          2   -1    0    0  501    0  0.00000000000E+00 -0.00000000000E+00 -0.34115764471E+03  0.34115764471E+03  0.00000000000E+00 0. -1.
         35    2    1    2    0    0  0.17763568394E-14  0.00000000000E+00 -0.28602238696E+03  0.39629290245E+03  0.27429775553E+03 0.  0.
         25    2    3    3    0    0 -0.74585284245E+01 -0.52705033866E+02 -0.16661031649E+03  0.21440613036E+03  0.12400621330E+03 0.  0.
         25    2    3    3    0    0  0.74585284245E+01  0.52705033866E+02 -0.11941207048E+03  0.18188677209E+03  0.12645198711E+03 0.  0.
          5    1    4    4  502    0  0.31497518034E+02 -0.73187829589E+02 -0.14414658349E+03  0.16476917058E+03  0.47000000000E+01 0. -1.
         -5    1    4    4    0  502 -0.38956046459E+02  0.20482795723E+02 -0.22463733000E+02  0.49636959784E+02  0.47000000000E+01 0. -1.
          5    1    5    5  503    0 -0.75094694949E+01  0.93265806117E+02 -0.79957146838E+02  0.12316711433E+03  0.47000000000E+01 0.  1.
         -5    1    5    5    0  503  0.14967997919E+02 -0.40560772251E+02 -0.39454923638E+02  0.58719657752E+02  0.47000000000E+01 0.  1.
<mgrwt>
<rscale>  0 0.27429776E+03</rscale>
<asrwt>0</asrwt>
<pdfrwt beam="1">  1        2 0.52485792E-01 0.27429776E+03</pdfrwt>
<pdfrwt beam="2">  1       -2 0.84823473E-02 0.27429776E+03</pdfrwt>
<totfact> 0.81337024E+03</totfact>
</mgrwt>
</event>
<event>
 9    1  0.8122655E-001  0.2746592E+03  0.7818608E-02  0.1098642E+00
          2   -1    0    0  501    0  0.00000000000E+00  0.00000000000E+00  0.15868046510E+04  0.15868046510E+04  0.00000000000E+00 0. -1.
         -2   -1    0    0    0  501 -0.00000000000E+00 -0.00000000000E+00 -0.11885155012E+02  0.11885155012E+02  0.00000000000E+00 0. -1.
         35    2    1    2    0    0  0.00000000000E+00 -0.71054273576E-14  0.15749194960E+04  0.15986898060E+04  0.27465920156E+03 0.  0.
         25    2    3    3    0    0  0.90449729791E+01  0.43257092296E+02  0.98655118901E+03  0.99542558118E+03  0.12504339873E+03 0.  0.
         25    2    3    3    0    0 -0.90449729791E+01 -0.43257092296E+02  0.58836830695E+03  0.60326422481E+03  0.12568799757E+03 0.  0.
          5    1    4    4  502    0 -0.20490272408E+02 -0.39258930123E+02  0.30012870794E+03  0.30341464399E+03  0.47000000000E+01 0. -1.
         -5    1    4    4    0  502  0.29535245387E+02  0.82516022419E+02  0.68642248107E+03  0.69201093719E+03  0.47000000000E+01 0. -1.
          5    1    5    5  503    0  0.26539509103E+02 -0.42068122753E+02  0.54350747147E+03  0.54579898685E+03  0.47000000000E+01 0.  1.
         -5    1    5    5    0  503 -0.35584482082E+02 -0.11889695431E+01  0.44860835480E+02  0.57465237958E+02  0.47000000000E+01 0.  1.
<mgrwt>
<rscale>  0 0.27465920E+03</rscale>
<asrwt>0</asrwt>
<pdfrwt beam="1">  1        2 0.24412363E+00 0.27465920E+03</pdfrwt>
<pdfrwt beam="2">  1       -2 0.18284866E-02 0.27465920E+03</pdfrwt>
<totfact> 0.10818238E+04</totfact>
</mgrwt>
</event>
<event>
 9    1  0.8122655E-001  0.2780351E+03  0.7818608E-02  0.1096767E+00
          1   -1    0    0  501    0  0.00000000000E+00  0.00000000000E+00  0.10060257214E+04  0.10060257214E+04  0.00000000000E+00 0. -1.
         -1   -1    0    0    0  501 -0.00000000000E+00 -0.00000000000E+00 -0.19210125883E+02  0.19210125883E+02  0.00000000000E+00 0. -1.
         35    2    1    2    0    0  0.35527136788E-14  0.71054273576E-14  0.98681559552E+03  0.10252358473E+04  0.27803511109E+03 0.  0.
         25    2    3    3    0    0 -0.14177462672E+02 -0.44687125981E+02  0.36485055823E+03  0.38902882823E+03  0.12660789737E+03 0.  0.
         25    2    3    3    0    0  0.14177462672E+02  0.44687125981E+02  0.62196503729E+03  0.63620701906E+03  0.12538310815E+03 0.  0.
          5    1    4    4  502    0 -0.16484579956E+02 -0.60386846411E+02  0.36700932048E+03  0.37233888317E+03  0.47000000000E+01 0. -1.
         -5    1    4    4    0  502  0.23071172844E+01  0.15699720429E+02 -0.21587622538E+01  0.16689945063E+02  0.47000000000E+01 0. -1.
          5    1    5    5  503    0  0.65989695953E+02  0.62828616216E+01  0.25100170804E+03  0.25964988303E+03  0.47000000000E+01 0.  1.
         -5    1    5    5    0  503 -0.51812233282E+02  0.38404264360E+02  0.37096332925E+03  0.37655713602E+03  0.47000000000E+01 0.  1.
<mgrwt>
<rscale>  0 0.27803511E+03</rscale>
<asrwt>0</asrwt>
<pdfrwt beam="1">  1        1 0.15477315E+00 0.27803511E+03</pdfrwt>
<pdfrwt beam="2">  1       -1 0.29554048E-02 0.27803511E+03</pdfrwt>
<totfact> 0.61011333E+03</totfact>
</mgrwt>
</event>
<event>
 9    1  0.8122655E-001  0.2747096E+03  0.7818608E-02  0.1098614E+00
          1   -1    0    0  501    0  0.00000000000E+00  0.00000000000E+00  0.11027469826E+03  0.11027469826E+03  0.00000000000E+00 0. -1.
         -1   -1    0    0    0  501 -0.00000000000E+00 -0.00000000000E+00 -0.17108499813E+03  0.17108499813E+03  0.00000000000E+00 0. -1.
         35    2    1    2    0    0  0.14210854715E-13  0.00000000000E+00 -0.60810299877E+02  0.28135969639E+03  0.27470963977E+03 0.  0.
         25    2    3    3    0    0  0.34419558155E+02 -0.43097663226E+02 -0.38893385947E+02  0.14104911065E+03  0.12385492152E+03 0.  0.
         25    2    3    3    0    0 -0.34419558155E+02  0.43097663226E+02 -0.21916913930E+02  0.14031058574E+03  0.12714005976E+03 0.  0.
          5    1    4    4  502    0 -0.40997057856E+02 -0.93806159483E+01  0.11898647372E+02  0.43959327994E+02  0.47000000000E+01 0. -1.
         -5    1    4    4    0  502  0.75416616011E+02 -0.33717047278E+02 -0.50792033320E+02  0.97089782657E+02  0.47000000000E+01 0. -1.
          5    1    5    5  503    0 -0.77545611613E+02  0.13146851620E+02  0.88255739373E+01  0.79285196242E+02  0.47000000000E+01 0. -1.
         -5    1    5    5    0  503  0.43126053457E+02  0.29950811607E+02 -0.30742487867E+02  0.61025389495E+02  0.47000000000E+01 0. -1.
<mgrwt>
<rscale>  0 0.27470964E+03</rscale>
<asrwt>0</asrwt>
<pdfrwt beam="1">  1        1 0.16965338E-01 0.27470964E+03</pdfrwt>
<pdfrwt beam="2">  1       -1 0.26320769E-01 0.27470964E+03</pdfrwt>
<totfact> 0.40202159E+03</totfact>
</mgrwt>
</event>
<event>
 9    1  0.8122655E-001  0.2752608E+03  0.7818608E-02  0.1098306E+00
         -3   -1    0    0    0  501 -0.00000000000E+00  0.00000000000E+00  0.39124331347E+04  0.39124331347E+04  0.00000000000E+00 0.  1.
          3   -1    0    0  501    0  0.00000000000E+00 -0.00000000000E+00 -0.48415202446E+01  0.48415202446E+01  0.00000000000E+00 0.  1.
         35    2    1    2    0    0 -0.17763568394E-14  0.00000000000E+00  0.39075916145E+04  0.39172746549E+04  0.27526077982E+03 0.  0.
         25    2    3    3    0    0  0.61952637648E+01 -0.33678836065E+02  0.26243096908E+04  0.26275055680E+04  0.12494603250E+03 0.  0.
         25    2    3    3    0    0 -0.61952637648E+01  0.33678836065E+02  0.12832819236E+04  0.12897690870E+04  0.12457590826E+03 0.  0.
          5    1    4    4  502    0  0.27359369676E+01  0.35374048299E+02  0.29468346071E+03  0.29684885154E+03  0.47000000000E+01 0.  1.
         -5    1    4    4    0  502  0.34593267972E+01 -0.69052884364E+02  0.23296262301E+04  0.23306567165E+04  0.47000000000E+01 0.  1.
          5    1    5    5  503    0  0.16443983909E+02 -0.37391245213E+02  0.21632770633E+03  0.22020053667E+03  0.47000000000E+01 0. -1.
         -5    1    5    5    0  503 -0.22639247674E+02  0.71070081278E+02  0.10669542173E+04  0.10695685503E+04  0.47000000000E+01 0. -1.
<mgrwt>
<rscale>  0 0.27526078E+03</rscale>
<asrwt>0</asrwt>
<pdfrwt beam="1">  1        3 0.74485240E-03 0.27526078E+03</pdfrwt>
<pdfrwt beam="2">  1       -3 0.60191026E+00 0.27526078E+03</pdfrwt>
<totfact> 0.12523537E+01</totfact>
</mgrwt>
</event>
<event>
 9    1  0.8122655E-001  0.2746061E+03  0.7818608E-02  0.1098672E+00
         -1   -1    0    0    0  501 -0.00000000000E+00  0.00000000000E+00  0.51122402343E+03  0.51122402343E+03  0.00000000000E+00 0. -1.
          1   -1    0    0  501    0  0.00000000000E+00 -0.00000000000E+00 -0.36876462590E+02  0.36876462590E+02  0.00000000000E+00 0. -1.
         35    2    1    2    0    0  0.00000000000E+00  0.00000000000E+00  0.47434756084E+03  0.54810048602E+03  0.27460614396E+03 0.  0.
         25    2    3    3    0    0 -0.15214929134E+02  0.54166485533E+02  0.25275448970E+03  0.28740947257E+03  0.12471515800E+03 0.  0.
         25    2    3    3    0    0  0.15214929134E+02 -0.54166485533E+02  0.22159307114E+03  0.26069101345E+03  0.12526297575E+03 0.  0.
          5    1    4    4  502    0 -0.55831294360E+02  0.57877748774E+02  0.95762494063E+02  0.12513797386E+03  0.47000000000E+01 0.  1.
         -5    1    4    4    0  502  0.40616365226E+02 -0.37112632409E+01  0.15699199564E+03  0.16227149871E+03  0.47000000000E+01 0.  1.
          5    1    5    5  503    0 -0.28347002071E+02 -0.35326529878E+02  0.20530254060E+03  0.21029203365E+03  0.47000000000E+01 0. -1.
         -5    1    5    5    0  503  0.43561931205E+02 -0.18839955655E+02  0.16290530534E+02  0.50398979796E+02  0.47000000000E+01 0. -1.
<mgrwt>
<rscale>  0 0.27460614E+03</rscale>
<asrwt>0</asrwt>
<pdfrwt beam="1">  1        1 0.56733023E-02 0.27460614E+03</pdfrwt>
<pdfrwt beam="2">  1       -1 0.78649845E-01 0.27460614E+03</pdfrwt>
<totfact> 0.23553556E+03</totfact>
</mgrwt>
</event>
<event>
 9    1  0.8122655E-001  0.2744262E+03  0.7818608E-02  0.1098773E+00
          2   -1    0    0  501    0  0.00000000000E+00  0.00000000000E+00  0.82093070363E+03  0.82093070363E+03  0.00000000000E+00 0.  1.
         -2   -1    0    0    0  501 -0.00000000000E+00 -0.00000000000E+00 -0.22934258004E+02  0.22934258004E+02  0.00000000000E+00 0.  1.
         35    2    1    2    0    0 -0.71054273576E-14  0.00000000000E+00  0.79799644563E+03  0.84386496164E+03  0.27442621274E+03 0.  0.
         25    2    3    3    0    0  0.41558207803E+02  0.11518091549E+01  0.28202418037E+03  0.31138053562E+03  0.12526686852E+03 0.  0.
         25    2    3    3    0    0 -0.41558207803E+02 -0.11518091549E+01  0.51597226526E+03  0.53248442602E+03  0.12483538816E+03 0.  0.
          5    1    4    4  502    0  0.51644288470E+02  0.48013107571E+02  0.22941525186E+03  0.24005382483E+03  0.47000000000E+01 0.  1.
         -5    1    4    4    0  502 -0.10086080667E+02 -0.46861298417E+02  0.52608928509E+02  0.71326710784E+02  0.47000000000E+01 0.  1.
          5    1    5    5  503    0 -0.13527662357E+02 -0.37855667209E+02  0.50568533465E+02  0.64771257248E+02  0.47000000000E+01 0. -1.
         -5    1    5    5    0  503 -0.28030545446E+02  0.36703858054E+02  0.46540373179E+03  0.46771316877E+03  0.47000000000E+01 0. -1.
<mgrwt>
<rscale>  0 0.27442621E+03</rscale>
<asrwt>0</asrwt>
<pdfrwt beam="1">  1        2 0.12629701E+00 0.27442621E+03</pdfrwt>
<pdfrwt beam="2">  1       -2 0.35283480E-02 0.27442621E+03</pdfrwt>
<totfact> 0.11355580E+04</totfact>
</mgrwt>
</event>
<event>
 9    1  0.8122655E-001  0.2742133E+03  0.7818608E-02  0.1098892E+00
         -2   -1    0    0    0  501 -0.00000000000E+00  0.00000000000E+00  0.11631718005E+02  0.11631718005E+02  0.00000000000E+00 0. -1.
          2   -1    0    0  501    0  0.00000000000E+00 -0.00000000000E+00 -0.16161187805E+04  0.16161187805E+04  0.00000000000E+00 0. -1.
         35    2    1    2    0    0  0.00000000000E+00  0.00000000000E+00 -0.16044870625E+04  0.16277504985E+04  0.27421333240E+03 0.  0.
         25    2    3    3    0    0  0.69080007509E+01 -0.42094285684E+02 -0.10247739252E+04  0.10332056247E+04  0.12462991507E+03 0.  0.
         25    2    3    3    0    0 -0.69080007509E+01  0.42094285684E+02 -0.57971313724E+03  0.59454487378E+03  0.12488649278E+03 0.  0.
          5    1    4    4  502    0  0.44202856170E+02 -0.68456768815E+02 -0.77132150842E+03  0.77562824925E+03  0.47000000000E+01 0. -1.
         -5    1    4    4    0  502 -0.37294855419E+02  0.26362483131E+02 -0.25345241679E+03  0.25757737544E+03  0.47000000000E+01 0. -1.
          5    1    5    5  503    0 -0.23032733047E+02  0.29120023273E+02 -0.56996082459E+03  0.57118815999E+03  0.47000000000E+01 0.  1.
         -5    1    5    5    0  503  0.16124732296E+02  0.12974262411E+02 -0.97523126520E+01  0.23356713784E+02  0.47000000000E+01 0.  1.
<mgrwt>
<rscale>  0 0.27421333E+03</rscale>
<asrwt>0</asrwt>
<pdfrwt beam="1">  1        2 0.24863382E+00 0.27421333E+03</pdfrwt>
<pdfrwt beam="2">  1       -2 0.17894939E-02 0.27421333E+03</pdfrwt>
<totfact> 0.10773365E+04</totfact>
</mgrwt>
</event>
<event>
 9    1  0.8122655E-001  0.2781215E+03  0.7818608E-02  0.1096719E+00
         -2   -1    0    0    0  501 -0.00000000000E+00  0.00000000000E+00  0.69842476226E+03  0.69842476226E+03  0.00000000000E+00 0.  1.
          2   -1    0    0  501    0  0.00000000000E+00 -0.00000000000E+00 -0.27687871901E+02  0.27687871901E+02  0.00000000000E+00 0.  1.
         35    2    1    2    0    0  0.00000000000E+00 -0.71054273576E-14  0.67073689036E+03  0.72611263416E+03  0.27812152272E+03 0.  0.
         25    2    3    3    0    0  0.16789295444E+02  0.44549840839E+02  0.24017167331E+03  0.27534606518E+03  0.12596211411E+03 0.  0.
         25    2    3    3    0    0 -0.16789295444E+02 -0.44549840839E+02  0.43056521705E+03  0.45076656898E+03  0.12464960816E+03 0.  0.
          5    1    4    4  502    0  0.22327204988E+02  0.83075573923E+02  0.20618762148E+03  0.22346248078E+03  0.47000000000E+01 0. -1.
         -5    1    4    4    0  502 -0.55379095438E+01 -0.38525733084E+02  0.33984051828E+02  0.51883584402E+02  0.47000000000E+01 0. -1.
          5    1    5    5  503    0 -0.53744819524E+02  0.18635739539E+02  0.14241872976E+03  0.15343070423E+03  0.47000000000E+01 0. -1.
         -5    1    5    5    0  503  0.36955524079E+02 -0.63185580378E+02  0.28814648729E+03  0.29733586474E+03  0.47000000000E+01 0. -1.
<mgrwt>
<rscale>  0 0.27812152E+03</rscale>
<asrwt>0</asrwt>
<pdfrwt beam="1">  1        2 0.42596731E-02 0.27812152E+03</pdfrwt>
<pdfrwt beam="2">  1       -2 0.10744995E+00 0.27812152E+03</pdfrwt>
<totfact> 0.14098693E+03</totfact>
</mgrwt>
</event>
<event>
 9    1  0.8122655E-001  0.2720386E+03  0.7818608E-02  0.1100118E+00
         -2   -1    0    0    0  501 -0.00000000000E+00  0.00000000000E+00  0.14079881057E+02  0.14079881057E+02  0.00000000000E+00 0. -1.
          2   -1    0    0  501    0  0.00000000000E+00 -0.00000000000E+00 -0.13140207058E+04  0.13140207058E+04  0.00000000000E+00 0. -1.
         35    2    1    2    0    0  0.00000000000E+00  0.00000000000E+00 -0.12999408248E+04  0.13281005869E+04  0.27203863876E+03 0.  0.
         25    2    3    3    0    0 -0.80138399568E+01  0.21462843402E+02 -0.86727695897E+03  0.87659932356E+03  0.12542796833E+03 0.  0.
         25    2    3    3    0    0  0.80138399568E+01 -0.21462843402E+02 -0.43266386581E+03  0.45150126332E+03  0.12700588463E+03 0.  0.
          5    1    4    4  502    0 -0.54673641064E+02  0.34575170336E+02 -0.28487337104E+03  0.29216361334E+03  0.47000000000E+01 0.  1.
         -5    1    4    4    0  502  0.46659801107E+02 -0.13112326934E+02 -0.58240358793E+03  0.58443571023E+03  0.47000000000E+01 0.  1.
          5    1    5    5  503    0 -0.45756734295E+02  0.23122861995E+02 -0.26246028827E+03  0.26746184475E+03  0.47000000000E+01 0. -1.
         -5    1    5    5    0  503  0.53770574252E+02 -0.44585705397E+02 -0.17020357754E+03  0.18403941857E+03  0.47000000000E+01 0. -1.
<mgrwt>
<rscale>  0 0.27203864E+03</rscale>
<asrwt>0</asrwt>
<pdfrwt beam="1">  1        2 0.20215701E+00 0.27203864E+03</pdfrwt>
<pdfrwt beam="2">  1       -2 0.21661358E-02 0.27203864E+03</pdfrwt>
<totfact> 0.11829937E+04</totfact>
</mgrwt>
</event>
<event>
 9    1  0.8122655E-001  0.2770229E+03  0.7818608E-02  0.1097326E+00
          3   -1    0    0  501    0  0.00000000000E+00  0.00000000000E+00  0.20416168281E+03  0.20416168281E+03  0.00000000000E+00 0. -1.
         -3   -1    0    0    0  501 -0.00000000000E+00 -0.00000000000E+00 -0.93971680722E+02  0.93971680722E+02  0.00000000000E+00 0. -1.
         35    2    1    2    0    0  0.00000000000E+00  0.00000000000E+00  0.11019000209E+03  0.29813336354E+03  0.27702286168E+03 0.  0.
         25    2    3    3    0    0 -0.46164514113E+02 -0.36379488956E+02  0.65302072257E+02  0.15233344343E+03  0.12444471771E+03 0.  0.
         25    2    3    3    0    0  0.46164514113E+02  0.36379488956E+02  0.44887929834E+02  0.14579992010E+03  0.12565055065E+03 0.  0.
          5    1    4    4  502    0 -0.61914797607E+02 -0.66574408888E+02  0.73484688608E+02  0.11699437397E+03  0.47000000000E+01 0. -1.
         -5    1    4    4    0  502  0.15750283494E+02  0.30194919932E+02 -0.81826163510E+01  0.35339069459E+02  0.47000000000E+01 0. -1.
          5    1    5    5  503    0  0.79272529587E+02  0.25589983407E+02  0.64592713988E+02  0.10551440612E+03  0.47000000000E+01 0. -1.
         -5    1    5    5    0  503 -0.33108015474E+02  0.10789505549E+02 -0.19704784154E+02  0.40285513987E+02  0.47000000000E+01 0. -1.
<mgrwt>
<rscale>  0 0.27702286E+03</rscale>
<asrwt>0</asrwt>
<pdfrwt beam="1">  1        3 0.31409490E-01 0.27702286E+03</pdfrwt>
<pdfrwt beam="2">  1       -3 0.14457182E-01 0.27702286E+03</pdfrwt>
<totfact> 0.99186290E+02</totfact>
</mgrwt>
</event>
<event>
 9    1  0.8122655E-001  0.2777319E+03  0.7818608E-02  0.1096934E+00
          1   -1    0    0  501    0  0.00000000000E+00  0.00000000000E+00  0.25425206027E+03  0.25425206027E+03  0.00000000000E+00 0.  1.
         -1   -1    0    0    0  501 -0.00000000000E+00 -0.00000000000E+00 -0.75845038742E+02  0.75845038742E+02  0.00000000000E+00 0.  1.
         35    2    1    2    0    0 -0.71054273576E-14  0.71054273576E-14  0.17840702152E+03  0.33009709901E+03  0.27773193811E+03 0.  0.
         25    2    3    3    0    0  0.57842960074E+02  0.21015452614E+02  0.10859433263E+03  0.17485706440E+03  0.12245328339E+03 0.  0.
         25    2    3    3    0    0 -0.57842960074E+02 -0.21015452614E+02  0.69812688895E+02  0.15524003461E+03  0.12425055145E+03 0.  0.
          5    1    4    4  502    0  0.45136053570E+02 -0.48258893617E+02  0.57501583386E+02  0.87719474673E+02  0.47000000000E+01 0.  1.
         -5    1    4    4    0  502  0.12706906504E+02  0.69274346232E+02  0.51092749243E+02  0.87137589730E+02  0.47000000000E+01 0.  1.
          5    1    5    5  503    0 -0.45320410833E+01 -0.15105923067E+02 -0.34291676346E+02  0.38036001034E+02  0.47000000000E+01 0. -1.
         -5    1    5    5    0  503 -0.53310918991E+02 -0.59095295471E+01  0.10410436524E+03  0.11720403357E+03  0.47000000000E+01 0. -1.
<mgrwt>
<rscale>  0 0.27773194E+03</rscale>
<asrwt>0</asrwt>
<pdfrwt beam="1">  1        1 0.39115701E-01 0.27773194E+03</pdfrwt>
<pdfrwt beam="2">  1       -1 0.11668468E-01 0.27773194E+03</pdfrwt>
<totfact> 0.51428714E+03</totfact>
</mgrwt>
</event>
<event>
 9    1  0.8122655E-001  0.2774514E+03  0.7818608E-02  0.1097089E+00
          2   -1    0    0  501    0  0.00000000000E+00  0.00000000000E+00  0.26701341862E+04  0.26701341862E+04  0.00000000000E+00 0. -1.
         -2   -1    0    0    0  501 -0.00000000000E+00 -0.00000000000E+00 -0.72074366217E+01  0.72074366217E+01  0.00000000000E+00 0. -1.
         35    2    1    2    0    0  0.00000000000E+00 -0.71054273576E-14  0.26629267495E+04  0.26773416228E+04  0.27745142219E+03 0.  0.
         25    2    3    3    0    0 -0.36194656320E+02  0.15070786916E+02  0.88586008311E+03  0.89547954256E+03  0.12489332459E+03 0.  0.
         25    2    3    3    0    0  0.36194656320E+02 -0.15070786916E+02  0.17770666664E+04  0.17818620802E+04  0.12461682971E+03 0.  0.
          5    1    4    4  502    0 -0.36713138043E+02 -0.50679595622E+02  0.35020896915E+03  0.35578741966E+03  0.47000000000E+01 0. -1.
         -5    1    4    4    0  502  0.51848172275E+00  0.65750382538E+02  0.53565111397E+03  0.53969212290E+03  0.47000000000E+01 0. -1.
          5    1    5    5  503    0 -0.22713794661E+02 -0.42044992422E+02  0.12324191670E+04  0.12333542844E+04  0.47000000000E+01 0.  1.
         -5    1    5    5    0  503  0.58908450981E+02  0.26974205507E+02  0.54464749946E+03  0.54850779578E+03  0.47000000000E+01 0.  1.
<mgrwt>
<rscale>  0 0.27745142E+03</rscale>
<asrwt>0</asrwt>
<pdfrwt beam="1">  1        2 0.41078909E+00 0.27745142E+03</pdfrwt>
<pdfrwt beam="2">  1       -2 0.11088385E-02 0.27745142E+03</pdfrwt>
<totfact> 0.59204704E+03</totfact>
</mgrwt>
</event>
<event>
 9    1  0.8122655E-001  0.2745216E+03  0.7818608E-02  0.1098719E+00
          1   -1    0    0  501    0  0.00000000000E+00  0.00000000000E+00  0.98735024987E+03  0.98735024987E+03  0.00000000000E+00 0.  1.
         -1   -1    0    0    0  501 -0.00000000000E+00 -0.00000000000E+00 -0.19081911291E+02  0.19081911291E+02  0.00000000000E+00 0.  1.
         35    2    1    2    0    0 -0.35527136788E-14  0.71054273576E-14  0.96826833858E+03  0.10064321612E+04  0.27452161941E+03 0.  0.
         25    2    3    3    0    0 -0.19326735836E+02  0.44659768707E+02  0.37361104281E+03  0.39677300246E+03  0.12440091043E+03 0.  0.
         25    2    3    3    0    0  0.19326735836E+02 -0.44659768707E+02  0.59465729577E+03  0.60965915870E+03  0.12529554148E+03 0.  0.
          5    1    4    4  502    0 -0.12799984582E+02 -0.16417116992E+02  0.35684743449E+01  0.21637591011E+02  0.47000000000E+01 0.  1.
         -5    1    4    4    0  502 -0.65267512541E+01  0.61076885699E+02  0.37004256847E+03  0.37513541145E+03  0.47000000000E+01 0.  1.
          5    1    5    5  503    0  0.15060716945E+02  0.25372241367E+02  0.36865611433E+02  0.47452493436E+02  0.47000000000E+01 0. -1.
         -5    1    5    5    0  503  0.42660188911E+01 -0.70032010074E+02  0.55779168434E+03  0.56220666526E+03  0.47000000000E+01 0. -1.
<mgrwt>
<rscale>  0 0.27452162E+03</rscale>
<asrwt>0</asrwt>
<pdfrwt beam="1">  1        1 0.15190000E+00 0.27452162E+03</pdfrwt>
<pdfrwt beam="2">  1       -1 0.29356794E-02 0.27452162E+03</pdfrwt>
<totfact> 0.63619263E+03</totfact>
</mgrwt>
</event>
<event>
 9    1  0.8122655E-001  0.2736680E+03  0.7818608E-02  0.1099198E+00
         -1   -1    0    0    0  501 -0.00000000000E+00  0.00000000000E+00  0.23560458754E+02  0.23560458754E+02  0.00000000000E+00 0.  1.
          1   -1    0    0  501    0  0.00000000000E+00 -0.00000000000E+00 -0.79470181311E+03  0.79470181311E+03  0.00000000000E+00 0.  1.
         35    2    1    2    0    0  0.00000000000E+00  0.00000000000E+00 -0.77114135435E+03  0.81826227186E+03  0.27366796882E+03 0.  0.
         25    2    3    3    0    0  0.27319859989E+02  0.26482947145E+02 -0.51177042481E+03  0.52793856940E+03  0.12394532707E+03 0.  0.
         25    2    3    3    0    0 -0.27319859989E+02 -0.26482947145E+02 -0.25937092954E+03  0.29032370246E+03  0.12476719073E+03 0.  0.
          5    1    4    4  502    0 -0.25937729487E+02 -0.30318163628E+02 -0.83988209627E+02  0.93102450092E+02  0.47000000000E+01 0. -1.
         -5    1    4    4    0  502  0.53257589476E+02  0.56801110774E+02 -0.42778221519E+03  0.43483611931E+03  0.47000000000E+01 0. -1.
          5    1    5    5  503    0  0.32126076261E+02 -0.48836412525E+02 -0.74632140662E+02  0.94916417885E+02  0.47000000000E+01 0.  1.
         -5    1    5    5    0  503 -0.59445936250E+02  0.22353465380E+02 -0.18473878888E+03  0.19540728458E+03  0.47000000000E+01 0.  1.
<mgrwt>
<rscale>  0 0.27366797E+03</rscale>
<asrwt>0</asrwt>
<pdfrwt beam="1">  1        1 0.12226181E+00 0.27366797E+03</pdfrwt>
<pdfrwt beam="2">  1       -1 0.36246862E-02 0.27366797E+03</pdfrwt>
<totfact> 0.66170503E+03</totfact>
</mgrwt>
</event>
<event>
 9    1  0.8122655E-001  0.2737145E+03  0.7818608E-02  0.1099172E+00
         -2   -1    0    0    0  501 -0.00000000000E+00  0.00000000000E+00  0.41651747627E+03  0.41651747627E+03  0.00000000000E+00 0. -1.
          2   -1    0    0  501    0  0.00000000000E+00 -0.00000000000E+00 -0.44967870457E+02  0.44967870457E+02  0.00000000000E+00 0. -1.
         35    2    1    2    0    0  0.00000000000E+00  0.00000000000E+00  0.37154960582E+03  0.46148534673E+03  0.27371447836E+03 0.  0.
         25    2    3    3    0    0  0.49678807486E+01 -0.45512453393E+01  0.28736622762E+03  0.31182011060E+03  0.12085958350E+03 0.  0.
         25    2    3    3    0    0 -0.49678807486E+01  0.45512453393E+01  0.84183378195E+02  0.14966523613E+03  0.12356151532E+03 0.  0.
          5    1    4    4  502    0  0.47044717308E+02  0.36993791795E+02  0.17054168509E+03  0.18079906640E+03  0.47000000000E+01 0. -1.
         -5    1    4    4    0  502 -0.42076836560E+02 -0.41545037134E+02  0.11682454253E+03  0.13102104420E+03  0.47000000000E+01 0. -1.
          5    1    5    5  503    0  0.45876096032E+02  0.39943099754E+02  0.34302092759E+02  0.69991363558E+02  0.47000000000E+01 0.  1.
         -5    1    5    5    0  503 -0.50843976781E+02 -0.35391854415E+02  0.49881285436E+02  0.79673872572E+02  0.47000000000E+01 0.  1.
<mgrwt>
<rscale>  0 0.27371448E+03</rscale>
<asrwt>0</asrwt>
<pdfrwt beam="1">  1        2 0.69181342E-02 0.27371448E+03</pdfrwt>
<pdfrwt beam="2">  1       -2 0.64079609E-01 0.27371448E+03</pdfrwt>
<totfact> 0.23558353E+03</totfact>
</mgrwt>
</event>
<event>
 9    1  0.8122655E-001  0.2782421E+03  0.7818608E-02  0.1096653E+00
          1   -1    0    0  501    0  0.00000000000E+00  0.00000000000E+00  0.29834461280E+02  0.29834461280E+02  0.00000000000E+00 0.  1.
         -1   -1    0    0    0  501 -0.00000000000E+00 -0.00000000000E+00 -0.64873526157E+03  0.64873526157E+03  0.00000000000E+00 0.  1.
         35    2    1    2    0    0  0.00000000000E+00  0.00000000000E+00 -0.61890080030E+03  0.67856972285E+03  0.27824210352E+03 0.  0.
         25    2    3    3    0    0 -0.28079149329E+02 -0.31202480092E+02 -0.41556720617E+03  0.43588225907E+03  0.12464031267E+03 0.  0.
         25    2    3    3    0    0  0.28079149329E+02  0.31202480092E+02 -0.20333359413E+03  0.24268746378E+03  0.12566073843E+03 0.  0.
          5    1    4    4  502    0 -0.56362713065E+01 -0.38923172616E+02 -0.40886138380E+03  0.41077548866E+03  0.47000000000E+01 0. -1.
         -5    1    4    4    0  502 -0.22442878023E+02  0.77206925235E+01 -0.67058223653E+01  0.25106770413E+02  0.47000000000E+01 0. -1.
          5    1    5    5  503    0  0.59903823283E+01  0.36724715124E+02  0.52309697587E+00  0.37509372320E+02  0.47000000000E+01 0.  1.
         -5    1    5    5    0  503  0.22088767001E+02 -0.55222350318E+01 -0.20385669110E+03  0.20517809146E+03  0.47000000000E+01 0.  1.
<mgrwt>
<rscale>  0 0.27824210E+03</rscale>
<asrwt>0</asrwt>
<pdfrwt beam="1">  1        1 0.45899175E-02 0.27824210E+03</pdfrwt>
<pdfrwt beam="2">  1       -1 0.99805417E-01 0.27824210E+03</pdfrwt>
<totfact> 0.18975269E+03</totfact>
</mgrwt>
</event>
<event>
 9    1  0.8122655E-001  0.2761426E+03  0.7818608E-02  0.1097815E+00
          2   -1    0    0  501    0  0.00000000000E+00  0.00000000000E+00  0.11575245058E+04  0.11575245058E+04  0.00000000000E+00 0.  1.
         -2   -1    0    0    0  501 -0.00000000000E+00 -0.00000000000E+00 -0.16469356381E+02  0.16469356381E+02  0.00000000000E+00 0.  1.
         35    2    1    2    0    0  0.00000000000E+00 -0.17763568394E-14  0.11410551494E+04  0.11739938621E+04  0.27614259798E+03 0.  0.
         25    2    3    3    0    0 -0.39796207138E+01 -0.13854854874E+02  0.82664548685E+03  0.83620268635E+03  0.12523728420E+03 0.  0.
         25    2    3    3    0    0  0.39796207138E+01  0.13854854874E+02  0.31440966252E+03  0.33779117578E+03  0.12264439719E+03 0.  0.
          5    1    4    4  502    0  0.55454039442E+02 -0.27218807503E+02  0.32519255264E+03  0.33104123651E+03  0.47000000000E+01 0.  1.
         -5    1    4    4    0  502 -0.59433660156E+02  0.13363952629E+02  0.50145293420E+03  0.50516144985E+03  0.47000000000E+01 0.  1.
          5    1    5    5  503    0  0.34547911218E+02 -0.44032191400E+02  0.11753087632E+03  0.13026123344E+03  0.47000000000E+01 0. -1.
         -5    1    5    5    0  503 -0.30568290505E+02  0.57887046274E+02  0.19687878620E+03  0.20752994234E+03  0.47000000000E+01 0. -1.
<mgrwt>
<rscale>  0 0.27614260E+03</rscale>
<asrwt>0</asrwt>
<pdfrwt beam="1">  1        2 0.17808063E+00 0.27614260E+03</pdfrwt>
<pdfrwt beam="2">  1       -2 0.25337480E-02 0.27614260E+03</pdfrwt>
<totfact> 0.11500054E+04</totfact>
</mgrwt>
</event>
<event>
 9    1  0.8122655E-001  0.2771150E+03  0.7818608E-02  0.1097275E+00
          2   -1    0    0  501    0  0.00000000000E+00  0.00000000000E+00  0.48517575188E+03  0.48517575188E+03  0.00000000000E+00 0.  1.
         -2   -1    0    0    0  501 -0.00000000000E+00 -0.00000000000E+00 -0.39569543484E+02  0.39569543484E+02  0.00000000000E+00 0.  1.
         35    2    1    2    0    0 -0.71054273576E-14  0.00000000000E+00  0.44560620839E+03  0.52474529536E+03  0.27711501592E+03 0.  0.
         25    2    3    3    0    0  0.53453111043E+02  0.61247786563E+01  0.17446617433E+03  0.22142518054E+03  0.12528334527E+03 0.  0.
         25    2    3    3    0    0 -0.53453111043E+02 -0.61247786563E+01  0.27114003407E+03  0.30332011482E+03  0.12486563172E+03 0.  0.
          5    1    4    4  502    0  0.62723726839E+02 -0.16445946077E+02  0.24599344142E+02  0.69512249159E+02  0.47000000000E+01 0.  1.
         -5    1    4    4    0  502 -0.92706157967E+01  0.22570724733E+02  0.14986683018E+03  0.15191293138E+03  0.47000000000E+01 0.  1.
          5    1    5    5  503    0  0.18667964801E+02  0.14453154356E+02  0.23079225176E+01  0.24182702227E+02  0.47000000000E+01 0.  1.
         -5    1    5    5    0  503 -0.72121075844E+02 -0.20577933013E+02  0.26883211155E+03  0.27913741259E+03  0.47000000000E+01 0.  1.
<mgrwt>
<rscale>  0 0.27711502E+03</rscale>
<asrwt>0</asrwt>
<pdfrwt beam="1">  1        2 0.74642419E-01 0.27711502E+03</pdfrwt>
<pdfrwt beam="2">  1       -2 0.60876224E-02 0.27711502E+03</pdfrwt>
<totfact> 0.92702107E+03</totfact>
</mgrwt>
</event>
<event>
 9    1  0.8122655E-001  0.2666324E+03  0.7818608E-02  0.1103223E+00
          1   -1    0    0  501    0  0.00000000000E+00  0.00000000000E+00  0.92326841070E+03  0.92326841070E+03  0.00000000000E+00 0. -1.
         -1   -1    0    0    0  501 -0.00000000000E+00 -0.00000000000E+00 -0.19250313600E+02  0.19250313600E+02  0.00000000000E+00 0. -1.
         35    2    1    2    0    0  0.00000000000E+00 -0.71054273576E-14  0.90401809710E+03  0.94251872430E+03  0.26663237945E+03 0.  0.
         25    2    3    3    0    0 -0.23669572827E-01  0.48299870843E+02  0.43523533903E+03  0.45495101850E+03  0.12336024808E+03 0.  0.
         25    2    3    3    0    0  0.23669572827E-01 -0.48299870843E+02  0.46878275807E+03  0.48756770580E+03  0.12502845835E+03 0.  0.
          5    1    4    4  502    0 -0.57896097255E+02  0.13579589458E+02  0.26782702753E+03  0.27438981396E+03  0.47000000000E+01 0. -1.
         -5    1    4    4    0  502  0.57872427682E+02  0.34720281385E+02  0.16740831150E+03  0.18056120454E+03  0.47000000000E+01 0. -1.
          5    1    5    5  503    0  0.30085159045E+02 -0.80601580689E+02  0.35812097788E+03  0.36834013683E+03  0.47000000000E+01 0. -1.
         -5    1    5    5    0  503 -0.30061489472E+02  0.32301709845E+02  0.11066178019E+03  0.11922756897E+03  0.47000000000E+01 0. -1.
<mgrwt>
<rscale>  0 0.26663238E+03</rscale>
<asrwt>0</asrwt>
<pdfrwt beam="1">  1        1 0.14204126E+00 0.26663238E+03</pdfrwt>
<pdfrwt beam="2">  1       -1 0.29615874E-02 0.26663238E+03</pdfrwt>
<totfact> 0.70242716E+03</totfact>
</mgrwt>
</event>
<event>
 9    1  0.8122655E-001  0.2727915E+03  0.7818608E-02  0.1099692E+00
          2   -1    0    0  501    0  0.00000000000E+00  0.00000000000E+00  0.74332915628E+02  0.74332915628E+02  0.00000000000E+00 0. -1.
         -2   -1    0    0    0  501 -0.00000000000E+00 -0.00000000000E+00 -0.25027677929E+03  0.25027677929E+03  0.00000000000E+00 0. -1.
         35    2    1    2    0    0 -0.35527136788E-14  0.35527136788E-14 -0.17594386366E+03  0.32460969492E+03  0.27279151540E+03 0.  0.
         25    2    3    3    0    0  0.14506648327E+01  0.24956200888E+02 -0.30933943660E+02  0.13142511748E+03  0.12526266899E+03 0.  0.
         25    2    3    3    0    0 -0.14506648327E+01 -0.24956200888E+02 -0.14500992000E+03  0.19318457744E+03  0.12516983530E+03 0.  0.
          5    1    4    4  502    0 -0.28492649480E+02  0.52165537672E+02  0.22940667182E+02  0.63886137822E+02  0.47000000000E+01 0.  1.
         -5    1    4    4    0  502  0.29943314313E+02 -0.27209336784E+02 -0.53874610842E+02  0.67538979661E+02  0.47000000000E+01 0.  1.
          5    1    5    5  503    0 -0.53561154050E+02 -0.28219191810E+02 -0.32070129716E+02  0.68670978074E+02  0.47000000000E+01 0.  1.
         -5    1    5    5    0  503  0.52110489218E+02  0.32629909225E+01 -0.11293979029E+03  0.12451359936E+03  0.47000000000E+01 0.  1.
<mgrwt>
<rscale>  0 0.27279152E+03</rscale>
<asrwt>0</asrwt>
<pdfrwt beam="1">  1        2 0.11435833E-01 0.27279152E+03</pdfrwt>
<pdfrwt beam="2">  1       -2 0.38504120E-01 0.27279152E+03</pdfrwt>
<totfact> 0.34580722E+03</totfact>
</mgrwt>
</event>
<event>
 9    1  0.8122655E-001  0.2695164E+03  0.7818608E-02  0.1101557E+00
         -4   -1    0    0    0  501 -0.00000000000E+00  0.00000000000E+00  0.20200881293E+04  0.20200881293E+04  0.00000000000E+00 0.  1.
          4   -1    0    0  501    0  0.00000000000E+00 -0.00000000000E+00 -0.89895911920E+01  0.89895911920E+01  0.00000000000E+00 0.  1.
         35    2    1    2    0    0 -0.35527136788E-14 -0.14210854715E-13  0.20110985381E+04  0.20290777205E+04  0.26951635538E+03 0.  0.
         25    2    3    3    0    0 -0.22065229698E+02 -0.40839490652E+02  0.86717089352E+03  0.87735751686E+03  0.12496445681E+03 0.  0.
         25    2    3    3    0    0  0.22065229698E+02  0.40839490652E+02  0.11439276446E+04  0.11517202037E+04  0.12543617119E+03 0.  0.
          5    1    4    4  502    0 -0.58722930519E+02  0.96970098117E+01  0.25049766736E+03  0.25751424412E+03  0.47000000000E+01 0. -1.
         -5    1    4    4    0  502  0.36657700821E+02 -0.50536500464E+02  0.61667322615E+03  0.61984327274E+03  0.47000000000E+01 0. -1.
          5    1    5    5  503    0  0.40534696497E+02  0.28110430505E+02  0.11079857343E+04  0.11090932041E+04  0.47000000000E+01 0.  1.
         -5    1    5    5    0  503 -0.18469466799E+02  0.12729060147E+02  0.35941910319E+02  0.42626999583E+02  0.47000000000E+01 0.  1.
<mgrwt>
<rscale>  0 0.26951636E+03</rscale>
<asrwt>0</asrwt>
<pdfrwt beam="1">  1        4 0.13830156E-02 0.26951636E+03</pdfrwt>
<pdfrwt beam="2">  1       -4 0.31078243E+00 0.26951636E+03</pdfrwt>
<totfact> 0.10478903E+02</totfact>
</mgrwt>
</event>
<event>
 9    1  0.8122655E-001  0.2756671E+03  0.7818608E-02  0.1098079E+00
         -2   -1    0    0    0  501 -0.00000000000E+00  0.00000000000E+00  0.98370033864E+01  0.98370033864E+01  0.00000000000E+00 0. -1.
          2   -1    0    0  501    0  0.00000000000E+00 -0.00000000000E+00 -0.19312875173E+04  0.19312875173E+04  0.00000000000E+00 0. -1.
         35    2    1    2    0    0  0.35527136788E-14  0.00000000000E+00 -0.19214505139E+04  0.19411245207E+04  0.27566705895E+03 0.  0.
         25    2    3    3    0    0 -0.27861300175E+02 -0.86943016674E+00 -0.13270460715E+04  0.13330949095E+04  0.12374875393E+03 0.  0.
         25    2    3    3    0    0  0.27861300175E+02  0.86943016674E+00 -0.59440444246E+03  0.60802961116E+03  0.12492541323E+03 0.  0.
          5    1    4    4  502    0  0.23131112981E+02 -0.50190104524E+02 -0.53733870628E+03  0.54019354888E+03  0.47000000000E+01 0.  1.
         -5    1    4    4    0  502 -0.50992413156E+02  0.49320674357E+02 -0.78970736518E+03  0.79290136066E+03  0.47000000000E+01 0.  1.
          5    1    5    5  503    0  0.51995144818E+02  0.50369075547E+02 -0.32111775757E+03  0.32921002883E+03  0.47000000000E+01 0. -1.
         -5    1    5    5    0  503 -0.24133844643E+02 -0.49499645380E+02 -0.27328668489E+03  0.27881958232E+03  0.47000000000E+01 0. -1.
<mgrwt>
<rscale>  0 0.27566706E+03</rscale>
<asrwt>0</asrwt>
<pdfrwt beam="1">  1        2 0.29712129E+00 0.27566706E+03</pdfrwt>
<pdfrwt beam="2">  1       -2 0.15133844E-02 0.27566706E+03</pdfrwt>
<totfact> 0.94030473E+03</totfact>
</mgrwt>
</event>
<event>
 9    1  0.8122655E-001  0.2768147E+03  0.7818608E-02  0.1097441E+00
         -4   -1    0    0    0  501 -0.00000000000E+00  0.00000000000E+00  0.75604093728E+03  0.75604093728E+03  0.00000000000E+00 0.  1.
          4   -1    0    0  501    0  0.00000000000E+00 -0.00000000000E+00 -0.25338043629E+02  0.25338043629E+02  0.00000000000E+00 0.  1.
         35    2    1    2    0    0  0.71054273576E-14 -0.35527136788E-14  0.73070289365E+03  0.78137898091E+03  0.27681472688E+03 0.  0.
         25    2    3    3    0    0  0.42553203534E+02  0.73674671517E+01  0.47657116221E+03  0.49477739942E+03  0.12577578313E+03 0.  0.
         25    2    3    3    0    0 -0.42553203534E+02 -0.73674671517E+01  0.25413173144E+03  0.28660158149E+03  0.12526960878E+03 0.  0.
          5    1    4    4  502    0 -0.30960669362E+02 -0.20573874940E+01  0.31946726083E+03  0.32100501030E+03  0.47000000000E+01 0. -1.
         -5    1    4    4    0  502  0.73513872896E+02  0.94248546457E+01  0.15710390138E+03  0.17377238912E+03  0.47000000000E+01 0. -1.
          5    1    5    5  503    0 -0.29790710768E+02 -0.44913500216E+02  0.23708976886E+03  0.24318379356E+03  0.47000000000E+01 0.  1.
         -5    1    5    5    0  503 -0.12762492765E+02  0.37546033064E+02  0.17041962575E+02  0.43417787931E+02  0.47000000000E+01 0.  1.
<mgrwt>
<rscale>  0 0.27681473E+03</rscale>
<asrwt>0</asrwt>
<pdfrwt beam="1">  1        4 0.38981611E-02 0.27681473E+03</pdfrwt>
<pdfrwt beam="2">  1       -4 0.11631397E+00 0.27681473E+03</pdfrwt>
<totfact> 0.39814818E+02</totfact>
</mgrwt>
</event>
<event>
 9    1  0.8122655E-001  0.2608441E+03  0.7818608E-02  0.1106637E+00
          1   -1    0    0  501    0  0.00000000000E+00  0.00000000000E+00  0.89323157896E+03  0.89323157896E+03  0.00000000000E+00 0. -1.
         -1   -1    0    0    0  501 -0.00000000000E+00 -0.00000000000E+00 -0.19043113778E+02  0.19043113778E+02  0.00000000000E+00 0. -1.
         35    2    1    2    0    0 -0.71054273576E-14  0.71054273576E-14  0.87418846518E+03  0.91227469273E+03  0.26084409587E+03 0.  0.
         25    2    3    3    0    0 -0.66466837079E+01  0.12087996757E+02  0.56545987260E+03  0.57877421928E+03  0.12265574308E+03 0.  0.
         25    2    3    3    0    0  0.66466837079E+01 -0.12087996757E+02  0.30872859258E+03  0.33350047345E+03  0.12537513250E+03 0.  0.
          5    1    4    4  502    0 -0.32136448414E+02  0.43969745456E+02  0.12535470506E+03  0.13675518972E+03  0.47000000000E+01 0. -1.
         -5    1    4    4    0  502  0.25489764706E+02 -0.31881748699E+02  0.44010516754E+03  0.44201902956E+03  0.47000000000E+01 0. -1.
          5    1    5    5  503    0 -0.17542001343E+02 -0.49178311943E+02  0.26824288744E+03  0.27331769946E+03  0.47000000000E+01 0.  1.
         -5    1    5    5    0  503  0.24188685050E+02  0.37090315186E+02  0.40485705138E+02  0.60182773994E+02  0.47000000000E+01 0.  1.
<mgrwt>
<rscale>  0 0.26084410E+03</rscale>
<asrwt>0</asrwt>
<pdfrwt beam="1">  1        1 0.13742021E+00 0.26084410E+03</pdfrwt>
<pdfrwt beam="2">  1       -1 0.29297105E-02 0.26084410E+03</pdfrwt>
<totfact> 0.75290572E+03</totfact>
</mgrwt>
</event>
<event>
 9    1  0.8122655E-001  0.2766182E+03  0.7818608E-02  0.1097550E+00
         -1   -1    0    0    0  501 -0.00000000000E+00  0.00000000000E+00  0.24435107507E+02  0.24435107507E+02  0.00000000000E+00 0. -1.
          1   -1    0    0  501    0  0.00000000000E+00 -0.00000000000E+00 -0.78286595141E+03  0.78286595141E+03  0.00000000000E+00 0. -1.
         35    2    1    2    0    0  0.00000000000E+00  0.71054273576E-14 -0.75843084391E+03  0.80730105892E+03  0.27661824731E+03 0.  0.
         25    2    3    3    0    0  0.30237230074E+02  0.35471834745E+02 -0.38349442088E+03  0.40597544541E+03  0.12480204442E+03 0.  0.
         25    2    3    3    0    0 -0.30237230074E+02 -0.35471834745E+02 -0.37493642303E+03  0.40132561351E+03  0.13532326333E+03 0.  0.
          5    1    4    4  502    0 -0.36286248724E+01  0.75406478103E+02 -0.16938744593E+03  0.18550876178E+03  0.47000000000E+01 0. -1.
         -5    1    4    4    0  502  0.33865854946E+02 -0.39934643358E+02 -0.21410697495E+03  0.22046668363E+03  0.47000000000E+01 0. -1.
          5    1    5    5  503    0  0.43081513111E+02  0.16041592949E+02 -0.73520110061E+02  0.86836893425E+02  0.47000000000E+01 0. -1.
         -5    1    5    5    0  503 -0.73318743185E+02 -0.51513427694E+02 -0.30141631297E+03  0.31448872008E+03  0.47000000000E+01 0. -1.
<mgrwt>
<rscale>  0 0.27661825E+03</rscale>
<asrwt>0</asrwt>
<pdfrwt beam="1">  1        1 0.12044092E+00 0.27661825E+03</pdfrwt>
<pdfrwt beam="2">  1       -1 0.37592472E-02 0.27661825E+03</pdfrwt>
<totfact> 0.64160933E+03</totfact>
</mgrwt>
</event>
<event>
 9    1  0.8122655E-001  0.2762282E+03  0.7818608E-02  0.1097767E+00
          1   -1    0    0  501    0  0.00000000000E+00  0.00000000000E+00  0.57141362486E+03  0.57141362486E+03  0.00000000000E+00 0. -1.
         -1   -1    0    0    0  501 -0.00000000000E+00 -0.00000000000E+00 -0.33383010791E+02  0.33383010791E+02  0.00000000000E+00 0. -1.
         35    2    1    2    0    0 -0.71054273576E-14  0.00000000000E+00  0.53803061407E+03  0.60479663565E+03  0.27622821872E+03 0.  0.
         25    2    3    3    0    0  0.28448334186E+02 -0.30103714067E+02  0.36343429640E+03  0.38643507718E+03  0.12462760432E+03 0.  0.
         25    2    3    3    0    0 -0.28448334186E+02  0.30103714067E+02  0.17459631766E+03  0.21836155846E+03  0.12442811078E+03 0.  0.
          5    1    4    4  502    0 -0.47597081907E+01  0.53947051222E+01  0.32277229000E+03  0.32288666566E+03  0.47000000000E+01 0.  1.
         -5    1    4    4    0  502  0.33208042376E+02 -0.35498419189E+02  0.40662006400E+02  0.63548411529E+02  0.47000000000E+01 0.  1.
          5    1    5    5  503    0 -0.76116782378E+02  0.49103148355E+01  0.11235528977E+03  0.13588111307E+03  0.47000000000E+01 0. -1.
         -5    1    5    5    0  503  0.47668448192E+02  0.25193399232E+02  0.62241027898E+02  0.82480445390E+02  0.47000000000E+01 0. -1.
<mgrwt>
<rscale>  0 0.27622822E+03</rscale>
<asrwt>0</asrwt>
<pdfrwt beam="1">  1        1 0.87909782E-01 0.27622822E+03</pdfrwt>
<pdfrwt beam="2">  1       -1 0.51358482E-02 0.27622822E+03</pdfrwt>
<totfact> 0.63393018E+03</totfact>
</mgrwt>
</event>
<event>
 9    1  0.8122655E-001  0.2657345E+03  0.7818608E-02  0.1103746E+00
         -2   -1    0    0    0  501 -0.00000000000E+00  0.00000000000E+00  0.56690417266E+01  0.56690417266E+01  0.00000000000E+00 0. -1.
          2   -1    0    0  501    0  0.00000000000E+00 -0.00000000000E+00 -0.31140558724E+04  0.31140558724E+04  0.00000000000E+00 0. -1.
         35    2    1    2    0    0  0.44408920985E-14  0.35527136788E-14 -0.31083868307E+04  0.31197249142E+04  0.26573454935E+03 0.  0.
         25    2    3    3    0    0  0.24554602753E+01  0.25722822629E+02 -0.11799045765E+04  0.11870044055E+04  0.12703131933E+03 0.  0.
         25    2    3    3    0    0 -0.24554602753E+01 -0.25722822629E+02 -0.19284822542E+04  0.19327205086E+04  0.12528793637E+03 0.  0.
          5    1    4    4  502    0 -0.47536058163E+01  0.38275162885E+00  0.99893144007E-01  0.66965099646E+01  0.47000000000E+01 0. -1.
         -5    1    4    4    0  502  0.72090660916E+01  0.25340071000E+02 -0.11800044697E+04  0.11803078955E+04  0.47000000000E+01 0. -1.
          5    1    5    5  503    0 -0.58523094600E+02  0.12052635528E+02 -0.84877802521E+03  0.85089155872E+03  0.47000000000E+01 0.  1.
         -5    1    5    5    0  503  0.56067634324E+02 -0.37775458156E+02 -0.10797042290E+04  0.10818289499E+04  0.47000000000E+01 0.  1.
<mgrwt>
<rscale>  0 0.26573455E+03</rscale>
<asrwt>0</asrwt>
<pdfrwt beam="1">  1        2 0.47908469E+00 0.26573455E+03</pdfrwt>
<pdfrwt beam="2">  1       -2 0.87216178E-03 0.26573455E+03</pdfrwt>
<totfact> 0.46323195E+03</totfact>
</mgrwt>
</event>
<event>
 9    1  0.8122655E-001  0.2739548E+03  0.7818608E-02  0.1099037E+00
         -2   -1    0    0    0  501 -0.00000000000E+00  0.00000000000E+00  0.26915190339E+02  0.26915190339E+02  0.00000000000E+00 0. -1.
          2   -1    0    0  501    0  0.00000000000E+00 -0.00000000000E+00 -0.69710830058E+03  0.69710830058E+03  0.00000000000E+00 0. -1.
         35    2    1    2    0    0 -0.35527136788E-14  0.00000000000E+00 -0.67019311024E+03  0.72402349092E+03  0.27395475975E+03 0.  0.
         25    2    3    3    0    0  0.12706248085E+02 -0.23440397317E+02 -0.20497176221E+03  0.24150779186E+03  0.12490672223E+03 0.  0.
         25    2    3    3    0    0 -0.12706248085E+02  0.23440397317E+02 -0.46522134803E+03  0.48251569906E+03  0.12521819441E+03 0.  0.
          5    1    4    4  502    0 -0.37105244525E+02  0.34539104293E+02 -0.74857211827E+02  0.90528675342E+02  0.47000000000E+01 0. -1.
         -5    1    4    4    0  502  0.49811492609E+02 -0.57979501609E+02 -0.13011455038E+03  0.15097911652E+03  0.47000000000E+01 0. -1.
          5    1    5    5  503    0 -0.75825571289E+00  0.73290869509E+02 -0.21954767107E+03  0.23150679553E+03  0.47000000000E+01 0.  1.
         -5    1    5    5    0  503 -0.11947992372E+02 -0.49850472193E+02 -0.24567367697E+03  0.25100890354E+03  0.47000000000E+01 0.  1.
<mgrwt>
<rscale>  0 0.27395476E+03</rscale>
<asrwt>0</asrwt>
<pdfrwt beam="1">  1        2 0.10724744E+00 0.27395476E+03</pdfrwt>
<pdfrwt beam="2">  1       -2 0.41407981E-02 0.27395476E+03</pdfrwt>
<totfact> 0.10948679E+04</totfact>
</mgrwt>
</event>
<event>
 9    1  0.8122655E-001  0.2791833E+03  0.7818608E-02  0.1096136E+00
         -1   -1    0    0    0  501 -0.00000000000E+00  0.00000000000E+00  0.60554647785E+02  0.60554647785E+02  0.00000000000E+00 0. -1.
          1   -1    0    0  501    0  0.00000000000E+00 -0.00000000000E+00 -0.32178925085E+03  0.32178925085E+03  0.00000000000E+00 0. -1.
         35    2    1    2    0    0  0.71054273576E-14  0.35527136788E-14 -0.26123460307E+03  0.38234389864E+03  0.27918334296E+03 0.  0.
         25    2    3    3    0    0 -0.54343452979E+02 -0.27446215841E+02 -0.14622823031E+03  0.20181153453E+03  0.12505476594E+03 0.  0.
         25    2    3    3    0    0  0.54343452979E+02  0.27446215841E+02 -0.11500637276E+03  0.18053236411E+03  0.12513577854E+03 0.  0.
          5    1    4    4  502    0 -0.90818815595E+02 -0.21896696225E+02 -0.13244624722E+03  0.16214691170E+03  0.47000000000E+01 0.  1.
         -5    1    4    4    0  502  0.36475362616E+02 -0.55495196160E+01 -0.13781983088E+02  0.39664622824E+02  0.47000000000E+01 0.  1.
          5    1    5    5  503    0  0.66763658737E+02 -0.34755998562E+02 -0.66421724510E+02  0.10049527875E+03  0.47000000000E+01 0.  1.
         -5    1    5    5    0  503 -0.12420205758E+02  0.62202214403E+02 -0.48584648248E+02  0.80037085361E+02  0.47000000000E+01 0.  1.
<mgrwt>
<rscale>  0 0.27918334E+03</rscale>
<asrwt>0</asrwt>
<pdfrwt beam="1">  1        1 0.49506038E-01 0.27918334E+03</pdfrwt>
<pdfrwt beam="2">  1       -1 0.93160997E-02 0.27918334E+03</pdfrwt>
<totfact> 0.54224718E+03</totfact>
</mgrwt>
</event>
<event>
 9    1  0.8122655E-001  0.2739635E+03  0.7818608E-02  0.1099032E+00
         -2   -1    0    0    0  501 -0.00000000000E+00  0.00000000000E+00  0.72971278710E+02  0.72971278710E+02  0.00000000000E+00 0. -1.
          2   -1    0    0  501    0  0.00000000000E+00 -0.00000000000E+00 -0.25714233333E+03  0.25714233333E+03  0.00000000000E+00 0. -1.
         35    2    1    2    0    0 -0.14210854715E-13 -0.35527136788E-14 -0.18417105462E+03  0.33011361204E+03  0.27396353680E+03 0.  0.
         25    2    3    3    0    0  0.54007548764E+02 -0.20496332941E+02 -0.79131812790E+02  0.15799193148E+03  0.12394632560E+03 0.  0.
         25    2    3    3    0    0 -0.54007548764E+02  0.20496332941E+02 -0.10503924183E+03  0.17212168056E+03  0.12351403000E+03 0.  0.
          5    1    4    4  502    0  0.21896470146E+02 -0.40790754565E+02  0.20806887936E+02  0.50974088009E+02  0.47000000000E+01 0. -1.
         -5    1    4    4    0  502  0.32111078618E+02  0.20294421624E+02 -0.99938700726E+02  0.10701784347E+03  0.47000000000E+01 0. -1.
          5    1    5    5  503    0 -0.81014732004E+02  0.48232385313E+02 -0.57114687959E+02  0.11033552182E+03  0.47000000000E+01 0. -1.
         -5    1    5    5    0  503  0.27007183241E+02 -0.27736052372E+02 -0.47924553876E+02  0.61786158741E+02  0.47000000000E+01 0. -1.
<mgrwt>
<rscale>  0 0.27396354E+03</rscale>
<asrwt>0</asrwt>
<pdfrwt beam="1">  1        2 0.39560360E-01 0.27396354E+03</pdfrwt>
<pdfrwt beam="2">  1       -2 0.11226350E-01 0.27396354E+03</pdfrwt>
<totfact> 0.70681494E+03</totfact>
</mgrwt>
</event>
<event>
 9    1  0.8122655E-001  0.2758940E+03  0.7818608E-02  0.1097953E+00
          2   -1    0    0  501    0  0.00000000000E+00  0.00000000000E+00  0.21058541324E+04  0.21058541324E+04  0.00000000000E+00 0. -1.
         -2   -1    0    0    0  501 -0.00000000000E+00 -0.00000000000E+00 -0.90364147265E+01  0.90364147265E+01  0.00000000000E+00 0. -1.
         35    2    1    2    0    0  0.14210854715E-13  0.71054273576E-14  0.20968177177E+04  0.21148905471E+04  0.27589397452E+03 0.  0.
         25    2    3    3    0    0  0.35813805141E+02 -0.81667750855E+01  0.13791995072E+04  0.13855195728E+04  0.12697984518E+03 0.  0.
         25    2    3    3    0    0 -0.35813805141E+02  0.81667750855E+01  0.71761821043E+03  0.72937097429E+03  0.12512712472E+03 0.  0.
          5    1    4    4  502    0 -0.36391619207E+00 -0.46786228195E+02  0.21381213526E+03  0.21892191021E+03  0.47000000000E+01 0.  1.
         -5    1    4    4    0  502  0.36177721333E+02  0.38619453109E+02  0.11653873720E+04  0.11665976626E+04  0.47000000000E+01 0.  1.
          5    1    5    5  503    0 -0.41388895405E+01  0.63741364996E+02  0.42555594437E+03  0.43034874673E+03  0.47000000000E+01 0.  1.
         -5    1    5    5    0  503 -0.31674915600E+02 -0.55574589910E+02  0.29206226605E+03  0.29902222756E+03  0.47000000000E+01 0.  1.
<mgrwt>
<rscale>  0 0.27589397E+03</rscale>
<asrwt>0</asrwt>
<pdfrwt beam="1">  1        2 0.32397717E+00 0.27589397E+03</pdfrwt>
<pdfrwt beam="2">  1       -2 0.13902193E-02 0.27589397E+03</pdfrwt>
<totfact> 0.86145195E+03</totfact>
</mgrwt>
</event>
<event>
 9    1  0.8122655E-001  0.2761597E+03  0.7818608E-02  0.1097805E+00
          3   -1    0    0  501    0  0.00000000000E+00  0.00000000000E+00  0.14934856143E+04  0.14934856143E+04  0.00000000000E+00 0. -1.
         -3   -1    0    0    0  501 -0.00000000000E+00 -0.00000000000E+00 -0.12766140165E+02  0.12766140165E+02  0.00000000000E+00 0. -1.
         35    2    1    2    0    0  0.71054273576E-14  0.00000000000E+00  0.14807194742E+04  0.15062517545E+04  0.27615971239E+03 0.  0.
         25    2    3    3    0    0  0.51129208649E+02 -0.27316494348E+01  0.57128517206E+03  0.58701806346E+03  0.12490717006E+03 0.  0.
         25    2    3    3    0    0 -0.51129208649E+02  0.27316494348E+01  0.90943430211E+03  0.91923369103E+03  0.12368577523E+03 0.  0.
          5    1    4    4  502    0  0.37049572140E+02 -0.57741368985E+02  0.20250560161E+03  0.21386291210E+03  0.47000000000E+01 0. -1.
         -5    1    4    4    0  502  0.14079636509E+02  0.55009719550E+02  0.36877957045E+03  0.37315515136E+03  0.47000000000E+01 0. -1.
          5    1    5    5  503    0 -0.10013849570E+02 -0.10679573548E+02  0.91367801462E+01  0.17885782785E+02  0.47000000000E+01 0. -1.
         -5    1    5    5    0  503 -0.41115359079E+02  0.13411222983E+02  0.90029752196E+03  0.90134790825E+03  0.47000000000E+01 0. -1.
<mgrwt>
<rscale>  0 0.27615971E+03</rscale>
<asrwt>0</asrwt>
<pdfrwt beam="1">  1        3 0.22976688E+00 0.27615971E+03</pdfrwt>
<pdfrwt beam="2">  1       -3 0.19640227E-02 0.27615971E+03</pdfrwt>
<totfact> 0.26646596E+02</totfact>
</mgrwt>
</event>
<event>
 9    1  0.8122655E-001  0.2776273E+03  0.7818608E-02  0.1096992E+00
         -3   -1    0    0    0  501 -0.00000000000E+00  0.00000000000E+00  0.10790233444E+03  0.10790233444E+03  0.00000000000E+00 0.  1.
          3   -1    0    0  501    0  0.00000000000E+00 -0.00000000000E+00 -0.17858033636E+03  0.17858033636E+03  0.00000000000E+00 0.  1.
         35    2    1    2    0    0  0.14210854715E-13 -0.35527136788E-14 -0.70678001919E+02  0.28648267080E+03  0.27762734143E+03 0.  0.
         25    2    3    3    0    0  0.48755081675E+02  0.30971464356E+02 -0.46081347577E+02  0.14511586339E+03  0.12489529063E+03 0.  0.
         25    2    3    3    0    0 -0.48755081675E+02 -0.30971464356E+02 -0.24596654342E+02  0.14136680740E+03  0.12666210655E+03 0.  0.
          5    1    4    4  502    0  0.58954933162E+02 -0.19605099942E+02 -0.64926349426E+02  0.89986470859E+02  0.47000000000E+01 0. -1.
         -5    1    4    4    0  502 -0.10199851486E+02  0.50576564299E+02  0.18845001849E+02  0.55129392535E+02  0.47000000000E+01 0. -1.
          5    1    5    5  503    0 -0.29479299941E+02 -0.80329462910E+02 -0.10524817140E+02  0.86340682834E+02  0.47000000000E+01 0. -1.
         -5    1    5    5    0  503 -0.19275781734E+02  0.49357998553E+02 -0.14071837202E+02  0.55026124567E+02  0.47000000000E+01 0. -1.
<mgrwt>
<rscale>  0 0.27762734E+03</rscale>
<asrwt>0</asrwt>
<pdfrwt beam="1">  1        3 0.27473898E-01 0.27762734E+03</pdfrwt>
<pdfrwt beam="2">  1       -3 0.16600359E-01 0.27762734E+03</pdfrwt>
<totfact> 0.10019241E+03</totfact>
</mgrwt>
</event>
<event>
 9    1  0.8122655E-001  0.2754594E+03  0.7818608E-02  0.1098195E+00
          3   -1    0    0  501    0  0.00000000000E+00  0.00000000000E+00  0.15051602670E+03  0.15051602670E+03  0.00000000000E+00 0. -1.
         -3   -1    0    0    0  501 -0.00000000000E+00 -0.00000000000E+00 -0.12602954734E+03  0.12602954734E+03  0.00000000000E+00 0. -1.
         35    2    1    2    0    0  0.35527136788E-14  0.71054273576E-14  0.24486479358E+02  0.27654557405E+03  0.27545937423E+03 0.  0.
         25    2    3    3    0    0  0.14371296171E+01 -0.45794305200E+02 -0.17065076396E+02  0.13671084123E+03  0.12766931326E+03 0.  0.
         25    2    3    3    0    0 -0.14371296171E+01  0.45794305200E+02  0.41551555753E+02  0.13983473281E+03  0.12541147071E+03 0.  0.
          5    1    4    4  502    0 -0.60420147099E+02 -0.11136566929E+02  0.62252341738E+01  0.61931097511E+02  0.47000000000E+01 0.  1.
         -5    1    4    4    0  502  0.61857276716E+02 -0.34657738270E+02 -0.23290310570E+02  0.74779743722E+02  0.47000000000E+01 0.  1.
          5    1    5    5  503    0  0.58773315728E+01 -0.26634210963E+02 -0.27766392619E+02  0.39204422953E+02  0.47000000000E+01 0.  1.
         -5    1    5    5    0  503 -0.73144611899E+01  0.72428516162E+02  0.69317948372E+02  0.10063030986E+03  0.47000000000E+01 0.  1.
<mgrwt>
<rscale>  0 0.27545937E+03</rscale>
<asrwt>0</asrwt>
<pdfrwt beam="1">  1        3 0.23156312E-01 0.27545937E+03</pdfrwt>
<pdfrwt beam="2">  1       -3 0.19389161E-01 0.27545937E+03</pdfrwt>
<totfact> 0.10412139E+03</totfact>
</mgrwt>
</event>
<event>
 9    1  0.8122655E-001  0.2749316E+03  0.7818608E-02  0.1098490E+00
         -2   -1    0    0    0  501 -0.00000000000E+00  0.00000000000E+00  0.83216725580E+02  0.83216725580E+02  0.00000000000E+00 0.  1.
          2   -1    0    0  501    0  0.00000000000E+00 -0.00000000000E+00 -0.22707988005E+03  0.22707988005E+03  0.00000000000E+00 0.  1.
         35    2    1    2    0    0 -0.35527136788E-14 -0.71054273576E-14 -0.14386315447E+03  0.31029660563E+03  0.27493158467E+03 0.  0.
         25    2    3    3    0    0  0.31924059717E+02 -0.26909340877E+02 -0.11681466567E+03  0.17587554597E+03  0.12467270488E+03 0.  0.
         25    2    3    3    0    0 -0.31924059717E+02  0.26909340877E+02 -0.27048488805E+02  0.13442105966E+03  0.12487650827E+03 0.  0.
          5    1    4    4  502    0  0.45551600984E+02  0.40700366046E+02 -0.43701464124E+02  0.75255405886E+02  0.47000000000E+01 0. -1.
         -5    1    4    4    0  502 -0.13627541268E+02 -0.67609706923E+02 -0.73113201541E+02  0.10062014009E+03  0.47000000000E+01 0. -1.
          5    1    5    5  503    0  0.32950625438E+01  0.40206446995E+02 -0.67617343399E+02  0.78877189006E+02  0.47000000000E+01 0.  1.
         -5    1    5    5    0  503 -0.35219122261E+02 -0.13297106118E+02  0.40568854594E+02  0.55543870652E+02  0.47000000000E+01 0.  1.
<mgrwt>
<rscale>  0 0.27493158E+03</rscale>
<asrwt>0</asrwt>
<pdfrwt beam="1">  1        2 0.34935366E-01 0.27493158E+03</pdfrwt>
<pdfrwt beam="2">  1       -2 0.12802573E-01 0.27493158E+03</pdfrwt>
<totfact> 0.65416206E+03</totfact>
</mgrwt>
</event>
<event>
 9    1  0.8122655E-001  0.2743129E+03  0.7818608E-02  0.1098836E+00
         -2   -1    0    0    0  501 -0.00000000000E+00  0.00000000000E+00  0.24695462341E+02  0.24695462341E+02  0.00000000000E+00 0. -1.
          2   -1    0    0  501    0  0.00000000000E+00 -0.00000000000E+00 -0.76175503464E+03  0.76175503464E+03  0.00000000000E+00 0. -1.
         35    2    1    2    0    0  0.88817841970E-15 -0.71054273576E-14 -0.73705957230E+03  0.78645049698E+03  0.27431290725E+03 0.  0.
         25    2    3    3    0    0 -0.57069091108E+01 -0.44831634726E+02 -0.26592902640E+03  0.29720439839E+03  0.12477885660E+03 0.  0.
         25    2    3    3    0    0  0.57069091108E+01  0.44831634726E+02 -0.47113054590E+03  0.48924609859E+03  0.12391654219E+03 0.  0.
          5    1    4    4  502    0 -0.30325074390E+00  0.22245894301E+02  0.11685283498E+00  0.22739292620E+02  0.47000000000E+01 0.  1.
         -5    1    4    4    0  502 -0.54036583669E+01 -0.67077529028E+02 -0.26604587924E+03  0.27446510577E+03  0.47000000000E+01 0.  1.
          5    1    5    5  503    0 -0.24890822080E+02  0.78834600362E+02 -0.24904399466E+03  0.26244894459E+03  0.47000000000E+01 0.  1.
         -5    1    5    5    0  503  0.30597731190E+02 -0.34002965636E+02 -0.22208655124E+03  0.22679715401E+03  0.47000000000E+01 0.  1.
<mgrwt>
<rscale>  0 0.27431291E+03</rscale>
<asrwt>0</asrwt>
<pdfrwt beam="1">  1        2 0.11719310E+00 0.27431291E+03</pdfrwt>
<pdfrwt beam="2">  1       -2 0.37993014E-02 0.27431291E+03</pdfrwt>
<totfact> 0.11174209E+04</totfact>
</mgrwt>
</event>
<event>
 9    1  0.8122655E-001  0.2763786E+03  0.7818608E-02  0.1097683E+00
         -2   -1    0    0    0  501 -0.00000000000E+00  0.00000000000E+00  0.31957996442E+02  0.31957996442E+02  0.00000000000E+00 0. -1.
          2   -1    0    0  501    0  0.00000000000E+00 -0.00000000000E+00 -0.59754324929E+03  0.59754324929E+03  0.00000000000E+00 0. -1.
         35    2    1    2    0    0  0.00000000000E+00  0.00000000000E+00 -0.56558525285E+03  0.62950124573E+03  0.27637861737E+03 0.  0.
         25    2    3    3    0    0 -0.21304621491E+02  0.23756109765E+02 -0.39787786628E+03  0.41824480793E+03  0.12491470384E+03 0.  0.
         25    2    3    3    0    0  0.21304621491E+02 -0.23756109765E+02 -0.16770738656E+03  0.21125643780E+03  0.12443984633E+03 0.  0.
          5    1    4    4  502    0  0.38949944989E+02  0.35105779137E+02 -0.28386299869E+03  0.28870366463E+03  0.47000000000E+01 0. -1.
         -5    1    4    4    0  502 -0.60254566480E+02 -0.11349669372E+02 -0.11401486759E+03  0.12954114330E+03  0.47000000000E+01 0. -1.
          5    1    5    5  503    0  0.36245364809E+02 -0.70356947444E+02 -0.10171308259E+03  0.12896304779E+03  0.47000000000E+01 0.  1.
         -5    1    5    5    0  503 -0.14940743318E+02  0.46600837679E+02 -0.65994303972E+02  0.82293390014E+02  0.47000000000E+01 0.  1.
<mgrwt>
<rscale>  0 0.27637862E+03</rscale>
<asrwt>0</asrwt>
<pdfrwt beam="1">  1        2 0.91929721E-01 0.27637862E+03</pdfrwt>
<pdfrwt beam="2">  1       -2 0.49166153E-02 0.27637862E+03</pdfrwt>
<totfact> 0.10139441E+04</totfact>
</mgrwt>
</event>
<event>
 9    1  0.8122655E-001  0.2792207E+03  0.7818608E-02  0.1096115E+00
          2   -1    0    0  501    0  0.00000000000E+00  0.00000000000E+00  0.61721214884E+03  0.61721214884E+03  0.00000000000E+00 0. -1.
         -2   -1    0    0    0  501 -0.00000000000E+00 -0.00000000000E+00 -0.31579177815E+02  0.31579177815E+02  0.00000000000E+00 0. -1.
         35    2    1    2    0    0  0.00000000000E+00 -0.71054273576E-14  0.58563297102E+03  0.64879132665E+03  0.27922071698E+03 0.  0.
         25    2    3    3    0    0 -0.10885330963E+02 -0.57833562982E+02  0.33577694882E+03  0.36293520573E+03  0.12454955947E+03 0.  0.
         25    2    3    3    0    0  0.10885330963E+02  0.57833562982E+02  0.24985602220E+03  0.28585612092E+03  0.12578743419E+03 0.  0.
          5    1    4    4  502    0 -0.20119649121E+02 -0.76437346275E+02  0.10669698284E+03  0.13286761959E+03  0.47000000000E+01 0.  1.
         -5    1    4    4    0  502  0.92343181584E+01  0.18603783293E+02  0.22907996598E+03  0.23006758615E+03  0.47000000000E+01 0.  1.
          5    1    5    5  503    0  0.66594212558E+01  0.58607555516E+02  0.26389130399E+03  0.27044390135E+03  0.47000000000E+01 0. -1.
         -5    1    5    5    0  503  0.42259097072E+01 -0.77399253436E+00 -0.14035281787E+02  0.15412219572E+02  0.47000000000E+01 0. -1.
<mgrwt>
<rscale>  0 0.27922072E+03</rscale>
<asrwt>0</asrwt>
<pdfrwt beam="1">  1        2 0.94955706E-01 0.27922072E+03</pdfrwt>
<pdfrwt beam="2">  1       -2 0.48583355E-02 0.27922072E+03</pdfrwt>
<totfact> 0.99459883E+03</totfact>
</mgrwt>
</event>
<event>
 9    1  0.8122655E-001  0.2729958E+03  0.7818608E-02  0.1099577E+00
         -1   -1    0    0    0  501 -0.00000000000E+00  0.00000000000E+00  0.20046633458E+02  0.20046633458E+02  0.00000000000E+00 0. -1.
          1   -1    0    0  501    0  0.00000000000E+00 -0.00000000000E+00 -0.92941703108E+03  0.92941703108E+03  0.00000000000E+00 0. -1.
         35    2    1    2    0    0  0.35527136788E-14  0.00000000000E+00 -0.90937039762E+03  0.94946366454E+03  0.27299584284E+03 0.  0.
         25    2    3    3    0    0  0.20086107753E+02 -0.38372055115E+02 -0.57901302520E+03  0.59388518091E+03  0.12477042287E+03 0.  0.
         25    2    3    3    0    0 -0.20086107753E+02  0.38372055115E+02 -0.33035737242E+03  0.35557848362E+03  0.12419419537E+03 0.  0.
          5    1    4    4  502    0  0.69279499503E+00  0.36292711618E+02 -0.35566723311E+03  0.35754567763E+03  0.47000000000E+01 0. -1.
         -5    1    4    4    0  502  0.19393312758E+02 -0.74664766733E+02 -0.22334579208E+03  0.23633950328E+03  0.47000000000E+01 0. -1.
          5    1    5    5  503    0 -0.39212898131E+02  0.73807964819E+02 -0.16130048168E+03  0.18172837544E+03  0.47000000000E+01 0.  1.
         -5    1    5    5    0  503  0.19126790379E+02 -0.35435909704E+02 -0.16905689074E+03  0.17385010818E+03  0.47000000000E+01 0.  1.
<mgrwt>
<rscale>  0 0.27299584E+03</rscale>
<asrwt>0</asrwt>
<pdfrwt beam="1">  1        1 0.14298719E+00 0.27299584E+03</pdfrwt>
<pdfrwt beam="2">  1       -1 0.30840985E-02 0.27299584E+03</pdfrwt>
<totfact> 0.65481376E+03</totfact>
</mgrwt>
</event>
<event>
 9    1  0.8122655E-001  0.2758009E+03  0.7818608E-02  0.1098005E+00
          2   -1    0    0  501    0  0.00000000000E+00  0.00000000000E+00  0.39260742171E+03  0.39260742171E+03  0.00000000000E+00 0.  1.
         -2   -1    0    0    0  501 -0.00000000000E+00 -0.00000000000E+00 -0.48436517772E+02  0.48436517772E+02  0.00000000000E+00 0.  1.
         35    2    1    2    0    0  0.71054273576E-14  0.17763568394E-14  0.34417090393E+03  0.44104393948E+03  0.27580091631E+03 0.  0.
         25    2    3    3    0    0  0.26542957968E+02  0.70405048254E+01  0.25739280849E+03  0.28735969021E+03  0.12478155460E+03 0.  0.
         25    2    3    3    0    0 -0.26542957968E+02 -0.70405048254E+01  0.86778095442E+02  0.15368424927E+03  0.12383179438E+03 0.  0.
          5    1    4    4  502    0  0.71339045047E+02 -0.12455249871E+02  0.10804958800E+03  0.13015834996E+03  0.47000000000E+01 0. -1.
         -5    1    4    4    0  502 -0.44796087079E+02  0.19495754696E+02  0.14934322050E+03  0.15720134025E+03  0.47000000000E+01 0. -1.
          5    1    5    5  503    0  0.37609554169E+02 -0.38846124669E+02  0.46026446628E+02  0.71161954413E+02  0.47000000000E+01 0.  1.
         -5    1    5    5    0  503 -0.64152512138E+02  0.31805619844E+02  0.40751648814E+02  0.82522294856E+02  0.47000000000E+01 0.  1.
<mgrwt>
<rscale>  0 0.27580092E+03</rscale>
<asrwt>0</asrwt>
<pdfrwt beam="1">  1        2 0.60401140E-01 0.27580092E+03</pdfrwt>
<pdfrwt beam="2">  1       -2 0.74517722E-02 0.27580092E+03</pdfrwt>
<totfact> 0.85558437E+03</totfact>
</mgrwt>
</event>
<event>
 9    1  0.8122655E-001  0.2745344E+03  0.7818608E-02  0.1098712E+00
          1   -1    0    0  501    0  0.00000000000E+00  0.00000000000E+00  0.69576427621E+03  0.69576427621E+03  0.00000000000E+00 0. -1.
         -1   -1    0    0    0  501 -0.00000000000E+00 -0.00000000000E+00 -0.27081413824E+02  0.27081413824E+02  0.00000000000E+00 0. -1.
         35    2    1    2    0    0  0.00000000000E+00  0.00000000000E+00  0.66868286239E+03  0.72284569004E+03  0.27453437153E+03 0.  0.
         25    2    3    3    0    0  0.52330067997E+02  0.14643497212E+02  0.35717185034E+03  0.38214681525E+03  0.12454553265E+03 0.  0.
         25    2    3    3    0    0 -0.52330067997E+02 -0.14643497212E+02  0.31151101205E+03  0.34069887479E+03  0.12682170408E+03 0.  0.
          5    1    4    4  502    0 -0.90475308827E+01 -0.44325067555E+02  0.78453727672E+02  0.90684325076E+02  0.47000000000E+01 0.  1.
         -5    1    4    4    0  502  0.61377598880E+02  0.58968564767E+02  0.27871812267E+03  0.29146249017E+03  0.47000000000E+01 0.  1.
          5    1    5    5  503    0 -0.11989144252E+01  0.46214377174E+01 -0.11368081391E+02  0.13195391502E+02  0.47000000000E+01 0.  1.
         -5    1    5    5    0  503 -0.51131153572E+02 -0.19264934930E+02  0.32287909344E+03  0.32750348329E+03  0.47000000000E+01 0.  1.
<mgrwt>
<rscale>  0 0.27453437E+03</rscale>
<asrwt>0</asrwt>
<pdfrwt beam="1">  1        1 0.10704064E+00 0.27453437E+03</pdfrwt>
<pdfrwt beam="2">  1       -1 0.41663719E-02 0.27453437E+03</pdfrwt>
<totfact> 0.65627277E+03</totfact>
</mgrwt>
</event>
<event>
 9    1  0.8122655E-001  0.2801357E+03  0.7818608E-02  0.1095615E+00
         -2   -1    0    0    0  501 -0.00000000000E+00  0.00000000000E+00  0.22542083197E+02  0.22542083197E+02  0.00000000000E+00 0. -1.
          2   -1    0    0  501    0  0.00000000000E+00 -0.00000000000E+00 -0.87032812536E+03  0.87032812536E+03  0.00000000000E+00 0. -1.
         35    2    1    2    0    0  0.00000000000E+00  0.00000000000E+00 -0.84778604216E+03  0.89287020856E+03  0.28013574574E+03 0.  0.
         25    2    3    3    0    0 -0.26801189987E+02  0.45353054756E+02 -0.53053067374E+03  0.54753893395E+03  0.12474327662E+03 0.  0.
         25    2    3    3    0    0  0.26801189987E+02 -0.45353054756E+02 -0.31725536843E+03  0.34533127460E+03  0.12580746028E+03 0.  0.
          5    1    4    4  502    0  0.33144834614E+02 -0.25338518676E+02 -0.19042702216E+03  0.19500041374E+03  0.47000000000E+01 0.  1.
         -5    1    4    4    0  502 -0.59946024601E+02  0.70691573432E+02 -0.34010365158E+03  0.35253852022E+03  0.47000000000E+01 0.  1.
          5    1    5    5  503    0  0.15691099718E+02  0.35344008416E+02 -0.19151996509E+03  0.19544154259E+03  0.47000000000E+01 0. -1.
         -5    1    5    5    0  503  0.11110090269E+02 -0.80697063172E+02 -0.12573540334E+03  0.14988973201E+03  0.47000000000E+01 0. -1.
<mgrwt>
<rscale>  0 0.28013575E+03</rscale>
<asrwt>0</asrwt>
<pdfrwt beam="1">  1        2 0.13389660E+00 0.28013575E+03</pdfrwt>
<pdfrwt beam="2">  1       -2 0.34680136E-02 0.28013575E+03</pdfrwt>
<totfact> 0.10806080E+04</totfact>
</mgrwt>
</event>
<event>
 9    1  0.8122655E-001  0.2755504E+03  0.7818608E-02  0.1098144E+00
          2   -1    0    0  501    0  0.00000000000E+00  0.00000000000E+00  0.69908408724E+03  0.69908408724E+03  0.00000000000E+00 0. -1.
         -2   -1    0    0    0  501 -0.00000000000E+00 -0.00000000000E+00 -0.27152684608E+02  0.27152684608E+02  0.00000000000E+00 0. -1.
         35    2    1    2    0    0  0.00000000000E+00 -0.17763568394E-14  0.67193140263E+03  0.72623677185E+03  0.27555042904E+03 0.  0.
         25    2    3    3    0    0  0.28293495010E+02  0.14220787547E+02  0.46819986548E+03  0.48548682858E+03  0.12443309059E+03 0.  0.
         25    2    3    3    0    0 -0.28293495010E+02 -0.14220787547E+02  0.20373153715E+03  0.24074994327E+03  0.12430303011E+03 0.  0.
          5    1    4    4  502    0  0.40232806672E+02 -0.37282650489E+01  0.41130697079E+02  0.57848102261E+02  0.47000000000E+01 0.  1.
         -5    1    4    4    0  502 -0.11939311663E+02  0.17949052596E+02  0.42706916840E+03  0.42763872632E+03  0.47000000000E+01 0.  1.
          5    1    5    5  503    0 -0.13179062734E+02 -0.53275275833E+02  0.18777957995E+03  0.19569160268E+03  0.47000000000E+01 0. -1.
         -5    1    5    5    0  503 -0.15114432276E+02  0.39054488286E+02  0.15951957199E+02  0.45058340591E+02  0.47000000000E+01 0. -1.
<mgrwt>
<rscale>  0 0.27555043E+03</rscale>
<asrwt>0</asrwt>
<pdfrwt beam="1">  1        2 0.10755138E+00 0.27555043E+03</pdfrwt>
<pdfrwt beam="2">  1       -2 0.41773366E-02 0.27555043E+03</pdfrwt>
<totfact> 0.10770001E+04</totfact>
</mgrwt>
</event>
<event>
 9    1  0.8122655E-001  0.2750080E+03  0.7818608E-02  0.1098447E+00
         -2   -1    0    0    0  501 -0.00000000000E+00  0.00000000000E+00  0.39547889745E+02  0.39547889745E+02  0.00000000000E+00 0.  1.
          2   -1    0    0  501    0  0.00000000000E+00 -0.00000000000E+00 -0.47808751750E+03  0.47808751750E+03  0.00000000000E+00 0.  1.
         35    2    1    2    0    0  0.00000000000E+00  0.00000000000E+00 -0.43853962776E+03  0.51763540725E+03  0.27500801756E+03 0.  0.
         25    2    3    3    0    0 -0.10590713625E+02  0.33240065259E+02 -0.14626762643E+03  0.19580712449E+03  0.12541589336E+03 0.  0.
         25    2    3    3    0    0  0.10590713625E+02 -0.33240065259E+02 -0.29227200133E+03  0.32182828276E+03  0.13012861202E+03 0.  0.
          5    1    4    4  502    0 -0.48076256154E+02  0.27302496655E+02 -0.12767283231E+02  0.56937213231E+02  0.47000000000E+01 0. -1.
         -5    1    4    4    0  502  0.37485542529E+02  0.59375686039E+01 -0.13350034320E+03  0.13886991126E+03  0.47000000000E+01 0. -1.
          5    1    5    5  503    0 -0.36471008177E+02 -0.69134726121E+00 -0.16795688868E+02  0.40432629930E+02  0.47000000000E+01 0.  1.
         -5    1    5    5    0  503  0.47061721802E+02 -0.32548717998E+02 -0.27547631247E+03  0.28139565283E+03  0.47000000000E+01 0.  1.
<mgrwt>
<rscale>  0 0.27500802E+03</rscale>
<asrwt>0</asrwt>
<pdfrwt beam="1">  1        2 0.73551920E-01 0.27500802E+03</pdfrwt>
<pdfrwt beam="2">  1       -2 0.60842912E-02 0.27500802E+03</pdfrwt>
<totfact> 0.94283534E+03</totfact>
</mgrwt>
</event>
<event>
 9    1  0.8122655E-001  0.2749856E+03  0.7818608E-02  0.1098460E+00
         -2   -1    0    0    0  501 -0.00000000000E+00  0.00000000000E+00  0.66463419269E+01  0.66463419269E+01  0.00000000000E+00 0. -1.
          2   -1    0    0  501    0  0.00000000000E+00 -0.00000000000E+00 -0.28443120862E+04  0.28443120862E+04  0.00000000000E+00 0. -1.
         35    2    1    2    0    0  0.00000000000E+00  0.35527136788E-14 -0.28376657443E+04  0.28509584281E+04  0.27498560451E+03 0.  0.
         25    2    3    3    0    0  0.23679998524E+02 -0.31275399449E+02 -0.17994970148E+04  0.18042516091E+04  0.12488182376E+03 0.  0.
         25    2    3    3    0    0 -0.23679998524E+02  0.31275399449E+02 -0.10381687295E+04  0.10467068190E+04  0.12752239449E+03 0.  0.
          5    1    4    4  502    0  0.58773852889E+02 -0.59926323493E+02 -0.12823123068E+04  0.12850651626E+04  0.47000000000E+01 0.  1.
         -5    1    4    4    0  502 -0.35093854366E+02  0.28650924045E+02 -0.51718470801E+03  0.51918644654E+03  0.47000000000E+01 0.  1.
          5    1    5    5  503    0 -0.68508989003E+02  0.17972727992E+02 -0.36119872389E+03  0.36810746891E+03  0.47000000000E+01 0. -1.
         -5    1    5    5    0  503  0.44828990479E+02  0.13302671457E+02 -0.67697000563E+03  0.67859935012E+03  0.47000000000E+01 0. -1.
<mgrwt>
<rscale>  0 0.27498560E+03</rscale>
<asrwt>0</asrwt>
<pdfrwt beam="1">  1        2 0.43758747E+00 0.27498560E+03</pdfrwt>
<pdfrwt beam="2">  1       -2 0.10225118E-02 0.27498560E+03</pdfrwt>
<totfact> 0.53036701E+03</totfact>
</mgrwt>
</event>
<event>
 9    1  0.8122655E-001  0.2750915E+03  0.7818608E-02  0.1098400E+00
         -2   -1    0    0    0  501 -0.00000000000E+00  0.00000000000E+00  0.46795495871E+02  0.46795495871E+02  0.00000000000E+00 0. -1.
          2   -1    0    0  501    0  0.00000000000E+00 -0.00000000000E+00 -0.40428748644E+03  0.40428748644E+03  0.00000000000E+00 0. -1.
         35    2    1    2    0    0  0.71054273576E-14  0.14210854715E-13 -0.35749199057E+03  0.45108298231E+03  0.27509150043E+03 0.  0.
         25    2    3    3    0    0 -0.14524017182E+02 -0.49460051013E+02 -0.14163534208E+03  0.19655246347E+03  0.12615489309E+03 0.  0.
         25    2    3    3    0    0  0.14524017182E+02  0.49460051013E+02 -0.21585664849E+03  0.25453051884E+03  0.12463726811E+03 0.  0.
          5    1    4    4  502    0 -0.46490150107E+02 -0.81109398658E+01 -0.20958476625E+01  0.47472138986E+02  0.47000000000E+01 0. -1.
         -5    1    4    4    0  502  0.31966132925E+02 -0.41349111147E+02 -0.13953949442E+03  0.14908032449E+03  0.47000000000E+01 0. -1.
          5    1    5    5  503    0  0.67847441261E+02  0.43305970471E+02 -0.12008220945E+03  0.14463923877E+03  0.47000000000E+01 0.  1.
         -5    1    5    5    0  503 -0.53323424079E+02  0.61540805421E+01 -0.95774439039E+02  0.10989128007E+03  0.47000000000E+01 0.  1.
<mgrwt>
<rscale>  0 0.27509150E+03</rscale>
<asrwt>0</asrwt>
<pdfrwt beam="1">  1        2 0.62198072E-01 0.27509150E+03</pdfrwt>
<pdfrwt beam="2">  1       -2 0.71993074E-02 0.27509150E+03</pdfrwt>
<totfact> 0.87424469E+03</totfact>
</mgrwt>
</event>
<event>
 9    1  0.8122655E-001  0.2741236E+03  0.7818608E-02  0.1098943E+00
          2   -1    0    0  501    0  0.00000000000E+00  0.00000000000E+00  0.16666287287E+04  0.16666287287E+04  0.00000000000E+00 0. -1.
         -2   -1    0    0    0  501 -0.00000000000E+00 -0.00000000000E+00 -0.11271816351E+02  0.11271816351E+02  0.00000000000E+00 0. -1.
         35    2    1    2    0    0  0.71054273576E-14  0.21316282073E-13  0.16553569123E+04  0.16779005450E+04  0.27412357034E+03 0.  0.
         25    2    3    3    0    0  0.23525090358E+02  0.43149979419E+02  0.66416386670E+03  0.67778021202E+03  0.12592467346E+03 0.  0.
         25    2    3    3    0    0 -0.23525090358E+02 -0.43149979419E+02  0.99119304561E+03  0.10001203330E+04  0.12394222920E+03 0.  0.
          5    1    4    4  502    0  0.17776044697E+02 -0.43509190918E+02  0.19653407154E+03  0.20213057348E+03  0.47000000000E+01 0. -1.
         -5    1    4    4    0  502  0.57490456612E+01  0.86659170337E+02  0.46762979515E+03  0.47564963854E+03  0.47000000000E+01 0. -1.
          5    1    5    5  503    0  0.23569874810E+02 -0.55696385793E+02  0.81488088302E+03  0.81713558845E+03  0.47000000000E+01 0. -1.
         -5    1    5    5    0  503 -0.47094965168E+02  0.12546406374E+02  0.17631216259E+03  0.18298474454E+03  0.47000000000E+01 0. -1.
<mgrwt>
<rscale>  0 0.27412357E+03</rscale>
<asrwt>0</asrwt>
<pdfrwt beam="1">  1        2 0.25640422E+00 0.27412357E+03</pdfrwt>
<pdfrwt beam="2">  1       -2 0.17341269E-02 0.27412357E+03</pdfrwt>
<totfact> 0.10609377E+04</totfact>
</mgrwt>
</event>
<event>
 9    1  0.8122655E-001  0.2752431E+03  0.7818608E-02  0.1098316E+00
          1   -1    0    0  501    0  0.00000000000E+00  0.00000000000E+00  0.42733216522E+03  0.42733216522E+03  0.00000000000E+00 0. -1.
         -1   -1    0    0    0  501 -0.00000000000E+00 -0.00000000000E+00 -0.44320763296E+02  0.44320763296E+02  0.00000000000E+00 0. -1.
         35    2    1    2    0    0  0.00000000000E+00  0.35527136788E-14  0.38301140192E+03  0.47165292851E+03  0.27524307616E+03 0.  0.
         25    2    3    3    0    0  0.33852986937E+02  0.53976948286E+01  0.27472949597E+03  0.30344356657E+03  0.12420363239E+03 0.  0.
         25    2    3    3    0    0 -0.33852986937E+02 -0.53976948286E+01  0.10828190595E+03  0.16820936195E+03  0.12407360096E+03 0.  0.
          5    1    4    4  502    0 -0.30044970601E+02  0.32219330460E+02  0.43822408610E+02  0.62315961118E+02  0.47000000000E+01 0. -1.
         -5    1    4    4    0  502  0.63897957538E+02 -0.26821635631E+02  0.23090708736E+03  0.24112760545E+03  0.47000000000E+01 0. -1.
          5    1    5    5  503    0  0.12915676016E+02 -0.25666465873E+02  0.11310722920E+03  0.11679433828E+03  0.47000000000E+01 0. -1.
         -5    1    5    5    0  503 -0.46768662953E+02  0.20268771045E+02 -0.48253232498E+01  0.51415023666E+02  0.47000000000E+01 0. -1.
<mgrwt>
<rscale>  0 0.27524308E+03</rscale>
<asrwt>0</asrwt>
<pdfrwt beam="1">  1        1 0.65743407E-01 0.27524308E+03</pdfrwt>
<pdfrwt beam="2">  1       -1 0.68185792E-02 0.27524308E+03</pdfrwt>
<totfact> 0.60809393E+03</totfact>
</mgrwt>
</event>
<event>
 9    1  0.8122655E-001  0.2745314E+03  0.7818608E-02  0.1098714E+00
          1   -1    0    0  501    0  0.00000000000E+00  0.00000000000E+00  0.77217762428E+02  0.77217762428E+02  0.00000000000E+00 0. -1.
         -1   -1    0    0    0  501 -0.00000000000E+00 -0.00000000000E+00 -0.24400948656E+03  0.24400948656E+03  0.00000000000E+00 0. -1.
         35    2    1    2    0    0 -0.71054273576E-14  0.00000000000E+00 -0.16679172413E+03  0.32122724898E+03  0.27453135750E+03 0.  0.
         25    2    3    3    0    0 -0.49706597163E+02  0.78628074763E+00 -0.39267577214E+02  0.13620649924E+03  0.12057737672E+03 0.  0.
         25    2    3    3    0    0  0.49706597163E+02 -0.78628074763E+00 -0.12752414691E+03  0.18502074975E+03  0.12449460129E+03 0.  0.
          5    1    4    4  502    0 -0.23414423619E+02 -0.37680421016E+02  0.29154687608E+02  0.53292918581E+02  0.47000000000E+01 0.  1.
         -5    1    4    4    0  502 -0.26292173544E+02  0.38466701764E+02 -0.68422264822E+02  0.82913580659E+02  0.47000000000E+01 0.  1.
          5    1    5    5  503    0  0.82710750177E+02 -0.20030042040E+02 -0.11765560335E+03  0.14528317789E+03  0.47000000000E+01 0.  1.
         -5    1    5    5    0  503 -0.33004153014E+02  0.19243761292E+02 -0.98685435669E+01  0.39737571856E+02  0.47000000000E+01 0.  1.
<mgrwt>
<rscale>  0 0.27453136E+03</rscale>
<asrwt>0</asrwt>
<pdfrwt beam="1">  1        1 0.11879656E-01 0.27453136E+03</pdfrwt>
<pdfrwt beam="2">  1       -1 0.37539920E-01 0.27453136E+03</pdfrwt>
<totfact> 0.34986136E+03</totfact>
</mgrwt>
</event>
<event>
 9    1  0.8122655E-001  0.2750772E+03  0.7818608E-02  0.1098408E+00
         -1   -1    0    0    0  501 -0.00000000000E+00  0.00000000000E+00  0.66477006409E+02  0.66477006409E+02  0.00000000000E+00 0.  1.
          1   -1    0    0  501    0  0.00000000000E+00 -0.00000000000E+00 -0.28456249270E+03  0.28456249270E+03  0.00000000000E+00 0.  1.
         35    2    1    2    0    0  0.71054273576E-14  0.35527136788E-14 -0.21808548630E+03  0.35103949911E+03  0.27507717209E+03 0.  0.
         25    2    3    3    0    0 -0.97561646662E+01 -0.15946394711E+02 -0.17711598090E+03  0.21749677195E+03  0.12484111849E+03 0.  0.
         25    2    3    3    0    0  0.97561646662E+01  0.15946394711E+02 -0.40969505396E+02  0.13354272716E+03  0.12572067989E+03 0.  0.
          5    1    4    4  502    0  0.45298654588E+02  0.18438055703E+02 -0.12437884206E+03  0.13373150847E+03  0.47000000000E+01 0.  1.
         -5    1    4    4    0  502 -0.55054819254E+02 -0.34384450413E+02 -0.52737138844E+02  0.83765263485E+02  0.47000000000E+01 0.  1.
          5    1    5    5  503    0  0.23519064473E+02 -0.19672975335E+02 -0.75638851878E+02  0.81752665190E+02  0.47000000000E+01 0. -1.
         -5    1    5    5    0  503 -0.13762899807E+02  0.35619370046E+02  0.34669346482E+02  0.51790061972E+02  0.47000000000E+01 0. -1.
<mgrwt>
<rscale>  0 0.27507717E+03</rscale>
<asrwt>0</asrwt>
<pdfrwt beam="1">  1        1 0.43778845E-01 0.27507717E+03</pdfrwt>
<pdfrwt beam="2">  1       -1 0.10227232E-01 0.27507717E+03</pdfrwt>
<totfact> 0.54781276E+03</totfact>
</mgrwt>
</event>
<event>
 9    1  0.8122655E-001  0.2770175E+03  0.7818608E-02  0.1097329E+00
          1   -1    0    0  501    0  0.00000000000E+00  0.00000000000E+00  0.26290098937E+03  0.26290098937E+03  0.00000000000E+00 0. -1.
         -1   -1    0    0    0  501 -0.00000000000E+00 -0.00000000000E+00 -0.72972986727E+02  0.72972986727E+02  0.00000000000E+00 0. -1.
         35    2    1    2    0    0  0.00000000000E+00  0.00000000000E+00  0.18992800265E+03  0.33587397610E+03  0.27701747532E+03 0.  0.
         25    2    3    3    0    0 -0.47193884165E+02 -0.18064566025E+02  0.12022249985E+03  0.18431761755E+03  0.13025338161E+03 0.  0.
         25    2    3    3    0    0  0.47193884165E+02  0.18064566025E+02  0.69705502802E+02  0.15155635855E+03  0.12472722818E+03 0.  0.
          5    1    4    4  502    0 -0.36168178543E+02  0.34107408069E+02 -0.29429729617E+01  0.50022030288E+02  0.47000000000E+01 0.  1.
         -5    1    4    4    0  502 -0.11025705623E+02 -0.52171974094E+02  0.12316547281E+03  0.13429558726E+03  0.47000000000E+01 0.  1.
          5    1    5    5  503    0  0.87625784362E+02  0.26226569061E+02  0.58059266716E+02  0.10843928929E+03  0.47000000000E+01 0. -1.
         -5    1    5    5    0  503 -0.40431900197E+02 -0.81620030367E+01  0.11646236086E+02  0.43117069266E+02  0.47000000000E+01 0. -1.
<mgrwt>
<rscale>  0 0.27701748E+03</rscale>
<asrwt>0</asrwt>
<pdfrwt beam="1">  1        1 0.40446306E-01 0.27701748E+03</pdfrwt>
<pdfrwt beam="2">  1       -1 0.11226613E-01 0.27701748E+03</pdfrwt>
<totfact> 0.52366989E+03</totfact>
</mgrwt>
</event>
<event>
 9    1  0.8122655E-001  0.2524665E+03  0.7818608E-02  0.1111756E+00
          2   -1    0    0  501    0  0.00000000000E+00  0.00000000000E+00  0.27788350292E+03  0.27788350292E+03  0.00000000000E+00 0.  1.
         -2   -1    0    0    0  501 -0.00000000000E+00 -0.00000000000E+00 -0.57343552830E+02  0.57343552830E+02  0.00000000000E+00 0.  1.
         35    2    1    2    0    0 -0.17763568394E-14  0.35527136788E-14  0.22053995009E+03  0.33522705575E+03  0.25246645187E+03 0.  0.
         25    2    3    3    0    0 -0.13791338499E+02  0.48357934686E+01  0.93024712706E+02  0.15605423499E+03  0.12444171796E+03 0.  0.
         25    2    3    3    0    0  0.13791338499E+02 -0.48357934686E+01  0.12751523738E+03  0.17917282075E+03  0.12501671095E+03 0.  0.
          5    1    4    4  502    0 -0.62130096009E+02 -0.17479278385E+02  0.24604602934E+02  0.69232582564E+02  0.47000000000E+01 0.  1.
         -5    1    4    4    0  502  0.48338757509E+02  0.22315071854E+02  0.68420109773E+02  0.86821652430E+02  0.47000000000E+01 0.  1.
          5    1    5    5  503    0  0.60551786370E+01 -0.60798698291E+02  0.97150086299E+02  0.11486242279E+03  0.47000000000E+01 0. -1.
         -5    1    5    5    0  503  0.77361598624E+01  0.55962904822E+02  0.30365151081E+02  0.64310397960E+02  0.47000000000E+01 0. -1.
<mgrwt>
<rscale>  0 0.25246645E+03</rscale>
<asrwt>0</asrwt>
<pdfrwt beam="1">  1        2 0.42751307E-01 0.25246645E+03</pdfrwt>
<pdfrwt beam="2">  1       -2 0.88220852E-02 0.25246645E+03</pdfrwt>
<totfact> 0.95010017E+03</totfact>
</mgrwt>
</event>
<event>
 9    1  0.8122655E-001  0.2743596E+03  0.7818608E-02  0.1098810E+00
         -2   -1    0    0    0  501 -0.00000000000E+00  0.00000000000E+00  0.51764457259E+02  0.51764457259E+02  0.00000000000E+00 0.  1.
          2   -1    0    0  501    0  0.00000000000E+00 -0.00000000000E+00 -0.36353703914E+03  0.36353703914E+03  0.00000000000E+00 0.  1.
         35    2    1    2    0    0  0.35527136788E-14  0.14210854715E-13 -0.31177258188E+03  0.41530149640E+03  0.27435959998E+03 0.  0.
         25    2    3    3    0    0 -0.13902596365E+02  0.33549830922E+02 -0.22276926596E+03  0.25810501061E+03  0.12519256090E+03 0.  0.
         25    2    3    3    0    0  0.13902596365E+02 -0.33549830922E+02 -0.89003315925E+02  0.15719648579E+03  0.12437954639E+03 0.  0.
          5    1    4    4  502    0 -0.22724753564E+02  0.79306543521E+02 -0.12732197194E+03  0.15178575957E+03  0.47000000000E+01 0. -1.
         -5    1    4    4    0  502  0.88221571993E+01 -0.45756712599E+02 -0.95447294023E+02  0.10631925104E+03  0.47000000000E+01 0. -1.
          5    1    5    5  503    0 -0.47742455967E+02  0.11250925178E+02 -0.54315560847E+02  0.73336181856E+02  0.47000000000E+01 0. -1.
         -5    1    5    5    0  503  0.61645052331E+02 -0.44800756100E+02 -0.34687755077E+02  0.83860303937E+02  0.47000000000E+01 0. -1.
<mgrwt>
<rscale>  0 0.27435960E+03</rscale>
<asrwt>0</asrwt>
<pdfrwt beam="1">  1        2 0.55928774E-01 0.27435960E+03</pdfrwt>
<pdfrwt beam="2">  1       -2 0.79637628E-02 0.27435960E+03</pdfrwt>
<totfact> 0.83826565E+03</totfact>
</mgrwt>
</event>
<event>
 9    1  0.8122655E-001  0.2739006E+03  0.7818608E-02  0.1099068E+00
         -2   -1    0    0    0  501 -0.00000000000E+00  0.00000000000E+00  0.42806490963E+02  0.42806490963E+02  0.00000000000E+00 0. -1.
          2   -1    0    0  501    0  0.00000000000E+00 -0.00000000000E+00 -0.43814340571E+03  0.43814340571E+03  0.00000000000E+00 0. -1.
         35    2    1    2    0    0  0.71054273576E-14 -0.14210854715E-13 -0.39533691475E+03  0.48094989667E+03  0.27390057858E+03 0.  0.
         25    2    3    3    0    0  0.45451246196E+02  0.38031239672E+02 -0.20349939541E+03  0.24657857502E+03  0.12600316961E+03 0.  0.
         25    2    3    3    0    0 -0.45451246196E+02 -0.38031239672E+02 -0.19183751933E+03  0.23437132166E+03  0.12089702899E+03 0.  0.
          5    1    4    4  502    0 -0.29028360405E+02  0.33546880113E+01 -0.28788887561E+01  0.29736806149E+02  0.47000000000E+01 0. -1.
         -5    1    4    4    0  502  0.74479606601E+02  0.34676551661E+02 -0.20062050666E+03  0.21684176887E+03  0.47000000000E+01 0. -1.
          5    1    5    5  503    0 -0.25935940314E+02 -0.80240495050E+02 -0.96825398395E+02  0.12848524359E+03  0.47000000000E+01 0. -1.
         -5    1    5    5    0  503 -0.19515305882E+02  0.42209255377E+02 -0.95012120940E+02  0.10588607807E+03  0.47000000000E+01 0. -1.
<mgrwt>
<rscale>  0 0.27390058E+03</rscale>
<asrwt>0</asrwt>
<pdfrwt beam="1">  1        2 0.67406681E-01 0.27390058E+03</pdfrwt>
<pdfrwt beam="2">  1       -2 0.65856137E-02 0.27390058E+03</pdfrwt>
<totfact> 0.91889186E+03</totfact>
</mgrwt>
</event>
<event>
 9    1  0.8122655E-001  0.2731786E+03  0.7818608E-02  0.1099474E+00
          4   -1    0    0  501    0  0.00000000000E+00  0.00000000000E+00  0.23991189700E+03  0.23991189700E+03  0.00000000000E+00 0.  1.
         -4   -1    0    0    0  501 -0.00000000000E+00 -0.00000000000E+00 -0.77764507181E+02  0.77764507181E+02  0.00000000000E+00 0.  1.
         35    2    1    2    0    0  0.00000000000E+00  0.71054273576E-14  0.16214738982E+03  0.31767640418E+03  0.27317855287E+03 0.  0.
         25    2    3    3    0    0 -0.41807152304E+02  0.25086529770E+02  0.11065808620E+03  0.17363586620E+03  0.12460750390E+03 0.  0.
         25    2    3    3    0    0  0.41807152304E+02 -0.25086529770E+02  0.51489303618E+02  0.14404053798E+03  0.12537685686E+03 0.  0.
          5    1    4    4  502    0 -0.59700738912E+02  0.64617976412E+02  0.59116610615E+02  0.10609677070E+03  0.47000000000E+01 0. -1.
         -5    1    4    4    0  502  0.17893586608E+02 -0.39531446642E+02  0.51541475587E+02  0.67539095500E+02  0.47000000000E+01 0. -1.
          5    1    5    5  503    0 -0.41781498217E+02  0.10563923299E+02  0.13190489859E+02  0.45314115808E+02  0.47000000000E+01 0. -1.
         -5    1    5    5    0  503  0.83588650521E+02 -0.35650453069E+02  0.38298813758E+02  0.98726422174E+02  0.47000000000E+01 0. -1.
<mgrwt>
<rscale>  0 0.27317855E+03</rscale>
<asrwt>0</asrwt>
<pdfrwt beam="1">  1        4 0.36909522E-01 0.27317855E+03</pdfrwt>
<pdfrwt beam="2">  1       -4 0.11963770E-01 0.27317855E+03</pdfrwt>
<totfact> 0.74576620E+02</totfact>
</mgrwt>
</event>
<event>
 9    1  0.8122655E-001  0.2682018E+03  0.7818608E-02  0.1102313E+00
         -2   -1    0    0    0  501 -0.00000000000E+00  0.00000000000E+00  0.16375126708E+03  0.16375126708E+03  0.00000000000E+00 0.  1.
          2   -1    0    0  501    0  0.00000000000E+00 -0.00000000000E+00 -0.10981932703E+03  0.10981932703E+03  0.00000000000E+00 0.  1.
         35    2    1    2    0    0 -0.35527136788E-14 -0.35527136788E-14  0.53931940050E+02  0.27357059411E+03  0.26820181916E+03 0.  0.
         25    2    3    3    0    0  0.24397723946E+02  0.25061551825E+02 -0.35099103077E+01  0.13007427162E+03  0.12523444556E+03 0.  0.
         25    2    3    3    0    0 -0.24397723946E+02 -0.25061551825E+02  0.57441850358E+02  0.14349632248E+03  0.12676079079E+03 0.  0.
          5    1    4    4  502    0  0.14648102629E+02 -0.12736883209E+02  0.55602303713E+02  0.59080464476E+02  0.47000000000E+01 0.  1.
         -5    1    4    4    0  502  0.97496213172E+01  0.37798435034E+02 -0.59112214021E+02  0.70993807148E+02  0.47000000000E+01 0.  1.
          5    1    5    5  503    0 -0.50516050594E+02 -0.45079199328E+02 -0.97178489721E+01  0.68560427131E+02  0.47000000000E+01 0.  1.
         -5    1    5    5    0  503  0.26118326648E+02  0.20017647503E+02  0.67159699330E+02  0.74935895354E+02  0.47000000000E+01 0.  1.
<mgrwt>
<rscale>  0 0.26820182E+03</rscale>
<asrwt>0</asrwt>
<pdfrwt beam="1">  1        2 0.16895281E-01 0.26820182E+03</pdfrwt>
<pdfrwt beam="2">  1       -2 0.25192503E-01 0.26820182E+03</pdfrwt>
<totfact> 0.47065692E+03</totfact>
</mgrwt>
</event>
<event>
 9    1  0.8122655E-001  0.2740353E+03  0.7818608E-02  0.1098992E+00
          2   -1    0    0  501    0  0.00000000000E+00  0.00000000000E+00  0.19751169191E+04  0.19751169191E+04  0.00000000000E+00 0.  1.
         -2   -1    0    0    0  501 -0.00000000000E+00 -0.00000000000E+00 -0.95051749921E+01  0.95051749921E+01  0.00000000000E+00 0.  1.
         35    2    1    2    0    0  0.00000000000E+00 -0.35527136788E-14  0.19656117441E+04  0.19846220941E+04  0.27403526741E+03 0.  0.
         25    2    3    3    0    0 -0.34566995433E+02  0.13851178772E+02  0.70997787506E+03  0.72223265594E+03  0.12714044951E+03 0.  0.
         25    2    3    3    0    0  0.34566995433E+02 -0.13851178772E+02  0.12556338691E+04  0.12623894382E+04  0.12499579248E+03 0.  0.
          5    1    4    4  502    0  0.28467008079E+02 -0.23297403828E+02  0.46608838461E+03  0.46756134554E+03  0.47000000000E+01 0. -1.
         -5    1    4    4    0  502 -0.63034003512E+02  0.37148582600E+02  0.24388949046E+03  0.25467131041E+03  0.47000000000E+01 0. -1.
          5    1    5    5  503    0  0.70595650246E+02 -0.34259078501E+02  0.10258346944E+04  0.10288422330E+04  0.47000000000E+01 0.  1.
         -5    1    5    5    0  503 -0.36028654813E+02  0.20407899729E+02  0.22979917469E+03  0.23354720513E+03  0.47000000000E+01 0.  1.
<mgrwt>
<rscale>  0 0.27403527E+03</rscale>
<asrwt>0</asrwt>
<pdfrwt beam="1">  1        2 0.30386381E+00 0.27403527E+03</pdfrwt>
<pdfrwt beam="2">  1       -2 0.14623362E-02 0.27403527E+03</pdfrwt>
<totfact> 0.93758263E+03</totfact>
</mgrwt>
</event>
<event>
 9    1  0.8122655E-001  0.2863791E+03  0.7818608E-02  0.1092255E+00
         -1   -1    0    0    0  501 -0.00000000000E+00  0.00000000000E+00  0.20325238717E+03  0.20325238717E+03  0.00000000000E+00 0. -1.
          1   -1    0    0  501    0  0.00000000000E+00 -0.00000000000E+00 -0.10087581702E+03  0.10087581702E+03  0.00000000000E+00 0. -1.
         35    2    1    2    0    0  0.71054273576E-14  0.00000000000E+00  0.10237657015E+03  0.30412820418E+03  0.28637912365E+03 0.  0.
         25    2    3    3    0    0  0.14808401800E+02 -0.39815872351E+02 -0.92636666179E+01  0.13181548054E+03  0.12443839013E+03 0.  0.
         25    2    3    3    0    0 -0.14808401800E+02  0.39815872351E+02  0.11164023677E+03  0.17231272364E+03  0.12419154483E+03 0.  0.
          5    1    4    4  502    0  0.67146459649E+02 -0.34338993035E+01 -0.81736623510E+01  0.67892101632E+02  0.47000000000E+01 0. -1.
         -5    1    4    4    0  502 -0.52338057849E+02 -0.36381973048E+02 -0.10900042668E+01  0.63923378912E+02  0.47000000000E+01 0. -1.
          5    1    5    5  503    0 -0.66552893537E+02  0.41334763156E+02  0.76274200940E+02  0.10944265171E+03  0.47000000000E+01 0. -1.
         -5    1    5    5    0  503  0.51744491738E+02 -0.15188908045E+01  0.35366035828E+02  0.62870071931E+02  0.47000000000E+01 0. -1.
<mgrwt>
<rscale>  0 0.28637912E+03</rscale>
<asrwt>0</asrwt>
<pdfrwt beam="1">  1        1 0.15519357E-01 0.28637912E+03</pdfrwt>
<pdfrwt beam="2">  1       -1 0.31269598E-01 0.28637912E+03</pdfrwt>
<totfact> 0.33779371E+03</totfact>
</mgrwt>
</event>
<event>
 9    1  0.8122655E-001  0.2763383E+03  0.7818608E-02  0.1097706E+00
          4   -1    0    0  501    0  0.00000000000E+00  0.00000000000E+00  0.14962585313E+03  0.14962585313E+03  0.00000000000E+00 0.  1.
         -4   -1    0    0    0  501 -0.00000000000E+00 -0.00000000000E+00 -0.12758963756E+03  0.12758963756E+03  0.00000000000E+00 0.  1.
         35    2    1    2    0    0 -0.71054273576E-14  0.14210854715E-13  0.22036215570E+02  0.27721549068E+03  0.27633825917E+03 0.  0.
         25    2    3    3    0    0  0.77085910708E+01 -0.57030286829E+02  0.83824131304E+01  0.13852922583E+03  0.12573068665E+03 0.  0.
         25    2    3    3    0    0 -0.77085910708E+01  0.57030286829E+02  0.13653802439E+02  0.13868626486E+03  0.12544153119E+03 0.  0.
          5    1    4    4  502    0 -0.31766267906E+02 -0.70276851435E+02  0.39078627101E+02  0.86586146238E+02  0.47000000000E+01 0.  1.
         -5    1    4    4    0  502  0.39474858977E+02  0.13246564605E+02 -0.30696213971E+02  0.51943079589E+02  0.47000000000E+01 0.  1.
          5    1    5    5  503    0  0.57920744923E+02  0.27111293326E+02 -0.41074439846E+01  0.64255708029E+02  0.47000000000E+01 0. -1.
         -5    1    5    5    0  503 -0.65629335994E+02  0.29918993504E+02  0.17761246424E+02  0.74430556829E+02  0.47000000000E+01 0. -1.
<mgrwt>
<rscale>  0 0.27633826E+03</rscale>
<asrwt>0</asrwt>
<pdfrwt beam="1">  1        4 0.23019362E-01 0.27633826E+03</pdfrwt>
<pdfrwt beam="2">  1       -4 0.19629175E-01 0.27633826E+03</pdfrwt>
<totfact> 0.76445361E+02</totfact>
</mgrwt>
</event>
<event>
 9    1  0.8122655E-001  0.2745308E+03  0.7818608E-02  0.1098714E+00
         -1   -1    0    0    0  501 -0.00000000000E+00  0.00000000000E+00  0.11259783566E+03  0.11259783566E+03  0.00000000000E+00 0. -1.
          1   -1    0    0  501    0  0.00000000000E+00 -0.00000000000E+00 -0.16733700142E+03  0.16733700142E+03  0.00000000000E+00 0. -1.
         35    2    1    2    0    0  0.71054273576E-14  0.00000000000E+00 -0.54739165761E+02  0.27993483708E+03  0.27453075737E+03 0.  0.
         25    2    3    3    0    0 -0.40361361684E+02 -0.41919714801E+02 -0.35434855652E+02  0.14103366313E+03  0.12348507251E+03 0.  0.
         25    2    3    3    0    0  0.40361361684E+02  0.41919714801E+02 -0.19304310109E+02  0.13890117395E+03  0.12463778613E+03 0.  0.
          5    1    4    4  502    0 -0.66965370279E+02 -0.53350265751E+02  0.10647788420E+02  0.86406464287E+02  0.47000000000E+01 0.  1.
         -5    1    4    4    0  502  0.26604008595E+02  0.11430550950E+02 -0.46082644072E+02  0.54627198839E+02  0.47000000000E+01 0.  1.
          5    1    5    5  503    0  0.58450594898E+02  0.23140757282E+02  0.39507566065E+02  0.74396938565E+02  0.47000000000E+01 0.  1.
         -5    1    5    5    0  503 -0.18089233214E+02  0.18778957519E+02 -0.58811876174E+02  0.64504235387E+02  0.47000000000E+01 0.  1.
<mgrwt>
<rscale>  0 0.27453076E+03</rscale>
<asrwt>0</asrwt>
<pdfrwt beam="1">  1        1 0.25744154E-01 0.27453076E+03</pdfrwt>
<pdfrwt beam="2">  1       -1 0.17322744E-01 0.27453076E+03</pdfrwt>
<totfact> 0.46642938E+03</totfact>
</mgrwt>
</event>
<event>
 9    1  0.8122655E-001  0.2796351E+03  0.7818608E-02  0.1095888E+00
          2   -1    0    0  501    0  0.00000000000E+00  0.00000000000E+00  0.61741321906E+03  0.61741321906E+03  0.00000000000E+00 0.  1.
         -2   -1    0    0    0  501 -0.00000000000E+00 -0.00000000000E+00 -0.31662657579E+02  0.31662657579E+02  0.00000000000E+00 0.  1.
         35    2    1    2    0    0 -0.14210854715E-13 -0.35527136788E-14  0.58575056148E+03  0.64907587664E+03  0.27963507176E+03 0.  0.
         25    2    3    3    0    0 -0.58662570972E+02  0.82486586430E+01  0.24473300005E+03  0.28113188238E+03  0.12502622276E+03 0.  0.
         25    2    3    3    0    0  0.58662570972E+02 -0.82486586430E+01  0.34101756144E+03  0.36794399426E+03  0.12482174531E+03 0.  0.
          5    1    4    4  502    0 -0.59004229117E+02  0.33333425637E+02  0.49044414704E+02  0.83785803881E+02  0.47000000000E+01 0. -1.
         -5    1    4    4    0  502  0.34165814532E+00 -0.25084766994E+02  0.19568858534E+03  0.19734607850E+03  0.47000000000E+01 0. -1.
          5    1    5    5  503    0  0.30742716395E+02 -0.37758566615E+02  0.31650892667E+03  0.32026678664E+03  0.47000000000E+01 0. -1.
         -5    1    5    5    0  503  0.27919854577E+02  0.29509907972E+02  0.24508634765E+02  0.47677207617E+02  0.47000000000E+01 0. -1.
<mgrwt>
<rscale>  0 0.27963507E+03</rscale>
<asrwt>0</asrwt>
<pdfrwt beam="1">  1        2 0.94986640E-01 0.27963507E+03</pdfrwt>
<pdfrwt beam="2">  1       -2 0.48711785E-02 0.27963507E+03</pdfrwt>
<totfact> 0.99029618E+03</totfact>
</mgrwt>
</event>
<event>
 9    1  0.8122655E-001  0.2781524E+03  0.7818608E-02  0.1096702E+00
          2   -1    0    0  501    0  0.00000000000E+00  0.00000000000E+00  0.46588577298E+02  0.46588577298E+02  0.00000000000E+00 0.  1.
         -2   -1    0    0    0  501 -0.00000000000E+00 -0.00000000000E+00 -0.41517021352E+03  0.41517021352E+03  0.00000000000E+00 0.  1.
         35    2    1    2    0    0  0.00000000000E+00  0.71054273576E-14 -0.36858163622E+03  0.46175879082E+03  0.27815240128E+03 0.  0.
         25    2    3    3    0    0 -0.31891892933E+02  0.36174346755E+02 -0.24517105816E+03  0.27935604766E+03  0.12492108472E+03 0.  0.
         25    2    3    3    0    0  0.31891892933E+02 -0.36174346755E+02 -0.12341057807E+03  0.18240274316E+03  0.12535913902E+03 0.  0.
          5    1    4    4  502    0  0.39947891139E+02  0.43742698086E+02 -0.13537583222E+03  0.14784438978E+03  0.47000000000E+01 0.  1.
         -5    1    4    4    0  502 -0.71839784072E+02 -0.75683513310E+01 -0.10979522594E+03  0.13151165787E+03  0.47000000000E+01 0.  1.
          5    1    5    5  503    0  0.54618217709E+01 -0.65044122968E+02 -0.12694706577E+03  0.14282232647E+03  0.47000000000E+01 0. -1.
         -5    1    5    5    0  503  0.26430071162E+02  0.28869776213E+02  0.35364877060E+01  0.39580416692E+02  0.47000000000E+01 0. -1.
<mgrwt>
<rscale>  0 0.27815240E+03</rscale>
<asrwt>0</asrwt>
<pdfrwt beam="1">  1        2 0.71674736E-02 0.27815240E+03</pdfrwt>
<pdfrwt beam="2">  1       -2 0.63872339E-01 0.27815240E+03</pdfrwt>
<totfact> 0.22673347E+03</totfact>
</mgrwt>
</event>
<event>
 9    1  0.8122655E-001  0.2748559E+03  0.7818608E-02  0.1098532E+00
         -2   -1    0    0    0  501 -0.00000000000E+00  0.00000000000E+00  0.43740296432E+02  0.43740296432E+02  0.00000000000E+00 0.  1.
          2   -1    0    0  501    0  0.00000000000E+00 -0.00000000000E+00 -0.43178576240E+03  0.43178576240E+03  0.00000000000E+00 0.  1.
         35    2    1    2    0    0  0.00000000000E+00  0.14210854715E-13 -0.38804546597E+03  0.47552605883E+03  0.27485586945E+03 0.  0.
         25    2    3    3    0    0  0.18877230423E+02 -0.55837117160E+02 -0.17215984127E+03  0.21980497400E+03  0.12329266875E+03 0.  0.
         25    2    3    3    0    0 -0.18877230423E+02  0.55837117160E+02 -0.21588562470E+03  0.25572108484E+03  0.12374383539E+03 0.  0.
          5    1    4    4  502    0  0.72293696566E+01 -0.91634560498E+02 -0.87323168867E+02  0.12687230700E+03  0.47000000000E+01 0. -1.
         -5    1    4    4    0  502  0.11647860766E+02  0.35797443339E+02 -0.84836672405E+02  0.92932666995E+02  0.47000000000E+01 0. -1.
          5    1    5    5  503    0  0.37489624098E+02  0.65608755612E+02 -0.15216197342E+03  0.16995686771E+03  0.47000000000E+01 0.  1.
         -5    1    5    5    0  503 -0.56366854521E+02 -0.97716384519E+01 -0.63723651282E+02  0.85764217126E+02  0.47000000000E+01 0.  1.
<mgrwt>
<rscale>  0 0.27485587E+03</rscale>
<asrwt>0</asrwt>
<pdfrwt beam="1">  1        2 0.66428576E-01 0.27485587E+03</pdfrwt>
<pdfrwt beam="2">  1       -2 0.67292766E-02 0.27485587E+03</pdfrwt>
<totfact> 0.90326431E+03</totfact>
</mgrwt>
</event>
<event>
 9    1  0.8122655E-001  0.2703291E+03  0.7818608E-02  0.1101091E+00
          2   -1    0    0  501    0  0.00000000000E+00  0.00000000000E+00  0.18892441785E+03  0.18892441785E+03  0.00000000000E+00 0.  1.
         -2   -1    0    0    0  501 -0.00000000000E+00 -0.00000000000E+00 -0.96702436633E+02  0.96702436633E+02  0.00000000000E+00 0.  1.
         35    2    1    2    0    0  0.00000000000E+00  0.00000000000E+00  0.92221981219E+02  0.28562685448E+03  0.27032907018E+03 0.  0.
         25    2    3    3    0    0  0.14694768360E+02 -0.49112027284E+02  0.50270101447E+02  0.14453051247E+03  0.12543547542E+03 0.  0.
         25    2    3    3    0    0 -0.14694768360E+02  0.49112027284E+02  0.41951879772E+02  0.14109634202E+03  0.12458045623E+03 0.  0.
          5    1    4    4  502    0  0.61737351166E+02 -0.28449217138E+02 -0.57371388636E+01  0.68380284052E+02  0.47000000000E+01 0.  1.
         -5    1    4    4    0  502 -0.47042582806E+02 -0.20662810147E+02  0.56007240311E+02  0.76150228413E+02  0.47000000000E+01 0.  1.
          5    1    5    5  503    0 -0.29310854318E+02 -0.34005012999E+02  0.33377814088E+02  0.56139429666E+02  0.47000000000E+01 0.  1.
         -5    1    5    5    0  503  0.14616085958E+02  0.83117040283E+02  0.85740656839E+01  0.84956912353E+02  0.47000000000E+01 0.  1.
<mgrwt>
<rscale>  0 0.27032907E+03</rscale>
<asrwt>0</asrwt>
<pdfrwt beam="1">  1        2 0.29065295E-01 0.27032907E+03</pdfrwt>
<pdfrwt beam="2">  1       -2 0.14877298E-01 0.27032907E+03</pdfrwt>
<totfact> 0.62500312E+03</totfact>
</mgrwt>
</event>
<event>
 9    1  0.8122655E-001  0.2761307E+03  0.7818608E-02  0.1097821E+00
         -1   -1    0    0    0  501 -0.00000000000E+00  0.00000000000E+00  0.72094869555E+03  0.72094869555E+03  0.00000000000E+00 0.  1.
          1   -1    0    0  501    0  0.00000000000E+00 -0.00000000000E+00 -0.26440223177E+02  0.26440223177E+02  0.00000000000E+00 0.  1.
         35    2    1    2    0    0 -0.35527136788E-14  0.00000000000E+00  0.69450847237E+03  0.74738891873E+03  0.27613072563E+03 0.  0.
         25    2    3    3    0    0 -0.20511734110E+02  0.59418438673E+02  0.34551510049E+03  0.37153017751E+03  0.12125471557E+03 0.  0.
         25    2    3    3    0    0  0.20511734110E+02 -0.59418438673E+02  0.34899337189E+03  0.37585874121E+03  0.12458787114E+03 0.  0.
          5    1    4    4  502    0 -0.34347621049E+02  0.36445797382E+00  0.27995252242E+03  0.28209111420E+03  0.47000000000E+01 0.  1.
         -5    1    4    4    0  502  0.13835886938E+02  0.59053980699E+02  0.65562578072E+02  0.89439063318E+02  0.47000000000E+01 0.  1.
          5    1    5    5  503    0  0.78976660569E+01  0.38291258444E+02  0.76043938159E+02  0.85635063690E+02  0.47000000000E+01 0.  1.
         -5    1    5    5    0  503  0.12614068054E+02 -0.97709697117E+02  0.27294943373E+03  0.29022367752E+03  0.47000000000E+01 0.  1.
<mgrwt>
<rscale>  0 0.27613073E+03</rscale>
<asrwt>0</asrwt>
<pdfrwt beam="1">  1        1 0.40677272E-02 0.27613073E+03</pdfrwt>
<pdfrwt beam="2">  1       -1 0.11091517E+00 0.27613073E+03</pdfrwt>
<totfact> 0.17664791E+03</totfact>
</mgrwt>
</event>
<event>
 9    1  0.8122655E-001  0.2730884E+03  0.7818608E-02  0.1099525E+00
          2   -1    0    0  501    0  0.00000000000E+00  0.00000000000E+00  0.10175523525E+04  0.10175523525E+04  0.00000000000E+00 0. -1.
         -2   -1    0    0    0  501 -0.00000000000E+00 -0.00000000000E+00 -0.18322711076E+02  0.18322711076E+02  0.00000000000E+00 0. -1.
         35    2    1    2    0    0 -0.71054273576E-14  0.71054273576E-14  0.99922964144E+03  0.10358750636E+04  0.27308839418E+03 0.  0.
         25    2    3    3    0    0 -0.37935728042E+02  0.22791712960E+02  0.37199685991E+03  0.39494288616E+03  0.12505853792E+03 0.  0.
         25    2    3    3    0    0  0.37935728042E+02 -0.22791712960E+02  0.62723278153E+03  0.64093217743E+03  0.12415519399E+03 0.  0.
          5    1    4    4  502    0 -0.58871931342E+02 -0.14680000406E+02  0.84005959405E+02  0.10373281991E+03  0.47000000000E+01 0.  1.
         -5    1    4    4    0  502  0.20936203301E+02  0.37471713366E+02  0.28799090050E+03  0.29121006625E+03  0.47000000000E+01 0.  1.
          5    1    5    5  503    0  0.34864373685E+02 -0.20755894842E+01  0.61542882036E+03  0.61643698425E+03  0.47000000000E+01 0.  1.
         -5    1    5    5    0  503  0.30713543571E+01 -0.20716123476E+02  0.11803961173E+02  0.24495193178E+02  0.47000000000E+01 0.  1.
<mgrwt>
<rscale>  0 0.27308839E+03</rscale>
<asrwt>0</asrwt>
<pdfrwt beam="1">  1        2 0.15654647E+00 0.27308839E+03</pdfrwt>
<pdfrwt beam="2">  1       -2 0.28188794E-02 0.27308839E+03</pdfrwt>
<totfact> 0.11872903E+04</totfact>
</mgrwt>
</event>
<event>
 9    1  0.8122655E-001  0.2808231E+03  0.7818608E-02  0.1095240E+00
         -1   -1    0    0    0  501 -0.00000000000E+00  0.00000000000E+00  0.44125814349E+03  0.44125814349E+03  0.00000000000E+00 0. -1.
          1   -1    0    0  501    0  0.00000000000E+00 -0.00000000000E+00 -0.44679987272E+02  0.44679987272E+02  0.00000000000E+00 0. -1.
         35    2    1    2    0    0 -0.71054273576E-14  0.71054273576E-14  0.39657815622E+03  0.48593813077E+03  0.28082313462E+03 0.  0.
         25    2    3    3    0    0  0.45518008568E+02 -0.32944784706E+02  0.25263699516E+03  0.28718670458E+03  0.12447290477E+03 0.  0.
         25    2    3    3    0    0 -0.45518008568E+02  0.32944784706E+02  0.14394116106E+03  0.19875142618E+03  0.12500329443E+03 0.  0.
          5    1    4    4  502    0  0.88731297694E+02 -0.24815973834E+02  0.16583643349E+03  0.18977062054E+03  0.47000000000E+01 0.  1.
         -5    1    4    4    0  502 -0.43213289127E+02 -0.81288108714E+01  0.86800561673E+02  0.97416084042E+02  0.47000000000E+01 0.  1.
          5    1    5    5  503    0  0.32454983700E+02 -0.21527895239E+02  0.60669616316E+02  0.72247273889E+02  0.47000000000E+01 0. -1.
         -5    1    5    5    0  503 -0.77972992268E+02  0.54472679945E+02  0.83271544741E+02  0.12650415229E+03  0.47000000000E+01 0. -1.
<mgrwt>
<rscale>  0 0.28082313E+03</rscale>
<asrwt>0</asrwt>
<pdfrwt beam="1">  1        1 0.68738445E-02 0.28082313E+03</pdfrwt>
<pdfrwt beam="2">  1       -1 0.67885865E-01 0.28082313E+03</pdfrwt>
<totfact> 0.24374316E+03</totfact>
</mgrwt>
</event>
<event>
 9    1  0.8122655E-001  0.2780395E+03  0.7818608E-02  0.1096765E+00
          1   -1    0    0  501    0  0.00000000000E+00  0.00000000000E+00  0.13841049002E+04  0.13841049002E+04  0.00000000000E+00 0.  1.
         -1   -1    0    0    0  501 -0.00000000000E+00 -0.00000000000E+00 -0.13963171156E+02  0.13963171156E+02  0.00000000000E+00 0.  1.
         35    2    1    2    0    0  0.00000000000E+00  0.00000000000E+00  0.13701417290E+04  0.13980680713E+04  0.27803951963E+03 0.  0.
         25    2    3    3    0    0  0.21196702069E+02 -0.57678852862E+02  0.69187235810E+03  0.70582397073E+03  0.12539524518E+03 0.  0.
         25    2    3    3    0    0 -0.21196702069E+02  0.57678852862E+02  0.67826937092E+03  0.69224410060E+03  0.12400163320E+03 0.  0.
          5    1    4    4  502    0  0.10918092512E+02  0.38558313178E+02  0.14873960483E+03  0.15411524358E+03  0.47000000000E+01 0.  1.
         -5    1    4    4    0  502  0.10278609557E+02 -0.96237166040E+02  0.54313275327E+03  0.55170872715E+03  0.47000000000E+01 0.  1.
          5    1    5    5  503    0  0.10154944308E+02  0.83623666787E+02  0.57482637145E+03  0.58098492911E+03  0.47000000000E+01 0.  1.
         -5    1    5    5    0  503 -0.31351646377E+02 -0.25944813926E+02  0.10344299947E+03  0.11125917148E+03  0.47000000000E+01 0.  1.
<mgrwt>
<rscale>  0 0.27803952E+03</rscale>
<asrwt>0</asrwt>
<pdfrwt beam="1">  1        1 0.21293911E+00 0.27803952E+03</pdfrwt>
<pdfrwt beam="2">  1       -1 0.21481813E-02 0.27803952E+03</pdfrwt>
<totfact> 0.52829885E+03</totfact>
</mgrwt>
</event>
<event>
 9    1  0.8122655E-001  0.2814745E+03  0.7818608E-02  0.1094886E+00
          2   -1    0    0  501    0  0.00000000000E+00  0.00000000000E+00  0.77167480484E+03  0.77167480484E+03  0.00000000000E+00 0. -1.
         -2   -1    0    0    0  501 -0.00000000000E+00 -0.00000000000E+00 -0.25667515917E+02  0.25667515917E+02  0.00000000000E+00 0. -1.
         35    2    1    2    0    0 -0.71054273576E-14  0.71054273576E-14  0.74600728893E+03  0.79734232076E+03  0.28147451278E+03 0.  0.
         25    2    3    3    0    0  0.56872391268E+02  0.31376532468E+02  0.37171811465E+03  0.39761620740E+03  0.12532093182E+03 0.  0.
         25    2    3    3    0    0 -0.56872391268E+02 -0.31376532468E+02  0.37428917428E+03  0.39972611336E+03  0.12437694337E+03 0.  0.
          5    1    4    4  502    0 -0.37159423275E+02 -0.45011334959E+01  0.69974038998E+02  0.79495528645E+02  0.47000000000E+01 0.  1.
         -5    1    4    4    0  502  0.94031814543E+02  0.35877665964E+02  0.30174407565E+03  0.31812067876E+03  0.47000000000E+01 0.  1.
          5    1    5    5  503    0 -0.79814748677E+02  0.40888098556E+01  0.13712743931E+03  0.15878645120E+03  0.47000000000E+01 0. -1.
         -5    1    5    5    0  503  0.22942357409E+02 -0.35465342324E+02  0.23716173496E+03  0.24093966216E+03  0.47000000000E+01 0. -1.
<mgrwt>
<rscale>  0 0.28147451E+03</rscale>
<asrwt>0</asrwt>
<pdfrwt beam="1">  1        2 0.11871918E+00 0.28147451E+03</pdfrwt>
<pdfrwt beam="2">  1       -2 0.39488492E-02 0.28147451E+03</pdfrwt>
<totfact> 0.10384196E+04</totfact>
</mgrwt>
</event>
<event>
 9    1  0.8122655E-001  0.2653376E+03  0.7818608E-02  0.1103978E+00
         -2   -1    0    0    0  501 -0.00000000000E+00  0.00000000000E+00  0.40957501638E+02  0.40957501638E+02  0.00000000000E+00 0.  1.
          2   -1    0    0  501    0  0.00000000000E+00 -0.00000000000E+00 -0.42973843309E+03  0.42973843309E+03  0.00000000000E+00 0.  1.
         35    2    1    2    0    0  0.71054273576E-14  0.35527136788E-14 -0.38878093145E+03  0.47069593473E+03  0.26533761571E+03 0.  0.
         25    2    3    3    0    0  0.40113332867E+02 -0.49938252865E+01 -0.22732613979E+03  0.26269868315E+03  0.12529727263E+03 0.  0.
         25    2    3    3    0    0 -0.40113332867E+02  0.49938252865E+01 -0.16145479166E+03  0.20799725158E+03  0.12474449547E+03 0.  0.
          5    1    4    4  502    0  0.72204163215E+02  0.26201588877E+02 -0.91211796038E+02  0.11933836844E+03  0.47000000000E+01 0. -1.
         -5    1    4    4    0  502 -0.32090830348E+02 -0.31195414163E+02 -0.13611434375E+03  0.14336031471E+03  0.47000000000E+01 0. -1.
          5    1    5    5  503    0 -0.15111951939E+02 -0.48455471642E+02 -0.13276945283E+03  0.14221856921E+03  0.47000000000E+01 0. -1.
         -5    1    5    5    0  503 -0.25001380928E+02  0.53449296929E+02 -0.28685338827E+02  0.65778682368E+02  0.47000000000E+01 0. -1.
<mgrwt>
<rscale>  0 0.26533762E+03</rscale>
<asrwt>0</asrwt>
<pdfrwt beam="1">  1        2 0.66113601E-01 0.26533762E+03</pdfrwt>
<pdfrwt beam="2">  1       -2 0.63011545E-02 0.26533762E+03</pdfrwt>
<totfact> 0.10033647E+04</totfact>
</mgrwt>
</event>
<event>
 9    1  0.8122655E-001  0.2764922E+03  0.7818608E-02  0.1097620E+00
          2   -1    0    0  501    0  0.00000000000E+00  0.00000000000E+00  0.99109471435E+02  0.99109471435E+02  0.00000000000E+00 0.  1.
         -2   -1    0    0    0  501 -0.00000000000E+00 -0.00000000000E+00 -0.19283708289E+03  0.19283708289E+03  0.00000000000E+00 0.  1.
         35    2    1    2    0    0 -0.71054273576E-14 -0.71054273576E-14 -0.93727611456E+02  0.29194655433E+03  0.27649217970E+03 0.  0.
         25    2    3    3    0    0  0.29686728923E+02  0.32880386859E+02 -0.48650521462E+01  0.13269745059E+03  0.12499009139E+03 0.  0.
         25    2    3    3    0    0 -0.29686728923E+02 -0.32880386859E+02 -0.88862559309E+02  0.15924910374E+03  0.12450422033E+03 0.  0.
          5    1    4    4  502    0 -0.18462705460E+02  0.66849053651E+02  0.13475043581E+02  0.70804902842E+02  0.47000000000E+01 0. -1.
         -5    1    4    4    0  502  0.48149434384E+02 -0.33968666792E+02 -0.18340095727E+02  0.61892547745E+02  0.47000000000E+01 0. -1.
          5    1    5    5  503    0 -0.75353029347E+02 -0.28635064355E+02 -0.77154294438E+02  0.11168223266E+03  0.47000000000E+01 0. -1.
         -5    1    5    5    0  503  0.45666300424E+02 -0.42453225037E+01 -0.11708264871E+02  0.47566871075E+02  0.47000000000E+01 0. -1.
<mgrwt>
<rscale>  0 0.27649218E+03</rscale>
<asrwt>0</asrwt>
<pdfrwt beam="1">  1        2 0.15247611E-01 0.27649218E+03</pdfrwt>
<pdfrwt beam="2">  1       -2 0.29667243E-01 0.27649218E+03</pdfrwt>
<totfact> 0.39675207E+03</totfact>
</mgrwt>
</event>
<event>
 9    1  0.8122655E-001  0.2765237E+03  0.7818608E-02  0.1097603E+00
         -2   -1    0    0    0  501 -0.00000000000E+00  0.00000000000E+00  0.43277136301E+02  0.43277136301E+02  0.00000000000E+00 0. -1.
          2   -1    0    0  501    0  0.00000000000E+00 -0.00000000000E+00 -0.44171910337E+03  0.44171910337E+03  0.00000000000E+00 0. -1.
         35    2    1    2    0    0  0.00000000000E+00 -0.17763568394E-14 -0.39844196707E+03  0.48499623967E+03  0.27652369044E+03 0.  0.
         25    2    3    3    0    0  0.22632543554E+02 -0.71453828311E+01 -0.10695734486E+03  0.16698822378E+03  0.12602342931E+03 0.  0.
         25    2    3    3    0    0 -0.22632543554E+02  0.71453828311E+01 -0.29148462221E+03  0.31800801590E+03  0.12491006632E+03 0.  0.
          5    1    4    4  502    0 -0.38481506830E+02  0.30795457617E+02 -0.18444066358E+02  0.52834270711E+02  0.47000000000E+01 0. -1.
         -5    1    4    4    0  502  0.61114050384E+02 -0.37940840448E+02 -0.88513278506E+02  0.11415395306E+03  0.47000000000E+01 0. -1.
          5    1    5    5  503    0 -0.45459697943E+02  0.17517020627E+02 -0.34789706539E+02  0.60048678835E+02  0.47000000000E+01 0. -1.
         -5    1    5    5    0  503  0.22827154389E+02 -0.10371637796E+02 -0.25669491567E+03  0.25795933706E+03  0.47000000000E+01 0. -1.
<mgrwt>
<rscale>  0 0.27652369E+03</rscale>
<asrwt>0</asrwt>
<pdfrwt beam="1">  1        2 0.67956783E-01 0.27652369E+03</pdfrwt>
<pdfrwt beam="2">  1       -2 0.66580211E-02 0.27652369E+03</pdfrwt>
<totfact> 0.89581694E+03</totfact>
</mgrwt>
</event>
<event>
 9    1  0.8122655E-001  0.2677370E+03  0.7818608E-02  0.1102582E+00
          2   -1    0    0  501    0  0.00000000000E+00  0.00000000000E+00  0.68900376428E+03  0.68900376428E+03  0.00000000000E+00 0. -1.
         -2   -1    0    0    0  501 -0.00000000000E+00 -0.00000000000E+00 -0.26009694470E+02  0.26009694470E+02  0.00000000000E+00 0. -1.
         35    2    1    2    0    0  0.17763568394E-14  0.71054273576E-14  0.66299406981E+03  0.71501345875E+03  0.26773701573E+03 0.  0.
         25    2    3    3    0    0 -0.50374602637E+01  0.41226440622E+01  0.20892167569E+03  0.24366778558E+03  0.12523318632E+03 0.  0.
         25    2    3    3    0    0  0.50374602637E+01 -0.41226440622E+01  0.45407239412E+03  0.47134567317E+03  0.12626413709E+03 0.  0.
          5    1    4    4  502    0 -0.84191353654E+01 -0.58996806622E+02  0.78605156227E+02  0.98754066334E+02  0.47000000000E+01 0. -1.
         -5    1    4    4    0  502  0.33816751017E+01  0.63119450684E+02  0.13031651946E+03  0.14491371925E+03  0.47000000000E+01 0. -1.
          5    1    5    5  503    0  0.54641898658E+02 -0.37379013824E+02  0.22694430304E+03  0.23645027901E+03  0.47000000000E+01 0.  1.
         -5    1    5    5    0  503 -0.49604438394E+02  0.33256369762E+02  0.22712809108E+03  0.23489539416E+03  0.47000000000E+01 0.  1.
<mgrwt>
<rscale>  0 0.26773702E+03</rscale>
<asrwt>0</asrwt>
<pdfrwt beam="1">  1        2 0.10600057E+00 0.26773702E+03</pdfrwt>
<pdfrwt beam="2">  1       -2 0.40014920E-02 0.26773702E+03</pdfrwt>
<totfact> 0.11681228E+04</totfact>
</mgrwt>
</event>
<event>
 9    1  0.8122655E-001  0.2747622E+03  0.7818608E-02  0.1098585E+00
         -2   -1    0    0    0  501 -0.00000000000E+00  0.00000000000E+00  0.26752063444E+02  0.26752063444E+02  0.00000000000E+00 0.  1.
          2   -1    0    0  501    0  0.00000000000E+00 -0.00000000000E+00 -0.70549964394E+03  0.70549964394E+03  0.00000000000E+00 0.  1.
         35    2    1    2    0    0  0.71054273576E-14  0.00000000000E+00 -0.67874758050E+03  0.73225170739E+03  0.27476223346E+03 0.  0.
         25    2    3    3    0    0  0.52628867746E+02  0.23041827366E+02 -0.32371908704E+03  0.35180657024E+03  0.12519222029E+03 0.  0.
         25    2    3    3    0    0 -0.52628867746E+02 -0.23041827366E+02 -0.35502849346E+03  0.38044513715E+03  0.12406670658E+03 0.  0.
          5    1    4    4  502    0  0.88957590143E+02  0.23369177490E+02 -0.28006332455E+03  0.29481710781E+03  0.47000000000E+01 0. -1.
         -5    1    4    4    0  502 -0.36328722397E+02 -0.32735012445E+00 -0.43655762487E+02  0.56989462425E+02  0.47000000000E+01 0. -1.
          5    1    5    5  503    0  0.36150992717E+02  0.13937726637E+02 -0.12864720095E+03  0.13443714818E+03  0.47000000000E+01 0.  1.
         -5    1    5    5    0  503 -0.88779860463E+02 -0.36979554003E+02 -0.22638129252E+03  0.24600798897E+03  0.47000000000E+01 0.  1.
<mgrwt>
<rscale>  0 0.27476223E+03</rscale>
<asrwt>0</asrwt>
<pdfrwt beam="1">  1        2 0.10853839E+00 0.27476223E+03</pdfrwt>
<pdfrwt beam="2">  1       -2 0.41157028E-02 0.27476223E+03</pdfrwt>
<totfact> 0.10891195E+04</totfact>
</mgrwt>
</event>
<event>
 9    1  0.8122655E-001  0.3025066E+03  0.7818608E-02  0.1083994E+00
          1   -1    0    0  501    0  0.00000000000E+00  0.00000000000E+00  0.12719498404E+03  0.12719498404E+03  0.00000000000E+00 0. -1.
         -1   -1    0    0    0  501 -0.00000000000E+00 -0.00000000000E+00 -0.17986209686E+03  0.17986209686E+03  0.00000000000E+00 0. -1.
         35    2    1    2    0    0 -0.17763568394E-14  0.00000000000E+00 -0.52667112823E+02  0.30705708091E+03  0.30250657210E+03 0.  0.
         25    2    3    3    0    0  0.13659428991E+02  0.10255012172E+02  0.58476297357E+02  0.13885827031E+03  0.12478139528E+03 0.  0.
         25    2    3    3    0    0 -0.13659428991E+02 -0.10255012172E+02 -0.11114341018E+03  0.16819881059E+03  0.12508491909E+03 0.  0.
          5    1    4    4  502    0  0.18846502724E+02 -0.54241319718E+02  0.11473366660E+02  0.58745549382E+02  0.47000000000E+01 0. -1.
         -5    1    4    4    0  502 -0.51870737336E+01  0.64496331890E+02  0.47002930697E+02  0.80112720932E+02  0.47000000000E+01 0. -1.
          5    1    5    5  503    0 -0.58235442781E+01  0.81553479151E+01 -0.13571438205E+03  0.13616499867E+03  0.47000000000E+01 0. -1.
         -5    1    5    5    0  503 -0.78358847127E+01 -0.18410360087E+02  0.24570971869E+02  0.32033811923E+02  0.47000000000E+01 0. -1.
<mgrwt>
<rscale>  0 0.30250657E+03</rscale>
<asrwt>0</asrwt>
<pdfrwt beam="1">  1        1 0.19568459E-01 0.30250657E+03</pdfrwt>
<pdfrwt beam="2">  1       -1 0.27671092E-01 0.30250657E+03</pdfrwt>
<totfact> 0.30782519E+03</totfact>
</mgrwt>
</event>
<event>
 9    1  0.8122655E-001  0.2741209E+03  0.7818608E-02  0.1098944E+00
         -2   -1    0    0    0  501 -0.00000000000E+00  0.00000000000E+00  0.14264248529E+02  0.14264248529E+02  0.00000000000E+00 0. -1.
          2   -1    0    0  501    0  0.00000000000E+00 -0.00000000000E+00 -0.13169685415E+04  0.13169685415E+04  0.00000000000E+00 0. -1.
         35    2    1    2    0    0  0.88817841970E-15  0.00000000000E+00 -0.13027042930E+04  0.13312327900E+04  0.27412089728E+03 0.  0.
         25    2    3    3    0    0 -0.77525973999E+01  0.35627462934E+02 -0.86294735884E+03  0.87272651625E+03  0.12507601352E+03 0.  0.
         25    2    3    3    0    0  0.77525973999E+01 -0.35627462934E+02 -0.43975693415E+03  0.45850627380E+03  0.12454887834E+03 0.  0.
          5    1    4    4  502    0 -0.24241050200E+02 -0.15106910145E+02 -0.71151650614E+03  0.71210510162E+03  0.47000000000E+01 0.  1.
         -5    1    4    4    0  502  0.16488452800E+02  0.50734373078E+02 -0.15143085270E+03  0.16062141463E+03  0.47000000000E+01 0.  1.
          5    1    5    5  503    0  0.73279731399E+01 -0.36183361925E+02 -0.27628364999E+02  0.46350312006E+02  0.47000000000E+01 0.  1.
         -5    1    5    5    0  503  0.42462425998E+00  0.55589899111E+00 -0.41212856915E+03  0.41215596179E+03  0.47000000000E+01 0.  1.
<mgrwt>
<rscale>  0 0.27412090E+03</rscale>
<asrwt>0</asrwt>
<pdfrwt beam="1">  1        2 0.20261048E+00 0.27412090E+03</pdfrwt>
<pdfrwt beam="2">  1       -2 0.21945005E-02 0.27412090E+03</pdfrwt>
<totfact> 0.11564091E+04</totfact>
</mgrwt>
</event>
<event>
 9    1  0.8122655E-001  0.2758262E+03  0.7818608E-02  0.1097991E+00
          2   -1    0    0  501    0  0.00000000000E+00  0.00000000000E+00  0.65162325387E+03  0.65162325387E+03  0.00000000000E+00 0.  1.
         -2   -1    0    0    0  501 -0.00000000000E+00 -0.00000000000E+00 -0.29188685104E+02  0.29188685104E+02  0.00000000000E+00 0.  1.
         35    2    1    2    0    0  0.35527136788E-14 -0.71054273576E-14  0.62243456877E+03  0.68081193898E+03  0.27582622039E+03 0.  0.
         25    2    3    3    0    0 -0.10503385938E+02 -0.57390862297E+02  0.30792083358E+03  0.33724769022E+03  0.12456617767E+03 0.  0.
         25    2    3    3    0    0  0.10503385938E+02  0.57390862297E+02  0.31451373519E+03  0.34356424875E+03  0.12535338529E+03 0.  0.
          5    1    4    4  502    0 -0.60853118290E+01 -0.87488929141E+01 -0.10128632304E+02  0.15435457221E+02  0.47000000000E+01 0.  1.
         -5    1    4    4    0  502 -0.44180741093E+01 -0.48641969383E+02  0.31804946588E+03  0.32181223300E+03  0.47000000000E+01 0.  1.
          5    1    5    5  503    0  0.56441187536E+02  0.68922244002E+02  0.18031590061E+03  0.20117603580E+03  0.47000000000E+01 0. -1.
         -5    1    5    5    0  503 -0.45937801598E+02 -0.11531381705E+02  0.13419783459E+03  0.14238821295E+03  0.47000000000E+01 0. -1.
<mgrwt>
<rscale>  0 0.27582622E+03</rscale>
<asrwt>0</asrwt>
<pdfrwt beam="1">  1        2 0.10024972E+00 0.27582622E+03</pdfrwt>
<pdfrwt beam="2">  1       -2 0.44905674E-02 0.27582622E+03</pdfrwt>
<totfact> 0.10506766E+04</totfact>
</mgrwt>
</event>
<event>
 9    1  0.8122655E-001  0.2744094E+03  0.7818608E-02  0.1098782E+00
         -2   -1    0    0    0  501 -0.00000000000E+00  0.00000000000E+00  0.11718762418E+02  0.11718762418E+02  0.00000000000E+00 0. -1.
          2   -1    0    0  501    0  0.00000000000E+00 -0.00000000000E+00 -0.16064088610E+04  0.16064088610E+04  0.00000000000E+00 0. -1.
         35    2    1    2    0    0  0.71054273576E-14  0.00000000000E+00 -0.15946900985E+04  0.16181276234E+04  0.27440935690E+03 0.  0.
         25    2    3    3    0    0  0.35668317374E+02 -0.33288347085E+02 -0.95770212315E+03  0.96704759494E+03  0.12492938517E+03 0.  0.
         25    2    3    3    0    0 -0.35668317374E+02  0.33288347085E+02 -0.63698797539E+03  0.65108002843E+03  0.12558335765E+03 0.  0.
          5    1    4    4  502    0 -0.94314677782E+01  0.76389675815E+01 -0.76028892169E+03  0.76040031618E+03  0.47000000000E+01 0. -1.
         -5    1    4    4    0  502  0.45099785152E+02 -0.40927314666E+02 -0.19741320146E+03  0.20664727876E+03  0.47000000000E+01 0. -1.
          5    1    5    5  503    0 -0.15927429698E+02  0.81043898493E+02 -0.37844211500E+03  0.38737878221E+03  0.47000000000E+01 0.  1.
         -5    1    5    5    0  503 -0.19740887676E+02 -0.47755551409E+02 -0.25854586038E+03  0.26370124622E+03  0.47000000000E+01 0.  1.
<mgrwt>
<rscale>  0 0.27440936E+03</rscale>
<asrwt>0</asrwt>
<pdfrwt beam="1">  1        2 0.24713995E+00 0.27440936E+03</pdfrwt>
<pdfrwt beam="2">  1       -2 0.18028856E-02 0.27440936E+03</pdfrwt>
<totfact> 0.10783150E+04</totfact>
</mgrwt>
</event>
<event>
 9    1  0.8122655E-001  0.2748907E+03  0.7818608E-02  0.1098513E+00
         -1   -1    0    0    0  501 -0.00000000000E+00  0.00000000000E+00  0.78853627225E+02  0.78853627225E+02  0.00000000000E+00 0. -1.
          1   -1    0    0  501    0  0.00000000000E+00 -0.00000000000E+00 -0.23957339176E+03  0.23957339176E+03  0.00000000000E+00 0. -1.
         35    2    1    2    0    0  0.71054273576E-14  0.00000000000E+00 -0.16071976454E+03  0.31842701899E+03  0.27489074868E+03 0.  0.
         25    2    3    3    0    0 -0.33839795075E+02  0.10859644645E+02 -0.28901899356E+02  0.13347568114E+03  0.12536895173E+03 0.  0.
         25    2    3    3    0    0  0.33839795075E+02 -0.10859644645E+02 -0.13181786518E+03  0.18495133784E+03  0.12477172827E+03 0.  0.
          5    1    4    4  502    0  0.36152488443E+02 -0.16294802018E+02 -0.41061520069E+02  0.57277058443E+02  0.47000000000E+01 0.  1.
         -5    1    4    4    0  502 -0.69992283519E+02  0.27154446663E+02  0.12159620714E+02  0.76198622702E+02  0.47000000000E+01 0.  1.
          5    1    5    5  503    0  0.71315361992E+02 -0.29255896360E+02 -0.47279168553E+02  0.90549423560E+02  0.47000000000E+01 0.  1.
         -5    1    5    5    0  503 -0.37475566917E+02  0.18396251715E+02 -0.84538696627E+02  0.94401914282E+02  0.47000000000E+01 0.  1.
<mgrwt>
<rscale>  0 0.27489075E+03</rscale>
<asrwt>0</asrwt>
<pdfrwt beam="1">  1        1 0.36857445E-01 0.27489075E+03</pdfrwt>
<pdfrwt beam="2">  1       -1 0.12131327E-01 0.27489075E+03</pdfrwt>
<totfact> 0.52133232E+03</totfact>
</mgrwt>
</event>
<event>
 9    1  0.8122655E-001  0.2756221E+03  0.7818608E-02  0.1098104E+00
          2   -1    0    0  501    0  0.00000000000E+00  0.00000000000E+00  0.43546763219E+03  0.43546763219E+03  0.00000000000E+00 0. -1.
         -2   -1    0    0    0  501 -0.00000000000E+00 -0.00000000000E+00 -0.43612627321E+02  0.43612627321E+02  0.00000000000E+00 0. -1.
         35    2    1    2    0    0  0.00000000000E+00 -0.71054273576E-14  0.39185500487E+03  0.47908025951E+03  0.27562211488E+03 0.  0.
         25    2    3    3    0    0 -0.53512952563E+02 -0.74708685270E+01  0.16797648742E+03  0.21618416466E+03  0.12490013112E+03 0.  0.
         25    2    3    3    0    0  0.53512952563E+02  0.74708685270E+01  0.22387851745E+03  0.26289609485E+03  0.12678058269E+03 0.  0.
          5    1    4    4  502    0 -0.60438443893E+02 -0.52977331585E+02  0.65646265472E+02  0.10387937876E+03  0.47000000000E+01 0. -1.
         -5    1    4    4    0  502  0.69254913296E+01  0.45506463058E+02  0.10233022195E+03  0.11230478589E+03  0.47000000000E+01 0. -1.
          5    1    5    5  503    0  0.20880497532E+02 -0.19398960386E+02 -0.56728034767E+01  0.29437824996E+02  0.47000000000E+01 0.  1.
         -5    1    5    5    0  503  0.32632455031E+02  0.26869828913E+02  0.22955132092E+03  0.23345826986E+03  0.47000000000E+01 0.  1.
<mgrwt>
<rscale>  0 0.27562211E+03</rscale>
<asrwt>0</asrwt>
<pdfrwt beam="1">  1        2 0.66995017E-01 0.27562211E+03</pdfrwt>
<pdfrwt beam="2">  1       -2 0.67096353E-02 0.27562211E+03</pdfrwt>
<totfact> 0.89904332E+03</totfact>
</mgrwt>
</event>
<event>
 9    1  0.8122655E-001  0.2757539E+03  0.7818608E-02  0.1098031E+00
          1   -1    0    0  501    0  0.00000000000E+00  0.00000000000E+00  0.13873624619E+03  0.13873624619E+03  0.00000000000E+00 0. -1.
         -1   -1    0    0    0  501 -0.00000000000E+00 -0.00000000000E+00 -0.13702301797E+03  0.13702301797E+03  0.00000000000E+00 0. -1.
         35    2    1    2    0    0  0.00000000000E+00  0.35527136788E-14  0.17132282128E+01  0.27575926416E+03  0.27575394216E+03 0.  0.
         25    2    3    3    0    0  0.56359397258E+02 -0.90465197007E+01 -0.69145375186E+01  0.13802365669E+03  0.12547708077E+03 0.  0.
         25    2    3    3    0    0 -0.56359397258E+02  0.90465197007E+01  0.86277657314E+01  0.13773560747E+03  0.12505374063E+03 0.  0.
          5    1    4    4  502    0  0.86261535893E+02  0.17699861625E+02  0.18765546369E+02  0.90158601402E+02  0.47000000000E+01 0. -1.
         -5    1    4    4    0  502 -0.29902138635E+02 -0.26746381326E+02 -0.25680083887E+02  0.47865055285E+02  0.47000000000E+01 0. -1.
          5    1    5    5  503    0  0.24702286018E+02 -0.15493631857E+02  0.37857128823E+02  0.48015703320E+02  0.47000000000E+01 0. -1.
         -5    1    5    5    0  503 -0.81061683276E+02  0.24540151558E+02 -0.29229363092E+02  0.89719904150E+02  0.47000000000E+01 0. -1.
<mgrwt>
<rscale>  0 0.27575394E+03</rscale>
<asrwt>0</asrwt>
<pdfrwt beam="1">  1        1 0.21344038E-01 0.27575394E+03</pdfrwt>
<pdfrwt beam="2">  1       -1 0.21080464E-01 0.27575394E+03</pdfrwt>
<totfact> 0.43128493E+03</totfact>
</mgrwt>
</event>
<event>
 9    1  0.8122655E-001  0.2755255E+03  0.7818608E-02  0.1098158E+00
         -2   -1    0    0    0  501 -0.00000000000E+00  0.00000000000E+00  0.41535836277E+02  0.41535836277E+02  0.00000000000E+00 0.  1.
          2   -1    0    0  501    0  0.00000000000E+00 -0.00000000000E+00 -0.45692065719E+03  0.45692065719E+03  0.00000000000E+00 0.  1.
         35    2    1    2    0    0  0.71054273576E-14  0.00000000000E+00 -0.41538482091E+03  0.49845649347E+03  0.27552554588E+03 0.  0.
         25    2    3    3    0    0  0.16105269863E+02  0.28490221506E+02 -0.29631244372E+03  0.32298882212E+03  0.12429659077E+03 0.  0.
         25    2    3    3    0    0 -0.16105269863E+02 -0.28490221506E+02 -0.11907237720E+03  0.17546767134E+03  0.12465793291E+03 0.  0.
          5    1    4    4  502    0 -0.32707887786E+02  0.61205505993E+02 -0.16368431340E+03  0.17784983649E+03  0.47000000000E+01 0. -1.
         -5    1    4    4    0  502  0.48813157649E+02 -0.32715284487E+02 -0.13262813032E+03  0.14513898564E+03  0.47000000000E+01 0. -1.
          5    1    5    5  503    0  0.48095538655E+02  0.15489458460E+02 -0.51438414279E+02  0.72257211581E+02  0.47000000000E+01 0.  1.
         -5    1    5    5    0  503 -0.64200808518E+02 -0.43979679966E+02 -0.67633962918E+02  0.10321045976E+03  0.47000000000E+01 0.  1.
<mgrwt>
<rscale>  0 0.27552555E+03</rscale>
<asrwt>0</asrwt>
<pdfrwt beam="1">  1        2 0.70295478E-01 0.27552555E+03</pdfrwt>
<pdfrwt beam="2">  1       -2 0.63901293E-02 0.27552555E+03</pdfrwt>
<totfact> 0.91935459E+03</totfact>
</mgrwt>
</event>
<event>
 9    1  0.8122655E-001  0.2733256E+03  0.7818608E-02  0.1099391E+00
          1   -1    0    0  501    0  0.00000000000E+00  0.00000000000E+00  0.52788144814E+03  0.52788144814E+03  0.00000000000E+00 0. -1.
         -1   -1    0    0    0  501 -0.00000000000E+00 -0.00000000000E+00 -0.35380528302E+02  0.35380528302E+02  0.00000000000E+00 0. -1.
         35    2    1    2    0    0  0.00000000000E+00 -0.35527136788E-14  0.49250091983E+03  0.56326197644E+03  0.27332562643E+03 0.  0.
         25    2    3    3    0    0 -0.41131656253E+02  0.29202365033E+02  0.19818174532E+03  0.23974599813E+03  0.12513012496E+03 0.  0.
         25    2    3    3    0    0  0.41131656253E+02 -0.29202365033E+02  0.29431917452E+03  0.32351597831E+03  0.12447578263E+03 0.  0.
          5    1    4    4  502    0 -0.67198901713E+02  0.58263570705E+02  0.99610613784E+02  0.13362148196E+03  0.47000000000E+01 0. -1.
         -5    1    4    4    0  502  0.26067245460E+02 -0.29061205672E+02  0.98571131532E+02  0.10612451617E+03  0.47000000000E+01 0. -1.
          5    1    5    5  503    0  0.61024483411E+02 -0.26336885606E+02  0.64380886406E+02  0.92653157817E+02  0.47000000000E+01 0.  1.
         -5    1    5    5    0  503 -0.19892827159E+02 -0.28654794271E+01  0.22993828811E+03  0.23086282049E+03  0.47000000000E+01 0.  1.
<mgrwt>
<rscale>  0 0.27332563E+03</rscale>
<asrwt>0</asrwt>
<pdfrwt beam="1">  1        1 0.81212525E-01 0.27332563E+03</pdfrwt>
<pdfrwt beam="2">  1       -1 0.54431586E-02 0.27332563E+03</pdfrwt>
<totfact> 0.64672740E+03</totfact>
</mgrwt>
</event>
<event>
 9    1  0.8122655E-001  0.2735157E+03  0.7818608E-02  0.1099284E+00
          1   -1    0    0  501    0  0.00000000000E+00  0.00000000000E+00  0.12329485975E+03  0.12329485975E+03  0.00000000000E+00 0. -1.
         -1   -1    0    0    0  501 -0.00000000000E+00 -0.00000000000E+00 -0.15169090318E+03  0.15169090318E+03  0.00000000000E+00 0. -1.
         35    2    1    2    0    0 -0.14210854715E-13  0.00000000000E+00 -0.28396043435E+02  0.27498576293E+03  0.27351569339E+03 0.  0.
         25    2    3    3    0    0 -0.32298640471E+02 -0.60207662963E+01 -0.59460321505E+02  0.14487162390E+03  0.12795626509E+03 0.  0.
         25    2    3    3    0    0  0.32298640471E+02  0.60207662963E+01  0.31064278070E+02  0.13011413902E+03  0.12200511464E+03 0.  0.
          5    1    4    4  502    0 -0.53308804312E+01 -0.26184377441E+02  0.35112242255E+02  0.44373409429E+02  0.47000000000E+01 0. -1.
         -5    1    4    4    0  502 -0.26967760040E+02  0.20163611145E+02 -0.94572563759E+02  0.10049821447E+03  0.47000000000E+01 0. -1.
          5    1    5    5  503    0  0.65995949587E+02  0.30526515231E+02  0.45340128995E+02  0.85820456719E+02  0.47000000000E+01 0.  1.
         -5    1    5    5    0  503 -0.33697309117E+02 -0.24505748935E+02 -0.14275850926E+02  0.44293682306E+02  0.47000000000E+01 0.  1.
<mgrwt>
<rscale>  0 0.27351569E+03</rscale>
<asrwt>0</asrwt>
<pdfrwt beam="1">  1        1 0.18968440E-01 0.27351569E+03</pdfrwt>
<pdfrwt beam="2">  1       -1 0.23337062E-01 0.27351569E+03</pdfrwt>
<totfact> 0.42474839E+03</totfact>
</mgrwt>
</event>
<event>
 9    1  0.8122655E-001  0.2748722E+03  0.7818608E-02  0.1098523E+00
          1   -1    0    0  501    0  0.00000000000E+00  0.00000000000E+00  0.44056553593E+03  0.44056553593E+03  0.00000000000E+00 0.  1.
         -1   -1    0    0    0  501 -0.00000000000E+00 -0.00000000000E+00 -0.42873705734E+02  0.42873705734E+02  0.00000000000E+00 0.  1.
         35    2    1    2    0    0  0.35527136788E-14  0.00000000000E+00  0.39769183020E+03  0.48343924166E+03  0.27487216770E+03 0.  0.
         25    2    3    3    0    0 -0.28414046024E+02 -0.46633340780E+02  0.22657648820E+03  0.26447939604E+03  0.12502167588E+03 0.  0.
         25    2    3    3    0    0  0.28414046024E+02  0.46633340780E+02  0.17111534199E+03  0.21895984562E+03  0.12522350916E+03 0.  0.
          5    1    4    4  502    0  0.20902615674E+02 -0.32352563779E+02  0.76324436238E+01  0.39546831994E+02  0.47000000000E+01 0. -1.
         -5    1    4    4    0  502 -0.49316661698E+02 -0.14280777001E+02  0.21894404458E+03  0.22493256405E+03  0.47000000000E+01 0. -1.
          5    1    5    5  503    0  0.19873715295E+01  0.23721580754E+01 -0.20094280559E+02  0.20867364250E+02  0.47000000000E+01 0. -1.
         -5    1    5    5    0  503  0.26426674494E+02  0.44261182705E+02  0.19120962255E+03  0.19809248137E+03  0.47000000000E+01 0. -1.
<mgrwt>
<rscale>  0 0.27487217E+03</rscale>
<asrwt>0</asrwt>
<pdfrwt beam="1">  1        1 0.67779310E-01 0.27487217E+03</pdfrwt>
<pdfrwt beam="2">  1       -1 0.65959550E-02 0.27487217E+03</pdfrwt>
<totfact> 0.61464796E+03</totfact>
</mgrwt>
</event>
<event>
 9    1  0.8122655E-001  0.2764988E+03  0.7818608E-02  0.1097617E+00
          2   -1    0    0  501    0  0.00000000000E+00  0.00000000000E+00  0.29585446357E+04  0.29585446357E+04  0.00000000000E+00 0. -1.
         -2   -1    0    0    0  501 -0.00000000000E+00 -0.00000000000E+00 -0.64602344163E+01  0.64602344163E+01  0.00000000000E+00 0. -1.
         35    2    1    2    0    0  0.00000000000E+00  0.10658141036E-13  0.29520844013E+04  0.29650048702E+04  0.27649876584E+03 0.  0.
         25    2    3    3    0    0 -0.18025094566E+02 -0.30301722810E+02  0.10315701402E+04  0.10401230124E+04  0.12835820352E+03 0.  0.
         25    2    3    3    0    0  0.18025094566E+02  0.30301722810E+02  0.19205142611E+04  0.19248818577E+04  0.12470782075E+03 0.  0.
          5    1    4    4  502    0 -0.37909476713E+02  0.31892256158E+02  0.20455684800E+03  0.21052277428E+03  0.47000000000E+01 0.  1.
         -5    1    4    4    0  502  0.19884382147E+02 -0.62193978968E+02  0.82701329220E+03  0.82960023816E+03  0.47000000000E+01 0.  1.
          5    1    5    5  503    0  0.31721257749E+02  0.50304893831E+02  0.42529235449E+03  0.42945604819E+03  0.47000000000E+01 0.  1.
         -5    1    5    5    0  503 -0.13696163184E+02 -0.20003171021E+02  0.14952219066E+04  0.14954258095E+04  0.47000000000E+01 0.  1.
<mgrwt>
<rscale>  0 0.27649877E+03</rscale>
<asrwt>0</asrwt>
<pdfrwt beam="1">  1        2 0.45515963E+00 0.27649877E+03</pdfrwt>
<pdfrwt beam="2">  1       -2 0.99388458E-03 0.27649877E+03</pdfrwt>
<totfact> 0.47417560E+03</totfact>
</mgrwt>
</event>
<event>
 9    1  0.8122655E-001  0.2597506E+03  0.7818608E-02  0.1107293E+00
          2   -1    0    0  501    0  0.00000000000E+00  0.00000000000E+00  0.24281761394E+04  0.24281761394E+04  0.00000000000E+00 0. -1.
         -2   -1    0    0    0  501 -0.00000000000E+00 -0.00000000000E+00 -0.69466077913E+01  0.69466077913E+01  0.00000000000E+00 0. -1.
         35    2    1    2    0    0  0.00000000000E+00 -0.35527136788E-14  0.24212295316E+04  0.24351227472E+04  0.25975055179E+03 0.  0.
         25    2    3    3    0    0 -0.12866903191E+02  0.15924839934E+02  0.15691073157E+04  0.15742613389E+04  0.12562578210E+03 0.  0.
         25    2    3    3    0    0  0.12866903191E+02 -0.15924839934E+02  0.85212221587E+03  0.86086140829E+03  0.12062725969E+03 0.  0.
          5    1    4    4  502    0 -0.32721938743E+02  0.25070968394E+02  0.17050388290E+03  0.17547918057E+03  0.47000000000E+01 0.  1.
         -5    1    4    4    0  502  0.19855035551E+02 -0.91461284599E+01  0.13986034328E+04  0.13987821583E+04  0.47000000000E+01 0.  1.
          5    1    5    5  503    0  0.52622841170E+02 -0.36531031150E+02  0.29444582354E+03  0.30137039113E+03  0.47000000000E+01 0.  1.
         -5    1    5    5    0  503 -0.39755937979E+02  0.20606191216E+02  0.55767639233E+03  0.55949101716E+03  0.47000000000E+01 0.  1.
<mgrwt>
<rscale>  0 0.25975055E+03</rscale>
<asrwt>0</asrwt>
<pdfrwt beam="1">  1        2 0.37356488E+00 0.25975055E+03</pdfrwt>
<pdfrwt beam="2">  1       -2 0.10687108E-02 0.25975055E+03</pdfrwt>
<totfact> 0.84942769E+03</totfact>
</mgrwt>
</event>
<event>
 9    1  0.8122655E-001  0.2726751E+03  0.7818608E-02  0.1099758E+00
         -3   -1    0    0    0  501 -0.00000000000E+00  0.00000000000E+00  0.14275616503E+04  0.14275616503E+04  0.00000000000E+00 0.  1.
          3   -1    0    0  501    0  0.00000000000E+00 -0.00000000000E+00 -0.13020754729E+02  0.13020754729E+02  0.00000000000E+00 0.  1.
         35    2    1    2    0    0  0.00000000000E+00  0.00000000000E+00  0.14145408956E+04  0.14405824050E+04  0.27267511884E+03 0.  0.
         25    2    3    3    0    0 -0.32489967673E+02 -0.28240363766E+02  0.53176927598E+03  0.54799302259E+03  0.12515859450E+03 0.  0.
         25    2    3    3    0    0  0.32489967673E+02  0.28240363766E+02  0.88277161960E+03  0.89258938246E+03  0.12480768068E+03 0.  0.
          5    1    4    4  502    0  0.17705904005E+01 -0.60581022982E+02  0.44511801184E+03  0.44924974102E+03  0.47000000000E+01 0. -1.
         -5    1    4    4    0  502 -0.34260558073E+02  0.32340659216E+02  0.86651264138E+02  0.98743281567E+02  0.47000000000E+01 0. -1.
          5    1    5    5  503    0  0.31755897264E+02 -0.46783904262E+02  0.39779833384E+03  0.40182430877E+03  0.47000000000E+01 0.  1.
         -5    1    5    5    0  503  0.73407040825E+00  0.75024268029E+02  0.48497328576E+03  0.49076507369E+03  0.47000000000E+01 0.  1.
<mgrwt>
<rscale>  0 0.27267512E+03</rscale>
<asrwt>0</asrwt>
<pdfrwt beam="1">  1        3 0.20031942E-02 0.27267512E+03</pdfrwt>
<pdfrwt beam="2">  1       -3 0.21962475E+00 0.27267512E+03</pdfrwt>
<totfact> 0.29304828E+02</totfact>
</mgrwt>
</event>
<event>
 9    1  0.8122655E-001  0.2758872E+03  0.7818608E-02  0.1097957E+00
         -2   -1    0    0    0  501 -0.00000000000E+00  0.00000000000E+00  0.51572091039E+02  0.51572091039E+02  0.00000000000E+00 0.  1.
          2   -1    0    0  501    0  0.00000000000E+00 -0.00000000000E+00 -0.36896778806E+03  0.36896778806E+03  0.00000000000E+00 0.  1.
         35    2    1    2    0    0  0.00000000000E+00  0.00000000000E+00 -0.31739569702E+03  0.42053987910E+03  0.27588722592E+03 0.  0.
         25    2    3    3    0    0  0.43920573663E+02  0.21283053888E+02 -0.20924279239E+03  0.24850657082E+03  0.12486386347E+03 0.  0.
         25    2    3    3    0    0 -0.43920573663E+02 -0.21283053888E+02 -0.10815290463E+03  0.17203330828E+03  0.12456493569E+03 0.  0.
          5    1    4    4  502    0  0.58916147882E+00 -0.48942931064E+02 -0.10082951740E+03  0.11218038684E+03  0.47000000000E+01 0. -1.
         -5    1    4    4    0  502  0.43331412184E+02  0.70225984952E+02 -0.10841327499E+03  0.13632618398E+03  0.47000000000E+01 0. -1.
          5    1    5    5  503    0 -0.12288600975E+02 -0.14952756332E+02  0.26691929782E+02  0.33303809862E+02  0.47000000000E+01 0. -1.
         -5    1    5    5    0  503 -0.31631972688E+02 -0.63302975561E+01 -0.13484483441E+03  0.13872949842E+03  0.47000000000E+01 0. -1.
<mgrwt>
<rscale>  0 0.27588723E+03</rscale>
<asrwt>0</asrwt>
<pdfrwt beam="1">  1        2 0.56764274E-01 0.27588723E+03</pdfrwt>
<pdfrwt beam="2">  1       -2 0.79341680E-02 0.27588723E+03</pdfrwt>
<totfact> 0.82991226E+03</totfact>
</mgrwt>
</event>
<event>
 9    1  0.8122655E-001  0.2724431E+03  0.7818608E-02  0.1099889E+00
         -1   -1    0    0    0  501 -0.00000000000E+00  0.00000000000E+00  0.90751057727E+01  0.90751057727E+01  0.00000000000E+00 0. -1.
          1   -1    0    0  501    0  0.00000000000E+00 -0.00000000000E+00 -0.20447481896E+04  0.20447481896E+04  0.00000000000E+00 0. -1.
         35    2    1    2    0    0  0.71054273576E-14 -0.71054273576E-14 -0.20356730838E+04  0.20538232954E+04  0.27244306634E+03 0.  0.
         25    2    3    3    0    0  0.29329618964E+02  0.35498850412E+02 -0.10937422394E+04  0.11024658575E+04  0.13053155145E+03 0.  0.
         25    2    3    3    0    0 -0.29329618964E+02 -0.35498850412E+02 -0.94193084445E+03  0.95135743783E+03  0.12540679350E+03 0.  0.
          5    1    4    4  502    0 -0.50172209285E+02  0.36164691944E+01 -0.31697587972E+03  0.32097683368E+03  0.47000000000E+01 0.  1.
         -5    1    4    4    0  502  0.79501828249E+02  0.31882381218E+02 -0.77676635966E+03  0.78148902387E+03  0.47000000000E+01 0.  1.
          5    1    5    5  503    0 -0.67062968828E+02 -0.56768804737E+02 -0.54719127908E+03  0.55422064638E+03  0.47000000000E+01 0. -1.
         -5    1    5    5    0  503  0.37733349864E+02  0.21269954325E+02 -0.39473956538E+03  0.39713679145E+03  0.47000000000E+01 0. -1.
<mgrwt>
<rscale>  0 0.27244307E+03</rscale>
<asrwt>0</asrwt>
<pdfrwt beam="1">  1        1 0.31457698E+00 0.27244307E+03</pdfrwt>
<pdfrwt beam="2">  1       -1 0.13961686E-02 0.27244307E+03</pdfrwt>
<totfact> 0.36558617E+03</totfact>
</mgrwt>
</event>
<event>
 9    1  0.8122655E-001  0.2771297E+03  0.7818608E-02  0.1097267E+00
          1   -1    0    0  501    0  0.00000000000E+00  0.00000000000E+00  0.35274457562E+03  0.35274457562E+03  0.00000000000E+00 0.  1.
         -1   -1    0    0    0  501 -0.00000000000E+00 -0.00000000000E+00 -0.54430922958E+02  0.54430922958E+02  0.00000000000E+00 0.  1.
         35    2    1    2    0    0 -0.71054273576E-14  0.00000000000E+00  0.29831365266E+03  0.40717549858E+03  0.27712966510E+03 0.  0.
         25    2    3    3    0    0 -0.27045984561E+01  0.58472806846E+02  0.14178540933E+03  0.19806483378E+03  0.12530040738E+03 0.  0.
         25    2    3    3    0    0  0.27045984561E+01 -0.58472806846E+02  0.15652824334E+03  0.20911066480E+03  0.12569723616E+03 0.  0.
          5    1    4    4  502    0 -0.45109090298E+02  0.36083788014E+02  0.11407137508E+02  0.59068456651E+02  0.47000000000E+01 0. -1.
         -5    1    4    4    0  502  0.42404491842E+02  0.22389018831E+02  0.13037827182E+03  0.13899637713E+03  0.47000000000E+01 0. -1.
          5    1    5    5  503    0  0.62556162379E+02 -0.26255344186E+02  0.98032210242E+02  0.11931060638E+03  0.47000000000E+01 0.  1.
         -5    1    5    5    0  503 -0.59851563923E+02 -0.32217462659E+02  0.58496033093E+02  0.89800058418E+02  0.47000000000E+01 0.  1.
<mgrwt>
<rscale>  0 0.27712967E+03</rscale>
<asrwt>0</asrwt>
<pdfrwt beam="1">  1        1 0.54268395E-01 0.27712967E+03</pdfrwt>
<pdfrwt beam="2">  1       -1 0.83739884E-02 0.27712967E+03</pdfrwt>
<totfact> 0.56848187E+03</totfact>
</mgrwt>
</event>
<event>
 9    1  0.8122655E-001  0.2761332E+03  0.7818608E-02  0.1097820E+00
          1   -1    0    0  501    0  0.00000000000E+00  0.00000000000E+00  0.18979407283E+04  0.18979407283E+04  0.00000000000E+00 0.  1.
         -1   -1    0    0    0  501 -0.00000000000E+00 -0.00000000000E+00 -0.10043721671E+02  0.10043721671E+02  0.00000000000E+00 0.  1.
         35    2    1    2    0    0 -0.71054273576E-14  0.53290705182E-14  0.18878970067E+04  0.19079844500E+04  0.27613321730E+03 0.  0.
         25    2    3    3    0    0  0.58630787552E+02 -0.46582173900E+01  0.93138112296E+03  0.94153595729E+03  0.12473930585E+03 0.  0.
         25    2    3    3    0    0 -0.58630787552E+02  0.46582173900E+01  0.95651588372E+03  0.96644849273E+03  0.12506312430E+03 0.  0.
          5    1    4    4  502    0  0.96376546958E+02 -0.15692488340E+02  0.62334486255E+03  0.63096402486E+03  0.47000000000E+01 0.  1.
         -5    1    4    4    0  502 -0.37745759406E+02  0.11034270950E+02  0.30803626041E+03  0.31057193243E+03  0.47000000000E+01 0.  1.
          5    1    5    5  503    0 -0.49172822283E+02  0.59873804904E+02  0.66903307762E+03  0.67352074052E+03  0.47000000000E+01 0.  1.
         -5    1    5    5    0  503 -0.94579652690E+01 -0.55215587514E+02  0.28748280610E+03  0.29292775221E+03  0.47000000000E+01 0.  1.
<mgrwt>
<rscale>  0 0.27613322E+03</rscale>
<asrwt>0</asrwt>
<pdfrwt beam="1">  1        1 0.29199060E+00 0.27613322E+03</pdfrwt>
<pdfrwt beam="2">  1       -1 0.15451895E-02 0.27613322E+03</pdfrwt>
<totfact> 0.39282475E+03</totfact>
</mgrwt>
</event>
<event>
 9    1  0.8122655E-001  0.2729876E+03  0.7818608E-02  0.1099582E+00
         -1   -1    0    0    0  501 -0.00000000000E+00  0.00000000000E+00  0.25669710407E+02  0.25669710407E+02  0.00000000000E+00 0. -1.
          1   -1    0    0  501    0  0.00000000000E+00 -0.00000000000E+00 -0.72577991526E+03  0.72577991526E+03  0.00000000000E+00 0. -1.
         35    2    1    2    0    0  0.35527136788E-14 -0.71054273576E-14 -0.70011020485E+03  0.75144962567E+03  0.27298762056E+03 0.  0.
         25    2    3    3    0    0  0.26191541106E+02  0.33460892695E+02 -0.44779469200E+03  0.46685912442E+03  0.12502690793E+03 0.  0.
         25    2    3    3    0    0 -0.26191541106E+02 -0.33460892695E+02 -0.25231551285E+03  0.28459050125E+03  0.12459136089E+03 0.  0.
          5    1    4    4  502    0  0.44114500971E+01 -0.42878689465E+02 -0.24901665428E+03  0.25276357928E+03  0.47000000000E+01 0. -1.
         -5    1    4    4    0  502  0.21780091009E+02  0.76339582160E+02 -0.19877803773E+03  0.21409554514E+03  0.47000000000E+01 0. -1.
          5    1    5    5  503    0 -0.69892930922E+02 -0.47587412829E+02 -0.17768781805E+03  0.19683656758E+03  0.47000000000E+01 0. -1.
         -5    1    5    5    0  503  0.43701389815E+02  0.14126520134E+02 -0.74627694805E+02  0.87753933671E+02  0.47000000000E+01 0. -1.
<mgrwt>
<rscale>  0 0.27298762E+03</rscale>
<asrwt>0</asrwt>
<pdfrwt beam="1">  1        1 0.11165846E+00 0.27298762E+03</pdfrwt>
<pdfrwt beam="2">  1       -1 0.39491859E-02 0.27298762E+03</pdfrwt>
<totfact> 0.66786616E+03</totfact>
</mgrwt>
</event>
<event>
 9    1  0.8122655E-001  0.2749878E+03  0.7818608E-02  0.1098458E+00
         -2   -1    0    0    0  501 -0.00000000000E+00  0.00000000000E+00  0.21733202846E+02  0.21733202846E+02  0.00000000000E+00 0. -1.
          2   -1    0    0  501    0  0.00000000000E+00 -0.00000000000E+00 -0.86984777248E+03  0.86984777248E+03  0.00000000000E+00 0. -1.
         35    2    1    2    0    0  0.14210854715E-13  0.71054273576E-14 -0.84811456963E+03  0.89158097532E+03  0.27498784034E+03 0.  0.
         25    2    3    3    0    0  0.43857705665E+02  0.20885079900E+02 -0.51949065552E+03  0.53639194239E+03  0.12444311865E+03 0.  0.
         25    2    3    3    0    0 -0.43857705665E+02 -0.20885079900E+02 -0.32862391411E+03  0.35518903293E+03  0.12572146707E+03 0.  0.
          5    1    4    4  502    0  0.47001295117E+02  0.18149017155E+02 -0.67518908655E+02  0.84376546459E+02  0.47000000000E+01 0.  1.
         -5    1    4    4    0  502 -0.31435894528E+01  0.27360627446E+01 -0.45197174687E+03  0.45201539593E+03  0.47000000000E+01 0.  1.
          5    1    5    5  503    0 -0.46701142470E+02 -0.70534185121E+02 -0.21339794699E+03  0.22960148466E+03  0.47000000000E+01 0. -1.
         -5    1    5    5    0  503  0.28434368054E+01  0.49649105221E+02 -0.11522596712E+03  0.12558754827E+03  0.47000000000E+01 0. -1.
<mgrwt>
<rscale>  0 0.27498784E+03</rscale>
<asrwt>0</asrwt>
<pdfrwt beam="1">  1        2 0.13382274E+00 0.27498784E+03</pdfrwt>
<pdfrwt beam="2">  1       -2 0.33435695E-02 0.27498784E+03</pdfrwt>
<totfact> 0.11414229E+04</totfact>
</mgrwt>
</event>
<event>
 9    1  0.8122655E-001  0.2741905E+03  0.7818608E-02  0.1098905E+00
          1   -1    0    0  501    0  0.00000000000E+00  0.00000000000E+00  0.15066781379E+02  0.15066781379E+02  0.00000000000E+00 0.  1.
         -1   -1    0    0    0  501 -0.00000000000E+00 -0.00000000000E+00 -0.12474536977E+04  0.12474536977E+04  0.00000000000E+00 0.  1.
         35    2    1    2    0    0  0.35527136788E-14  0.00000000000E+00 -0.12323869163E+04  0.12625204791E+04  0.27419053334E+03 0.  0.
         25    2    3    3    0    0  0.11693893850E+02 -0.36245964263E+02 -0.80302877644E+03  0.81356243166E+03  0.12481224836E+03 0.  0.
         25    2    3    3    0    0 -0.11693893850E+02  0.36245964263E+02 -0.42935813986E+03  0.44895804740E+03  0.12555635778E+03 0.  0.
          5    1    4    4  502    0  0.38590169734E+01 -0.56759741400E+02 -0.77737595203E+03  0.77946906357E+03  0.47000000000E+01 0. -1.
         -5    1    4    4    0  502  0.78348768765E+01  0.20513777137E+02 -0.25652824409E+02  0.34093368097E+02  0.47000000000E+01 0. -1.
          5    1    5    5  503    0 -0.58741552848E+02  0.50311280915E+02 -0.31545333990E+03  0.32483025517E+03  0.47000000000E+01 0.  1.
         -5    1    5    5    0  503  0.47047658998E+02 -0.14065316652E+02 -0.11390479995E+03  0.12412779222E+03  0.47000000000E+01 0.  1.
<mgrwt>
<rscale>  0 0.27419053E+03</rscale>
<asrwt>0</asrwt>
<pdfrwt beam="1">  1        1 0.23179660E-02 0.27419053E+03</pdfrwt>
<pdfrwt beam="2">  1       -1 0.19191599E+00 0.27419053E+03</pdfrwt>
<totfact> 0.92909352E+02</totfact>
</mgrwt>
</event>
<event>
 9    1  0.8122655E-001  0.2745176E+03  0.7818608E-02  0.1098722E+00
         -3   -1    0    0    0  501 -0.00000000000E+00  0.00000000000E+00  0.90141657137E+02  0.90141657137E+02  0.00000000000E+00 0. -1.
          3   -1    0    0  501    0  0.00000000000E+00 -0.00000000000E+00 -0.20900404920E+03  0.20900404920E+03  0.00000000000E+00 0. -1.
         35    2    1    2    0    0 -0.35527136788E-14  0.21316282073E-13 -0.11886239207E+03  0.29914570634E+03  0.27451755021E+03 0.  0.
         25    2    3    3    0    0 -0.30248399870E+02 -0.39229301727E+02 -0.87668439860E+02  0.16061751484E+03  0.12513323666E+03 0.  0.
         25    2    3    3    0    0  0.30248399870E+02  0.39229301727E+02 -0.31193952208E+02  0.13852819150E+03  0.12555115841E+03 0.  0.
          5    1    4    4  502    0 -0.18947079555E+02  0.36170840804E+01  0.29331663392E+02  0.35419085226E+02  0.47000000000E+01 0. -1.
         -5    1    4    4    0  502 -0.11301320315E+02 -0.42846385808E+02 -0.11700010325E+03  0.12519842962E+03  0.47000000000E+01 0. -1.
          5    1    5    5  503    0  0.47247397590E+02 -0.28866224378E+02 -0.38804840886E+02  0.67775225304E+02  0.47000000000E+01 0.  1.
         -5    1    5    5    0  503 -0.16998997720E+02  0.68095526105E+02  0.76108886780E+01  0.70752966195E+02  0.47000000000E+01 0.  1.
<mgrwt>
<rscale>  0 0.27451755E+03</rscale>
<asrwt>0</asrwt>
<pdfrwt beam="1">  1        3 0.32154469E-01 0.27451755E+03</pdfrwt>
<pdfrwt beam="2">  1       -3 0.13867947E-01 0.27451755E+03</pdfrwt>
<totfact> 0.10184040E+03</totfact>
</mgrwt>
</event>
<event>
 9    1  0.8122655E-001  0.2734355E+03  0.7818608E-02  0.1099329E+00
         -2   -1    0    0    0  501 -0.00000000000E+00  0.00000000000E+00  0.44583803870E+02  0.44583803870E+02  0.00000000000E+00 0.  1.
          2   -1    0    0  501    0  0.00000000000E+00 -0.00000000000E+00 -0.41924973470E+03  0.41924973470E+03  0.00000000000E+00 0.  1.
         35    2    1    2    0    0 -0.71054273576E-14 -0.71054273576E-14 -0.37466593083E+03  0.46383353857E+03  0.27343553496E+03 0.  0.
         25    2    3    3    0    0  0.25348681555E+02 -0.38084761231E+02 -0.24493507144E+03  0.27863962525E+03  0.12471506263E+03 0.  0.
         25    2    3    3    0    0 -0.25348681555E+02  0.38084761231E+02 -0.12973085939E+03  0.18519391332E+03  0.12399066480E+03 0.  0.
          5    1    4    4  502    0  0.65106829662E+02 -0.14808377989E+01 -0.71075159787E+02  0.96513524897E+02  0.47000000000E+01 0.  1.
         -5    1    4    4    0  502 -0.39758148107E+02 -0.36603923432E+02 -0.17385991165E+03  0.18212610036E+03  0.47000000000E+01 0.  1.
          5    1    5    5  503    0 -0.25766793984E+01  0.32097154909E+02  0.16859846522E+02  0.36649843857E+02  0.47000000000E+01 0.  1.
         -5    1    5    5    0  503 -0.22772002156E+02  0.59876063214E+01 -0.14659070592E+03  0.14854406946E+03  0.47000000000E+01 0.  1.
<mgrwt>
<rscale>  0 0.27343553E+03</rscale>
<asrwt>0</asrwt>
<pdfrwt beam="1">  1        2 0.64499959E-01 0.27343553E+03</pdfrwt>
<pdfrwt beam="2">  1       -2 0.68590468E-02 0.27343553E+03</pdfrwt>
<totfact> 0.90552157E+03</totfact>
</mgrwt>
</event>
<event>
 9    1  0.8122655E-001  0.2746327E+03  0.7818608E-02  0.1098657E+00
         -2   -1    0    0    0  501 -0.00000000000E+00  0.00000000000E+00  0.91912413716E+01  0.91912413716E+01  0.00000000000E+00 0.  1.
          2   -1    0    0  501    0  0.00000000000E+00 -0.00000000000E+00 -0.20514944026E+04  0.20514944026E+04  0.00000000000E+00 0.  1.
         35    2    1    2    0    0 -0.14210854715E-13  0.00000000000E+00 -0.20423031613E+04  0.20606856440E+04  0.27463270182E+03 0.  0.
         25    2    3    3    0    0  0.34847197122E+02  0.26745693580E+01 -0.13414087599E+04  0.13477428376E+04  0.12574503828E+03 0.  0.
         25    2    3    3    0    0 -0.34847197122E+02 -0.26745693580E+01 -0.70089440137E+03  0.71294280643E+03  0.12574976302E+03 0.  0.
          5    1    4    4  502    0 -0.35068090293E+02  0.21080753453E+02 -0.20903442840E+03  0.21305316562E+03  0.47000000000E+01 0. -1.
         -5    1    4    4    0  502  0.69915287416E+02 -0.18406184095E+02 -0.11323743315E+04  0.11346896719E+04  0.47000000000E+01 0. -1.
          5    1    5    5  503    0  0.10074241306E+01  0.57254762945E+02 -0.24111651041E+03  0.24786767514E+03  0.47000000000E+01 0. -1.
         -5    1    5    5    0  503 -0.35854621253E+02 -0.59929332303E+02 -0.45977789096E+03  0.46507513130E+03  0.47000000000E+01 0. -1.
<mgrwt>
<rscale>  0 0.27463270E+03</rscale>
<asrwt>0</asrwt>
<pdfrwt beam="1">  1        2 0.31561429E+00 0.27463270E+03</pdfrwt>
<pdfrwt beam="2">  1       -2 0.14140382E-02 0.27463270E+03</pdfrwt>
<totfact> 0.89770863E+03</totfact>
</mgrwt>
</event>
<event>
 9    1  0.8122655E-001  0.2790390E+03  0.7818608E-02  0.1096215E+00
         -2   -1    0    0    0  501 -0.00000000000E+00  0.00000000000E+00  0.22729489707E+02  0.22729489707E+02  0.00000000000E+00 0. -1.
          2   -1    0    0  501    0  0.00000000000E+00 -0.00000000000E+00 -0.85640686600E+03  0.85640686600E+03  0.00000000000E+00 0. -1.
         35    2    1    2    0    0  0.00000000000E+00  0.71054273576E-14 -0.83367737629E+03  0.87913635571E+03  0.27903900118E+03 0.  0.
         25    2    3    3    0    0  0.36152551577E+01 -0.60745125255E+02 -0.41668343979E+03  0.43939639520E+03  0.12546339229E+03 0.  0.
         25    2    3    3    0    0 -0.36152551577E+01  0.60745125255E+02 -0.41699393650E+03  0.43973996051E+03  0.12563538306E+03 0.  0.
          5    1    4    4  502    0 -0.30899208071E+02 -0.49795231641E+01 -0.20306631731E+02  0.37603271169E+02  0.47000000000E+01 0. -1.
         -5    1    4    4    0  502  0.34514463229E+02 -0.55765602091E+02 -0.39637680806E+03  0.40179312403E+03  0.47000000000E+01 0. -1.
          5    1    5    5  503    0  0.23051918076E+02  0.82554406975E+02 -0.17136979551E+03  0.19166720598E+03  0.47000000000E+01 0.  1.
         -5    1    5    5    0  503 -0.26667173234E+02 -0.21809281720E+02 -0.24562414100E+03  0.24807275452E+03  0.47000000000E+01 0.  1.
<mgrwt>
<rscale>  0 0.27903900E+03</rscale>
<asrwt>0</asrwt>
<pdfrwt beam="1">  1        2 0.13175492E+00 0.27903900E+03</pdfrwt>
<pdfrwt beam="2">  1       -2 0.34968441E-02 0.27903900E+03</pdfrwt>
<totfact> 0.10900284E+04</totfact>
</mgrwt>
</event>
<event>
 9    1  0.8122655E-001  0.2739079E+03  0.7818608E-02  0.1099064E+00
          3   -1    0    0  501    0  0.00000000000E+00  0.00000000000E+00  0.17147982812E+03  0.17147982812E+03  0.00000000000E+00 0.  1.
         -3   -1    0    0    0  501 -0.00000000000E+00 -0.00000000000E+00 -0.10937957578E+03  0.10937957578E+03  0.00000000000E+00 0.  1.
         35    2    1    2    0    0  0.71054273576E-14  0.00000000000E+00  0.62100252335E+02  0.28085940390E+03  0.27390794698E+03 0.  0.
         25    2    3    3    0    0  0.45479438280E+02  0.26923991146E+02  0.32659358821E+02  0.13977081440E+03  0.12520369897E+03 0.  0.
         25    2    3    3    0    0 -0.45479438280E+02 -0.26923991146E+02  0.29440893514E+02  0.14108858950E+03  0.12745957505E+03 0.  0.
          5    1    4    4  502    0  0.75946447868E+02  0.18175471751E+02 -0.17578552695E+02  0.80182954748E+02  0.47000000000E+01 0. -1.
         -5    1    4    4    0  502 -0.30467009588E+02  0.87485193947E+01  0.50237911516E+02  0.59587859655E+02  0.47000000000E+01 0. -1.
          5    1    5    5  503    0  0.41452752303E+02 -0.11195380196E+02  0.30048155418E+02  0.52617951834E+02  0.47000000000E+01 0.  1.
         -5    1    5    5    0  503 -0.86932190583E+02 -0.15728610951E+02 -0.60726190326E+00  0.88470637666E+02  0.47000000000E+01 0.  1.
<mgrwt>
<rscale>  0 0.27390795E+03</rscale>
<asrwt>0</asrwt>
<pdfrwt beam="1">  1        3 0.26381512E-01 0.27390795E+03</pdfrwt>
<pdfrwt beam="2">  1       -3 0.16827627E-01 0.27390795E+03</pdfrwt>
<totfact> 0.10528059E+03</totfact>
</mgrwt>
</event>
<event>
 9    1  0.8122655E-001  0.2763184E+03  0.7818608E-02  0.1097717E+00
         -1   -1    0    0    0  501 -0.00000000000E+00  0.00000000000E+00  0.19533037189E+03  0.19533037189E+03  0.00000000000E+00 0. -1.
          1   -1    0    0  501    0  0.00000000000E+00 -0.00000000000E+00 -0.97721425920E+02  0.97721425920E+02  0.00000000000E+00 0. -1.
         35    2    1    2    0    0 -0.17763568394E-14  0.00000000000E+00  0.97608945969E+02  0.29305179781E+03  0.27631838496E+03 0.  0.
         25    2    3    3    0    0  0.26856754258E+01 -0.42142845069E+02  0.89504755883E+02  0.16056978181E+03  0.12644493371E+03 0.  0.
         25    2    3    3    0    0 -0.26856754258E+01  0.42142845069E+02  0.81041900864E+01  0.13248201600E+03  0.12530991351E+03 0.  0.
          5    1    4    4  502    0 -0.14571801659E+02  0.43036291494E+02  0.38130199111E+02  0.59501780422E+02  0.47000000000E+01 0. -1.
         -5    1    4    4    0  502  0.17257477085E+02 -0.85179136563E+02  0.51374556772E+02  0.10106800139E+03  0.47000000000E+01 0. -1.
          5    1    5    5  503    0 -0.50318312587E+02  0.62172971959E+02  0.86981472960E+01  0.80592547982E+02  0.47000000000E+01 0.  1.
         -5    1    5    5    0  503  0.47632637161E+02 -0.20030126890E+02 -0.59395720961E+00  0.51889468019E+02  0.47000000000E+01 0.  1.
<mgrwt>
<rscale>  0 0.27631838E+03</rscale>
<asrwt>0</asrwt>
<pdfrwt beam="1">  1        1 0.15034066E-01 0.27631838E+03</pdfrwt>
<pdfrwt beam="2">  1       -1 0.30050826E-01 0.27631838E+03</pdfrwt>
<totfact> 0.37653965E+03</totfact>
</mgrwt>
</event>
<event>
 9    1  0.8122655E-001  0.2722850E+03  0.7818608E-02  0.1099979E+00
          2   -1    0    0  501    0  0.00000000000E+00  0.00000000000E+00  0.42512099228E+03  0.42512099228E+03  0.00000000000E+00 0. -1.
         -2   -1    0    0    0  501 -0.00000000000E+00 -0.00000000000E+00 -0.43598842560E+02  0.43598842560E+02  0.00000000000E+00 0. -1.
         35    2    1    2    0    0  0.00000000000E+00  0.71054273576E-14  0.38152214972E+03  0.46871983484E+03  0.27228502134E+03 0.  0.
         25    2    3    3    0    0 -0.38130536147E+02 -0.26448074118E+02  0.14304939944E+03  0.19542654326E+03  0.12479969840E+03 0.  0.
         25    2    3    3    0    0  0.38130536147E+02  0.26448074118E+02  0.23847275028E+03  0.27329329158E+03  0.12516601849E+03 0.  0.
          5    1    4    4  502    0 -0.72650994937E+02 -0.52218283376E+02  0.10160133303E+03  0.13546157041E+03  0.47000000000E+01 0. -1.
         -5    1    4    4    0  502  0.34520458790E+02  0.25770209258E+02  0.41448066415E+02  0.59964972858E+02  0.47000000000E+01 0. -1.
          5    1    5    5  503    0  0.77979275797E+02 -0.93939287364E+01  0.15774297759E+03  0.17627804835E+03  0.47000000000E+01 0. -1.
         -5    1    5    5    0  503 -0.39848739650E+02  0.35842002854E+02  0.80729772689E+02  0.97015243229E+02  0.47000000000E+01 0. -1.
<mgrwt>
<rscale>  0 0.27228502E+03</rscale>
<asrwt>0</asrwt>
<pdfrwt beam="1">  1        2 0.65403227E-01 0.27228502E+03</pdfrwt>
<pdfrwt beam="2">  1       -2 0.67075145E-02 0.27228502E+03</pdfrwt>
<totfact> 0.92304176E+03</totfact>
</mgrwt>
</event>
<event>
 9    1  0.8122655E-001  0.2748702E+03  0.7818608E-02  0.1098524E+00
         -2   -1    0    0    0  501 -0.00000000000E+00  0.00000000000E+00  0.17252545792E+02  0.17252545792E+02  0.00000000000E+00 0. -1.
          2   -1    0    0  501    0  0.00000000000E+00 -0.00000000000E+00 -0.10948188383E+04  0.10948188383E+04  0.00000000000E+00 0. -1.
         35    2    1    2    0    0  0.71054273576E-14 -0.71054273576E-14 -0.10775662925E+04  0.11120713841E+04  0.27487023951E+03 0.  0.
         25    2    3    3    0    0  0.21745648796E+02 -0.49901966562E+02 -0.45045228067E+03  0.47064135097E+03  0.12503177426E+03 0.  0.
         25    2    3    3    0    0 -0.21745648796E+02  0.49901966562E+02 -0.62711401185E+03  0.64143003313E+03  0.12327783271E+03 0.  0.
          5    1    4    4  502    0  0.84235810178E+01  0.32175809667E+02 -0.41979060699E+02  0.53764030560E+02  0.47000000000E+01 0. -1.
         -5    1    4    4    0  502  0.13322067778E+02 -0.82077776228E+02 -0.40847321997E+03  0.41687732041E+03  0.47000000000E+01 0. -1.
          5    1    5    5  503    0  0.42159844658E+02  0.14588802033E+02 -0.40722453643E+03  0.40968792845E+03  0.47000000000E+01 0. -1.
         -5    1    5    5    0  503 -0.63905493454E+02  0.35313164529E+02 -0.21988947542E+03  0.23174210468E+03  0.47000000000E+01 0. -1.
<mgrwt>
<rscale>  0 0.27487024E+03</rscale>
<asrwt>0</asrwt>
<pdfrwt beam="1">  1        2 0.16843367E+00 0.27487024E+03</pdfrwt>
<pdfrwt beam="2">  1       -2 0.26542378E-02 0.27487024E+03</pdfrwt>
<totfact> 0.11674645E+04</totfact>
</mgrwt>
</event>
<event>
 9    1  0.8122655E-001  0.2788449E+03  0.7818608E-02  0.1096322E+00
         -1   -1    0    0    0  501 -0.00000000000E+00  0.00000000000E+00  0.49650954474E+03  0.49650954474E+03  0.00000000000E+00 0. -1.
          1   -1    0    0  501    0  0.00000000000E+00 -0.00000000000E+00 -0.39150539888E+02  0.39150539888E+02  0.00000000000E+00 0. -1.
         35    2    1    2    0    0  0.00000000000E+00  0.71054273576E-14  0.45735900485E+03  0.53566008463E+03  0.27884487972E+03 0.  0.
         25    2    3    3    0    0  0.31757261547E+02  0.56237367060E+02  0.22167385436E+03  0.26223795762E+03  0.12433134599E+03 0.  0.
         25    2    3    3    0    0 -0.31757261547E+02 -0.56237367060E+02  0.23568515049E+03  0.27342212701E+03  0.12264177209E+03 0.  0.
          5    1    4    4  502    0  0.18712512553E+02 -0.30946277121E+02  0.18886582558E+02  0.41068518288E+02  0.47000000000E+01 0. -1.
         -5    1    4    4    0  502  0.13044748994E+02  0.87183644181E+02  0.20278727181E+03  0.22116943933E+03  0.47000000000E+01 0. -1.
          5    1    5    5  503    0 -0.72695651561E+00 -0.53772751462E+02  0.23434950336E+02  0.58850014128E+02  0.47000000000E+01 0.  1.
         -5    1    5    5    0  503 -0.31030305031E+02 -0.24646155983E+01  0.21225020015E+03  0.21457211288E+03  0.47000000000E+01 0.  1.
<mgrwt>
<rscale>  0 0.27884488E+03</rscale>
<asrwt>0</asrwt>
<pdfrwt beam="1">  1        1 0.60231603E-02 0.27884488E+03</pdfrwt>
<pdfrwt beam="2">  1       -1 0.76386079E-01 0.27884488E+03</pdfrwt>
<totfact> 0.23038209E+03</totfact>
</mgrwt>
</event>
<event>
 9    1  0.8122655E-001  0.2769273E+03  0.7818608E-02  0.1097379E+00
          2   -1    0    0  501    0  0.00000000000E+00  0.00000000000E+00  0.14529354545E+03  0.14529354545E+03  0.00000000000E+00 0.  1.
         -2   -1    0    0    0  501 -0.00000000000E+00 -0.00000000000E+00 -0.13195483606E+03  0.13195483606E+03  0.00000000000E+00 0.  1.
         35    2    1    2    0    0  0.00000000000E+00  0.71054273576E-14  0.13338709386E+02  0.27724838151E+03  0.27692732600E+03 0.  0.
         25    2    3    3    0    0 -0.48960432409E+02 -0.32001867787E+02  0.23660695745E+02  0.13998584014E+03  0.12495984729E+03 0.  0.
         25    2    3    3    0    0  0.48960432409E+02  0.32001867787E+02 -0.10321986359E+02  0.13726254137E+03  0.12374658936E+03 0.  0.
          5    1    4    4  502    0 -0.53278687650E+02  0.38387530756E+02  0.21562102707E+02  0.69276513685E+02  0.47000000000E+01 0.  1.
         -5    1    4    4    0  502  0.43182552407E+01 -0.70389398543E+02  0.20985930381E+01  0.70709326459E+02  0.47000000000E+01 0.  1.
          5    1    5    5  503    0  0.67465519757E+02  0.66038258589E+02  0.65402320957E+01  0.94749736619E+02  0.47000000000E+01 0. -1.
         -5    1    5    5    0  503 -0.18505087348E+02 -0.34036390802E+02 -0.16862218455E+02  0.42512804751E+02  0.47000000000E+01 0. -1.
<mgrwt>
<rscale>  0 0.27692733E+03</rscale>
<asrwt>0</asrwt>
<pdfrwt beam="1">  1        2 0.22352853E-01 0.27692733E+03</pdfrwt>
<pdfrwt beam="2">  1       -2 0.20300744E-01 0.27692733E+03</pdfrwt>
<totfact> 0.49724103E+03</totfact>
</mgrwt>
</event>
<event>
 9    1  0.8122655E-001  0.2768306E+03  0.7818608E-02  0.1097433E+00
          1   -1    0    0  501    0  0.00000000000E+00  0.00000000000E+00  0.81186391831E+03  0.81186391831E+03  0.00000000000E+00 0. -1.
         -1   -1    0    0    0  501 -0.00000000000E+00 -0.00000000000E+00 -0.23598530194E+02  0.23598530194E+02  0.00000000000E+00 0. -1.
         35    2    1    2    0    0 -0.35527136788E-14  0.00000000000E+00  0.78826538811E+03  0.83546244850E+03  0.27683059939E+03 0.  0.
         25    2    3    3    0    0 -0.25976685497E+02  0.44167228556E+02  0.49503947028E+03  0.51323972981E+03  0.12540100024E+03 0.  0.
         25    2    3    3    0    0  0.25976685497E+02 -0.44167228556E+02  0.29322591784E+03  0.32222271868E+03  0.12337142813E+03 0.  0.
          5    1    4    4  502    0  0.19438556739E+02  0.42140505370E+02  0.43643858609E+03  0.43892414961E+03  0.47000000000E+01 0.  1.
         -5    1    4    4    0  502 -0.45415242235E+02  0.20267231863E+01  0.58600884184E+02  0.74315580206E+02  0.47000000000E+01 0.  1.
          5    1    5    5  503    0  0.71583055242E+02 -0.29331951517E+02  0.12363520626E+03  0.14591864653E+03  0.47000000000E+01 0.  1.
         -5    1    5    5    0  503 -0.45606369745E+02 -0.14835277040E+02  0.16959071158E+03  0.17630407216E+03  0.47000000000E+01 0.  1.
<mgrwt>
<rscale>  0 0.27683060E+03</rscale>
<asrwt>0</asrwt>
<pdfrwt beam="1">  1        1 0.12490212E+00 0.27683060E+03</pdfrwt>
<pdfrwt beam="2">  1       -1 0.36305437E-02 0.27683060E+03</pdfrwt>
<totfact> 0.63890122E+03</totfact>
</mgrwt>
</event>
<event>
 9    1  0.8122655E-001  0.2827237E+03  0.7818608E-02  0.1094211E+00
          2   -1    0    0  501    0  0.00000000000E+00  0.00000000000E+00  0.35421246727E+03  0.35421246727E+03  0.00000000000E+00 0.  1.
         -2   -1    0    0    0  501 -0.00000000000E+00 -0.00000000000E+00 -0.56415780580E+02  0.56415780580E+02  0.00000000000E+00 0.  1.
         35    2    1    2    0    0 -0.35527136788E-14 -0.35527136788E-14  0.29779668669E+03  0.41062824785E+03  0.28272370139E+03 0.  0.
         25    2    3    3    0    0  0.24261845506E+02 -0.23761903495E+02  0.67759864592E+02  0.14713132689E+03  0.12610695023E+03 0.  0.
         25    2    3    3    0    0 -0.24261845506E+02  0.23761903495E+02  0.23003682210E+03  0.26349692097E+03  0.12393717211E+03 0.  0.
          5    1    4    4  502    0  0.62858024761E+02 -0.95263805723E+01 -0.44374810428E+01  0.63903555783E+02  0.47000000000E+01 0.  1.
         -5    1    4    4    0  502 -0.38596179256E+02 -0.14235522923E+02  0.72197345635E+02  0.83227771103E+02  0.47000000000E+01 0.  1.
          5    1    5    5  503    0  0.17121728564E+02  0.25312178726E+02  0.12488656972E+01  0.30943652764E+02  0.47000000000E+01 0.  1.
         -5    1    5    5    0  503 -0.41383574070E+02 -0.15502752304E+01  0.22878795640E+03  0.23255326820E+03  0.47000000000E+01 0.  1.
<mgrwt>
<rscale>  0 0.28272370E+03</rscale>
<asrwt>0</asrwt>
<pdfrwt beam="1">  1        2 0.54494224E-01 0.28272370E+03</pdfrwt>
<pdfrwt beam="2">  1       -2 0.86793511E-02 0.28272370E+03</pdfrwt>
<totfact> 0.75424285E+03</totfact>
</mgrwt>
</event>
<event>
 9    1  0.8122655E-001  0.2710025E+03  0.7818608E-02  0.1100707E+00
          2   -1    0    0  501    0  0.00000000000E+00  0.00000000000E+00  0.15185006505E+03  0.15185006505E+03  0.00000000000E+00 0.  1.
         -2   -1    0    0    0  501 -0.00000000000E+00 -0.00000000000E+00 -0.12091261308E+03  0.12091261308E+03  0.00000000000E+00 0.  1.
         35    2    1    2    0    0  0.35527136788E-14  0.00000000000E+00  0.30937451965E+02  0.27276267813E+03  0.27100249565E+03 0.  0.
         25    2    3    3    0    0 -0.11804767212E+02 -0.48038020439E+02  0.24408760082E+02  0.13701634943E+03  0.12542204155E+03 0.  0.
         25    2    3    3    0    0  0.11804767212E+02  0.48038020439E+02  0.65286918825E+01  0.13574632870E+03  0.12624356618E+03 0.  0.
          5    1    4    4  502    0  0.17564787138E+02 -0.66000119835E+02  0.57222540798E+02  0.89224698043E+02  0.47000000000E+01 0. -1.
         -5    1    4    4    0  502 -0.29369554349E+02  0.17962099396E+02 -0.32813780716E+02  0.47791651387E+02  0.47000000000E+01 0. -1.
          5    1    5    5  503    0  0.60109192080E+02  0.57382623574E+02  0.17653152251E+02  0.85085863956E+02  0.47000000000E+01 0.  1.
         -5    1    5    5    0  503 -0.48304424869E+02 -0.93446031352E+01 -0.11124460369E+02  0.50660464745E+02  0.47000000000E+01 0.  1.
<mgrwt>
<rscale>  0 0.27100250E+03</rscale>
<asrwt>0</asrwt>
<pdfrwt beam="1">  1        2 0.23361548E-01 0.27100250E+03</pdfrwt>
<pdfrwt beam="2">  1       -2 0.18601941E-01 0.27100250E+03</pdfrwt>
<totfact> 0.54864235E+03</totfact>
</mgrwt>
</event>
<event>
 9    1  0.8122655E-001  0.2751713E+03  0.7818608E-02  0.1098356E+00
         -2   -1    0    0    0  501 -0.00000000000E+00  0.00000000000E+00  0.20010386168E+02  0.20010386168E+02  0.00000000000E+00 0. -1.
          2   -1    0    0  501    0  0.00000000000E+00 -0.00000000000E+00 -0.94599901929E+03  0.94599901929E+03  0.00000000000E+00 0. -1.
         35    2    1    2    0    0  0.26645352591E-14  0.00000000000E+00 -0.92598863312E+03  0.96600940546E+03  0.27517126078E+03 0.  0.
         25    2    3    3    0    0  0.42121928751E+01  0.24611168829E+02 -0.29363743641E+03  0.32090518383E+03  0.12701866298E+03 0.  0.
         25    2    3    3    0    0 -0.42121928751E+01 -0.24611168829E+02 -0.63235119671E+03  0.64510422163E+03  0.12517175633E+03 0.  0.
          5    1    4    4  502    0 -0.58414637393E+01  0.55202082963E+02 -0.28022310764E+03  0.28570697002E+03  0.47000000000E+01 0.  1.
         -5    1    4    4    0  502  0.10053656614E+02 -0.30590914134E+02 -0.13414328770E+02  0.35198213807E+02  0.47000000000E+01 0.  1.
          5    1    5    5  503    0  0.50804298215E+02  0.56819212866E+01 -0.14747457819E+03  0.15615441767E+03  0.47000000000E+01 0.  1.
         -5    1    5    5    0  503 -0.55016491091E+02 -0.30293090116E+02 -0.48487661853E+03  0.48894980396E+03  0.47000000000E+01 0.  1.
<mgrwt>
<rscale>  0 0.27517126E+03</rscale>
<asrwt>0</asrwt>
<pdfrwt beam="1">  1        2 0.14553831E+00 0.27517126E+03</pdfrwt>
<pdfrwt beam="2">  1       -2 0.30785209E-02 0.27517126E+03</pdfrwt>
<totfact> 0.11533923E+04</totfact>
</mgrwt>
</event>
<event>
 9    1  0.8122655E-001  0.2739954E+03  0.7818608E-02  0.1099014E+00
          2   -1    0    0  501    0  0.00000000000E+00  0.00000000000E+00  0.44561785939E+03  0.44561785939E+03  0.00000000000E+00 0. -1.
         -2   -1    0    0    0  501 -0.00000000000E+00 -0.00000000000E+00 -0.42117634001E+02  0.42117634001E+02  0.00000000000E+00 0. -1.
         35    2    1    2    0    0  0.35527136788E-14  0.00000000000E+00  0.40350022539E+03  0.48773549339E+03  0.27399540074E+03 0.  0.
         25    2    3    3    0    0  0.97488741602E+01  0.54631680125E+02  0.18812398449E+03  0.23257502621E+03  0.12498339191E+03 0.  0.
         25    2    3    3    0    0 -0.97488741602E+01 -0.54631680125E+02  0.21537624090E+03  0.25516046719E+03  0.12506109647E+03 0.  0.
          5    1    4    4  502    0  0.41003145902E+02 -0.11925793778E+02  0.13518844781E+03  0.14185023424E+03  0.47000000000E+01 0.  1.
         -5    1    4    4    0  502 -0.31254271741E+02  0.66557473903E+02  0.52935536679E+02  0.90724791970E+02  0.47000000000E+01 0.  1.
          5    1    5    5  503    0 -0.33249534499E+02 -0.77525786669E+02  0.82031468118E+02  0.11775835811E+03  0.47000000000E+01 0.  1.
         -5    1    5    5    0  503  0.23500660338E+02  0.22894106544E+02  0.13334477278E+03  0.13740210908E+03  0.47000000000E+01 0.  1.
<mgrwt>
<rscale>  0 0.27399540E+03</rscale>
<asrwt>0</asrwt>
<pdfrwt beam="1">  1        2 0.68556591E-01 0.27399540E+03</pdfrwt>
<pdfrwt beam="2">  1       -2 0.64796363E-02 0.27399540E+03</pdfrwt>
<totfact> 0.92483604E+03</totfact>
</mgrwt>
</event>
<event>
 9    1  0.8122655E-001  0.2755025E+03  0.7818608E-02  0.1098171E+00
         -2   -1    0    0    0  501 -0.00000000000E+00  0.00000000000E+00  0.70084234042E+02  0.70084234042E+02  0.00000000000E+00 0. -1.
          2   -1    0    0  501    0  0.00000000000E+00 -0.00000000000E+00 -0.27075137975E+03  0.27075137975E+03  0.00000000000E+00 0. -1.
         35    2    1    2    0    0  0.00000000000E+00  0.00000000000E+00 -0.20066714571E+03  0.34083561379E+03  0.27550247234E+03 0.  0.
         25    2    3    3    0    0 -0.50285959165E+02 -0.19250274731E+02 -0.12634272317E+03  0.18592836211E+03  0.12533004976E+03 0.  0.
         25    2    3    3    0    0  0.50285959165E+02  0.19250274731E+02 -0.74324422540E+02  0.15490725168E+03  0.12479137018E+03 0.  0.
          5    1    4    4  502    0 -0.88983217280E+02 -0.17063199386E+02 -0.59430760766E+02  0.10845861449E+03  0.47000000000E+01 0. -1.
         -5    1    4    4    0  502  0.38697258115E+02 -0.21870753450E+01 -0.66911962402E+02  0.77469747622E+02  0.47000000000E+01 0. -1.
          5    1    5    5  503    0 -0.29575437904E+02 -0.92962395610E+01 -0.61462268514E+02  0.68998746714E+02  0.47000000000E+01 0.  1.
         -5    1    5    5    0  503  0.79861397069E+02  0.28546514292E+02 -0.12862154026E+02  0.85908504971E+02  0.47000000000E+01 0.  1.
<mgrwt>
<rscale>  0 0.27550247E+03</rscale>
<asrwt>0</asrwt>
<pdfrwt beam="1">  1        2 0.41654058E-01 0.27550247E+03</pdfrwt>
<pdfrwt beam="2">  1       -2 0.10782190E-01 0.27550247E+03</pdfrwt>
<totfact> 0.71344868E+03</totfact>
</mgrwt>
</event>
<event>
 9    1  0.8122655E-001  0.2758203E+03  0.7818608E-02  0.1097994E+00
          2   -1    0    0  501    0  0.00000000000E+00  0.00000000000E+00  0.17053965278E+04  0.17053965278E+04  0.00000000000E+00 0.  1.
         -2   -1    0    0    0  501 -0.00000000000E+00 -0.00000000000E+00 -0.11152369321E+02  0.11152369321E+02  0.00000000000E+00 0.  1.
         35    2    1    2    0    0  0.17763568394E-14  0.71054273576E-14  0.16942441585E+04  0.17165488971E+04  0.27582031772E+03 0.  0.
         25    2    3    3    0    0  0.67347761994E+01  0.35081819737E+02  0.11327406878E+04  0.11403545167E+04  0.12661305914E+03 0.  0.
         25    2    3    3    0    0 -0.67347761994E+01 -0.35081819737E+02  0.56150347069E+03  0.57619438040E+03  0.12424864233E+03 0.  0.
          5    1    4    4  502    0 -0.35448656390E+02 -0.30276423947E+02  0.61491359845E+03  0.61669611045E+03  0.47000000000E+01 0.  1.
         -5    1    4    4    0  502  0.42183432590E+02  0.65358243684E+02  0.51782708931E+03  0.52365840624E+03  0.47000000000E+01 0.  1.
          5    1    5    5  503    0 -0.64804200933E+01 -0.17957540548E+02  0.62121824025E+01  0.20619173536E+02  0.47000000000E+01 0. -1.
         -5    1    5    5    0  503 -0.25435610613E+00 -0.17124279189E+02  0.55529128829E+03  0.55557520686E+03  0.47000000000E+01 0. -1.
<mgrwt>
<rscale>  0 0.27582032E+03</rscale>
<asrwt>0</asrwt>
<pdfrwt beam="1">  1        2 0.26236849E+00 0.27582032E+03</pdfrwt>
<pdfrwt beam="2">  1       -2 0.17157505E-02 0.27582032E+03</pdfrwt>
<totfact> 0.10282274E+04</totfact>
</mgrwt>
</event>
<event>
 9    1  0.8122655E-001  0.2749391E+03  0.7818608E-02  0.1098486E+00
          1   -1    0    0  501    0  0.00000000000E+00  0.00000000000E+00  0.26415066212E+02  0.26415066212E+02  0.00000000000E+00 0.  1.
         -1   -1    0    0    0  501 -0.00000000000E+00 -0.00000000000E+00 -0.71542024807E+03  0.71542024807E+03  0.00000000000E+00 0.  1.
         35    2    1    2    0    0  0.00000000000E+00  0.35527136788E-14 -0.68900518186E+03  0.74183531429E+03  0.27493907123E+03 0.  0.
         25    2    3    3    0    0 -0.20176299731E+02  0.19541693026E+02 -0.47423199690E+03  0.49178219691E+03  0.12714079392E+03 0.  0.
         25    2    3    3    0    0  0.20176299731E+02 -0.19541693026E+02 -0.21477318496E+03  0.25005311738E+03  0.12494030452E+03 0.  0.
          5    1    4    4  502    0  0.42325232737E+02 -0.23884185953E+02 -0.25593862962E+03  0.26055431640E+03  0.47000000000E+01 0.  1.
         -5    1    4    4    0  502 -0.62501532467E+02  0.43425878978E+02 -0.21829336728E+03  0.23122788051E+03  0.47000000000E+01 0.  1.
          5    1    5    5  503    0  0.40086733356E+02 -0.63253386977E+01 -0.77256589293E+01  0.41578021919E+02  0.47000000000E+01 0. -1.
         -5    1    5    5    0  503 -0.19910433625E+02 -0.13216354328E+02 -0.20704752603E+03  0.20847509546E+03  0.47000000000E+01 0. -1.
<mgrwt>
<rscale>  0 0.27493907E+03</rscale>
<asrwt>0</asrwt>
<pdfrwt beam="1">  1        1 0.40638568E-02 0.27493907E+03</pdfrwt>
<pdfrwt beam="2">  1       -1 0.11006464E+00 0.27493907E+03</pdfrwt>
<totfact> 0.18003742E+03</totfact>
</mgrwt>
</event>
<event>
 9    1  0.8122655E-001  0.2787501E+03  0.7818608E-02  0.1096374E+00
          3   -1    0    0  501    0  0.00000000000E+00  0.00000000000E+00  0.39923486757E+02  0.39923486757E+02  0.00000000000E+00 0.  1.
         -3   -1    0    0    0  501 -0.00000000000E+00 -0.00000000000E+00 -0.48656574191E+03  0.48656574191E+03  0.00000000000E+00 0.  1.
         35    2    1    2    0    0 -0.35527136788E-14  0.00000000000E+00 -0.44664225515E+03  0.52648922866E+03  0.27875007411E+03 0.  0.
         25    2    3    3    0    0  0.90641381629E+01 -0.70301420988E+02 -0.24109144411E+03  0.27506335754E+03  0.11184953218E+03 0.  0.
         25    2    3    3    0    0 -0.90641381629E+01  0.70301420988E+02 -0.20555081104E+03  0.25142587112E+03  0.12625127466E+03 0.  0.
          5    1    4    4  502    0  0.49187784966E+02 -0.68354607448E+00 -0.11871367621E+03  0.12858822786E+03  0.47000000000E+01 0.  1.
         -5    1    4    4    0  502 -0.40123646804E+02 -0.69617874914E+02 -0.12237776790E+03  0.14647512968E+03  0.47000000000E+01 0.  1.
          5    1    5    5  503    0  0.14317175462E+02  0.91906871987E+02 -0.19734205693E+03  0.21821510504E+03  0.47000000000E+01 0.  1.
         -5    1    5    5    0  503 -0.23381313625E+02 -0.21605450998E+02 -0.82087541070E+01  0.33210766081E+02  0.47000000000E+01 0.  1.
<mgrwt>
<rscale>  0 0.27875007E+03</rscale>
<asrwt>0</asrwt>
<pdfrwt beam="1">  1        3 0.61420751E-02 0.27875007E+03</pdfrwt>
<pdfrwt beam="2">  1       -3 0.74856265E-01 0.27875007E+03</pdfrwt>
<totfact> 0.71830217E+02</totfact>
</mgrwt>
</event>
<event>
 9    1  0.8122655E-001  0.2746806E+03  0.7818608E-02  0.1098630E+00
         -1   -1    0    0    0  501 -0.00000000000E+00  0.00000000000E+00  0.39980441645E+02  0.39980441645E+02  0.00000000000E+00 0. -1.
          1   -1    0    0  501    0  0.00000000000E+00 -0.00000000000E+00 -0.47178980316E+03  0.47178980316E+03  0.00000000000E+00 0. -1.
         35    2    1    2    0    0  0.00000000000E+00  0.00000000000E+00 -0.43180936151E+03  0.51177024480E+03  0.27468064871E+03 0.  0.
         25    2    3    3    0    0 -0.45911445120E+02 -0.34749257018E+02 -0.19479933184E+03  0.23818860539E+03  0.12438512933E+03 0.  0.
         25    2    3    3    0    0  0.45911445120E+02  0.34749257018E+02 -0.23701002967E+03  0.27358163941E+03  0.12392654114E+03 0.  0.
          5    1    4    4  502    0  0.43070080051E+02 -0.10748688486E+02 -0.68722491176E+02  0.81947769300E+02  0.47000000000E+01 0.  1.
         -5    1    4    4    0  502 -0.88981525171E+02 -0.24000568532E+02 -0.12607684066E+03  0.15624083609E+03  0.47000000000E+01 0.  1.
          5    1    5    5  503    0 -0.24177342392E+02 -0.27051034599E+02 -0.33543495687E+02  0.49634246855E+02  0.47000000000E+01 0.  1.
         -5    1    5    5    0  503  0.70088787512E+02  0.61800291617E+02 -0.20346653399E+03  0.22394739255E+03  0.47000000000E+01 0.  1.
<mgrwt>
<rscale>  0 0.27468065E+03</rscale>
<asrwt>0</asrwt>
<pdfrwt beam="1">  1        1 0.72583040E-01 0.27468065E+03</pdfrwt>
<pdfrwt beam="2">  1       -1 0.61508377E-02 0.27468065E+03</pdfrwt>
<totfact> 0.62466532E+03</totfact>
</mgrwt>
</event>
<event>
 9    1  0.8122655E-001  0.2731894E+03  0.7818608E-02  0.1099468E+00
         -1   -1    0    0    0  501 -0.00000000000E+00  0.00000000000E+00  0.52375524628E+03  0.52375524628E+03  0.00000000000E+00 0.  1.
          1   -1    0    0  501    0  0.00000000000E+00 -0.00000000000E+00 -0.35623716350E+02  0.35623716350E+02  0.00000000000E+00 0.  1.
         35    2    1    2    0    0  0.71054273576E-14  0.14210854715E-13  0.48813152993E+03  0.55937896263E+03  0.27318937264E+03 0.  0.
         25    2    3    3    0    0  0.47333608888E+02  0.19783223304E+02  0.28492414713E+03  0.31544104990E+03  0.12525749434E+03 0.  0.
         25    2    3    3    0    0 -0.47333608888E+02 -0.19783223304E+02  0.20320738280E+03  0.24393791273E+03  0.12482234731E+03 0.  0.
          5    1    4    4  502    0  0.62119729866E+01 -0.46195713011E+02  0.52744361062E+02  0.70545659915E+02  0.47000000000E+01 0.  1.
         -5    1    4    4    0  502  0.41121635902E+02  0.65978936315E+02  0.23217978607E+03  0.24489538999E+03  0.47000000000E+01 0.  1.
          5    1    5    5  503    0 -0.60733787745E+02  0.25377185596E+02  0.47808847626E+02  0.81488468104E+02  0.47000000000E+01 0.  1.
         -5    1    5    5    0  503  0.13400178856E+02 -0.45160408900E+02  0.15539853517E+03  0.16244944463E+03  0.47000000000E+01 0.  1.
<mgrwt>
<rscale>  0 0.27318937E+03</rscale>
<asrwt>0</asrwt>
<pdfrwt beam="1">  1        1 0.54805721E-02 0.27318937E+03</pdfrwt>
<pdfrwt beam="2">  1       -1 0.80577725E-01 0.27318937E+03</pdfrwt>
<totfact> 0.23493785E+03</totfact>
</mgrwt>
</event>
<event>
 9    1  0.8122655E-001  0.2780937E+03  0.7818608E-02  0.1096735E+00
          4   -1    0    0  501    0  0.00000000000E+00  0.00000000000E+00  0.10951186703E+03  0.10951186703E+03  0.00000000000E+00 0.  1.
         -4   -1    0    0    0  501 -0.00000000000E+00 -0.00000000000E+00 -0.17654732052E+03  0.17654732052E+03  0.00000000000E+00 0.  1.
         35    2    1    2    0    0  0.35527136788E-14  0.00000000000E+00 -0.67035453493E+02  0.28605918755E+03  0.27809370140E+03 0.  0.
         25    2    3    3    0    0  0.30464668765E+02  0.42524632824E+02 -0.68380445558E+02  0.15042098682E+03  0.12334564241E+03 0.  0.
         25    2    3    3    0    0 -0.30464668765E+02 -0.42524632824E+02  0.13449920648E+01  0.13563820074E+03  0.12513781225E+03 0.  0.
          5    1    4    4  502    0  0.36127384621E+02  0.72180866456E+01 -0.97329112149E+02  0.10417453991E+03  0.47000000000E+01 0.  1.
         -5    1    4    4    0  502 -0.56627158551E+01  0.35306546178E+02  0.28948666591E+02  0.46246446905E+02  0.47000000000E+01 0.  1.
          5    1    5    5  503    0  0.22915759183E+02  0.15094283119E+02 -0.38442704298E+02  0.47464733387E+02  0.47000000000E+01 0. -1.
         -5    1    5    5    0  503 -0.53380427949E+02 -0.57618915943E+02  0.39787696362E+02  0.88173467348E+02  0.47000000000E+01 0. -1.
<mgrwt>
<rscale>  0 0.27809370E+03</rscale>
<asrwt>0</asrwt>
<pdfrwt beam="1">  1        4 0.16847980E-01 0.27809370E+03</pdfrwt>
<pdfrwt beam="2">  1       -4 0.27161126E-01 0.27809370E+03</pdfrwt>
<totfact> 0.73969781E+02</totfact>
</mgrwt>
</event>
<event>
 9    1  0.8122655E-001  0.2793657E+03  0.7818608E-02  0.1096036E+00
         -2   -1    0    0    0  501 -0.00000000000E+00  0.00000000000E+00  0.57777797798E+02  0.57777797798E+02  0.00000000000E+00 0. -1.
          2   -1    0    0  501    0  0.00000000000E+00 -0.00000000000E+00 -0.33769541128E+03  0.33769541128E+03  0.00000000000E+00 0. -1.
         35    2    1    2    0    0  0.35527136788E-14  0.00000000000E+00 -0.27991761348E+03  0.39547320908E+03  0.27936569002E+03 0.  0.
         25    2    3    3    0    0  0.17628094425E+02  0.35159215597E+02 -0.72640128998E+02  0.15004477164E+03  0.12525943079E+03 0.  0.
         25    2    3    3    0    0 -0.17628094425E+02 -0.35159215597E+02 -0.20727748448E+03  0.24542843744E+03  0.12539634036E+03 0.  0.
          5    1    4    4  502    0  0.69885426693E+02  0.84479291387E+01 -0.26963472276E+02  0.75527870406E+02  0.47000000000E+01 0. -1.
         -5    1    4    4    0  502 -0.52257332268E+02  0.26711286458E+02 -0.45676656722E+02  0.74516901232E+02  0.47000000000E+01 0. -1.
          5    1    5    5  503    0 -0.40507551831E+02 -0.91468871190E+01 -0.73088688791E+01  0.42426841310E+02  0.47000000000E+01 0.  1.
         -5    1    5    5    0  503  0.22879457406E+02 -0.26012328478E+02 -0.19996861561E+03  0.20300159613E+03  0.47000000000E+01 0.  1.
<mgrwt>
<rscale>  0 0.27936569E+03</rscale>
<asrwt>0</asrwt>
<pdfrwt beam="1">  1        2 0.51953141E-01 0.27936569E+03</pdfrwt>
<pdfrwt beam="2">  1       -2 0.88888919E-02 0.27936569E+03</pdfrwt>
<totfact> 0.76456156E+03</totfact>
</mgrwt>
</event>
<event>
 9    1  0.8122655E-001  0.2762212E+03  0.7818608E-02  0.1097771E+00
          2   -1    0    0  501    0  0.00000000000E+00  0.00000000000E+00  0.25649537725E+02  0.25649537725E+02  0.00000000000E+00 0.  1.
         -2   -1    0    0    0  501 -0.00000000000E+00 -0.00000000000E+00 -0.74366027563E+03  0.74366027563E+03  0.00000000000E+00 0.  1.
         35    2    1    2    0    0 -0.14210854715E-13  0.00000000000E+00 -0.71801073790E+03  0.76930981335E+03  0.27622123231E+03 0.  0.
         25    2    3    3    0    0  0.56292185162E+02 -0.87850874929E+01 -0.39610570918E+03  0.41924813757E+03  0.12499312038E+03 0.  0.
         25    2    3    3    0    0 -0.56292185162E+02  0.87850874929E+01 -0.32190502872E+03  0.35006167578E+03  0.12519721027E+03 0.  0.
          5    1    4    4  502    0  0.77193968467E+02  0.32136691986E+02 -0.31467785810E+03  0.32563157113E+03  0.47000000000E+01 0.  1.
         -5    1    4    4    0  502 -0.20901783305E+02 -0.40921779479E+02 -0.81427851075E+02  0.93616566439E+02  0.47000000000E+01 0.  1.
          5    1    5    5  503    0 -0.49062337479E+02  0.64308189791E+02 -0.17785552881E+03  0.19544138600E+03  0.47000000000E+01 0.  1.
         -5    1    5    5    0  503 -0.72298476834E+01 -0.55523102298E+02 -0.14404949991E+03  0.15462028978E+03  0.47000000000E+01 0.  1.
<mgrwt>
<rscale>  0 0.27622123E+03</rscale>
<asrwt>0</asrwt>
<pdfrwt beam="1">  1        2 0.39460829E-02 0.27622123E+03</pdfrwt>
<pdfrwt beam="2">  1       -2 0.11440927E+00 0.27622123E+03</pdfrwt>
<totfact> 0.13451988E+03</totfact>
</mgrwt>
</event>
<event>
 9    1  0.8122655E-001  0.2767361E+03  0.7818608E-02  0.1097485E+00
          2   -1    0    0  501    0  0.00000000000E+00  0.00000000000E+00  0.14152142878E+04  0.14152142878E+04  0.00000000000E+00 0. -1.
         -2   -1    0    0    0  501 -0.00000000000E+00 -0.00000000000E+00 -0.13528489758E+02  0.13528489758E+02  0.00000000000E+00 0. -1.
         35    2    1    2    0    0 -0.35527136788E-14  0.00000000000E+00  0.14016857981E+04  0.14287427776E+04  0.27673606196E+03 0.  0.
         25    2    3    3    0    0  0.18498883180E+02  0.38588373124E+02  0.49502784934E+03  0.51255003048E+03  0.12579225295E+03 0.  0.
         25    2    3    3    0    0 -0.18498883180E+02 -0.38588373124E+02  0.90665794875E+03  0.91619274713E+03  0.12469660235E+03 0.  0.
          5    1    4    4  502    0  0.32197498718E+01  0.48258875649E+02  0.60401783858E+02  0.77522586137E+02  0.47000000000E+01 0. -1.
         -5    1    4    4    0  502  0.15279133309E+02 -0.96705025255E+01  0.43462606548E+03  0.43502744434E+03  0.47000000000E+01 0. -1.
          5    1    5    5  503    0 -0.36111103839E+02 -0.49470857013E+02  0.87987268464E+03  0.88201440391E+03  0.47000000000E+01 0. -1.
         -5    1    5    5    0  503  0.17612220659E+02  0.10882483890E+02  0.26785264107E+02  0.34178343223E+02  0.47000000000E+01 0. -1.
<mgrwt>
<rscale>  0 0.27673606E+03</rscale>
<asrwt>0</asrwt>
<pdfrwt beam="1">  1        2 0.21772516E+00 0.27673606E+03</pdfrwt>
<pdfrwt beam="2">  1       -2 0.20813072E-02 0.27673606E+03</pdfrwt>
<totfact> 0.11051338E+04</totfact>
</mgrwt>
</event>
<event>
 9    1  0.8122655E-001  0.2745921E+03  0.7818608E-02  0.1098680E+00
          4   -1    0    0  501    0  0.00000000000E+00  0.00000000000E+00  0.51197984050E+03  0.51197984050E+03  0.00000000000E+00 0.  1.
         -4   -1    0    0    0  501 -0.00000000000E+00 -0.00000000000E+00 -0.36818254561E+02  0.36818254561E+02  0.00000000000E+00 0.  1.
         35    2    1    2    0    0  0.35527136788E-14  0.00000000000E+00  0.47516158594E+03  0.54879809506E+03  0.27459209091E+03 0.  0.
         25    2    3    3    0    0  0.17373805158E+02 -0.36539512040E+02  0.31368933389E+03  0.33984153162E+03  0.12431525800E+03 0.  0.
         25    2    3    3    0    0 -0.17373805158E+02  0.36539512040E+02  0.16147225205E+03  0.20895656344E+03  0.12630349234E+03 0.  0.
          5    1    4    4  502    0 -0.22908010522E+02  0.64346859167E+01  0.40200854534E+01  0.24585223529E+02  0.47000000000E+01 0.  1.
         -5    1    4    4    0  502  0.40281815680E+02 -0.42974197957E+02  0.30966924843E+03  0.31525630809E+03  0.47000000000E+01 0.  1.
          5    1    5    5  503    0 -0.26183810507E+02 -0.37173704134E+02  0.10820611379E+03  0.11746543863E+03  0.47000000000E+01 0. -1.
         -5    1    5    5    0  503  0.88100053497E+01  0.73713216174E+02  0.53266138257E+02  0.91491124803E+02  0.47000000000E+01 0. -1.
<mgrwt>
<rscale>  0 0.27459209E+03</rscale>
<asrwt>0</asrwt>
<pdfrwt beam="1">  1        4 0.78766124E-01 0.27459209E+03</pdfrwt>
<pdfrwt beam="2">  1       -4 0.56643472E-02 0.27459209E+03</pdfrwt>
<totfact> 0.53710569E+02</totfact>
</mgrwt>
</event>
<event>
 9    1  0.8122655E-001  0.2737911E+03  0.7818608E-02  0.1099129E+00
          1   -1    0    0  501    0  0.00000000000E+00  0.00000000000E+00  0.11322468738E+03  0.11322468738E+03  0.00000000000E+00 0. -1.
         -1   -1    0    0    0  501 -0.00000000000E+00 -0.00000000000E+00 -0.16551509526E+03  0.16551509526E+03  0.00000000000E+00 0. -1.
         35    2    1    2    0    0  0.00000000000E+00  0.00000000000E+00 -0.52290407874E+02  0.27873978264E+03  0.27379112416E+03 0.  0.
         25    2    3    3    0    0 -0.16661213176E+02 -0.41098345665E+02 -0.27566888752E+02  0.14394944243E+03  0.13414484179E+03 0.  0.
         25    2    3    3    0    0  0.16661213176E+02  0.41098345665E+02 -0.24723519122E+02  0.13479034021E+03  0.12486197730E+03 0.  0.
          5    1    4    4  502    0  0.37469888549E+02 -0.23921374197E+02 -0.62700290479E+02  0.77004162988E+02  0.47000000000E+01 0.  1.
         -5    1    4    4    0  502 -0.54131101725E+02 -0.17176971468E+02  0.35133401727E+02  0.66945279443E+02  0.47000000000E+01 0.  1.
          5    1    5    5  503    0  0.61215523204E+02  0.12502551642E+02  0.19530167693E+02  0.65629044857E+02  0.47000000000E+01 0. -1.
         -5    1    5    5    0  503 -0.44554310028E+02  0.28595794023E+02 -0.44253686814E+02  0.69161295351E+02  0.47000000000E+01 0. -1.
<mgrwt>
<rscale>  0 0.27379112E+03</rscale>
<asrwt>0</asrwt>
<pdfrwt beam="1">  1        1 0.17419183E-01 0.27379112E+03</pdfrwt>
<pdfrwt beam="2">  1       -1 0.25463861E-01 0.27379112E+03</pdfrwt>
<totfact> 0.41048034E+03</totfact>
</mgrwt>
</event>
<event>
 9    1  0.8122655E-001  0.2797823E+03  0.7818608E-02  0.1095808E+00
         -3   -1    0    0    0  501 -0.00000000000E+00  0.00000000000E+00  0.11192470468E+04  0.11192470468E+04  0.00000000000E+00 0. -1.
          3   -1    0    0  501    0  0.00000000000E+00 -0.00000000000E+00 -0.17484547845E+02  0.17484547845E+02  0.00000000000E+00 0. -1.
         35    2    1    2    0    0 -0.71054273576E-14  0.71054273576E-14  0.11017624989E+04  0.11367315946E+04  0.27978226205E+03 0.  0.
         25    2    3    3    0    0  0.21921865891E+02 -0.49529901860E+02  0.67261716658E+03  0.68628870317E+03  0.12507818326E+03 0.  0.
         25    2    3    3    0    0 -0.21921865891E+02  0.49529901860E+02  0.42914533235E+03  0.45044289146E+03  0.12569527758E+03 0.  0.
          5    1    4    4  502    0 -0.72010176045E+01 -0.36112541352E+02  0.47278608507E+02  0.60110956736E+02  0.47000000000E+01 0. -1.
         -5    1    4    4    0  502  0.29122883496E+02 -0.13417360509E+02  0.62533855808E+03  0.62617774643E+03  0.47000000000E+01 0. -1.
          5    1    5    5  503    0  0.34657182870E+02  0.29807797120E+01  0.35184519583E+02  0.49699555234E+02  0.47000000000E+01 0.  1.
         -5    1    5    5    0  503 -0.56579048762E+02  0.46549122148E+02  0.39396081277E+03  0.40074333623E+03  0.47000000000E+01 0.  1.
<mgrwt>
<rscale>  0 0.27978226E+03</rscale>
<asrwt>0</asrwt>
<pdfrwt beam="1">  1        3 0.26899313E-02 0.27978226E+03</pdfrwt>
<pdfrwt beam="2">  1       -3 0.17219180E+00 0.27978226E+03</pdfrwt>
<totfact> 0.36679442E+02</totfact>
</mgrwt>
</event>
<event>
 9    1  0.8122655E-001  0.2771233E+03  0.7818608E-02  0.1097271E+00
         -1   -1    0    0    0  501 -0.00000000000E+00  0.00000000000E+00  0.21557555833E+03  0.21557555833E+03  0.00000000000E+00 0.  1.
          1   -1    0    0  501    0  0.00000000000E+00 -0.00000000000E+00 -0.89060800729E+02  0.89060800729E+02  0.00000000000E+00 0.  1.
         35    2    1    2    0    0 -0.71054273576E-14  0.00000000000E+00  0.12651475760E+03  0.30463635906E+03  0.27712330716E+03 0.  0.
         25    2    3    3    0    0  0.56648785891E+02  0.15430621627E+02  0.48702389970E+02  0.14610859595E+03  0.12461384351E+03 0.  0.
         25    2    3    3    0    0 -0.56648785891E+02 -0.15430621627E+02  0.77812367631E+02  0.15852776311E+03  0.12501639130E+03 0.  0.
          5    1    4    4  502    0  0.55703477754E+02  0.10980677773E+01 -0.31716798868E+02  0.64281634369E+02  0.47000000000E+01 0. -1.
         -5    1    4    4    0  502  0.94530813655E+00  0.14332553850E+02  0.80419188838E+02  0.81826961576E+02  0.47000000000E+01 0. -1.
          5    1    5    5  503    0 -0.93547905183E+02 -0.22799521811E+02  0.38207416048E+02  0.10369631334E+03  0.47000000000E+01 0. -1.
         -5    1    5    5    0  503  0.36899119292E+02  0.73689001836E+01  0.39604951583E+02  0.54831449775E+02  0.47000000000E+01 0. -1.
<mgrwt>
<rscale>  0 0.27712331E+03</rscale>
<asrwt>0</asrwt>
<pdfrwt beam="1">  1        1 0.13701662E-01 0.27712331E+03</pdfrwt>
<pdfrwt beam="2">  1       -1 0.33165470E-01 0.27712331E+03</pdfrwt>
<totfact> 0.35934669E+03</totfact>
</mgrwt>
</event>
<event>
 9    1  0.8122655E-001  0.2753514E+03  0.7818608E-02  0.1098255E+00
          1   -1    0    0  501    0  0.00000000000E+00  0.00000000000E+00  0.40590009801E+03  0.40590009801E+03  0.00000000000E+00 0.  1.
         -1   -1    0    0    0  501 -0.00000000000E+00 -0.00000000000E+00 -0.46697677161E+02  0.46697677161E+02  0.00000000000E+00 0.  1.
         35    2    1    2    0    0 -0.19984014443E-14  0.00000000000E+00  0.35920242085E+03  0.45259777517E+03  0.27535135181E+03 0.  0.
         25    2    3    3    0    0 -0.31197738857E+00 -0.27932415930E+02  0.26371515991E+03  0.29316487972E+03  0.12497857396E+03 0.  0.
         25    2    3    3    0    0  0.31197738857E+00  0.27932415930E+02  0.95487260944E+02  0.15943289545E+03  0.12458215747E+03 0.  0.
          5    1    4    4  502    0 -0.59522526218E+02 -0.27634213397E+02  0.10746269673E+03  0.12600357957E+03  0.47000000000E+01 0.  1.
         -5    1    4    4    0  502  0.59210548830E+02 -0.29820253258E+00  0.15625246318E+03  0.16716130015E+03  0.47000000000E+01 0.  1.
          5    1    5    5  503    0  0.50575356630E+00  0.11013094094E+02 -0.30217504881E+02  0.32507408839E+02  0.47000000000E+01 0. -1.
         -5    1    5    5    0  503 -0.19377617774E+00  0.16919321836E+02  0.12570476582E+03  0.12692548661E+03  0.47000000000E+01 0. -1.
<mgrwt>
<rscale>  0 0.27535135E+03</rscale>
<asrwt>0</asrwt>
<pdfrwt beam="1">  1        1 0.62446167E-01 0.27535135E+03</pdfrwt>
<pdfrwt beam="2">  1       -1 0.71842583E-02 0.27535135E+03</pdfrwt>
<totfact> 0.60026361E+03</totfact>
</mgrwt>
</event>
<event>
 9    1  0.8122655E-001  0.2723145E+03  0.7818608E-02  0.1099962E+00
          1   -1    0    0  501    0  0.00000000000E+00  0.00000000000E+00  0.26571522303E+03  0.26571522303E+03  0.00000000000E+00 0.  1.
         -1   -1    0    0    0  501 -0.00000000000E+00 -0.00000000000E+00 -0.69769427059E+02  0.69769427059E+02  0.00000000000E+00 0.  1.
         35    2    1    2    0    0  0.14210854715E-13  0.35527136788E-14  0.19594579597E+03  0.33548465009E+03  0.27231451575E+03 0.  0.
         25    2    3    3    0    0 -0.53810670566E+02  0.18470706180E+01  0.96313354497E+02  0.16621944687E+03  0.12431267967E+03 0.  0.
         25    2    3    3    0    0  0.53810670566E+02 -0.18470706180E+01  0.99632441477E+02  0.16926520322E+03  0.12579779685E+03 0.  0.
          5    1    4    4  502    0 -0.56817526346E+02 -0.53206194438E+02  0.70634398742E+02  0.10521615234E+03  0.47000000000E+01 0. -1.
         -5    1    4    4    0  502  0.30068557796E+01  0.55053265056E+02  0.25678955754E+02  0.61003294531E+02  0.47000000000E+01 0. -1.
          5    1    5    5  503    0  0.66779405887E+02  0.28502020679E+02  0.97626452898E+01  0.73411535037E+02  0.47000000000E+01 0.  1.
         -5    1    5    5    0  503 -0.12968735321E+02 -0.30349091297E+02  0.89869796187E+02  0.95853668188E+02  0.47000000000E+01 0.  1.
<mgrwt>
<rscale>  0 0.27231452E+03</rscale>
<asrwt>0</asrwt>
<pdfrwt beam="1">  1        1 0.40879265E-01 0.27231452E+03</pdfrwt>
<pdfrwt beam="2">  1       -1 0.10733758E-01 0.27231452E+03</pdfrwt>
<totfact> 0.55373948E+03</totfact>
</mgrwt>
</event>
<event>
 9    1  0.8122655E-001  0.2709862E+03  0.7818608E-02  0.1100716E+00
          2   -1    0    0  501    0  0.00000000000E+00  0.00000000000E+00  0.15084063609E+04  0.15084063609E+04  0.00000000000E+00 0.  1.
         -2   -1    0    0    0  501 -0.00000000000E+00 -0.00000000000E+00 -0.12170716370E+02  0.12170716370E+02  0.00000000000E+00 0.  1.
         35    2    1    2    0    0  0.71054273576E-14  0.71054273576E-14  0.14962356445E+04  0.15205770773E+04  0.27098624312E+03 0.  0.
         25    2    3    3    0    0  0.32804084932E+02  0.34565773276E+02  0.69989663034E+03  0.71312026468E+03  0.12811837522E+03 0.  0.
         25    2    3    3    0    0 -0.32804084932E+02 -0.34565773276E+02  0.79633901419E+03  0.80745681258E+03  0.12473883919E+03 0.  0.
          5    1    4    4  502    0 -0.37695765841E+02  0.40205746839E+02  0.44930496227E+03  0.45269693169E+03  0.47000000000E+01 0. -1.
         -5    1    4    4    0  502  0.70499850772E+02 -0.56399735625E+01  0.25059166807E+03  0.26042333300E+03  0.47000000000E+01 0. -1.
          5    1    5    5  503    0  0.67454434292E+01 -0.18863987122E+02  0.71707562329E+03  0.71737081801E+03  0.47000000000E+01 0.  1.
         -5    1    5    5    0  503 -0.39549528361E+02 -0.15701786155E+02  0.79263390901E+02  0.90085994578E+02  0.47000000000E+01 0.  1.
<mgrwt>
<rscale>  0 0.27098624E+03</rscale>
<asrwt>0</asrwt>
<pdfrwt beam="1">  1        2 0.23206237E+00 0.27098624E+03</pdfrwt>
<pdfrwt beam="2">  1       -2 0.18724191E-02 0.27098624E+03</pdfrwt>
<totfact> 0.11498266E+04</totfact>
</mgrwt>
</event>
<event>
 9    1  0.8122655E-001  0.2768806E+03  0.7818608E-02  0.1097405E+00
         -2   -1    0    0    0  501 -0.00000000000E+00  0.00000000000E+00  0.15010616888E+02  0.15010616888E+02  0.00000000000E+00 0.  1.
          2   -1    0    0  501    0  0.00000000000E+00 -0.00000000000E+00 -0.12768106755E+04  0.12768106755E+04  0.00000000000E+00 0.  1.
         35    2    1    2    0    0  0.71054273576E-14 -0.35527136788E-14 -0.12618000586E+04  0.12918212924E+04  0.27688059439E+03 0.  0.
         25    2    3    3    0    0 -0.29585547835E+02  0.27199118589E+02 -0.83996114126E+03  0.85015274232E+03  0.12493946438E+03 0.  0.
         25    2    3    3    0    0  0.29585547835E+02 -0.27199118589E+02 -0.42183891734E+03  0.44166855006E+03  0.12453087662E+03 0.  0.
          5    1    4    4  502    0  0.98336962026E+00 -0.27030763017E+02 -0.64187269804E+03  0.64245955488E+03  0.47000000000E+01 0.  1.
         -5    1    4    4    0  502 -0.30568917455E+02  0.54229881606E+02 -0.19808844321E+03  0.20769318744E+03  0.47000000000E+01 0.  1.
          5    1    5    5  503    0  0.42994206715E+02 -0.37527890547E+02 -0.74880318273E+02  0.94265563408E+02  0.47000000000E+01 0.  1.
         -5    1    5    5    0  503 -0.13408658880E+02  0.10328771958E+02 -0.34695859907E+03  0.34740298665E+03  0.47000000000E+01 0.  1.
<mgrwt>
<rscale>  0 0.27688059E+03</rscale>
<asrwt>0</asrwt>
<pdfrwt beam="1">  1        2 0.19643243E+00 0.27688059E+03</pdfrwt>
<pdfrwt beam="2">  1       -2 0.23093254E-02 0.27688059E+03</pdfrwt>
<totfact> 0.11292545E+04</totfact>
</mgrwt>
</event>
<event>
 9    1  0.8122655E-001  0.2718236E+03  0.7818608E-02  0.1100240E+00
          2   -1    0    0  501    0  0.00000000000E+00  0.00000000000E+00  0.67401813788E+03  0.67401813788E+03  0.00000000000E+00 0.  1.
         -2   -1    0    0    0  501 -0.00000000000E+00 -0.00000000000E+00 -0.27405811368E+02  0.27405811368E+02  0.00000000000E+00 0.  1.
         35    2    1    2    0    0  0.00000000000E+00 -0.35527136788E-14  0.64661232651E+03  0.70142394924E+03  0.27182357473E+03 0.  0.
         25    2    3    3    0    0 -0.47376067811E+02  0.85741924627E+01  0.38439601965E+03  0.40705107962E+03  0.12494908132E+03 0.  0.
         25    2    3    3    0    0  0.47376067811E+02 -0.85741924627E+01  0.26221630686E+03  0.29437286962E+03  0.12481981497E+03 0.  0.
          5    1    4    4  502    0 -0.56451946241E+02  0.58722353747E+02  0.20975099340E+03  0.22506156113E+03  0.47000000000E+01 0. -1.
         -5    1    4    4    0  502  0.90758784299E+01 -0.50148161284E+02  0.17464502624E+03  0.18198951849E+03  0.47000000000E+01 0. -1.
          5    1    5    5  503    0  0.42217989259E+02 -0.14839287458E+02  0.27492263886E+03  0.27858052773E+03  0.47000000000E+01 0. -1.
         -5    1    5    5    0  503  0.51580785517E+01  0.62650949955E+01 -0.12706332001E+02  0.15792341897E+02  0.47000000000E+01 0. -1.
<mgrwt>
<rscale>  0 0.27182357E+03</rscale>
<asrwt>0</asrwt>
<pdfrwt beam="1">  1        2 0.10369509E+00 0.27182357E+03</pdfrwt>
<pdfrwt beam="2">  1       -2 0.42162792E-02 0.27182357E+03</pdfrwt>
<totfact> 0.11092925E+04</totfact>
</mgrwt>
</event>
<event>
 9    1  0.8122655E-001  0.2754870E+03  0.7818608E-02  0.1098180E+00
          1   -1    0    0  501    0  0.00000000000E+00  0.00000000000E+00  0.82026761882E+03  0.82026761882E+03  0.00000000000E+00 0. -1.
         -1   -1    0    0    0  501 -0.00000000000E+00 -0.00000000000E+00 -0.23130594991E+02  0.23130594991E+02  0.00000000000E+00 0. -1.
         35    2    1    2    0    0  0.71054273576E-14  0.00000000000E+00  0.79713702383E+03  0.84339821381E+03  0.27548704562E+03 0.  0.
         25    2    3    3    0    0  0.45450961362E+02 -0.29190894685E+02  0.45410350683E+03  0.47424933057E+03  0.12563651701E+03 0.  0.
         25    2    3    3    0    0 -0.45450961362E+02  0.29190894685E+02  0.34303351699E+03  0.36914888324E+03  0.12522382359E+03 0.  0.
          5    1    4    4  502    0  0.38963728813E+02 -0.61211860953E+02  0.13407389288E+03  0.15252200771E+03  0.47000000000E+01 0.  1.
         -5    1    4    4    0  502  0.64872325491E+01  0.32020966269E+02  0.32002961395E+03  0.32172732286E+03  0.47000000000E+01 0.  1.
          5    1    5    5  503    0  0.23956712080E+02  0.34252640855E+02  0.39491694328E+02  0.57696199010E+02  0.47000000000E+01 0. -1.
         -5    1    5    5    0  503 -0.69407673442E+02 -0.50617461706E+01  0.30354182267E+03  0.31145268423E+03  0.47000000000E+01 0. -1.
<mgrwt>
<rscale>  0 0.27548705E+03</rscale>
<asrwt>0</asrwt>
<pdfrwt beam="1">  1        1 0.12619500E+00 0.27548705E+03</pdfrwt>
<pdfrwt beam="2">  1       -1 0.35585537E-02 0.27548705E+03</pdfrwt>
<totfact> 0.64763380E+03</totfact>
</mgrwt>
</event>
<event>
 9    1  0.8122655E-001  0.2779151E+03  0.7818608E-02  0.1096833E+00
          2   -1    0    0  501    0  0.00000000000E+00  0.00000000000E+00  0.91579598251E+03  0.91579598251E+03  0.00000000000E+00 0. -1.
         -2   -1    0    0    0  501 -0.00000000000E+00 -0.00000000000E+00 -0.21084611510E+02  0.21084611510E+02  0.00000000000E+00 0. -1.
         35    2    1    2    0    0  0.71054273576E-14  0.00000000000E+00  0.89471137100E+03  0.93688059402E+03  0.27791511304E+03 0.  0.
         25    2    3    3    0    0 -0.39907887209E+01  0.40354003950E+02  0.33926312690E+03  0.36485240433E+03  0.12795872634E+03 0.  0.
         25    2    3    3    0    0  0.39907887209E+01 -0.40354003950E+02  0.55544824410E+03  0.57202818969E+03  0.13057230139E+03 0.  0.
          5    1    4    4  502    0 -0.42811672432E+02  0.16529779568E+02  0.30286497563E+03  0.30635821577E+03  0.47000000000E+01 0. -1.
         -5    1    4    4    0  502  0.38820883711E+02  0.23824224382E+02  0.36398151266E+02  0.58494188559E+02  0.47000000000E+01 0. -1.
          5    1    5    5  503    0  0.57965005399E+02 -0.22395725469E+02  0.42628065638E+03  0.43081178996E+03  0.47000000000E+01 0.  1.
         -5    1    5    5    0  503 -0.53974216678E+02 -0.17958278481E+02  0.12916758773E+03  0.14121639972E+03  0.47000000000E+01 0.  1.
<mgrwt>
<rscale>  0 0.27791511E+03</rscale>
<asrwt>0</asrwt>
<pdfrwt beam="1">  1        2 0.14089166E+00 0.27791511E+03</pdfrwt>
<pdfrwt beam="2">  1       -2 0.32437871E-02 0.27791511E+03</pdfrwt>
<totfact> 0.11153861E+04</totfact>
</mgrwt>
</event>
<event>
 9    1  0.8122655E-001  0.2773328E+03  0.7818608E-02  0.1097155E+00
          2   -1    0    0  501    0  0.00000000000E+00  0.00000000000E+00  0.13097021263E+04  0.13097021263E+04  0.00000000000E+00 0.  1.
         -2   -1    0    0    0  501 -0.00000000000E+00 -0.00000000000E+00 -0.14681486460E+02  0.14681486460E+02  0.00000000000E+00 0.  1.
         35    2    1    2    0    0  0.00000000000E+00  0.35527136788E-14  0.12950206398E+04  0.13243836128E+04  0.27733282556E+03 0.  0.
         25    2    3    3    0    0  0.25980585196E+02  0.13666492839E+02  0.40861049030E+03  0.42867004481E+03  0.12622880296E+03 0.  0.
         25    2    3    3    0    0 -0.25980585196E+02 -0.13666492839E+02  0.88641014953E+03  0.89571356794E+03  0.12537176228E+03 0.  0.
          5    1    4    4  502    0  0.58210115612E+02  0.27775887624E+02  0.10733535074E+03  0.12531115278E+03  0.47000000000E+01 0. -1.
         -5    1    4    4    0  502 -0.32229530416E+02 -0.14109394785E+02  0.30127513957E+03  0.30335889203E+03  0.47000000000E+01 0. -1.
          5    1    5    5  503    0 -0.42630235317E+02  0.30767777559E+02  0.73680356524E+03  0.73869180099E+03  0.47000000000E+01 0.  1.
         -5    1    5    5    0  503  0.16649650121E+02 -0.44434270398E+02  0.14960658429E+03  0.15702176695E+03  0.47000000000E+01 0.  1.
<mgrwt>
<rscale>  0 0.27733283E+03</rscale>
<asrwt>0</asrwt>
<pdfrwt beam="1">  1        2 0.20149254E+00 0.27733283E+03</pdfrwt>
<pdfrwt beam="2">  1       -2 0.22586913E-02 0.27733283E+03</pdfrwt>
<totfact> 0.11188627E+04</totfact>
</mgrwt>
</event>
<event>
 9    1  0.8122655E-001  0.2752994E+03  0.7818608E-02  0.1098284E+00
          2   -1    0    0  501    0  0.00000000000E+00  0.00000000000E+00  0.11800376013E+04  0.11800376013E+04  0.00000000000E+00 0.  1.
         -2   -1    0    0    0  501 -0.00000000000E+00 -0.00000000000E+00 -0.16056638994E+02  0.16056638994E+02  0.00000000000E+00 0.  1.
         35    2    1    2    0    0 -0.71054273576E-14  0.17763568394E-14  0.11639809623E+04  0.11960942403E+04  0.27529938440E+03 0.  0.
         25    2    3    3    0    0  0.39629500759E+01  0.79560227789E+01  0.33723545860E+03  0.35985942491E+03  0.12526790446E+03 0.  0.
         25    2    3    3    0    0 -0.39629500759E+01 -0.79560227789E+01  0.82674550367E+03  0.83623481535E+03  0.12530576719E+03 0.  0.
          5    1    4    4  502    0  0.24960330179E+02 -0.52639053047E+02  0.19890419365E+03  0.20731342513E+03  0.47000000000E+01 0.  1.
         -5    1    4    4    0  502 -0.20997380103E+02  0.60595075826E+02  0.13833126495E+03  0.15254599978E+03  0.47000000000E+01 0.  1.
          5    1    5    5  503    0  0.49090247849E+02  0.34763983622E+01  0.63442691676E+03  0.63635017128E+03  0.47000000000E+01 0.  1.
         -5    1    5    5    0  503 -0.53053197925E+02 -0.11432421141E+02  0.19231858692E+03  0.19988464407E+03  0.47000000000E+01 0.  1.
<mgrwt>
<rscale>  0 0.27529938E+03</rscale>
<asrwt>0</asrwt>
<pdfrwt beam="1">  1        2 0.18154418E+00 0.27529938E+03</pdfrwt>
<pdfrwt beam="2">  1       -2 0.24702531E-02 0.27529938E+03</pdfrwt>
<totfact> 0.11589347E+04</totfact>
</mgrwt>
</event>
<event>
 9    1  0.8122655E-001  0.2771979E+03  0.7818608E-02  0.1097229E+00
          2   -1    0    0  501    0  0.00000000000E+00  0.00000000000E+00  0.27830531877E+03  0.27830531877E+03  0.00000000000E+00 0. -1.
         -2   -1    0    0    0  501 -0.00000000000E+00 -0.00000000000E+00 -0.69023740559E+02  0.69023740559E+02  0.00000000000E+00 0. -1.
         35    2    1    2    0    0  0.00000000000E+00  0.71054273576E-14  0.20928157821E+03  0.34732905933E+03  0.27719793736E+03 0.  0.
         25    2    3    3    0    0  0.35636739698E+02 -0.33207526907E+02  0.16613974203E+03  0.20614202298E+03  0.11189013671E+03 0.  0.
         25    2    3    3    0    0 -0.35636739698E+02  0.33207526907E+02  0.43141836175E+02  0.14118703635E+03  0.12529901893E+03 0.  0.
          5    1    4    4  502    0  0.61567379850E+02 -0.48062458899E+01  0.15327992031E+03  0.16531928572E+03  0.47000000000E+01 0. -1.
         -5    1    4    4    0  502 -0.25930640152E+02 -0.28401281017E+02  0.12859821724E+02  0.40822737254E+02  0.47000000000E+01 0. -1.
          5    1    5    5  503    0 -0.16800114605E+02  0.49915687253E+02  0.80245962631E+02  0.96100594188E+02  0.47000000000E+01 0. -1.
         -5    1    5    5    0  503 -0.18836625093E+02 -0.16708160346E+02 -0.37104126456E+02  0.45086442165E+02  0.47000000000E+01 0. -1.
<mgrwt>
<rscale>  0 0.27719794E+03</rscale>
<asrwt>0</asrwt>
<pdfrwt beam="1">  1        2 0.42816202E-01 0.27719794E+03</pdfrwt>
<pdfrwt beam="2">  1       -2 0.10619037E-01 0.27719794E+03</pdfrwt>
<totfact> 0.70988231E+03</totfact>
</mgrwt>
</event>
<event>
 9    1  0.8122655E-001  0.2900661E+03  0.7818608E-02  0.1090315E+00
         -2   -1    0    0    0  501 -0.00000000000E+00  0.00000000000E+00  0.86372332091E+03  0.86372332091E+03  0.00000000000E+00 0. -1.
          2   -1    0    0  501    0  0.00000000000E+00 -0.00000000000E+00 -0.24353385801E+02  0.24353385801E+02  0.00000000000E+00 0. -1.
         35    2    1    2    0    0  0.14210854715E-13 -0.71054273576E-14  0.83936993511E+03  0.88807670671E+03  0.29006611150E+03 0.  0.
         25    2    3    3    0    0  0.70981161004E+02 -0.14409778859E+02  0.37298171296E+03  0.39990649702E+03  0.12475528531E+03 0.  0.
         25    2    3    3    0    0 -0.70981161004E+02  0.14409778859E+02  0.46638822215E+03  0.48817020969E+03  0.12468445342E+03 0.  0.
          5    1    4    4  502    0  0.36226696285E+02 -0.67687204510E+02  0.24698874201E+03  0.25868795847E+03  0.47000000000E+01 0. -1.
         -5    1    4    4    0  502  0.34754464719E+02  0.53277425651E+02  0.12599297095E+03  0.14121853855E+03  0.47000000000E+01 0. -1.
          5    1    5    5  503    0 -0.87293032029E+02  0.24659281102E+02  0.18511108851E+03  0.20619495307E+03  0.47000000000E+01 0. -1.
         -5    1    5    5    0  503  0.16311871025E+02 -0.10249502243E+02  0.28127713365E+03  0.28197525662E+03  0.47000000000E+01 0. -1.
<mgrwt>
<rscale>  0 0.29006611E+03</rscale>
<asrwt>0</asrwt>
<pdfrwt beam="1">  1        2 0.37466754E-02 0.29006611E+03</pdfrwt>
<pdfrwt beam="2">  1       -2 0.13288049E+00 0.29006611E+03</pdfrwt>
<totfact> 0.10013922E+03</totfact>
</mgrwt>
</event>
<event>
 9    1  0.8122655E-001  0.2764230E+03  0.7818608E-02  0.1097659E+00
         -2   -1    0    0    0  501 -0.00000000000E+00  0.00000000000E+00  0.27406899868E+02  0.27406899868E+02  0.00000000000E+00 0. -1.
          2   -1    0    0  501    0  0.00000000000E+00 -0.00000000000E+00 -0.69699306441E+03  0.69699306441E+03  0.00000000000E+00 0. -1.
         35    2    1    2    0    0  0.71054273576E-14  0.00000000000E+00 -0.66958616454E+03  0.72439996428E+03  0.27642300284E+03 0.  0.
         25    2    3    3    0    0 -0.32277700441E+02 -0.36332810552E+02 -0.44196920652E+03  0.46179296610E+03  0.12471584086E+03 0.  0.
         25    2    3    3    0    0  0.32277700441E+02  0.36332810552E+02 -0.22761695802E+03  0.26260699818E+03  0.12161839024E+03 0.  0.
          5    1    4    4  502    0 -0.36657627406E+02  0.14022135429E+02 -0.37832136412E+03  0.38038079141E+03  0.47000000000E+01 0.  1.
         -5    1    4    4    0  502  0.43799269652E+01 -0.50354945981E+02 -0.63647842404E+02  0.81412174689E+02  0.47000000000E+01 0.  1.
          5    1    5    5  503    0  0.57259785029E+02  0.19833225833E+02 -0.22398452170E+03  0.23208445831E+03  0.47000000000E+01 0. -1.
         -5    1    5    5    0  503 -0.24982084589E+02  0.16499584719E+02 -0.36324363251E+01  0.30522539867E+02  0.47000000000E+01 0. -1.
<mgrwt>
<rscale>  0 0.27642300E+03</rscale>
<asrwt>0</asrwt>
<pdfrwt beam="1">  1        2 0.10722969E+00 0.27642300E+03</pdfrwt>
<pdfrwt beam="2">  1       -2 0.42164465E-02 0.27642300E+03</pdfrwt>
<totfact> 0.10659646E+04</totfact>
</mgrwt>
</event>
<event>
 9    1  0.8122655E-001  0.2827838E+03  0.7818608E-02  0.1094178E+00
          2   -1    0    0  501    0  0.00000000000E+00  0.00000000000E+00  0.27648743881E+04  0.27648743881E+04  0.00000000000E+00 0.  1.
         -2   -1    0    0    0  501 -0.00000000000E+00 -0.00000000000E+00 -0.72305892620E+01  0.72305892620E+01  0.00000000000E+00 0.  1.
         35    2    1    2    0    0  0.00000000000E+00  0.14210854715E-13  0.27576437989E+04  0.27721049774E+04  0.28278381185E+03 0.  0.
         25    2    3    3    0    0  0.16398676190E+01 -0.62153004047E+02  0.14848681379E+04  0.14917427811E+04  0.12883110228E+03 0.  0.
         25    2    3    3    0    0 -0.16398676190E+01  0.62153004047E+02  0.12727756610E+04  0.12803621963E+04  0.12451419791E+03 0.  0.
          5    1    4    4  502    0  0.63008476011E+01 -0.72273138248E+02  0.38474622459E+03  0.39155440814E+03  0.47000000000E+01 0.  1.
         -5    1    4    4    0  502 -0.46609799821E+01  0.10120134201E+02  0.11001219133E+04  0.11001883729E+04  0.47000000000E+01 0.  1.
          5    1    5    5  503    0  0.75906519134E+01  0.80053916705E+01  0.80665934425E+01  0.14452135553E+02  0.47000000000E+01 0.  1.
         -5    1    5    5    0  503 -0.92305195324E+01  0.54147612376E+02  0.12647090676E+04  0.12659100608E+04  0.47000000000E+01 0.  1.
<mgrwt>
<rscale>  0 0.28278381E+03</rscale>
<asrwt>0</asrwt>
<pdfrwt beam="1">  1        2 0.42536445E+00 0.28278381E+03</pdfrwt>
<pdfrwt beam="2">  1       -2 0.11124005E-02 0.28278381E+03</pdfrwt>
<totfact> 0.52080692E+03</totfact>
</mgrwt>
</event>
<event>
 9    1  0.8122655E-001  0.2951835E+03  0.7818608E-02  0.1087673E+00
          2   -1    0    0  501    0  0.00000000000E+00  0.00000000000E+00  0.33067794722E+04  0.33067794722E+04  0.00000000000E+00 0. -1.
         -2   -1    0    0    0  501 -0.00000000000E+00 -0.00000000000E+00 -0.65874757426E+01  0.65874757426E+01  0.00000000000E+00 0. -1.
         35    2    1    2    0    0  0.00000000000E+00  0.71054273576E-14  0.33001919964E+04  0.33133669479E+04  0.29518353314E+03 0.  0.
         25    2    3    3    0    0 -0.17873640240E+02  0.61206293215E+02  0.11149526869E+04  0.11236844782E+04  0.12442521883E+03 0.  0.
         25    2    3    3    0    0  0.17873640240E+02 -0.61206293215E+02  0.21852393095E+04  0.21896824697E+04  0.12398710056E+03 0.  0.
          5    1    4    4  502    0  0.15817249792E+02  0.91770387866E+02  0.80357009522E+03  0.80896166622E+03  0.47000000000E+01 0.  1.
         -5    1    4    4    0  502 -0.33690890032E+02 -0.30564094652E+02  0.31138259172E+03  0.31472281198E+03  0.47000000000E+01 0.  1.
          5    1    5    5  503    0 -0.17739016880E+02  0.22841536167E+02  0.18067413221E+03  0.18303453374E+03  0.47000000000E+01 0. -1.
         -5    1    5    5    0  503  0.35612657121E+02 -0.84047829381E+02  0.20045651773E+04  0.20066479360E+04  0.47000000000E+01 0. -1.
<mgrwt>
<rscale>  0 0.29518353E+03</rscale>
<asrwt>0</asrwt>
<pdfrwt beam="1">  1        2 0.50873398E+00 0.29518353E+03</pdfrwt>
<pdfrwt beam="2">  1       -2 0.10134604E-02 0.29518353E+03</pdfrwt>
<totfact> 0.28214565E+03</totfact>
</mgrwt>
</event>
<event>
 9    1  0.8122655E-001  0.2783134E+03  0.7818608E-02  0.1096614E+00
          2   -1    0    0  501    0  0.00000000000E+00  0.00000000000E+00  0.54056418791E+02  0.54056418791E+02  0.00000000000E+00 0.  1.
         -2   -1    0    0    0  501 -0.00000000000E+00 -0.00000000000E+00 -0.35822920787E+03  0.35822920787E+03  0.00000000000E+00 0.  1.
         35    2    1    2    0    0  0.00000000000E+00  0.71054273576E-14 -0.30417278908E+03  0.41228562666E+03  0.27831340667E+03 0.  0.
         25    2    3    3    0    0 -0.41696034348E+02  0.35836219652E+02 -0.13064488788E+03  0.19264822522E+03  0.13047014230E+03 0.  0.
         25    2    3    3    0    0  0.41696034348E+02 -0.35836219652E+02 -0.17352790120E+03  0.21963740144E+03  0.12290590587E+03 0.  0.
          5    1    4    4  502    0  0.59677931094E+00  0.73713686637E+02 -0.35978604879E+02  0.82162118718E+02  0.47000000000E+01 0.  1.
         -5    1    4    4    0  502 -0.42292813659E+02 -0.37877466985E+02 -0.94666283003E+02  0.11048610650E+03  0.47000000000E+01 0.  1.
          5    1    5    5  503    0  0.95132330049E+01 -0.20907524560E+02 -0.18147135868E+03  0.18297969889E+03  0.47000000000E+01 0.  1.
         -5    1    5    5    0  503  0.32182801343E+02 -0.14928695092E+02  0.79434574809E+01  0.36657702549E+02  0.47000000000E+01 0.  1.
<mgrwt>
<rscale>  0 0.27831341E+03</rscale>
<asrwt>0</asrwt>
<pdfrwt beam="1">  1        2 0.83163722E-02 0.27831341E+03</pdfrwt>
<pdfrwt beam="2">  1       -2 0.55112185E-01 0.27831341E+03</pdfrwt>
<totfact> 0.25442641E+03</totfact>
</mgrwt>
</event>
<event>
 9    1  0.8122655E-001  0.2736218E+03  0.7818608E-02  0.1099224E+00
         -3   -1    0    0    0  501 -0.00000000000E+00  0.00000000000E+00  0.49270415222E+02  0.49270415222E+02  0.00000000000E+00 0. -1.
          3   -1    0    0  501    0  0.00000000000E+00 -0.00000000000E+00 -0.37988757299E+03  0.37988757299E+03  0.00000000000E+00 0. -1.
         35    2    1    2    0    0  0.00000000000E+00 -0.71054273576E-14 -0.33061715777E+03  0.42915798822E+03  0.27362177149E+03 0.  0.
         25    2    3    3    0    0  0.13559532575E+02  0.13704098601E+01 -0.25022943943E+03  0.27976734505E+03  0.12437546402E+03 0.  0.
         25    2    3    3    0    0 -0.13559532575E+02 -0.13704098601E+01 -0.80387718342E+02  0.14939064317E+03  0.12517843289E+03 0.  0.
          5    1    4    4  502    0  0.41622987530E+02  0.52039049768E+02 -0.12579813890E+03  0.14243523982E+03  0.47000000000E+01 0. -1.
         -5    1    4    4    0  502 -0.28063454955E+02 -0.50668639908E+02 -0.12443130053E+03  0.13733210523E+03  0.47000000000E+01 0. -1.
          5    1    5    5  503    0  0.95674413166E+01  0.38830163569E+02  0.15201500997E+02  0.43040599074E+02  0.47000000000E+01 0.  1.
         -5    1    5    5    0  503 -0.23126973892E+02 -0.40200573429E+02 -0.95589219340E+02  0.10635004410E+03  0.47000000000E+01 0.  1.
<mgrwt>
<rscale>  0 0.27362177E+03</rscale>
<asrwt>0</asrwt>
<pdfrwt beam="1">  1        3 0.58444244E-01 0.27362177E+03</pdfrwt>
<pdfrwt beam="2">  1       -3 0.75800636E-02 0.27362177E+03</pdfrwt>
<totfact> 0.86091450E+02</totfact>
</mgrwt>
</event>
<event>
 9    1  0.8122655E-001  0.2755682E+03  0.7818608E-02  0.1098134E+00
         -1   -1    0    0    0  501 -0.00000000000E+00  0.00000000000E+00  0.74592910449E+01  0.74592910449E+01  0.00000000000E+00 0.  1.
          1   -1    0    0  501    0  0.00000000000E+00 -0.00000000000E+00 -0.25450749672E+04  0.25450749672E+04  0.00000000000E+00 0.  1.
         35    2    1    2    0    0  0.35527136788E-14  0.00000000000E+00 -0.25376156761E+04  0.25525342582E+04  0.27556817604E+03 0.  0.
         25    2    3    3    0    0  0.50041593507E+01 -0.53944069522E+02 -0.11034305821E+04  0.11118418817E+04  0.12529292067E+03 0.  0.
         25    2    3    3    0    0 -0.50041593507E+01  0.53944069522E+02 -0.14341850940E+04  0.14406923765E+04  0.12558915479E+03 0.  0.
          5    1    4    4  502    0  0.54101957511E+02 -0.59838217658E+02 -0.83101691752E+03  0.83493642950E+03  0.47000000000E+01 0. -1.
         -5    1    4    4    0  502 -0.49097798160E+02  0.58941481368E+01 -0.27241366462E+03  0.27690545216E+03  0.47000000000E+01 0. -1.
          5    1    5    5  503    0  0.12686804326E+02  0.12574216115E+02 -0.12768272992E+04  0.12769608874E+04  0.47000000000E+01 0. -1.
         -5    1    5    5    0  503 -0.17690963677E+02  0.41369853407E+02 -0.15735779475E+03  0.16373148914E+03  0.47000000000E+01 0. -1.
<mgrwt>
<rscale>  0 0.27556818E+03</rscale>
<asrwt>0</asrwt>
<pdfrwt beam="1">  1        1 0.39154990E+00 0.27556818E+03</pdfrwt>
<pdfrwt beam="2">  1       -1 0.11475835E-02 0.27556818E+03</pdfrwt>
<totfact> 0.22797717E+03</totfact>
</mgrwt>
</event>
<event>
 9    1  0.8122655E-001  0.2727328E+03  0.7818608E-02  0.1099726E+00
         -3   -1    0    0    0  501 -0.00000000000E+00  0.00000000000E+00  0.13933629313E+03  0.13933629313E+03  0.00000000000E+00 0.  1.
          3   -1    0    0  501    0  0.00000000000E+00 -0.00000000000E+00 -0.13345982879E+03  0.13345982879E+03  0.00000000000E+00 0.  1.
         35    2    1    2    0    0 -0.71054273576E-14 -0.17763568394E-14  0.58764643400E+01  0.27279612192E+03  0.27273282036E+03 0.  0.
         25    2    3    3    0    0 -0.36698252687E+02 -0.14116020608E+02  0.43193771113E+02  0.13725522669E+03  0.12420656828E+03 0.  0.
         25    2    3    3    0    0  0.36698252687E+02  0.14116020608E+02 -0.37317306773E+02  0.13554089523E+03  0.12422853580E+03 0.  0.
          5    1    4    4  502    0 -0.66967261650E+02  0.10662689412E+02  0.63422333373E+02  0.92966603944E+02  0.47000000000E+01 0. -1.
         -5    1    4    4    0  502  0.30269008963E+02 -0.24778710020E+02 -0.20228562261E+02  0.44288622749E+02  0.47000000000E+01 0. -1.
          5    1    5    5  503    0 -0.23977161932E+01 -0.44726371155E+02 -0.45798260081E+02  0.64232141068E+02  0.47000000000E+01 0.  1.
         -5    1    5    5    0  503  0.39095968880E+02  0.58842391764E+02  0.84809533087E+01  0.71308754162E+02  0.47000000000E+01 0.  1.
<mgrwt>
<rscale>  0 0.27273282E+03</rscale>
<asrwt>0</asrwt>
<pdfrwt beam="1">  1        3 0.20532281E-01 0.27273282E+03</pdfrwt>
<pdfrwt beam="2">  1       -3 0.21436353E-01 0.27273282E+03</pdfrwt>
<totfact> 0.10793557E+03</totfact>
</mgrwt>
</event>
<event>
 9    1  0.8122655E-001  0.2760791E+03  0.7818608E-02  0.1097850E+00
          2   -1    0    0  501    0  0.00000000000E+00  0.00000000000E+00  0.52026249642E+02  0.52026249642E+02  0.00000000000E+00 0. -1.
         -2   -1    0    0    0  501 -0.00000000000E+00 -0.00000000000E+00 -0.36625572445E+03  0.36625572445E+03  0.00000000000E+00 0. -1.
         35    2    1    2    0    0  0.00000000000E+00  0.14210854715E-13 -0.31422947481E+03  0.41828197409E+03  0.27607905935E+03 0.  0.
         25    2    3    3    0    0  0.29908266076E+02 -0.45690961765E+02 -0.18386595846E+03  0.22971480052E+03  0.12641214551E+03 0.  0.
         25    2    3    3    0    0 -0.29908266076E+02  0.45690961765E+02 -0.13036351635E+03  0.18856717357E+03  0.12482293133E+03 0.  0.
          5    1    4    4  502    0  0.15525710426E+02  0.37541404778E+02 -0.11018563074E+03  0.11753028537E+03  0.47000000000E+01 0. -1.
         -5    1    4    4    0  502  0.14382555651E+02 -0.83232366542E+02 -0.73680327714E+02  0.11218451515E+03  0.47000000000E+01 0. -1.
          5    1    5    5  503    0 -0.52001389229E+02  0.46320678462E+02 -0.15495722921E+02  0.71497952165E+02  0.47000000000E+01 0. -1.
         -5    1    5    5    0  503  0.22093123153E+02 -0.62971669701E+00 -0.11486779343E+03  0.11706922140E+03  0.47000000000E+01 0. -1.
<mgrwt>
<rscale>  0 0.27607906E+03</rscale>
<asrwt>0</asrwt>
<pdfrwt beam="1">  1        2 0.80040382E-02 0.27607906E+03</pdfrwt>
<pdfrwt beam="2">  1       -2 0.56347036E-01 0.27607906E+03</pdfrwt>
<totfact> 0.25522483E+03</totfact>
</mgrwt>
</event>
<event>
 9    1  0.8122655E-001  0.2716974E+03  0.7818608E-02  0.1100312E+00
          2   -1    0    0  501    0  0.00000000000E+00  0.00000000000E+00  0.64104519402E+03  0.64104519402E+03  0.00000000000E+00 0. -1.
         -2   -1    0    0    0  501 -0.00000000000E+00 -0.00000000000E+00 -0.28788723819E+02  0.28788723819E+02  0.00000000000E+00 0. -1.
         35    2    1    2    0    0  0.00000000000E+00  0.00000000000E+00  0.61225647020E+03  0.66983391783E+03  0.27169742764E+03 0.  0.
         25    2    3    3    0    0  0.12061310019E+02 -0.42542332957E+02  0.23550293938E+03  0.27046765171E+03  0.12544238070E+03 0.  0.
         25    2    3    3    0    0 -0.12061310019E+02  0.42542332957E+02  0.37675353082E+03  0.39936626612E+03  0.12487940678E+03 0.  0.
          5    1    4    4  502    0  0.30898232615E+02  0.32769804047E+02  0.41374389362E+02  0.61339146807E+02  0.47000000000E+01 0. -1.
         -5    1    4    4    0  502 -0.18836922595E+02 -0.75312137004E+02  0.19412855002E+03  0.20912850491E+03  0.47000000000E+01 0. -1.
          5    1    5    5  503    0  0.12075049357E+02  0.74526415644E+01 -0.45794113745E+01  0.15633607767E+02  0.47000000000E+01 0.  1.
         -5    1    5    5    0  503 -0.24136359377E+02  0.35089691393E+02  0.38133294219E+03  0.38373265835E+03  0.47000000000E+01 0.  1.
<mgrwt>
<rscale>  0 0.27169743E+03</rscale>
<asrwt>0</asrwt>
<pdfrwt beam="1">  1        2 0.98622327E-01 0.27169743E+03</pdfrwt>
<pdfrwt beam="2">  1       -2 0.44290349E-02 0.27169743E+03</pdfrwt>
<totfact> 0.10931983E+04</totfact>
</mgrwt>
</event>
<event>
 9    1  0.8122655E-001  0.2771004E+03  0.7818608E-02  0.1097283E+00
          2   -1    0    0  501    0  0.00000000000E+00  0.00000000000E+00  0.98164272184E+03  0.98164272184E+03  0.00000000000E+00 0. -1.
         -2   -1    0    0    0  501 -0.00000000000E+00 -0.00000000000E+00 -0.19555131774E+02  0.19555131774E+02  0.00000000000E+00 0. -1.
         35    2    1    2    0    0 -0.14210854715E-13 -0.17763568394E-14  0.96208759007E+03  0.10011978536E+04  0.27710036290E+03 0.  0.
         25    2    3    3    0    0 -0.49998751876E+02 -0.10709636176E+02  0.35285782554E+03  0.37735821325E+03  0.12359613490E+03 0.  0.
         25    2    3    3    0    0  0.49998751876E+02  0.10709636176E+02  0.60922976453E+03  0.62383964037E+03  0.12409842632E+03 0.  0.
          5    1    4    4  502    0  0.19292489244E+02 -0.45986265616E+02  0.19495276417E+03  0.20128489020E+03  0.47000000000E+01 0. -1.
         -5    1    4    4    0  502 -0.69291241120E+02  0.35276629440E+02  0.15790506137E+03  0.17607332304E+03  0.47000000000E+01 0. -1.
          5    1    5    5  503    0 -0.41329906783E+02  0.99359349085E+01  0.19322262425E+03  0.19789885426E+03  0.47000000000E+01 0. -1.
         -5    1    5    5    0  503  0.91328658659E+02  0.77370126745E+00  0.41600714028E+03  0.42594078611E+03  0.47000000000E+01 0. -1.
<mgrwt>
<rscale>  0 0.27710036E+03</rscale>
<asrwt>0</asrwt>
<pdfrwt beam="1">  1        2 0.15102192E+00 0.27710036E+03</pdfrwt>
<pdfrwt beam="2">  1       -2 0.30084826E-02 0.27710036E+03</pdfrwt>
<totfact> 0.11342957E+04</totfact>
</mgrwt>
</event>
<event>
 9    1  0.8122655E-001  0.2759082E+03  0.7818608E-02  0.1097945E+00
         -2   -1    0    0    0  501 -0.00000000000E+00  0.00000000000E+00  0.39050713527E+02  0.39050713527E+02  0.00000000000E+00 0. -1.
          2   -1    0    0  501    0  0.00000000000E+00 -0.00000000000E+00 -0.48734919142E+03  0.48734919142E+03  0.00000000000E+00 0. -1.
         35    2    1    2    0    0  0.00000000000E+00  0.00000000000E+00 -0.44829847790E+03  0.52639990495E+03  0.27590819968E+03 0.  0.
         25    2    3    3    0    0 -0.19088539455E+02  0.47968963125E+02 -0.22123084852E+03  0.25936042453E+03  0.12513731544E+03 0.  0.
         25    2    3    3    0    0  0.19088539455E+02 -0.47968963125E+02 -0.22706762938E+03  0.26703948042E+03  0.13070953305E+03 0.  0.
          5    1    4    4  502    0 -0.15716024534E+02  0.81839725465E+02 -0.20503545585E+03  0.22137380660E+03  0.47000000000E+01 0.  1.
         -5    1    4    4    0  502 -0.33725149212E+01 -0.33870762340E+02 -0.16195392670E+02  0.37986617935E+02  0.47000000000E+01 0.  1.
          5    1    5    5  503    0  0.69812249065E+02 -0.39513700615E+02 -0.18019597818E+03  0.19730119921E+03  0.47000000000E+01 0.  1.
         -5    1    5    5    0  503 -0.50723709609E+02 -0.84552625102E+01 -0.46871651192E+02  0.69738281210E+02  0.47000000000E+01 0.  1.
<mgrwt>
<rscale>  0 0.27590820E+03</rscale>
<asrwt>0</asrwt>
<pdfrwt beam="1">  1        2 0.74976799E-01 0.27590820E+03</pdfrwt>
<pdfrwt beam="2">  1       -2 0.60078020E-02 0.27590820E+03</pdfrwt>
<totfact> 0.94113877E+03</totfact>
</mgrwt>
</event>
<event>
 9    1  0.8122655E-001  0.2739911E+03  0.7818608E-02  0.1099017E+00
         -2   -1    0    0    0  501 -0.00000000000E+00  0.00000000000E+00  0.99738470861E+02  0.99738470861E+02  0.00000000000E+00 0.  1.
          2   -1    0    0  501    0  0.00000000000E+00 -0.00000000000E+00 -0.18816998081E+03  0.18816998081E+03  0.00000000000E+00 0.  1.
         35    2    1    2    0    0  0.00000000000E+00  0.71054273576E-14 -0.88431509947E+02  0.28790845167E+03  0.27399113962E+03 0.  0.
         25    2    3    3    0    0 -0.47671399574E+02 -0.30437495962E+02 -0.41354204697E+02  0.14280471982E+03  0.12443477913E+03 0.  0.
         25    2    3    3    0    0  0.47671399574E+02  0.30437495962E+02 -0.47077305249E+02  0.14510373185E+03  0.12505925328E+03 0.  0.
          5    1    4    4  502    0 -0.78022813288E+02 -0.15437224468E+02 -0.63665750143E+02  0.10198669047E+03  0.47000000000E+01 0. -1.
         -5    1    4    4    0  502  0.30351413714E+02 -0.15000271494E+02  0.22311545446E+02  0.40818029343E+02  0.47000000000E+01 0. -1.
          5    1    5    5  503    0 -0.14901762395E+02 -0.34837773603E+02  0.81549884011E+01  0.39042628343E+02  0.47000000000E+01 0.  1.
         -5    1    5    5    0  503  0.62573161970E+02  0.65275269565E+02 -0.55232293650E+02  0.10606110351E+03  0.47000000000E+01 0.  1.
<mgrwt>
<rscale>  0 0.27399114E+03</rscale>
<asrwt>0</asrwt>
<pdfrwt beam="1">  1        2 0.28949227E-01 0.27399114E+03</pdfrwt>
<pdfrwt beam="2">  1       -2 0.15344380E-01 0.27399114E+03</pdfrwt>
<totfact> 0.59678464E+03</totfact>
</mgrwt>
</event>
<event>
 9    1  0.8122655E-001  0.2747836E+03  0.7818608E-02  0.1098573E+00
         -2   -1    0    0    0  501 -0.00000000000E+00  0.00000000000E+00  0.26985735873E+03  0.26985735873E+03  0.00000000000E+00 0.  1.
          2   -1    0    0  501    0  0.00000000000E+00 -0.00000000000E+00 -0.69949944886E+02  0.69949944886E+02  0.00000000000E+00 0.  1.
         35    2    1    2    0    0  0.71054273576E-14  0.00000000000E+00  0.19990741385E+03  0.33980730362E+03  0.27478360483E+03 0.  0.
         25    2    3    3    0    0 -0.53668568480E+02 -0.34626813677E+01  0.79963500721E+02  0.15858917540E+03  0.12595260895E+03 0.  0.
         25    2    3    3    0    0  0.53668568480E+02  0.34626813677E+01  0.11994391312E+03  0.18121812822E+03  0.12474438783E+03 0.  0.
          5    1    4    4  502    0 -0.76617058658E+02  0.64442939850E+01  0.25157875994E+01  0.77072185577E+02  0.47000000000E+01 0.  1.
         -5    1    4    4    0  502  0.22948490179E+02 -0.99069753528E+01  0.77447713121E+02  0.81516989823E+02  0.47000000000E+01 0.  1.
          5    1    5    5  503    0 -0.14008669035E+02  0.42002288197E+02  0.87436482789E+01  0.45375945248E+02  0.47000000000E+01 0. -1.
         -5    1    5    5    0  503  0.67677237515E+02 -0.38539606829E+02  0.11120026485E+03  0.13584218297E+03  0.47000000000E+01 0. -1.
<mgrwt>
<rscale>  0 0.27478360E+03</rscale>
<asrwt>0</asrwt>
<pdfrwt beam="1">  1        2 0.10761530E-01 0.27478360E+03</pdfrwt>
<pdfrwt beam="2">  1       -2 0.41516516E-01 0.27478360E+03</pdfrwt>
<totfact> 0.32275367E+03</totfact>
</mgrwt>
</event>
<event>
 9    1  0.8122655E-001  0.2907066E+03  0.7818608E-02  0.1089981E+00
         -2   -1    0    0    0  501 -0.00000000000E+00  0.00000000000E+00  0.58003272752E+01  0.58003272752E+01  0.00000000000E+00 0.  1.
          2   -1    0    0  501    0  0.00000000000E+00 -0.00000000000E+00 -0.36424802563E+04  0.36424802563E+04  0.00000000000E+00 0.  1.
         35    2    1    2    0    0  0.00000000000E+00  0.00000000000E+00 -0.36366799290E+04  0.36482805836E+04  0.29070657082E+03 0.  0.
         25    2    3    3    0    0  0.18537168695E+02 -0.72367940786E+02 -0.17154229448E+04  0.17215296406E+04  0.12412766997E+03 0.  0.
         25    2    3    3    0    0 -0.18537168695E+02  0.72367940786E+02 -0.19212569842E+04  0.19267509430E+04  0.12473993480E+03 0.  0.
          5    1    4    4  502    0 -0.66181708617E+01 -0.76733186539E+02 -0.16390476730E+04  0.16408629274E+04  0.47000000000E+01 0. -1.
         -5    1    4    4    0  502  0.25155339557E+02  0.43652457525E+01 -0.76375271787E+02  0.80666713205E+02  0.47000000000E+01 0. -1.
          5    1    5    5  503    0 -0.31060583466E+02  0.11756492955E+02 -0.12500537708E+03  0.12942723543E+03  0.47000000000E+01 0.  1.
         -5    1    5    5    0  503  0.12523414771E+02  0.60611447831E+02 -0.17962516071E+04  0.17973237075E+04  0.47000000000E+01 0.  1.
<mgrwt>
<rscale>  0 0.29070657E+03</rscale>
<asrwt>0</asrwt>
<pdfrwt beam="1">  1        2 0.56038021E+00 0.29070657E+03</pdfrwt>
<pdfrwt beam="2">  1       -2 0.89236023E-03 0.29070657E+03</pdfrwt>
<totfact> 0.20392801E+03</totfact>
</mgrwt>
</event>
<event>
 9    1  0.8122655E-001  0.2697340E+03  0.7818608E-02  0.1101432E+00
         -1   -1    0    0    0  501 -0.00000000000E+00  0.00000000000E+00  0.96525110907E+02  0.96525110907E+02  0.00000000000E+00 0. -1.
          1   -1    0    0  501    0  0.00000000000E+00 -0.00000000000E+00 -0.18843906590E+03  0.18843906590E+03  0.00000000000E+00 0. -1.
         35    2    1    2    0    0  0.00000000000E+00  0.00000000000E+00 -0.91913954992E+02  0.28496417681E+03  0.26973395585E+03 0.  0.
         25    2    3    3    0    0 -0.25021774233E+02 -0.66266580786E+01  0.70165363166E+00  0.12665564594E+03  0.12398047648E+03 0.  0.
         25    2    3    3    0    0  0.25021774233E+02  0.66266580786E+01 -0.92615608624E+02  0.15830853087E+03  0.12575348187E+03 0.  0.
          5    1    4    4  502    0  0.42846462829E+02  0.26750344218E+02  0.32688576841E+01  0.50834788514E+02  0.47000000000E+01 0.  1.
         -5    1    4    4    0  502 -0.67868237062E+02 -0.33377002297E+02 -0.25672040524E+01  0.75820857426E+02  0.47000000000E+01 0.  1.
          5    1    5    5  503    0  0.29562341065E+02  0.18551992614E+02  0.22892212242E+02  0.42002997756E+02  0.47000000000E+01 0.  1.
         -5    1    5    5    0  503 -0.45405668324E+01 -0.11925334536E+02 -0.11550782087E+03  0.11630553311E+03  0.47000000000E+01 0.  1.
<mgrwt>
<rscale>  0 0.26973396E+03</rscale>
<asrwt>0</asrwt>
<pdfrwt beam="1">  1        1 0.28990625E-01 0.26973396E+03</pdfrwt>
<pdfrwt beam="2">  1       -1 0.14850017E-01 0.26973396E+03</pdfrwt>
<totfact> 0.51269925E+03</totfact>
</mgrwt>
</event>
<event>
 9    1  0.8122655E-001  0.2560625E+03  0.7818608E-02  0.1109532E+00
          1   -1    0    0  501    0  0.00000000000E+00  0.00000000000E+00  0.20772728530E+03  0.20772728530E+03  0.00000000000E+00 0. -1.
         -1   -1    0    0    0  501 -0.00000000000E+00 -0.00000000000E+00 -0.78911188037E+02  0.78911188037E+02  0.00000000000E+00 0. -1.
         35    2    1    2    0    0  0.00000000000E+00 -0.35527136788E-14  0.12881609726E+03  0.28663847333E+03  0.25606254603E+03 0.  0.
         25    2    3    3    0    0  0.18637354820E+02  0.19579726076E+02  0.68009045279E+02  0.14491137602E+03  0.12507341841E+03 0.  0.
         25    2    3    3    0    0 -0.18637354820E+02 -0.19579726076E+02  0.60807051980E+02  0.14172709731E+03  0.12513335236E+03 0.  0.
          5    1    4    4  502    0  0.45529436591E+02 -0.14042531796E+02  0.85668919352E+02  0.98139574274E+02  0.47000000000E+01 0. -1.
         -5    1    4    4    0  502 -0.26892081771E+02  0.33622257872E+02 -0.17659874073E+02  0.46771801747E+02  0.47000000000E+01 0. -1.
          5    1    5    5  503    0  0.36787610743E+02  0.21816167934E+02 -0.83127848948E+01  0.43823120384E+02  0.47000000000E+01 0. -1.
         -5    1    5    5    0  503 -0.55424965563E+02 -0.41395894010E+02  0.69119836875E+02  0.97903976927E+02  0.47000000000E+01 0. -1.
<mgrwt>
<rscale>  0 0.25606255E+03</rscale>
<asrwt>0</asrwt>
<pdfrwt beam="1">  1        1 0.31958044E-01 0.25606255E+03</pdfrwt>
<pdfrwt beam="2">  1       -1 0.12140183E-01 0.25606255E+03</pdfrwt>
<totfact> 0.62136928E+03</totfact>
</mgrwt>
</event>
<event>
 9    1  0.8122655E-001  0.2769565E+03  0.7818608E-02  0.1097363E+00
         -1   -1    0    0    0  501 -0.00000000000E+00  0.00000000000E+00  0.10135858047E+03  0.10135858047E+03  0.00000000000E+00 0.  1.
          1   -1    0    0  501    0  0.00000000000E+00 -0.00000000000E+00 -0.18919198615E+03  0.18919198615E+03  0.00000000000E+00 0.  1.
         35    2    1    2    0    0 -0.71054273576E-14  0.00000000000E+00 -0.87833405673E+02  0.29055056662E+03  0.27695653921E+03 0.  0.
         25    2    3    3    0    0  0.44546660718E+02 -0.14896969688E+01 -0.59843340251E+01  0.13783389960E+03  0.13029101062E+03 0.  0.
         25    2    3    3    0    0 -0.44546660718E+02  0.14896969688E+01 -0.81849071648E+02  0.15271666701E+03  0.12098134433E+03 0.  0.
          5    1    4    4  502    0 -0.36310985401E+02  0.30327134128E+02  0.11869298652E+02  0.49001969100E+02  0.47000000000E+01 0. -1.
         -5    1    4    4    0  502  0.80857646119E+02 -0.31816831097E+02 -0.17853632677E+02  0.88831930502E+02  0.47000000000E+01 0. -1.
          5    1    5    5  503    0 -0.16226908665E+02 -0.44168386094E+02 -0.86501186138E+02  0.98583487960E+02  0.47000000000E+01 0. -1.
         -5    1    5    5    0  503 -0.28319752053E+02  0.45658083063E+02  0.46521144901E+01  0.54133179055E+02  0.47000000000E+01 0. -1.
<mgrwt>
<rscale>  0 0.27695654E+03</rscale>
<asrwt>0</asrwt>
<pdfrwt beam="1">  1        1 0.29106460E-01 0.27695654E+03</pdfrwt>
<pdfrwt beam="2">  1       -1 0.15593628E-01 0.27695654E+03</pdfrwt>
<totfact> 0.47243849E+03</totfact>
</mgrwt>
</event>
<event>
 9    1  0.8122655E-001  0.3111511E+03  0.7818608E-02  0.1079795E+00
         -1   -1    0    0    0  501 -0.00000000000E+00  0.00000000000E+00  0.16623368939E+02  0.16623368939E+02  0.00000000000E+00 0.  1.
          1   -1    0    0  501    0  0.00000000000E+00 -0.00000000000E+00 -0.14560074397E+04  0.14560074397E+04  0.00000000000E+00 0.  1.
         35    2    1    2    0    0 -0.71054273576E-14  0.00000000000E+00 -0.14393840707E+04  0.14726308086E+04  0.31115108130E+03 0.  0.
         25    2    3    3    0    0  0.37378817046E+02 -0.75039380877E+02 -0.53929718494E+03  0.56009107988E+03  0.12582718080E+03 0.  0.
         25    2    3    3    0    0 -0.37378817046E+02  0.75039380877E+02 -0.90008688581E+03  0.91253972875E+03  0.12467666139E+03 0.  0.
          5    1    4    4  502    0 -0.18311473310E+02 -0.42721613604E+02 -0.43449889024E+03  0.43700322876E+03  0.47000000000E+01 0.  1.
         -5    1    4    4    0  502  0.55690290357E+02 -0.32317767273E+02 -0.10479829470E+03  0.12308785112E+03  0.47000000000E+01 0.  1.
          5    1    5    5  503    0  0.22862563442E+02  0.71273758496E+02 -0.68504213111E+03  0.68913529648E+03  0.47000000000E+01 0. -1.
         -5    1    5    5    0  503 -0.60241380488E+02  0.37656223811E+01 -0.21504475470E+03  0.22340443227E+03  0.47000000000E+01 0. -1.
<mgrwt>
<rscale>  0 0.31115108E+03</rscale>
<asrwt>0</asrwt>
<pdfrwt beam="1">  1        1 0.22400114E+00 0.31115108E+03</pdfrwt>
<pdfrwt beam="2">  1       -1 0.25574414E-02 0.31115108E+03</pdfrwt>
<totfact> 0.36606788E+03</totfact>
</mgrwt>
</event>
<event>
 9    1  0.8122655E-001  0.2752816E+03  0.7818608E-02  0.1098294E+00
          2   -1    0    0  501    0  0.00000000000E+00  0.00000000000E+00  0.15571677904E+04  0.15571677904E+04  0.00000000000E+00 0.  1.
         -2   -1    0    0    0  501 -0.00000000000E+00 -0.00000000000E+00 -0.12166314379E+02  0.12166314379E+02  0.00000000000E+00 0.  1.
         35    2    1    2    0    0 -0.71054273576E-14  0.00000000000E+00  0.15450014761E+04  0.15693341048E+04  0.27528162219E+03 0.  0.
         25    2    3    3    0    0  0.51128426000E+02 -0.81728665288E+01  0.99190413705E+03  0.10010565564E+04  0.12473772642E+03 0.  0.
         25    2    3    3    0    0 -0.51128426000E+02  0.81728665288E+01  0.55309733901E+03  0.56827754839E+03  0.11975722894E+03 0.  0.
          5    1    4    4  502    0  0.44120163397E+02 -0.12256576446E+02  0.99050984857E+03  0.99157887361E+03  0.47000000000E+01 0. -1.
         -5    1    4    4    0  502  0.70082626035E+01  0.40837099174E+01  0.13942884884E+01  0.94776828285E+01  0.47000000000E+01 0. -1.
          5    1    5    5  503    0  0.26636668237E+02 -0.31180892306E+02  0.13512382608E+03  0.14128799848E+03  0.47000000000E+01 0. -1.
         -5    1    5    5    0  503 -0.77765094238E+02  0.39353758835E+02  0.41797351293E+03  0.42698954990E+03  0.47000000000E+01 0. -1.
<mgrwt>
<rscale>  0 0.27528162E+03</rscale>
<asrwt>0</asrwt>
<pdfrwt beam="1">  1        2 0.23956412E+00 0.27528162E+03</pdfrwt>
<pdfrwt beam="2">  1       -2 0.18717419E-02 0.27528162E+03</pdfrwt>
<totfact> 0.10839447E+04</totfact>
</mgrwt>
</event>
<event>
 9    1  0.8122655E-001  0.2731755E+03  0.7818608E-02  0.1099476E+00
          2   -1    0    0  501    0  0.00000000000E+00  0.00000000000E+00  0.34481810931E+03  0.34481810931E+03  0.00000000000E+00 0.  1.
         -2   -1    0    0    0  501 -0.00000000000E+00 -0.00000000000E+00 -0.54104487186E+02  0.54104487186E+02  0.00000000000E+00 0.  1.
         35    2    1    2    0    0  0.71054273576E-14  0.00000000000E+00  0.29071362212E+03  0.39892259649E+03  0.27317545260E+03 0.  0.
         25    2    3    3    0    0  0.46332218550E+02  0.26441265366E+02  0.10800206633E+03  0.17374095556E+03  0.12520246929E+03 0.  0.
         25    2    3    3    0    0 -0.46332218550E+02 -0.26441265366E+02  0.18271155579E+03  0.22518164093E+03  0.12032224983E+03 0.  0.
          5    1    4    4  502    0  0.74417471452E+02 -0.12606998023E+02  0.99003309409E+02  0.12458186758E+03  0.47000000000E+01 0. -1.
         -5    1    4    4    0  502 -0.28085252903E+02  0.39048263389E+02  0.89987569215E+01  0.49159087974E+02  0.47000000000E+01 0. -1.
          5    1    5    5  503    0 -0.26970547358E+02 -0.25363835384E+02  0.19708699240E+03  0.20058939938E+03  0.47000000000E+01 0.  1.
         -5    1    5    5    0  503 -0.19361671192E+02 -0.10774299823E+01 -0.14375436613E+02  0.24592241552E+02  0.47000000000E+01 0.  1.
<mgrwt>
<rscale>  0 0.27317545E+03</rscale>
<asrwt>0</asrwt>
<pdfrwt beam="1">  1        2 0.53048939E-01 0.27317545E+03</pdfrwt>
<pdfrwt beam="2">  1       -2 0.83237675E-02 0.27317545E+03</pdfrwt>
<totfact> 0.82807342E+03</totfact>
</mgrwt>
</event>
<event>
 9    1  0.8122655E-001  0.2794144E+03  0.7818608E-02  0.1096009E+00
         -1   -1    0    0    0  501 -0.00000000000E+00  0.00000000000E+00  0.11061871231E+03  0.11061871231E+03  0.00000000000E+00 0. -1.
          1   -1    0    0  501    0  0.00000000000E+00 -0.00000000000E+00 -0.17644490405E+03  0.17644490405E+03  0.00000000000E+00 0. -1.
         35    2    1    2    0    0 -0.35527136788E-14  0.44408920985E-15 -0.65826191737E+02  0.28706361636E+03  0.27941444544E+03 0.  0.
         25    2    3    3    0    0 -0.58606878080E+00 -0.21497201895E-01  0.32931246519E+02  0.12817636883E+03  0.12387239640E+03 0.  0.
         25    2    3    3    0    0  0.58606878080E+00  0.21497201895E-01 -0.98757438256E+02  0.15888724753E+03  0.12446598683E+03 0.  0.
          5    1    4    4  502    0 -0.10881121711E+02  0.83873877485E+00  0.79429290822E+02  0.80313165378E+02  0.47000000000E+01 0. -1.
         -5    1    4    4    0  502  0.10295052930E+02 -0.86023597674E+00 -0.46498044303E+02  0.47863203453E+02  0.47000000000E+01 0. -1.
          5    1    5    5  503    0 -0.19374977580E+02 -0.12842077376E+02  0.24015106146E+02  0.33750911554E+02  0.47000000000E+01 0. -1.
         -5    1    5    5    0  503  0.19961046360E+02  0.12863574578E+02 -0.12277254440E+03  0.12513633598E+03  0.47000000000E+01 0. -1.
<mgrwt>
<rscale>  0 0.27941445E+03</rscale>
<asrwt>0</asrwt>
<pdfrwt beam="1">  1        1 0.27145369E-01 0.27941445E+03</pdfrwt>
<pdfrwt beam="2">  1       -1 0.17018264E-01 0.27941445E+03</pdfrwt>
<totfact> 0.44890368E+03</totfact>
</mgrwt>
</event>
<event>
 9    1  0.8122655E-001  0.2736680E+03  0.7818608E-02  0.1099198E+00
          3   -1    0    0  501    0  0.00000000000E+00  0.00000000000E+00  0.91082408909E+01  0.91082408909E+01  0.00000000000E+00 0.  1.
         -3   -1    0    0    0  501 -0.00000000000E+00 -0.00000000000E+00 -0.20556709096E+04  0.20556709096E+04  0.00000000000E+00 0.  1.
         35    2    1    2    0    0  0.14210854715E-13 -0.35527136788E-14 -0.20465626687E+04  0.20647791505E+04  0.27366801667E+03 0.  0.
         25    2    3    3    0    0  0.50668882668E+02  0.20043374342E+02 -0.91843657811E+03  0.92846027365E+03  0.12467421228E+03 0.  0.
         25    2    3    3    0    0 -0.50668882668E+02 -0.20043374342E+02 -0.11281260906E+04  0.11363188768E+04  0.12483205138E+03 0.  0.
          5    1    4    4  502    0  0.46011993248E+02 -0.45223548781E+02 -0.32246966739E+03  0.32889367473E+03  0.47000000000E+01 0. -1.
         -5    1    4    4    0  502  0.46568894197E+01  0.65266923123E+02 -0.59596691071E+03  0.59956659892E+03  0.47000000000E+01 0. -1.
          5    1    5    5  503    0 -0.72515865800E+00 -0.46297951007E+02 -0.90242381970E+03  0.90362318833E+03  0.47000000000E+01 0. -1.
         -5    1    5    5    0  503 -0.49943724010E+02  0.26254576665E+02 -0.22570227090E+03  0.23269568851E+03  0.47000000000E+01 0. -1.
<mgrwt>
<rscale>  0 0.27366802E+03</rscale>
<asrwt>0</asrwt>
<pdfrwt beam="1">  1        3 0.14012675E-02 0.27366802E+03</pdfrwt>
<pdfrwt beam="2">  1       -3 0.31625715E+00 0.27366802E+03</pdfrwt>
<totfact> 0.14899621E+02</totfact>
</mgrwt>
</event>
<event>
 9    1  0.8122655E-001  0.2695850E+03  0.7818608E-02  0.1101517E+00
          2   -1    0    0  501    0  0.00000000000E+00  0.00000000000E+00  0.64249553403E+03  0.64249553403E+03  0.00000000000E+00 0.  1.
         -2   -1    0    0    0  501 -0.00000000000E+00 -0.00000000000E+00 -0.28278814768E+02  0.28278814768E+02  0.00000000000E+00 0.  1.
         35    2    1    2    0    0 -0.35527136788E-14  0.71054273576E-14  0.61421671926E+03  0.67077434880E+03  0.26958495653E+03 0.  0.
         25    2    3    3    0    0 -0.35491511008E+01 -0.23057431900E+02  0.19439380572E+03  0.23201934786E+03  0.12449813027E+03 0.  0.
         25    2    3    3    0    0  0.35491511008E+01  0.23057431900E+02  0.41982291354E+03  0.43875500094E+03  0.12534125607E+03 0.  0.
          5    1    4    4  502    0 -0.21350073996E+02  0.29169343783E+02  0.76613075236E+01  0.37248649765E+02  0.47000000000E+01 0.  1.
         -5    1    4    4    0  502  0.17800922895E+02 -0.52226775683E+02  0.18673249819E+03  0.19477069809E+03  0.47000000000E+01 0.  1.
          5    1    5    5  503    0  0.38209313893E+02  0.58550258831E+02  0.16763729942E+03  0.18169325423E+03  0.47000000000E+01 0.  1.
         -5    1    5    5    0  503 -0.34660162792E+02 -0.35492826931E+02  0.25218561413E+03  0.25706174671E+03  0.47000000000E+01 0.  1.
<mgrwt>
<rscale>  0 0.26958496E+03</rscale>
<asrwt>0</asrwt>
<pdfrwt beam="1">  1        2 0.98845455E-01 0.26958496E+03</pdfrwt>
<pdfrwt beam="2">  1       -2 0.43505874E-02 0.26958496E+03</pdfrwt>
<totfact> 0.11197665E+04</totfact>
</mgrwt>
</event>
<event>
 9    1  0.8122655E-001  0.2717101E+03  0.7818608E-02  0.1100305E+00
          2   -1    0    0  501    0  0.00000000000E+00  0.00000000000E+00  0.11737053646E+03  0.11737053646E+03  0.00000000000E+00 0.  1.
         -2   -1    0    0    0  501 -0.00000000000E+00 -0.00000000000E+00 -0.15725071998E+03  0.15725071998E+03  0.00000000000E+00 0.  1.
         35    2    1    2    0    0  0.00000000000E+00 -0.17763568394E-14 -0.39880183515E+02  0.27462125644E+03  0.27171014970E+03 0.  0.
         25    2    3    3    0    0 -0.45896992341E+02  0.82873654732E+01  0.93295940368E+01  0.13220282500E+03  0.12335044094E+03 0.  0.
         25    2    3    3    0    0  0.45896992341E+02 -0.82873654732E+01 -0.49209777552E+02  0.14241843144E+03  0.12524453311E+03 0.  0.
          5    1    4    4  502    0 -0.82224556199E+02 -0.19744000618E+02  0.14000169131E+02  0.85841702792E+02  0.47000000000E+01 0.  1.
         -5    1    4    4    0  502  0.36327563858E+02  0.28031366091E+02 -0.46705750946E+01  0.46361122209E+02  0.47000000000E+01 0.  1.
          5    1    5    5  503    0  0.17200531800E+02 -0.28617131257E+00  0.42386166260E+02  0.45984967962E+02  0.47000000000E+01 0.  1.
         -5    1    5    5    0  503  0.28696460542E+02 -0.80011941606E+01 -0.91595943812E+02  0.96433463479E+02  0.47000000000E+01 0.  1.
<mgrwt>
<rscale>  0 0.27171015E+03</rscale>
<asrwt>0</asrwt>
<pdfrwt beam="1">  1        2 0.18057006E-01 0.27171015E+03</pdfrwt>
<pdfrwt beam="2">  1       -2 0.24192418E-01 0.27171015E+03</pdfrwt>
<totfact> 0.46802124E+03</totfact>
</mgrwt>
</event>
<event>
 9    1  0.8122655E-001  0.2747990E+03  0.7818608E-02  0.1098564E+00
         -1   -1    0    0    0  501 -0.00000000000E+00  0.00000000000E+00  0.84098459613E+03  0.84098459613E+03  0.00000000000E+00 0. -1.
          1   -1    0    0  501    0  0.00000000000E+00 -0.00000000000E+00 -0.22448244304E+02  0.22448244304E+02  0.00000000000E+00 0. -1.
         35    2    1    2    0    0 -0.35527136788E-14  0.00000000000E+00  0.81853635183E+03  0.86343284044E+03  0.27479903690E+03 0.  0.
         25    2    3    3    0    0 -0.36076440426E+00  0.38242685931E+02  0.32568425026E+03  0.35314100896E+03  0.13105612599E+03 0.  0.
         25    2    3    3    0    0  0.36076440426E+00 -0.38242685931E+02  0.49285210157E+03  0.51029183148E+03  0.12661724243E+03 0.  0.
          5    1    4    4  502    0  0.35475068011E+02  0.32805677696E+01  0.28817457409E+03  0.29040646984E+03  0.47000000000E+01 0. -1.
         -5    1    4    4    0  502 -0.35835832415E+02  0.34962118161E+02  0.37509676176E+02  0.62734539116E+02  0.47000000000E+01 0. -1.
          5    1    5    5  503    0 -0.28981730745E+02 -0.48447377678E+02  0.46459076728E+03  0.46803179396E+03  0.47000000000E+01 0. -1.
         -5    1    5    5    0  503  0.29342495149E+02  0.10204691747E+02  0.28261334288E+02  0.42260037517E+02  0.47000000000E+01 0. -1.
<mgrwt>
<rscale>  0 0.27479904E+03</rscale>
<asrwt>0</asrwt>
<pdfrwt beam="1">  1        1 0.34535767E-02 0.27479904E+03</pdfrwt>
<pdfrwt beam="2">  1       -1 0.12938222E+00 0.27479904E+03</pdfrwt>
<totfact> 0.15387670E+03</totfact>
</mgrwt>
</event>
<event>
 9    1  0.8122655E-001  0.2736006E+03  0.7818608E-02  0.1099236E+00
          2   -1    0    0  501    0  0.00000000000E+00  0.00000000000E+00  0.14976689557E+03  0.14976689557E+03  0.00000000000E+00 0. -1.
         -2   -1    0    0    0  501 -0.00000000000E+00 -0.00000000000E+00 -0.12495636869E+03  0.12495636869E+03  0.00000000000E+00 0. -1.
         35    2    1    2    0    0  0.14210854715E-13 -0.35527136788E-14  0.24810526882E+02  0.27472326427E+03  0.27360063904E+03 0.  0.
         25    2    3    3    0    0  0.38950796592E+02 -0.21970962073E+02  0.38178323102E+02  0.14202451813E+03  0.12928067011E+03 0.  0.
         25    2    3    3    0    0 -0.38950796592E+02  0.21970962073E+02 -0.13367796220E+02  0.13269874614E+03  0.12421904653E+03 0.  0.
          5    1    4    4  502    0  0.41685699736E+02 -0.19187703159E+02  0.83980986851E+02  0.95816291243E+02  0.47000000000E+01 0.  1.
         -5    1    4    4    0  502 -0.27349031439E+01 -0.27832589137E+01 -0.45802663749E+02  0.46208226885E+02  0.47000000000E+01 0.  1.
          5    1    5    5  503    0  0.75232712554E+01 -0.24141967727E+02  0.40371288606E+02  0.47868206148E+02  0.47000000000E+01 0. -1.
         -5    1    5    5    0  503 -0.46474067848E+02  0.46112929800E+02 -0.53739084826E+02  0.84830539990E+02  0.47000000000E+01 0. -1.
<mgrwt>
<rscale>  0 0.27360064E+03</rscale>
<asrwt>0</asrwt>
<pdfrwt beam="1">  1        2 0.23041061E-01 0.27360064E+03</pdfrwt>
<pdfrwt beam="2">  1       -2 0.19224057E-01 0.27360064E+03</pdfrwt>
<totfact> 0.52715301E+03</totfact>
</mgrwt>
</event>
<event>
 9    1  0.8122655E-001  0.2748014E+03  0.7818608E-02  0.1098563E+00
         -2   -1    0    0    0  501 -0.00000000000E+00  0.00000000000E+00  0.42896857100E+02  0.42896857100E+02  0.00000000000E+00 0.  1.
          2   -1    0    0  501    0  0.00000000000E+00 -0.00000000000E+00 -0.44010121299E+03  0.44010121299E+03  0.00000000000E+00 0.  1.
         35    2    1    2    0    0  0.00000000000E+00  0.14210854715E-13 -0.39720435589E+03  0.48299807009E+03  0.27480144718E+03 0.  0.
         25    2    3    3    0    0  0.15995267860E+02 -0.53744078706E+02 -0.22379600067E+03  0.26236091702E+03  0.12491727773E+03 0.  0.
         25    2    3    3    0    0 -0.15995267860E+02  0.53744078706E+02 -0.17340835522E+03  0.22063715306E+03  0.12436245842E+03 0.  0.
          5    1    4    4  502    0  0.33714322635E+02 -0.70121366702E+02 -0.64482162668E+02  0.10116175622E+03  0.47000000000E+01 0.  1.
         -5    1    4    4    0  502 -0.17719054776E+02  0.16377287997E+02 -0.15931383800E+03  0.16119916080E+03  0.47000000000E+01 0.  1.
          5    1    5    5  503    0 -0.46005263967E+02 -0.91655249078E+01 -0.18388679474E+02  0.50603603551E+02  0.47000000000E+01 0.  1.
         -5    1    5    5    0  503  0.30009996107E+02  0.62909603613E+02 -0.15501967574E+03  0.17003354951E+03  0.47000000000E+01 0.  1.
<mgrwt>
<rscale>  0 0.27480145E+03</rscale>
<asrwt>0</asrwt>
<pdfrwt beam="1">  1        2 0.67707880E-01 0.27480145E+03</pdfrwt>
<pdfrwt beam="2">  1       -2 0.65995164E-02 0.27480145E+03</pdfrwt>
<totfact> 0.91155206E+03</totfact>
</mgrwt>
</event>
<event>
 9    1  0.8122655E-001  0.2771193E+03  0.7818608E-02  0.1097273E+00
         -2   -1    0    0    0  501 -0.00000000000E+00  0.00000000000E+00  0.10017477586E+02  0.10017477586E+02  0.00000000000E+00 0. -1.
          2   -1    0    0  501    0  0.00000000000E+00 -0.00000000000E+00 -0.19165274353E+04  0.19165274353E+04  0.00000000000E+00 0. -1.
         35    2    1    2    0    0  0.71054273576E-14  0.00000000000E+00 -0.19065099577E+04  0.19265449129E+04  0.27711925682E+03 0.  0.
         25    2    3    3    0    0  0.11598241954E+02  0.42190290758E+01 -0.13641427587E+04  0.13698819431E+04  0.12465453300E+03 0.  0.
         25    2    3    3    0    0 -0.11598241954E+02 -0.42190290758E+01 -0.54236719907E+03  0.55666296980E+03  0.12473637762E+03 0.  0.
          5    1    4    4  502    0  0.64960555920E+02 -0.52387802474E+01 -0.53860590834E+03  0.54255482041E+03  0.47000000000E+01 0.  1.
         -5    1    4    4    0  502 -0.53362313966E+02  0.94578093231E+01 -0.82553685032E+03  0.82732712270E+03  0.47000000000E+01 0.  1.
          5    1    5    5  503    0 -0.49485229097E+02 -0.13186370587E+02 -0.48161429618E+03  0.48435223604E+03  0.47000000000E+01 0. -1.
         -5    1    5    5    0  503  0.37886987142E+02  0.89673415116E+01 -0.60752902889E+02  0.72310733767E+02  0.47000000000E+01 0. -1.
<mgrwt>
<rscale>  0 0.27711926E+03</rscale>
<asrwt>0</asrwt>
<pdfrwt beam="1">  1        2 0.29484996E+00 0.27711926E+03</pdfrwt>
<pdfrwt beam="2">  1       -2 0.15411526E-02 0.27711926E+03</pdfrwt>
<totfact> 0.93216091E+03</totfact>
</mgrwt>
</event>
<event>
 9    1  0.8122655E-001  0.2748298E+03  0.7818608E-02  0.1098547E+00
          2   -1    0    0  501    0  0.00000000000E+00  0.00000000000E+00  0.13791809806E+04  0.13791809806E+04  0.00000000000E+00 0. -1.
         -2   -1    0    0    0  501 -0.00000000000E+00 -0.00000000000E+00 -0.13691353843E+02  0.13691353843E+02  0.00000000000E+00 0. -1.
         35    2    1    2    0    0 -0.35527136788E-14 -0.71054273576E-14  0.13654896268E+04  0.13928723345E+04  0.27482980056E+03 0.  0.
         25    2    3    3    0    0 -0.91358374667E+01  0.47511305035E+01  0.96043377711E+03  0.96861131637E+03  0.12517509821E+03 0.  0.
         25    2    3    3    0    0  0.91358374667E+01 -0.47511305035E+01  0.40505584969E+03  0.42426101812E+03  0.12578208680E+03 0.  0.
          5    1    4    4  502    0 -0.45476496697E+02 -0.35558239292E+02  0.27592463210E+03  0.28193792354E+03  0.47000000000E+01 0. -1.
         -5    1    4    4    0  502  0.36340659230E+02  0.40309369796E+02  0.68450914501E+03  0.68667339283E+03  0.47000000000E+01 0. -1.
          5    1    5    5  503    0  0.36572610087E+02  0.45175639877E+02  0.11863892188E+03  0.13219560519E+03  0.47000000000E+01 0. -1.
         -5    1    5    5    0  503 -0.27436772620E+02 -0.49926770381E+02  0.28641692781E+03  0.29206541293E+03  0.47000000000E+01 0. -1.
<mgrwt>
<rscale>  0 0.27482980E+03</rscale>
<asrwt>0</asrwt>
<pdfrwt beam="1">  1        2 0.21218158E+00 0.27482980E+03</pdfrwt>
<pdfrwt beam="2">  1       -2 0.21063632E-02 0.27482980E+03</pdfrwt>
<totfact> 0.11357163E+04</totfact>
</mgrwt>
</event>
<event>
 9    1  0.8122655E-001  0.2722853E+03  0.7818608E-02  0.1099979E+00
          2   -1    0    0  501    0  0.00000000000E+00  0.00000000000E+00  0.82166004574E+03  0.82166004574E+03  0.00000000000E+00 0. -1.
         -2   -1    0    0    0  501 -0.00000000000E+00 -0.00000000000E+00 -0.22557777903E+02  0.22557777903E+02  0.00000000000E+00 0. -1.
         35    2    1    2    0    0  0.00000000000E+00 -0.35527136788E-14  0.79910226784E+03  0.84421782365E+03  0.27228532699E+03 0.  0.
         25    2    3    3    0    0 -0.28762222222E+02 -0.29729745800E+02  0.51857217681E+03  0.53497140842E+03  0.12476450639E+03 0.  0.
         25    2    3    3    0    0  0.28762222222E+02  0.29729745800E+02  0.28053009103E+03  0.30924641523E+03  0.12338999207E+03 0.  0.
          5    1    4    4  502    0 -0.57265601359E+02 -0.46358611274E+02  0.17704524133E+03  0.19182173343E+03  0.47000000000E+01 0.  1.
         -5    1    4    4    0  502  0.28503379137E+02  0.16628865474E+02  0.34152693547E+03  0.34314967499E+03  0.47000000000E+01 0.  1.
          5    1    5    5  503    0  0.66167810574E+02  0.94013379280E+01  0.80741545236E+02  0.10491830840E+03  0.47000000000E+01 0.  1.
         -5    1    5    5    0  503 -0.37405588351E+02  0.20328407872E+02  0.19978854580E+03  0.20432810682E+03  0.47000000000E+01 0.  1.
<mgrwt>
<rscale>  0 0.27228533E+03</rscale>
<asrwt>0</asrwt>
<pdfrwt beam="1">  1        2 0.12640921E+00 0.27228533E+03</pdfrwt>
<pdfrwt beam="2">  1       -2 0.34704280E-02 0.27228533E+03</pdfrwt>
<totfact> 0.11623811E+04</totfact>
</mgrwt>
</event>
<event>
 9    1  0.8122655E-001  0.2749711E+03  0.7818608E-02  0.1098468E+00
         -2   -1    0    0    0  501 -0.00000000000E+00  0.00000000000E+00  0.82451163205E+02  0.82451163205E+02  0.00000000000E+00 0.  1.
          2   -1    0    0  501    0  0.00000000000E+00 -0.00000000000E+00 -0.22925424650E+03  0.22925424650E+03  0.00000000000E+00 0.  1.
         35    2    1    2    0    0  0.00000000000E+00  0.00000000000E+00 -0.14680308329E+03  0.31170540970E+03  0.27497112062E+03 0.  0.
         25    2    3    3    0    0 -0.30214237122E+02 -0.42935851083E+02 -0.54752808720E+02  0.14768088527E+03  0.12670985114E+03 0.  0.
         25    2    3    3    0    0  0.30214237122E+02  0.42935851083E+02 -0.92050274574E+02  0.16402452444E+03  0.12519746058E+03 0.  0.
          5    1    4    4  502    0  0.25362013479E+02 -0.70319188604E+02 -0.26832685970E+02  0.79561944735E+02  0.47000000000E+01 0.  1.
         -5    1    4    4    0  502 -0.55576250601E+02  0.27383337521E+02 -0.27920122750E+02  0.68118940531E+02  0.47000000000E+01 0.  1.
          5    1    5    5  503    0  0.70170827600E+02  0.50001067787E+02 -0.87553738405E+02  0.12293005708E+03  0.47000000000E+01 0. -1.
         -5    1    5    5    0  503 -0.39956590477E+02 -0.70652167035E+01 -0.44965361687E+01  0.41094467355E+02  0.47000000000E+01 0. -1.
<mgrwt>
<rscale>  0 0.27497112E+03</rscale>
<asrwt>0</asrwt>
<pdfrwt beam="1">  1        2 0.35269884E-01 0.27497112E+03</pdfrwt>
<pdfrwt beam="2">  1       -2 0.12684794E-01 0.27497112E+03</pdfrwt>
<totfact> 0.65722286E+03</totfact>
</mgrwt>
</event>
<event>
 9    1  0.8122655E-001  0.2727377E+03  0.7818608E-02  0.1099723E+00
         -1   -1    0    0    0  501 -0.00000000000E+00  0.00000000000E+00  0.55630784697E+03  0.55630784697E+03  0.00000000000E+00 0. -1.
          1   -1    0    0  501    0  0.00000000000E+00 -0.00000000000E+00 -0.33428377503E+02  0.33428377503E+02  0.00000000000E+00 0. -1.
         35    2    1    2    0    0  0.14210854715E-13  0.35527136788E-14  0.52287946946E+03  0.58973622447E+03  0.27273774008E+03 0.  0.
         25    2    3    3    0    0  0.46945393017E+02  0.24243901436E+02  0.22155291442E+03  0.25922364249E+03  0.12377223540E+03 0.  0.
         25    2    3    3    0    0 -0.46945393017E+02 -0.24243901436E+02  0.30132655504E+03  0.33051258198E+03  0.12509691198E+03 0.  0.
          5    1    4    4  502    0 -0.27696258203E+02  0.48356482386E+02  0.87924218434E+02  0.10420264053E+03  0.47000000000E+01 0.  1.
         -5    1    4    4    0  502  0.74641651220E+02 -0.24112580951E+02  0.13362869599E+03  0.15502100196E+03  0.47000000000E+01 0.  1.
          5    1    5    5  503    0  0.92117689310E+01 -0.17147022408E+02 -0.35965532584E+01  0.20344587969E+02  0.47000000000E+01 0. -1.
         -5    1    5    5    0  503 -0.56157161948E+02 -0.70968790278E+01  0.30492310830E+03  0.31016799401E+03  0.47000000000E+01 0. -1.
<mgrwt>
<rscale>  0 0.27273774E+03</rscale>
<asrwt>0</asrwt>
<pdfrwt beam="1">  1        1 0.51428277E-02 0.27273774E+03</pdfrwt>
<pdfrwt beam="2">  1       -1 0.85585816E-01 0.27273774E+03</pdfrwt>
<totfact> 0.22606889E+03</totfact>
</mgrwt>
</event>
<event>
 9    1  0.8122655E-001  0.2790915E+03  0.7818608E-02  0.1096186E+00
         -1   -1    0    0    0  501 -0.00000000000E+00  0.00000000000E+00  0.21380851362E+02  0.21380851362E+02  0.00000000000E+00 0.  1.
          1   -1    0    0  501    0  0.00000000000E+00 -0.00000000000E+00 -0.91076924505E+03  0.91076924505E+03  0.00000000000E+00 0.  1.
         35    2    1    2    0    0 -0.71054273576E-14  0.17763568394E-14 -0.88938839368E+03  0.93215009641E+03  0.27909153949E+03 0.  0.
         25    2    3    3    0    0 -0.33994271910E+02 -0.87143929639E+01 -0.27261432583E+03  0.30180285472E+03  0.12463884346E+03 0.  0.
         25    2    3    3    0    0  0.33994271910E+02  0.87143929639E+01 -0.61677406785E+03  0.63034724169E+03  0.12528305219E+03 0.  0.
          5    1    4    4  502    0  0.47198672396E+02 -0.40911548334E+01 -0.11246252657E+03  0.12212437147E+03  0.47000000000E+01 0.  1.
         -5    1    4    4    0  502 -0.81192944306E+02 -0.46232381305E+01 -0.16015179927E+03  0.17967848325E+03  0.47000000000E+01 0.  1.
          5    1    5    5  503    0  0.37409735895E+02 -0.42147149749E+02 -0.14238361260E+03  0.15320265568E+03  0.47000000000E+01 0. -1.
         -5    1    5    5    0  503 -0.34154639855E+01  0.50861542713E+02 -0.47439045525E+03  0.47714458601E+03  0.47000000000E+01 0. -1.
<mgrwt>
<rscale>  0 0.27909154E+03</rscale>
<asrwt>0</asrwt>
<pdfrwt beam="1">  1        1 0.14011833E+00 0.27909154E+03</pdfrwt>
<pdfrwt beam="2">  1       -1 0.32893621E-02 0.27909154E+03</pdfrwt>
<totfact> 0.61584662E+03</totfact>
</mgrwt>
</event>
<event>
 9    1  0.8122655E-001  0.2750854E+03  0.7818608E-02  0.1098404E+00
          2   -1    0    0  501    0  0.00000000000E+00  0.00000000000E+00  0.33451568795E+04  0.33451568795E+04  0.00000000000E+00 0.  1.
         -2   -1    0    0    0  501 -0.00000000000E+00 -0.00000000000E+00 -0.56553399317E+01  0.56553399317E+01  0.00000000000E+00 0.  1.
         35    2    1    2    0    0  0.35527136788E-14  0.35527136788E-14  0.33395015395E+04  0.33508122194E+04  0.27508543602E+03 0.  0.
         25    2    3    3    0    0 -0.19028425630E+02  0.59761166093E+01  0.23317686266E+04  0.23351780551E+04  0.12455451059E+03 0.  0.
         25    2    3    3    0    0  0.19028425630E+02 -0.59761166093E+01  0.10077329130E+04  0.10156341643E+04  0.12485726615E+03 0.  0.
          5    1    4    4  502    0 -0.39173273806E+02 -0.43000119160E+02  0.66319928495E+03  0.66576192230E+03  0.47000000000E+01 0. -1.
         -5    1    4    4    0  502  0.20144848176E+02  0.48976235769E+02  0.16685693416E+04  0.16694161328E+04  0.47000000000E+01 0. -1.
          5    1    5    5  503    0 -0.85440967506E+01 -0.11878278584E+02  0.95909202947E+03  0.95921515109E+03  0.47000000000E+01 0.  1.
         -5    1    5    5    0  503  0.27572522381E+02  0.59021619749E+01  0.48640883486E+02  0.56419013220E+02  0.47000000000E+01 0.  1.
<mgrwt>
<rscale>  0 0.27508544E+03</rscale>
<asrwt>0</asrwt>
<pdfrwt beam="1">  1        2 0.51463794E+00 0.27508544E+03</pdfrwt>
<pdfrwt beam="2">  1       -2 0.87005497E-03 0.27508544E+03</pdfrwt>
<totfact> 0.33368491E+03</totfact>
</mgrwt>
</event>
<event>
 9    1  0.8122655E-001  0.2740298E+03  0.7818608E-02  0.1098995E+00
         -2   -1    0    0    0  501 -0.00000000000E+00  0.00000000000E+00  0.20285505692E+03  0.20285505692E+03  0.00000000000E+00 0. -1.
          2   -1    0    0  501    0  0.00000000000E+00 -0.00000000000E+00 -0.92544300929E+02  0.92544300929E+02  0.00000000000E+00 0. -1.
         35    2    1    2    0    0 -0.71054273576E-14  0.00000000000E+00  0.11031075599E+03  0.29539935785E+03  0.27402977526E+03 0.  0.
         25    2    3    3    0    0  0.53409384558E+02 -0.13829653444E+02  0.58906370765E+02  0.14861003524E+03  0.12478445570E+03 0.  0.
         25    2    3    3    0    0 -0.53409384558E+02  0.13829653444E+02  0.51404385225E+02  0.14678932260E+03  0.12593995687E+03 0.  0.
          5    1    4    4  502    0  0.43566562402E+02 -0.24802813366E+02  0.96008584520E+02  0.10841108436E+03  0.47000000000E+01 0.  1.
         -5    1    4    4    0  502  0.98428221562E+01  0.10973159922E+02 -0.37102213755E+02  0.40198950884E+02  0.47000000000E+01 0.  1.
          5    1    5    5  503    0  0.69003864243E+01  0.17822158387E+02 -0.35640481775E+02  0.40713371311E+02  0.47000000000E+01 0. -1.
         -5    1    5    5    0  503 -0.60309770982E+02 -0.39925049425E+01  0.87044867000E+02  0.10607595129E+03  0.47000000000E+01 0. -1.
<mgrwt>
<rscale>  0 0.27402978E+03</rscale>
<asrwt>0</asrwt>
<pdfrwt beam="1">  1        2 0.14237585E-01 0.27402978E+03</pdfrwt>
<pdfrwt beam="2">  1       -2 0.31208470E-01 0.27402978E+03</pdfrwt>
<totfact> 0.39238620E+03</totfact>
</mgrwt>
</event>
<event>
 9    1  0.8122655E-001  0.2736457E+03  0.7818608E-02  0.1099211E+00
          2   -1    0    0  501    0  0.00000000000E+00  0.00000000000E+00  0.10397235829E+04  0.10397235829E+04  0.00000000000E+00 0.  1.
         -2   -1    0    0    0  501 -0.00000000000E+00 -0.00000000000E+00 -0.18005252692E+02  0.18005252692E+02  0.00000000000E+00 0.  1.
         35    2    1    2    0    0 -0.71054273576E-14  0.00000000000E+00  0.10217183302E+04  0.10577288356E+04  0.27364565291E+03 0.  0.
         25    2    3    3    0    0 -0.46908590327E+02  0.88167664604E+01  0.40331640464E+03  0.42502096242E+03  0.12530181574E+03 0.  0.
         25    2    3    3    0    0  0.46908590327E+02 -0.88167664604E+01  0.61840192554E+03  0.63270787314E+03  0.12498063853E+03 0.  0.
          5    1    4    4  502    0  0.55700371066E+01  0.34733057738E+02  0.28179378048E+02  0.45316420427E+02  0.47000000000E+01 0. -1.
         -5    1    4    4    0  502 -0.52478627433E+02 -0.25916291277E+02  0.37513702659E+03  0.37970454200E+03  0.47000000000E+01 0. -1.
          5    1    5    5  503    0 -0.30894369493E+02  0.31794666399E+02  0.16824692976E+03  0.17405310181E+03  0.47000000000E+01 0.  1.
         -5    1    5    5    0  503  0.77802959820E+02 -0.40611432859E+02  0.45015499579E+03  0.45865477133E+03  0.47000000000E+01 0.  1.
<mgrwt>
<rscale>  0 0.27364565E+03</rscale>
<asrwt>0</asrwt>
<pdfrwt beam="1">  1        2 0.15995743E+00 0.27364565E+03</pdfrwt>
<pdfrwt beam="2">  1       -2 0.27700397E-02 0.27364565E+03</pdfrwt>
<totfact> 0.11815465E+04</totfact>
</mgrwt>
</event>
<event>
 9    1  0.8122655E-001  0.2669613E+03  0.7818608E-02  0.1103031E+00
          1   -1    0    0  501    0  0.00000000000E+00  0.00000000000E+00  0.65634727370E+03  0.65634727370E+03  0.00000000000E+00 0. -1.
         -1   -1    0    0    0  501 -0.00000000000E+00 -0.00000000000E+00 -0.27145823969E+02  0.27145823969E+02  0.00000000000E+00 0. -1.
         35    2    1    2    0    0  0.00000000000E+00  0.00000000000E+00  0.62920144974E+03  0.68349309767E+03  0.26696132719E+03 0.  0.
         25    2    3    3    0    0 -0.81699712418E+01 -0.49214178504E+02  0.30907278125E+03  0.33675744070E+03  0.12405968708E+03 0.  0.
         25    2    3    3    0    0  0.81699712418E+01  0.49214178504E+02  0.32012866848E+03  0.34673565697E+03  0.12350897796E+03 0.  0.
          5    1    4    4  502    0 -0.59234820662E+02 -0.38431995127E+02  0.10916454298E+03  0.13009523309E+03  0.47000000000E+01 0.  1.
         -5    1    4    4    0  502  0.51064849421E+02 -0.10782183378E+02  0.19990823827E+03  0.20666220761E+03  0.47000000000E+01 0.  1.
          5    1    5    5  503    0 -0.20899833969E+02  0.34206880870E+02  0.20461298584E+02  0.45251171239E+02  0.47000000000E+01 0.  1.
         -5    1    5    5    0  503  0.29069805211E+02  0.15007297635E+02  0.29966736990E+03  0.30148448573E+03  0.47000000000E+01 0.  1.
<mgrwt>
<rscale>  0 0.26696133E+03</rscale>
<asrwt>0</asrwt>
<pdfrwt beam="1">  1        1 0.10097649E+00 0.26696133E+03</pdfrwt>
<pdfrwt beam="2">  1       -1 0.41762811E-02 0.26696133E+03</pdfrwt>
<totfact> 0.71072614E+03</totfact>
</mgrwt>
</event>
<event>
 9    1  0.8122655E-001  0.2683481E+03  0.7818608E-02  0.1102229E+00
          3   -1    0    0  501    0  0.00000000000E+00  0.00000000000E+00  0.11728231460E+04  0.11728231460E+04  0.00000000000E+00 0.  1.
         -3   -1    0    0    0  501 -0.00000000000E+00 -0.00000000000E+00 -0.15349862180E+02  0.15349862180E+02  0.00000000000E+00 0.  1.
         35    2    1    2    0    0  0.00000000000E+00  0.17763568394E-14  0.11574732838E+04  0.11881730082E+04  0.26834808479E+03 0.  0.
         25    2    3    3    0    0 -0.46774907748E+02 -0.11753212535E+02  0.59538394645E+03  0.61036465976E+03  0.12544697763E+03 0.  0.
         25    2    3    3    0    0  0.46774907748E+02  0.11753212535E+02  0.56208933736E+03  0.57780834841E+03  0.12486806765E+03 0.  0.
          5    1    4    4  502    0 -0.46378079563E+02 -0.65477277196E+02  0.34516367281E+03  0.35439843555E+03  0.47000000000E+01 0.  1.
         -5    1    4    4    0  502 -0.39682818482E+00  0.53724064661E+02  0.25022027365E+03  0.25596622422E+03  0.47000000000E+01 0.  1.
          5    1    5    5  503    0  0.83421821343E+02  0.20375833977E+02  0.47632623182E+03  0.48402804052E+03  0.47000000000E+01 0.  1.
         -5    1    5    5    0  503 -0.36646913595E+02 -0.86226214420E+01  0.85763105536E+02  0.93780307889E+02  0.47000000000E+01 0.  1.
<mgrwt>
<rscale>  0 0.26834808E+03</rscale>
<asrwt>0</asrwt>
<pdfrwt beam="1">  1        3 0.18043426E+00 0.26834808E+03</pdfrwt>
<pdfrwt beam="2">  1       -3 0.23615182E-02 0.26834808E+03</pdfrwt>
<totfact> 0.39684773E+02</totfact>
</mgrwt>
</event>
<event>
 9    1  0.8122655E-001  0.2701209E+03  0.7818608E-02  0.1101210E+00
         -1   -1    0    0    0  501 -0.00000000000E+00  0.00000000000E+00  0.61243197462E+03  0.61243197462E+03  0.00000000000E+00 0.  1.
          1   -1    0    0  501    0  0.00000000000E+00 -0.00000000000E+00 -0.29785055676E+02  0.29785055676E+02  0.00000000000E+00 0.  1.
         35    2    1    2    0    0  0.14210854715E-13  0.71054273576E-14  0.58264691894E+03  0.64221703030E+03  0.27012086526E+03 0.  0.
         25    2    3    3    0    0 -0.46176551953E+02 -0.69194432665E+01  0.27829842283E+03  0.30888991631E+03  0.12562967644E+03 0.  0.
         25    2    3    3    0    0  0.46176551953E+02  0.69194432665E+01  0.30434849612E+03  0.33332711399E+03  0.12766677401E+03 0.  0.
          5    1    4    4  502    0 -0.73713077944E+02  0.27480308917E+02  0.23101186447E+03  0.24408473275E+03  0.47000000000E+01 0. -1.
         -5    1    4    4    0  502  0.27536525991E+02 -0.34399752183E+02  0.47286558362E+02  0.64805183556E+02  0.47000000000E+01 0. -1.
          5    1    5    5  503    0  0.53123343620E+02  0.57854356476E+02  0.13469194962E+03  0.15599111350E+03  0.47000000000E+01 0. -1.
         -5    1    5    5    0  503 -0.69467916668E+01 -0.50934913210E+02  0.16965654650E+03  0.17733600048E+03  0.47000000000E+01 0. -1.
<mgrwt>
<rscale>  0 0.27012087E+03</rscale>
<asrwt>0</asrwt>
<pdfrwt beam="1">  1        1 0.45823167E-02 0.27012087E+03</pdfrwt>
<pdfrwt beam="2">  1       -1 0.94220295E-01 0.27012087E+03</pdfrwt>
<totfact> 0.21577874E+03</totfact>
</mgrwt>
</event>
<event>
 9    1  0.8122655E-001  0.2750753E+03  0.7818608E-02  0.1098410E+00
         -3   -1    0    0    0  501 -0.00000000000E+00  0.00000000000E+00  0.85251499920E+02  0.85251499920E+02  0.00000000000E+00 0.  1.
          3   -1    0    0  501    0  0.00000000000E+00 -0.00000000000E+00 -0.22189174483E+03  0.22189174483E+03  0.00000000000E+00 0.  1.
         35    2    1    2    0    0  0.71054273576E-14  0.71054273576E-14 -0.13664024491E+03  0.30714324475E+03  0.27507529199E+03 0.  0.
         25    2    3    3    0    0  0.42325769802E+02 -0.19780423715E+02 -0.31992249717E+02  0.13803490478E+03  0.12588643670E+03 0.  0.
         25    2    3    3    0    0 -0.42325769802E+02  0.19780423715E+02 -0.10464799519E+03  0.16910833997E+03  0.12435309323E+03 0.  0.
          5    1    4    4  502    0 -0.24190409875E+02  0.38417502768E+02 -0.80443221788E+01  0.46345243210E+02  0.47000000000E+01 0. -1.
         -5    1    4    4    0  502  0.66516179677E+02 -0.58197926484E+02 -0.23947927538E+02  0.91689661572E+02  0.47000000000E+01 0. -1.
          5    1    5    5  503    0 -0.13195183606E+01 -0.33053150878E+02  0.11216640366E+02  0.35244218430E+02  0.47000000000E+01 0. -1.
         -5    1    5    5    0  503 -0.41006251442E+02  0.52833574593E+02 -0.11586463556E+03  0.13386412154E+03  0.47000000000E+01 0. -1.
<mgrwt>
<rscale>  0 0.27507529E+03</rscale>
<asrwt>0</asrwt>
<pdfrwt beam="1">  1        3 0.34137191E-01 0.27507529E+03</pdfrwt>
<pdfrwt beam="2">  1       -3 0.13115616E-01 0.27507529E+03</pdfrwt>
<totfact> 0.10006051E+03</totfact>
</mgrwt>
</event>
<event>
 9    1  0.8122655E-001  0.2746269E+03  0.7818608E-02  0.1098660E+00
         -1   -1    0    0    0  501 -0.00000000000E+00  0.00000000000E+00  0.43459819000E+03  0.43459819000E+03  0.00000000000E+00 0. -1.
          1   -1    0    0  501    0  0.00000000000E+00 -0.00000000000E+00 -0.43384871521E+02  0.43384871521E+02  0.00000000000E+00 0. -1.
         35    2    1    2    0    0 -0.71054273576E-14  0.00000000000E+00  0.39121331848E+03  0.47798306152E+03  0.27462692247E+03 0.  0.
         25    2    3    3    0    0 -0.32630238287E+02  0.97864388542E+01  0.24596781235E+03  0.28337261389E+03  0.13652606622E+03 0.  0.
         25    2    3    3    0    0  0.32630238287E+02 -0.97864388542E+01  0.14524550614E+03  0.19461044763E+03  0.12496584509E+03 0.  0.
          5    1    4    4  502    0 -0.66236995258E+02 -0.23909659267E+02  0.64162767534E+02  0.95383237965E+02  0.47000000000E+01 0. -1.
         -5    1    4    4    0  502  0.33606756971E+02  0.33696098122E+02  0.18180504481E+03  0.18798937593E+03  0.47000000000E+01 0. -1.
          5    1    5    5  503    0  0.22496905761E+02  0.57119847200E+02  0.64871734368E+02  0.89438356609E+02  0.47000000000E+01 0. -1.
         -5    1    5    5    0  503  0.10133332526E+02 -0.66906286055E+02  0.80373771767E+02  0.10517209102E+03  0.47000000000E+01 0. -1.
<mgrwt>
<rscale>  0 0.27462692E+03</rscale>
<asrwt>0</asrwt>
<pdfrwt beam="1">  1        1 0.66745959E-02 0.27462692E+03</pdfrwt>
<pdfrwt beam="2">  1       -1 0.66861257E-01 0.27462692E+03</pdfrwt>
<totfact> 0.26138807E+03</totfact>
</mgrwt>
</event>
<event>
 9    1  0.8122655E-001  0.2761023E+03  0.7818608E-02  0.1097837E+00
         -2   -1    0    0    0  501 -0.00000000000E+00  0.00000000000E+00  0.18234644561E+03  0.18234644561E+03  0.00000000000E+00 0.  1.
          2   -1    0    0  501    0  0.00000000000E+00 -0.00000000000E+00 -0.10451596822E+03  0.10451596822E+03  0.00000000000E+00 0.  1.
         35    2    1    2    0    0  0.71054273576E-14 -0.71054273576E-14  0.77830477389E+02  0.28686241383E+03  0.27610226594E+03 0.  0.
         25    2    3    3    0    0 -0.43052846161E+02  0.34498842053E+02  0.56377039777E+02  0.14853740334E+03  0.12586211468E+03 0.  0.
         25    2    3    3    0    0  0.43052846161E+02 -0.34498842053E+02  0.21453437611E+02  0.13832501048E+03  0.12501936200E+03 0.  0.
          5    1    4    4  502    0  0.37467838004E+02  0.28930687013E+02  0.47461642646E+02  0.67197626880E+02  0.47000000000E+01 0.  1.
         -5    1    4    4    0  502 -0.80520684164E+02  0.55681550402E+01  0.89153971316E+01  0.81339776462E+02  0.47000000000E+01 0.  1.
          5    1    5    5  503    0  0.27713545396E+02 -0.70574167475E+02 -0.22514202116E+02  0.79232146318E+02  0.47000000000E+01 0. -1.
         -5    1    5    5    0  503  0.15339300765E+02  0.36075325422E+02  0.43967639727E+02  0.59092864167E+02  0.47000000000E+01 0. -1.
<mgrwt>
<rscale>  0 0.27610227E+03</rscale>
<asrwt>0</asrwt>
<pdfrwt beam="1">  1        2 0.16079380E-01 0.27610227E+03</pdfrwt>
<pdfrwt beam="2">  1       -2 0.28053299E-01 0.27610227E+03</pdfrwt>
<totfact> 0.41222798E+03</totfact>
</mgrwt>
</event>
<event>
 9    1  0.8122655E-001  0.2863110E+03  0.7818608E-02  0.1092291E+00
          2   -1    0    0  501    0  0.00000000000E+00  0.00000000000E+00  0.24951729960E+03  0.24951729960E+03  0.00000000000E+00 0.  1.
         -2   -1    0    0    0  501 -0.00000000000E+00 -0.00000000000E+00 -0.82132580572E+02  0.82132580572E+02  0.00000000000E+00 0.  1.
         35    2    1    2    0    0 -0.71054273576E-14  0.00000000000E+00  0.16738471903E+03  0.33164988017E+03  0.28631101770E+03 0.  0.
         25    2    3    3    0    0 -0.40108580169E+02  0.53661617249E+02  0.11010871209E+03  0.17923823784E+03  0.12455581101E+03 0.  0.
         25    2    3    3    0    0  0.40108580169E+02 -0.53661617249E+02  0.57276006943E+02  0.15241164234E+03  0.12434026049E+03 0.  0.
          5    1    4    4  502    0 -0.47294302966E+02  0.18149039780E+02 -0.11586090174E+02  0.52177257723E+02  0.47000000000E+01 0.  1.
         -5    1    4    4    0  502  0.71857227968E+01  0.35512577469E+02  0.12169480226E+03  0.12706098012E+03  0.47000000000E+01 0.  1.
          5    1    5    5  503    0  0.56701716787E+02  0.16565107488E+02 -0.14191024388E+01  0.59275554188E+02  0.47000000000E+01 0.  1.
         -5    1    5    5    0  503 -0.16593136617E+02 -0.70226724737E+02  0.58695109381E+02  0.93136088147E+02  0.47000000000E+01 0.  1.
<mgrwt>
<rscale>  0 0.28631102E+03</rscale>
<asrwt>0</asrwt>
<pdfrwt beam="1">  1        2 0.38387277E-01 0.28631102E+03</pdfrwt>
<pdfrwt beam="2">  1       -2 0.12635782E-01 0.28631102E+03</pdfrwt>
<totfact> 0.60421049E+03</totfact>
</mgrwt>
</event>
<event>
 9    1  0.8122655E-001  0.2725946E+03  0.7818608E-02  0.1099804E+00
         -1   -1    0    0    0  501 -0.00000000000E+00  0.00000000000E+00  0.62146368706E+01  0.62146368706E+01  0.00000000000E+00 0.  1.
          1   -1    0    0  501    0  0.00000000000E+00 -0.00000000000E+00 -0.29892257829E+04  0.29892257829E+04  0.00000000000E+00 0.  1.
         35    2    1    2    0    0  0.35527136788E-14  0.71054273576E-14 -0.29830111461E+04  0.29954404198E+04  0.27259459103E+03 0.  0.
         25    2    3    3    0    0  0.14696317481E+02  0.75643947004E+01 -0.20623430197E+04  0.20662147923E+04  0.12534606248E+03 0.  0.
         25    2    3    3    0    0 -0.14696317481E+02 -0.75643947004E+01 -0.92066812640E+03  0.92922562750E+03  0.12472876980E+03 0.  0.
          5    1    4    4  502    0  0.43383472517E+02 -0.38580506135E+02 -0.59148404519E+03  0.59434505706E+03  0.47000000000E+01 0.  1.
         -5    1    4    4    0  502 -0.28687155036E+02  0.46144900835E+02 -0.14708589745E+04  0.14718697352E+04  0.47000000000E+01 0.  1.
          5    1    5    5  503    0 -0.38904823776E+00 -0.34392243479E+02 -0.86439272799E+03  0.86508950749E+03  0.47000000000E+01 0.  1.
         -5    1    5    5    0  503 -0.14307269243E+02  0.26827848778E+02 -0.56275398411E+02  0.64136120007E+02  0.47000000000E+01 0.  1.
<mgrwt>
<rscale>  0 0.27259459E+03</rscale>
<asrwt>0</asrwt>
<pdfrwt beam="1">  1        1 0.45988056E+00 0.27259459E+03</pdfrwt>
<pdfrwt beam="2">  1       -1 0.95609867E-03 0.27259459E+03</pdfrwt>
<totfact> 0.14786685E+03</totfact>
</mgrwt>
</event>
<event>
 9    1  0.8122655E-001  0.2778953E+03  0.7818608E-02  0.1096844E+00
          2   -1    0    0  501    0  0.00000000000E+00  0.00000000000E+00  0.47207333055E+03  0.47207333055E+03  0.00000000000E+00 0. -1.
         -2   -1    0    0    0  501 -0.00000000000E+00 -0.00000000000E+00 -0.40897131043E+02  0.40897131043E+02  0.00000000000E+00 0. -1.
         35    2    1    2    0    0  0.00000000000E+00  0.00000000000E+00  0.43117619950E+03  0.51297046159E+03  0.27789526704E+03 0.  0.
         25    2    3    3    0    0  0.20606849872E+02  0.12818085637E+02  0.11457895814E+03  0.17126694025E+03  0.12496032008E+03 0.  0.
         25    2    3    3    0    0 -0.20606849872E+02 -0.12818085637E+02  0.31659724136E+03  0.34170352134E+03  0.12624792146E+03 0.  0.
          5    1    4    4  502    0  0.39819635995E+02 -0.48431157719E+02  0.59165337572E+02  0.86335436634E+02  0.47000000000E+01 0. -1.
         -5    1    4    4    0  502 -0.19212786123E+02  0.61249243356E+02  0.55413620568E+02  0.84931503618E+02  0.47000000000E+01 0. -1.
          5    1    5    5  503    0 -0.41365168368E+02 -0.28172075409E+00  0.23978173439E+02  0.48043723025E+02  0.47000000000E+01 0. -1.
         -5    1    5    5    0  503  0.20758318496E+02 -0.12536364883E+02  0.29261906792E+03  0.29365979831E+03  0.47000000000E+01 0. -1.
<mgrwt>
<rscale>  0 0.27789527E+03</rscale>
<asrwt>0</asrwt>
<pdfrwt beam="1">  1        2 0.72626662E-01 0.27789527E+03</pdfrwt>
<pdfrwt beam="2">  1       -2 0.62918666E-02 0.27789527E+03</pdfrwt>
<totfact> 0.90847660E+03</totfact>
</mgrwt>
</event>
<event>
 9    1  0.8122655E-001  0.2725559E+03  0.7818608E-02  0.1099826E+00
          1   -1    0    0  501    0  0.00000000000E+00  0.00000000000E+00  0.70242306784E+03  0.70242306784E+03  0.00000000000E+00 0.  1.
         -1   -1    0    0    0  501 -0.00000000000E+00 -0.00000000000E+00 -0.26439445042E+02  0.26439445042E+02  0.00000000000E+00 0.  1.
         35    2    1    2    0    0  0.00000000000E+00 -0.35527136788E-14  0.67598362279E+03  0.72886251288E+03  0.27255587389E+03 0.  0.
         25    2    3    3    0    0 -0.18888205594E+02  0.19883032112E+01  0.48367585158E+03  0.49930849083E+03  0.12249866102E+03 0.  0.
         25    2    3    3    0    0  0.18888205594E+02 -0.19883032112E+01  0.19230777122E+03  0.22955402205E+03  0.12390339991E+03 0.  0.
          5    1    4    4  502    0  0.27666515470E+02 -0.17743189075E+02  0.40037510977E+03  0.40174939372E+03  0.47000000000E+01 0. -1.
         -5    1    4    4    0  502 -0.46554721064E+02  0.19731492287E+02  0.83300741811E+02  0.97559097102E+02  0.47000000000E+01 0. -1.
          5    1    5    5  503    0 -0.38414770039E+02  0.30412327469E+02  0.39523808935E+02  0.63125475776E+02  0.47000000000E+01 0.  1.
         -5    1    5    5    0  503  0.57302975633E+02 -0.32400630680E+02  0.15278396228E+03  0.16642854628E+03  0.47000000000E+01 0.  1.
<mgrwt>
<rscale>  0 0.27255587E+03</rscale>
<asrwt>0</asrwt>
<pdfrwt beam="1">  1        1 0.10806507E+00 0.27255587E+03</pdfrwt>
<pdfrwt beam="2">  1       -1 0.40676075E-02 0.27255587E+03</pdfrwt>
<totfact> 0.67060913E+03</totfact>
</mgrwt>
</event>
<event>
 9    1  0.8122655E-001  0.2729490E+03  0.7818608E-02  0.1099604E+00
         -2   -1    0    0    0  501 -0.00000000000E+00  0.00000000000E+00  0.19390968690E+02  0.19390968690E+02  0.00000000000E+00 0. -1.
          2   -1    0    0  501    0  0.00000000000E+00 -0.00000000000E+00 -0.96051339098E+03  0.96051339098E+03  0.00000000000E+00 0. -1.
         35    2    1    2    0    0  0.71054273576E-14 -0.35527136788E-14 -0.94112242229E+03  0.97990435967E+03  0.27294897025E+03 0.  0.
         25    2    3    3    0    0 -0.47248132536E+02 -0.23486842823E+02 -0.40111868673E+03  0.42331770310E+03  0.12456989642E+03 0.  0.
         25    2    3    3    0    0  0.47248132536E+02  0.23486842823E+02 -0.54000373555E+03  0.55658665657E+03  0.12409937167E+03 0.  0.
          5    1    4    4  502    0 -0.76804638785E+02 -0.17567981751E+02 -0.14243807889E+03  0.16284435157E+03  0.47000000000E+01 0. -1.
         -5    1    4    4    0  502  0.29556506249E+02 -0.59188610720E+01 -0.25868060785E+03  0.26047335152E+03  0.47000000000E+01 0. -1.
          5    1    5    5  503    0  0.83253879737E+02  0.59338529187E+01 -0.24569967074E+03  0.25953195815E+03  0.47000000000E+01 0. -1.
         -5    1    5    5    0  503 -0.36005747201E+02  0.17552989904E+02 -0.29430406482E+03  0.29705469842E+03  0.47000000000E+01 0. -1.
<mgrwt>
<rscale>  0 0.27294897E+03</rscale>
<asrwt>0</asrwt>
<pdfrwt beam="1">  1        2 0.14777129E+00 0.27294897E+03</pdfrwt>
<pdfrwt beam="2">  1       -2 0.29832260E-02 0.27294897E+03</pdfrwt>
<totfact> 0.11832937E+04</totfact>
</mgrwt>
</event>
<event>
 9    1  0.8122655E-001  0.2706873E+03  0.7818608E-02  0.1100887E+00
         -2   -1    0    0    0  501 -0.00000000000E+00  0.00000000000E+00  0.78920261517E+02  0.78920261517E+02  0.00000000000E+00 0. -1.
          2   -1    0    0  501    0  0.00000000000E+00 -0.00000000000E+00 -0.23210651081E+03  0.23210651081E+03  0.00000000000E+00 0. -1.
         35    2    1    2    0    0  0.00000000000E+00 -0.71054273576E-14 -0.15318624930E+03  0.31102677233E+03  0.27068732171E+03 0.  0.
         25    2    3    3    0    0 -0.15079887388E+02 -0.27005145713E+02 -0.12200346664E+03  0.17734961794E+03  0.12494542895E+03 0.  0.
         25    2    3    3    0    0  0.15079887388E+02  0.27005145713E+02 -0.31182782659E+02  0.13367715439E+03  0.12625583064E+03 0.  0.
          5    1    4    4  502    0 -0.62504005869E+02  0.50734147923E+01 -0.31958796378E+02  0.70540378177E+02  0.47000000000E+01 0.  1.
         -5    1    4    4    0  502  0.47424118481E+02 -0.32078560505E+02 -0.90044670259E+02  0.10680923977E+03  0.47000000000E+01 0.  1.
          5    1    5    5  503    0 -0.45785844658E+02 -0.37874590348E+00  0.19250017079E+02  0.49891283578E+02  0.47000000000E+01 0. -1.
         -5    1    5    5    0  503  0.60865732046E+02  0.27383891616E+02 -0.50432799738E+02  0.83785870808E+02  0.47000000000E+01 0. -1.
<mgrwt>
<rscale>  0 0.27068732E+03</rscale>
<asrwt>0</asrwt>
<pdfrwt beam="1">  1        2 0.35708694E-01 0.27068732E+03</pdfrwt>
<pdfrwt beam="2">  1       -2 0.12141579E-01 0.27068732E+03</pdfrwt>
<totfact> 0.69568934E+03</totfact>
</mgrwt>
</event>
<event>
 9    1  0.8122655E-001  0.2766274E+03  0.7818608E-02  0.1097545E+00
          1   -1    0    0  501    0  0.00000000000E+00  0.00000000000E+00  0.15476885442E+04  0.15476885442E+04  0.00000000000E+00 0.  1.
         -1   -1    0    0    0  501 -0.00000000000E+00 -0.00000000000E+00 -0.12360804313E+02  0.12360804313E+02  0.00000000000E+00 0.  1.
         35    2    1    2    0    0  0.00000000000E+00  0.35527136788E-14  0.15353277399E+04  0.15600493485E+04  0.27662736836E+03 0.  0.
         25    2    3    3    0    0  0.95632545477E+01 -0.18782514638E+02  0.10708645457E+04  0.10783546881E+04  0.12511482526E+03 0.  0.
         25    2    3    3    0    0 -0.95632545477E+01  0.18782514638E+02  0.46446319416E+03  0.48169466034E+03  0.12593430186E+03 0.  0.
          5    1    4    4  502    0  0.25721252165E+01  0.12399312639E+02  0.10040660749E+04  0.10041569257E+04  0.47000000000E+01 0.  1.
         -5    1    4    4    0  502  0.69911293312E+01 -0.31181827278E+02  0.66798470837E+02  0.74197762418E+02  0.47000000000E+01 0.  1.
          5    1    5    5  503    0  0.22403039341E+01 -0.41564121451E+02  0.63861085768E+02  0.76373578082E+02  0.47000000000E+01 0.  1.
         -5    1    5    5    0  503 -0.11803558482E+02  0.60346636089E+02  0.40060210839E+03  0.40532108226E+03  0.47000000000E+01 0.  1.
<mgrwt>
<rscale>  0 0.27662737E+03</rscale>
<asrwt>0</asrwt>
<pdfrwt beam="1">  1        1 0.23810578E+00 0.27662737E+03</pdfrwt>
<pdfrwt beam="2">  1       -1 0.19016634E-02 0.27662737E+03</pdfrwt>
<totfact> 0.49129047E+03</totfact>
</mgrwt>
</event>
<event>
 9    1  0.8122655E-001  0.2671057E+03  0.7818608E-02  0.1102948E+00
         -2   -1    0    0    0  501 -0.00000000000E+00  0.00000000000E+00  0.35172579805E+02  0.35172579805E+02  0.00000000000E+00 0. -1.
          2   -1    0    0  501    0  0.00000000000E+00 -0.00000000000E+00 -0.50710997086E+03  0.50710997086E+03  0.00000000000E+00 0. -1.
         35    2    1    2    0    0 -0.35527136788E-14 -0.35527136788E-14 -0.47193739106E+03  0.54228255067E+03  0.26710571630E+03 0.  0.
         25    2    3    3    0    0  0.20800843666E+02  0.29498370310E+02 -0.17357381764E+03  0.21687355199E+03  0.12491372398E+03 0.  0.
         25    2    3    3    0    0 -0.20800843666E+02 -0.29498370310E+02 -0.29836357342E+03  0.32540899868E+03  0.12476924912E+03 0.  0.
          5    1    4    4  502    0  0.66261516862E+02  0.17060292211E+01 -0.13642879954E+03  0.15175113343E+03  0.47000000000E+01 0. -1.
         -5    1    4    4    0  502 -0.45460673196E+02  0.27792341089E+02 -0.37145018096E+02  0.65122418567E+02  0.47000000000E+01 0. -1.
          5    1    5    5  503    0 -0.46903765304E+01  0.18520784316E+02  0.28943175599E+01  0.19886833781E+02  0.47000000000E+01 0. -1.
         -5    1    5    5    0  503 -0.16110467135E+02 -0.48019154626E+02 -0.30125789098E+03  0.30552216489E+03  0.47000000000E+01 0. -1.
<mgrwt>
<rscale>  0 0.26710572E+03</rscale>
<asrwt>0</asrwt>
<pdfrwt beam="1">  1        2 0.78016916E-01 0.26710572E+03</pdfrwt>
<pdfrwt beam="2">  1       -2 0.54111663E-02 0.26710572E+03</pdfrwt>
<totfact> 0.10550782E+04</totfact>
</mgrwt>
</event>
<event>
 9    1  0.8122655E-001  0.2734379E+03  0.7818608E-02  0.1099328E+00
         -1   -1    0    0    0  501 -0.00000000000E+00  0.00000000000E+00  0.76525681156E+02  0.76525681156E+02  0.00000000000E+00 0. -1.
          1   -1    0    0  501    0  0.00000000000E+00 -0.00000000000E+00 -0.24425886697E+03  0.24425886697E+03  0.00000000000E+00 0. -1.
         35    2    1    2    0    0  0.71054273576E-14 -0.71054273576E-14 -0.16773318581E+03  0.32078454812E+03  0.27343793572E+03 0.  0.
         25    2    3    3    0    0 -0.48927916575E+02  0.15889668880E+02 -0.69971986971E+02  0.15227940192E+03  0.12508602917E+03 0.  0.
         25    2    3    3    0    0  0.48927916575E+02 -0.15889668880E+02 -0.97761198840E+02  0.16850514620E+03  0.12724114782E+03 0.  0.
          5    1    4    4  502    0 -0.27656587941E+02 -0.13623720908E+02 -0.10007793537E+03  0.10482449988E+03  0.47000000000E+01 0.  1.
         -5    1    4    4    0  502 -0.21271328633E+02  0.29513389788E+02  0.30105948400E+02  0.47454902040E+02  0.47000000000E+01 0.  1.
          5    1    5    5  503    0 -0.29810729937E+01  0.51617939408E+02 -0.34962947380E+02  0.62592301079E+02  0.47000000000E+01 0. -1.
         -5    1    5    5    0  503  0.51908989568E+02 -0.67507608288E+02 -0.62798251460E+02  0.10591284512E+03  0.47000000000E+01 0. -1.
<mgrwt>
<rscale>  0 0.27343794E+03</rscale>
<asrwt>0</asrwt>
<pdfrwt beam="1">  1        1 0.37578287E-01 0.27343794E+03</pdfrwt>
<pdfrwt beam="2">  1       -1 0.11773182E-01 0.27343794E+03</pdfrwt>
<totfact> 0.53309006E+03</totfact>
</mgrwt>
</event>
<event>
 9    1  0.8122655E-001  0.2744128E+03  0.7818608E-02  0.1098780E+00
          2   -1    0    0  501    0  0.00000000000E+00  0.00000000000E+00  0.22098652007E+04  0.22098652007E+04  0.00000000000E+00 0.  1.
         -2   -1    0    0    0  501 -0.00000000000E+00 -0.00000000000E+00 -0.85188877920E+01  0.85188877920E+01  0.00000000000E+00 0.  1.
         35    2    1    2    0    0  0.14210854715E-13  0.00000000000E+00  0.22013463129E+04  0.22183840885E+04  0.27441278163E+03 0.  0.
         25    2    3    3    0    0 -0.43273681959E+02 -0.30014423999E+02  0.13197606245E+04  0.13264944426E+04  0.12266182426E+03 0.  0.
         25    2    3    3    0    0  0.43273681959E+02  0.30014423999E+02  0.88158568838E+03  0.89188964584E+03  0.12450035022E+03 0.  0.
          5    1    4    4  502    0 -0.68367376265E+02 -0.29381665422E+02  0.43347280616E+03  0.43983877055E+03  0.47000000000E+01 0. -1.
         -5    1    4    4    0  502  0.25093694307E+02 -0.63275857739E+00  0.88628781836E+03  0.88665567209E+03  0.47000000000E+01 0. -1.
          5    1    5    5  503    0  0.67415659358E+02 -0.26505730970E+02  0.42366306740E+03  0.42983707330E+03  0.47000000000E+01 0.  1.
         -5    1    5    5    0  503 -0.24141977399E+02  0.56520154969E+02  0.45792262097E+03  0.46205257254E+03  0.47000000000E+01 0.  1.
<mgrwt>
<rscale>  0 0.27441278E+03</rscale>
<asrwt>0</asrwt>
<pdfrwt beam="1">  1        2 0.33997881E+00 0.27441278E+03</pdfrwt>
<pdfrwt beam="2">  1       -2 0.13105999E-02 0.27441278E+03</pdfrwt>
<totfact> 0.82687991E+03</totfact>
</mgrwt>
</event>
<event>
 9    1  0.8122655E-001  0.2792801E+03  0.7818608E-02  0.1096083E+00
          2   -1    0    0  501    0  0.00000000000E+00  0.00000000000E+00  0.82638400295E+03  0.82638400295E+03  0.00000000000E+00 0.  1.
         -2   -1    0    0    0  501 -0.00000000000E+00 -0.00000000000E+00 -0.23595988252E+02  0.23595988252E+02  0.00000000000E+00 0.  1.
         35    2    1    2    0    0 -0.71054273576E-14 -0.35527136788E-14  0.80278801470E+03  0.84997999120E+03  0.27928012622E+03 0.  0.
         25    2    3    3    0    0 -0.52472340855E+02 -0.74879773466E+01  0.31106171775E+03  0.33962604435E+03  0.12560669326E+03 0.  0.
         25    2    3    3    0    0  0.52472340855E+02  0.74879773466E+01  0.49172629695E+03  0.51035394685E+03  0.12592451547E+03 0.  0.
          5    1    4    4  502    0 -0.55574516593E+02 -0.34733407443E+02  0.30386717712E+03  0.31088951063E+03  0.47000000000E+01 0. -1.
         -5    1    4    4    0  502  0.31021757387E+01  0.27245430096E+02  0.71945406257E+01  0.28736533720E+02  0.47000000000E+01 0. -1.
          5    1    5    5  503    0 -0.17018815539E+02 -0.27276361068E+02  0.37995088001E+02  0.49993566263E+02  0.47000000000E+01 0. -1.
         -5    1    5    5    0  503  0.69491156394E+02  0.34764338415E+02  0.45373120895E+03  0.46036038059E+03  0.47000000000E+01 0. -1.
<mgrwt>
<rscale>  0 0.27928013E+03</rscale>
<asrwt>0</asrwt>
<pdfrwt beam="1">  1        2 0.12713598E+00 0.27928013E+03</pdfrwt>
<pdfrwt beam="2">  1       -2 0.36301527E-02 0.27928013E+03</pdfrwt>
<totfact> 0.10795963E+04</totfact>
</mgrwt>
</event>
<event>
 9    1  0.8122655E-001  0.2749922E+03  0.7818608E-02  0.1098456E+00
          2   -1    0    0  501    0  0.00000000000E+00  0.00000000000E+00  0.28020062830E+04  0.28020062830E+04  0.00000000000E+00 0. -1.
         -2   -1    0    0    0  501 -0.00000000000E+00 -0.00000000000E+00 -0.67470164312E+01  0.67470164312E+01  0.00000000000E+00 0. -1.
         35    2    1    2    0    0 -0.17763568394E-14  0.00000000000E+00  0.27952592665E+04  0.28087532994E+04  0.27499223576E+03 0.  0.
         25    2    3    3    0    0 -0.12271125964E+02  0.52761077991E+02  0.15572455610E+04  0.15631839314E+04  0.12488376295E+03 0.  0.
         25    2    3    3    0    0  0.12271125964E+02 -0.52761077991E+02  0.12380137055E+04  0.12455693680E+04  0.12582052106E+03 0.  0.
          5    1    4    4  502    0 -0.18080187230E+02 -0.19128720460E+02  0.83699786219E+02  0.87866633769E+02  0.47000000000E+01 0.  1.
         -5    1    4    4    0  502  0.58090612663E+01  0.71889798451E+02  0.14735457748E+04  0.14753172977E+04  0.47000000000E+01 0.  1.
          5    1    5    5  503    0 -0.28647132848E+02 -0.81568284393E+02  0.75544087542E+03  0.76038611869E+03  0.47000000000E+01 0.  1.
         -5    1    5    5    0  503  0.40918258812E+02  0.28807206402E+02  0.48257283007E+03  0.48518324927E+03  0.47000000000E+01 0.  1.
<mgrwt>
<rscale>  0 0.27499224E+03</rscale>
<asrwt>0</asrwt>
<pdfrwt beam="1">  1        2 0.43107696E+00 0.27499224E+03</pdfrwt>
<pdfrwt beam="2">  1       -2 0.10380048E-02 0.27499224E+03</pdfrwt>
<totfact> 0.54877264E+03</totfact>
</mgrwt>
</event>
<event>
 9    1  0.8122655E-001  0.2718796E+03  0.7818608E-02  0.1100209E+00
          1   -1    0    0  501    0  0.00000000000E+00  0.00000000000E+00  0.18000535430E+02  0.18000535430E+02  0.00000000000E+00 0. -1.
         -1   -1    0    0    0  501 -0.00000000000E+00 -0.00000000000E+00 -0.10266158736E+04  0.10266158736E+04  0.00000000000E+00 0. -1.
         35    2    1    2    0    0  0.00000000000E+00 -0.71054273576E-14 -0.10086153381E+04  0.10446164090E+04  0.27187964547E+03 0.  0.
         25    2    3    3    0    0  0.44248157101E+02 -0.29704540120E+02 -0.54083131632E+03  0.55757536588E+03  0.12470572085E+03 0.  0.
         25    2    3    3    0    0 -0.44248157101E+02  0.29704540120E+02 -0.46778402183E+03  0.48704104313E+03  0.12468691793E+03 0.  0.
          5    1    4    4  502    0  0.46481813369E+02 -0.67139824180E+02 -0.22342523173E+03  0.23792696178E+03  0.47000000000E+01 0.  1.
         -5    1    4    4    0  502 -0.22336562677E+01  0.37435284061E+02 -0.31740608459E+03  0.31964840411E+03  0.47000000000E+01 0.  1.
          5    1    5    5  503    0 -0.15952304926E+02 -0.48386851462E+02 -0.21110015688E+03  0.21721217659E+03  0.47000000000E+01 0.  1.
         -5    1    5    5    0  503 -0.28295852175E+02  0.78091391582E+02 -0.25668386495E+03  0.26982886653E+03  0.47000000000E+01 0.  1.
<mgrwt>
<rscale>  0 0.27187965E+03</rscale>
<asrwt>0</asrwt>
<pdfrwt beam="1">  1        1 0.27693129E-02 0.27187965E+03</pdfrwt>
<pdfrwt beam="2">  1       -1 0.15794092E+00 0.27187965E+03</pdfrwt>
<totfact> 0.12567948E+03</totfact>
</mgrwt>
</event>
<event>
 9    1  0.8122655E-001  0.2823616E+03  0.7818608E-02  0.1094406E+00
          2   -1    0    0  501    0  0.00000000000E+00  0.00000000000E+00  0.57965049614E+03  0.57965049614E+03  0.00000000000E+00 0.  1.
         -2   -1    0    0    0  501 -0.00000000000E+00 -0.00000000000E+00 -0.34386267169E+02  0.34386267169E+02  0.00000000000E+00 0.  1.
         35    2    1    2    0    0  0.00000000000E+00  0.00000000000E+00  0.54526422897E+03  0.61403676331E+03  0.28236158963E+03 0.  0.
         25    2    3    3    0    0  0.63095209067E+02  0.20378619178E+02  0.26593303383E+03  0.30093121133E+03  0.12426955358E+03 0.  0.
         25    2    3    3    0    0 -0.63095209067E+02 -0.20378619178E+02  0.27933119515E+03  0.31310555198E+03  0.12495149687E+03 0.  0.
          5    1    4    4  502    0  0.91790563442E+02 -0.36094065599E+01  0.23434574717E+03  0.25175097730E+03  0.47000000000E+01 0. -1.
         -5    1    4    4    0  502 -0.28695354375E+02  0.23988025738E+02  0.31587286655E+02  0.49180234035E+02  0.47000000000E+01 0. -1.
          5    1    5    5  503    0 -0.56644830978E+02 -0.13366773689E+02  0.29130435658E+03  0.29709868003E+03  0.47000000000E+01 0. -1.
         -5    1    5    5    0  503 -0.64503780896E+01 -0.70118454896E+01 -0.11973161435E+02  0.16006871944E+02  0.47000000000E+01 0. -1.
<mgrwt>
<rscale>  0 0.28236159E+03</rscale>
<asrwt>0</asrwt>
<pdfrwt beam="1">  1        2 0.89176992E-01 0.28236159E+03</pdfrwt>
<pdfrwt beam="2">  1       -2 0.52901954E-02 0.28236159E+03</pdfrwt>
<totfact> 0.94021245E+03</totfact>
</mgrwt>
</event>
<event>
 9    1  0.8122655E-001  0.2754047E+03  0.7818608E-02  0.1098226E+00
         -4   -1    0    0    0  501 -0.00000000000E+00  0.00000000000E+00  0.14633004619E+03  0.14633004619E+03  0.00000000000E+00 0.  1.
          4   -1    0    0  501    0  0.00000000000E+00 -0.00000000000E+00 -0.12958331401E+03  0.12958331401E+03  0.00000000000E+00 0.  1.
         35    2    1    2    0    0  0.71054273576E-14  0.35527136788E-14  0.16746732189E+02  0.27591336020E+03  0.27540466463E+03 0.  0.
         25    2    3    3    0    0  0.50482475524E+02 -0.10581827670E+02  0.48841467403E+02  0.14423354585E+03  0.12552836890E+03 0.  0.
         25    2    3    3    0    0 -0.50482475524E+02  0.10581827670E+02 -0.32094735214E+02  0.13167981435E+03  0.11682913193E+03 0.  0.
          5    1    4    4  502    0  0.59815887165E+02 -0.48738134469E+02 -0.49515117304E+01  0.77459367266E+02  0.47000000000E+01 0.  1.
         -5    1    4    4    0  502 -0.93334116410E+01  0.38156306799E+02  0.53792979134E+02  0.66774178583E+02  0.47000000000E+01 0.  1.
          5    1    5    5  503    0  0.11864408634E+02 -0.30097016358E+02 -0.45364800383E+02  0.55916452853E+02  0.47000000000E+01 0.  1.
         -5    1    5    5    0  503 -0.62346884158E+02  0.40678844028E+02  0.13270065169E+02  0.75763361497E+02  0.47000000000E+01 0.  1.
<mgrwt>
<rscale>  0 0.27540466E+03</rscale>
<asrwt>0</asrwt>
<pdfrwt beam="1">  1        4 0.19935894E-01 0.27540466E+03</pdfrwt>
<pdfrwt beam="2">  1       -4 0.22512315E-01 0.27540466E+03</pdfrwt>
<totfact> 0.77402812E+02</totfact>
</mgrwt>
</event>
<event>
 9    1  0.8122655E-001  0.2768860E+03  0.7818608E-02  0.1097402E+00
         -2   -1    0    0    0  501 -0.00000000000E+00  0.00000000000E+00  0.45914869405E+02  0.45914869405E+02  0.00000000000E+00 0. -1.
          2   -1    0    0  501    0  0.00000000000E+00 -0.00000000000E+00 -0.41743491878E+03  0.41743491878E+03  0.00000000000E+00 0. -1.
         35    2    1    2    0    0  0.00000000000E+00  0.00000000000E+00 -0.37152004937E+03  0.46334978819E+03  0.27688603996E+03 0.  0.
         25    2    3    3    0    0  0.54450959435E+02  0.14237362635E+02 -0.23563487851E+03  0.27279003411E+03  0.12539137635E+03 0.  0.
         25    2    3    3    0    0 -0.54450959435E+02 -0.14237362635E+02 -0.13588517087E+03  0.19055975407E+03  0.12116365269E+03 0.  0.
          5    1    4    4  502    0  0.62320386939E+02  0.60982926794E+02 -0.12649029338E+03  0.15370306538E+03  0.47000000000E+01 0. -1.
         -5    1    4    4    0  502 -0.78694275046E+01 -0.46745564160E+02 -0.10914458513E+03  0.11908696873E+03  0.47000000000E+01 0. -1.
          5    1    5    5  503    0  0.14598842646E+02 -0.44254923906E+02 -0.92124779191E+02  0.10334742105E+03  0.47000000000E+01 0.  1.
         -5    1    5    5    0  503 -0.69049802081E+02  0.30017561271E+02 -0.43760391674E+02  0.87212333025E+02  0.47000000000E+01 0.  1.
<mgrwt>
<rscale>  0 0.27688604E+03</rscale>
<asrwt>0</asrwt>
<pdfrwt beam="1">  1        2 0.64220759E-01 0.27688604E+03</pdfrwt>
<pdfrwt beam="2">  1       -2 0.70638258E-02 0.27688604E+03</pdfrwt>
<totfact> 0.86973630E+03</totfact>
</mgrwt>
</event>
<event>
 9    1  0.8122655E-001  0.2699137E+03  0.7818608E-02  0.1101329E+00
          2   -1    0    0  501    0  0.00000000000E+00  0.00000000000E+00  0.40594228144E+03  0.40594228144E+03  0.00000000000E+00 0. -1.
         -2   -1    0    0    0  501 -0.00000000000E+00 -0.00000000000E+00 -0.44866849398E+02  0.44866849398E+02  0.00000000000E+00 0. -1.
         35    2    1    2    0    0  0.71054273576E-14 -0.17763568394E-14  0.36107543204E+03  0.45080913084E+03  0.26991369884E+03 0.  0.
         25    2    3    3    0    0 -0.39223004772E+02 -0.68626433721E+01  0.11600874756E+03  0.17473261061E+03  0.12445045489E+03 0.  0.
         25    2    3    3    0    0  0.39223004772E+02  0.68626433721E+01  0.24506668448E+03  0.27607652023E+03  0.12072706905E+03 0.  0.
          5    1    4    4  502    0 -0.79682190014E+02 -0.27855586691E+02  0.69492420594E+02  0.10943706701E+03  0.47000000000E+01 0. -1.
         -5    1    4    4    0  502  0.40459185242E+02  0.20992943319E+02  0.46516326966E+02  0.65295543600E+02  0.47000000000E+01 0. -1.
          5    1    5    5  503    0  0.33525730571E+02  0.11873960535E+02  0.25793384376E+03  0.26041682608E+03  0.47000000000E+01 0. -1.
         -5    1    5    5    0  503  0.56972742006E+01 -0.50113171627E+01 -0.12867159277E+02  0.15659694150E+02  0.47000000000E+01 0. -1.
<mgrwt>
<rscale>  0 0.26991370E+03</rscale>
<asrwt>0</asrwt>
<pdfrwt beam="1">  1        2 0.62452656E-01 0.26991370E+03</pdfrwt>
<pdfrwt beam="2">  1       -2 0.69025925E-02 0.26991370E+03</pdfrwt>
<totfact> 0.92830560E+03</totfact>
</mgrwt>
</event>
<event>
 9    1  0.8122655E-001  0.2755938E+03  0.7818608E-02  0.1098120E+00
         -4   -1    0    0    0  501 -0.00000000000E+00  0.00000000000E+00  0.12657912958E+03  0.12657912958E+03  0.00000000000E+00 0.  1.
          4   -1    0    0  501    0  0.00000000000E+00 -0.00000000000E+00 -0.15000884411E+03  0.15000884411E+03  0.00000000000E+00 0.  1.
         35    2    1    2    0    0 -0.71054273576E-14  0.71054273576E-14 -0.23429714530E+02  0.27658797369E+03  0.27559382371E+03 0.  0.
         25    2    3    3    0    0 -0.30076070249E+02  0.34792157622E+02 -0.44256342975E+02  0.14132608731E+03  0.12609272313E+03 0.  0.
         25    2    3    3    0    0  0.30076070249E+02 -0.34792157622E+02  0.20826628445E+02  0.13526188639E+03  0.12548691256E+03 0.  0.
          5    1    4    4  502    0 -0.41925148398E+02  0.67664674328E+02  0.59676763067E+01  0.79962049627E+02  0.47000000000E+01 0. -1.
         -5    1    4    4    0  502  0.11849078149E+02 -0.32872516706E+02 -0.50224019281E+02  0.61364037680E+02  0.47000000000E+01 0. -1.
          5    1    5    5  503    0 -0.41165548788E+01  0.95642484996E+01 -0.46314403375E+02  0.47702566319E+02  0.47000000000E+01 0.  1.
         -5    1    5    5    0  503  0.34192625128E+02 -0.44356406122E+02  0.67141031820E+02  0.87559320069E+02  0.47000000000E+01 0.  1.
<mgrwt>
<rscale>  0 0.27559382E+03</rscale>
<asrwt>0</asrwt>
<pdfrwt beam="1">  1        4 0.23078284E-01 0.27559382E+03</pdfrwt>
<pdfrwt beam="2">  1       -4 0.19473712E-01 0.27559382E+03</pdfrwt>
<totfact> 0.77159999E+02</totfact>
</mgrwt>
</event>
<event>
 9    1  0.8122655E-001  0.2705964E+03  0.7818608E-02  0.1100939E+00
         -1   -1    0    0    0  501 -0.00000000000E+00  0.00000000000E+00  0.25381834660E+03  0.25381834660E+03  0.00000000000E+00 0.  1.
          1   -1    0    0  501    0  0.00000000000E+00 -0.00000000000E+00 -0.72120871151E+02  0.72120871151E+02  0.00000000000E+00 0.  1.
         35    2    1    2    0    0  0.71054273576E-14  0.00000000000E+00  0.18169747545E+03  0.32593921776E+03  0.27059638040E+03 0.  0.
         25    2    3    3    0    0  0.84165487440E+01 -0.26964951501E+02  0.38358843427E+02  0.13351971763E+03  0.12473238242E+03 0.  0.
         25    2    3    3    0    0 -0.84165487440E+01  0.26964951501E+02  0.14333863203E+03  0.19241950013E+03  0.12522521191E+03 0.  0.
          5    1    4    4  502    0  0.66151975089E+02 -0.15369592477E+02  0.13372527242E+02  0.69377393046E+02  0.47000000000E+01 0. -1.
         -5    1    4    4    0  502 -0.57735426345E+02 -0.11595359025E+02  0.24986316185E+02  0.64142324581E+02  0.47000000000E+01 0. -1.
          5    1    5    5  503    0 -0.53228669660E+02  0.40516429209E+02  0.38065489864E+02  0.77109946364E+02  0.47000000000E+01 0. -1.
         -5    1    5    5    0  503  0.44812120916E+02 -0.13551477707E+02  0.10527314216E+03  0.11530955377E+03  0.47000000000E+01 0. -1.
<mgrwt>
<rscale>  0 0.27059638E+03</rscale>
<asrwt>0</asrwt>
<pdfrwt beam="1">  1        1 0.11095519E-01 0.27059638E+03</pdfrwt>
<pdfrwt beam="2">  1       -1 0.39048976E-01 0.27059638E+03</pdfrwt>
<totfact> 0.35736104E+03</totfact>
</mgrwt>
</event>
<event>
 9    1  0.8122655E-001  0.2684850E+03  0.7818608E-02  0.1102150E+00
          1   -1    0    0  501    0  0.00000000000E+00  0.00000000000E+00  0.27963080843E+03  0.27963080843E+03  0.00000000000E+00 0. -1.
         -1   -1    0    0    0  501 -0.00000000000E+00 -0.00000000000E+00 -0.64445882624E+02  0.64445882624E+02  0.00000000000E+00 0. -1.
         35    2    1    2    0    0  0.14210854715E-13 -0.71054273576E-14  0.21518492581E+03  0.34407669106E+03  0.26848504062E+03 0.  0.
         25    2    3    3    0    0 -0.38364636141E+02  0.16521911370E+02  0.65473834163E+02  0.14780758737E+03  0.12575945715E+03 0.  0.
         25    2    3    3    0    0  0.38364636141E+02 -0.16521911370E+02  0.14971109165E+03  0.19626910369E+03  0.11984711611E+03 0.  0.
          5    1    4    4  502    0  0.82814348763E+00 -0.48863826751E+02  0.30940700279E+01  0.49193725776E+02  0.47000000000E+01 0.  1.
         -5    1    4    4    0  502 -0.39192779629E+02  0.65385738121E+02  0.62379764135E+02  0.98613861592E+02  0.47000000000E+01 0.  1.
          5    1    5    5  503    0  0.77429309030E+02 -0.15992856437E+02  0.13007626512E+03  0.15229246239E+03  0.47000000000E+01 0. -1.
         -5    1    5    5    0  503 -0.39064672889E+02 -0.52905493326E+00  0.19634826525E+02  0.43976641296E+02  0.47000000000E+01 0. -1.
<mgrwt>
<rscale>  0 0.26848504E+03</rscale>
<asrwt>0</asrwt>
<pdfrwt beam="1">  1        1 0.43020124E-01 0.26848504E+03</pdfrwt>
<pdfrwt beam="2">  1       -1 0.99147513E-02 0.26848504E+03</pdfrwt>
<totfact> 0.58699874E+03</totfact>
</mgrwt>
</event>
<event>
 9    1  0.8122655E-001  0.2766252E+03  0.7818608E-02  0.1097547E+00
         -1   -1    0    0    0  501 -0.00000000000E+00  0.00000000000E+00  0.29800492494E+02  0.29800492494E+02  0.00000000000E+00 0. -1.
          1   -1    0    0  501    0  0.00000000000E+00 -0.00000000000E+00 -0.64194815421E+03  0.64194815421E+03  0.00000000000E+00 0. -1.
         35    2    1    2    0    0  0.00000000000E+00  0.00000000000E+00 -0.61214766172E+03  0.67174864671E+03  0.27662516987E+03 0.  0.
         25    2    3    3    0    0  0.12724157801E+01  0.63920825016E+02 -0.30420922311E+03  0.33296910906E+03  0.11932177191E+03 0.  0.
         25    2    3    3    0    0 -0.12724157801E+01 -0.63920825016E+02 -0.30793843861E+03  0.33877953765E+03  0.12592856008E+03 0.  0.
          5    1    4    4  502    0 -0.49577117060E+02  0.67816580365E+02 -0.19177198898E+03  0.20941720289E+03  0.47000000000E+01 0.  1.
         -5    1    4    4    0  502  0.50849532840E+02 -0.38957553498E+01 -0.11243723413E+03  0.12355190617E+03  0.47000000000E+01 0.  1.
          5    1    5    5  503    0 -0.40978533237E+02 -0.38071925099E+02 -0.27551885178E+03  0.28117866091E+03  0.47000000000E+01 0. -1.
         -5    1    5    5    0  503  0.39706117457E+02 -0.25848899916E+02 -0.32419586830E+02  0.57600876735E+02  0.47000000000E+01 0. -1.
<mgrwt>
<rscale>  0 0.27662517E+03</rscale>
<asrwt>0</asrwt>
<pdfrwt beam="1">  1        1 0.98761260E-01 0.27662517E+03</pdfrwt>
<pdfrwt beam="2">  1       -1 0.45846909E-02 0.27662517E+03</pdfrwt>
<totfact> 0.63889624E+03</totfact>
</mgrwt>
</event>
<event>
 9    1  0.8122655E-001  0.2649355E+03  0.7818608E-02  0.1104214E+00
          1   -1    0    0  501    0  0.00000000000E+00  0.00000000000E+00  0.94289540980E+03  0.94289540980E+03  0.00000000000E+00 0.  1.
         -1   -1    0    0    0  501 -0.00000000000E+00 -0.00000000000E+00 -0.18610452005E+02  0.18610452005E+02  0.00000000000E+00 0.  1.
         35    2    1    2    0    0 -0.71054273576E-14  0.00000000000E+00  0.92428495779E+03  0.96150586180E+03  0.26493553759E+03 0.  0.
         25    2    3    3    0    0  0.39763174437E+02 -0.29730133523E+01  0.51541744471E+03  0.53184017067E+03  0.12493548728E+03 0.  0.
         25    2    3    3    0    0 -0.39763174437E+02  0.29730133523E+01  0.40886751309E+03  0.42966569113E+03  0.12589683884E+03 0.  0.
          5    1    4    4  502    0  0.46121930520E+02  0.20337029432E+02  0.73557457911E+02  0.89295111039E+02  0.47000000000E+01 0. -1.
         -5    1    4    4    0  502 -0.63587560828E+01 -0.23310042785E+02  0.44185998680E+03  0.44254505963E+03  0.47000000000E+01 0. -1.
          5    1    5    5  503    0  0.41459933995E+02 -0.11333901136E+02  0.84184799074E+02  0.94639071408E+02  0.47000000000E+01 0.  1.
         -5    1    5    5    0  503 -0.81223108432E+02  0.14306914489E+02  0.32468271401E+03  0.33502661972E+03  0.47000000000E+01 0.  1.
<mgrwt>
<rscale>  0 0.26493554E+03</rscale>
<asrwt>0</asrwt>
<pdfrwt beam="1">  1        1 0.14506079E+00 0.26493554E+03</pdfrwt>
<pdfrwt beam="2">  1       -1 0.28631472E-02 0.26493554E+03</pdfrwt>
<totfact> 0.71288464E+03</totfact>
</mgrwt>
</event>
<event>
 9    1  0.8122655E-001  0.2653178E+03  0.7818608E-02  0.1103990E+00
         -2   -1    0    0    0  501 -0.00000000000E+00  0.00000000000E+00  0.25327090407E+02  0.25327090407E+02  0.00000000000E+00 0.  1.
          2   -1    0    0  501    0  0.00000000000E+00 -0.00000000000E+00 -0.69484449988E+03  0.69484449988E+03  0.00000000000E+00 0.  1.
         35    2    1    2    0    0  0.35527136788E-14  0.14210854715E-13 -0.66951740947E+03  0.72017159029E+03  0.26531784311E+03 0.  0.
         25    2    3    3    0    0 -0.19984555414E+02 -0.32595028306E+02 -0.28057500700E+03  0.30944968376E+03  0.12479965506E+03 0.  0.
         25    2    3    3    0    0  0.19984555414E+02  0.32595028306E+02 -0.38894240248E+03  0.41072190653E+03  0.12631101984E+03 0.  0.
          5    1    4    4  502    0 -0.37816979174E+02  0.40227370179E+01 -0.15684933339E+02  0.41405476218E+02  0.47000000000E+01 0.  1.
         -5    1    4    4    0  502  0.17832423761E+02 -0.36617765324E+02 -0.26489007366E+03  0.26804420754E+03  0.47000000000E+01 0.  1.
          5    1    5    5  503    0  0.29090166704E+02 -0.71039314191E+00 -0.36978293151E+03  0.37095585841E+03  0.47000000000E+01 0.  1.
         -5    1    5    5    0  503 -0.91056112902E+01  0.33305421448E+02 -0.19159470968E+02  0.39766048114E+02  0.47000000000E+01 0.  1.
<mgrwt>
<rscale>  0 0.26531784E+03</rscale>
<asrwt>0</asrwt>
<pdfrwt beam="1">  1        2 0.10689914E+00 0.26531784E+03</pdfrwt>
<pdfrwt beam="2">  1       -2 0.38964760E-02 0.26531784E+03</pdfrwt>
<totfact> 0.12029802E+04</totfact>
</mgrwt>
</event>
<event>
 9    1  0.8122655E-001  0.2755579E+03  0.7818608E-02  0.1098140E+00
         -1   -1    0    0    0  501 -0.00000000000E+00  0.00000000000E+00  0.22150586626E+03  0.22150586626E+03  0.00000000000E+00 0.  1.
          1   -1    0    0  501    0  0.00000000000E+00 -0.00000000000E+00 -0.85699912273E+02  0.85699912273E+02  0.00000000000E+00 0.  1.
         35    2    1    2    0    0  0.00000000000E+00  0.00000000000E+00  0.13580595399E+03  0.30720577853E+03  0.27555785822E+03 0.  0.
         25    2    3    3    0    0  0.61771079063E+01 -0.57184806304E+02  0.65457391550E+02  0.15250386784E+03  0.12515790372E+03 0.  0.
         25    2    3    3    0    0 -0.61771079063E+01  0.57184806304E+02  0.70348562438E+02  0.15470191070E+03  0.12520184584E+03 0.  0.
          5    1    4    4  502    0  0.18086380070E+02  0.37036250874E+02  0.10960484255E+02  0.42907146700E+02  0.47000000000E+01 0. -1.
         -5    1    4    4    0  502 -0.11909272164E+02 -0.94221057178E+02  0.54496907295E+02  0.10959672114E+03  0.47000000000E+01 0. -1.
          5    1    5    5  503    0  0.44394935535E+02  0.56030663457E+02  0.48426346949E+01  0.71804503058E+02  0.47000000000E+01 0. -1.
         -5    1    5    5    0  503 -0.50572043441E+02  0.11541428472E+01  0.65505927743E+02  0.82897407638E+02  0.47000000000E+01 0. -1.
<mgrwt>
<rscale>  0 0.27555786E+03</rscale>
<asrwt>0</asrwt>
<pdfrwt beam="1">  1        1 0.13184602E-01 0.27555786E+03</pdfrwt>
<pdfrwt beam="2">  1       -1 0.34077825E-01 0.27555786E+03</pdfrwt>
<totfact> 0.36070403E+03</totfact>
</mgrwt>
</event>
<event>
 9    1  0.8122655E-001  0.2741620E+03  0.7818608E-02  0.1098921E+00
         -2   -1    0    0    0  501 -0.00000000000E+00  0.00000000000E+00  0.46350765984E+02  0.46350765984E+02  0.00000000000E+00 0.  1.
          2   -1    0    0  501    0  0.00000000000E+00 -0.00000000000E+00 -0.40541304186E+03  0.40541304186E+03  0.00000000000E+00 0.  1.
         35    2    1    2    0    0  0.00000000000E+00  0.00000000000E+00 -0.35906227587E+03  0.45176380784E+03  0.27416203260E+03 0.  0.
         25    2    3    3    0    0 -0.43708374187E+02 -0.37815445411E+02 -0.18001575454E+03  0.22734464463E+03  0.12625167592E+03 0.  0.
         25    2    3    3    0    0  0.43708374187E+02  0.37815445411E+02 -0.17904652133E+03  0.22441916321E+03  0.12233508953E+03 0.  0.
          5    1    4    4  502    0 -0.87307955471E+02 -0.20899442002E+02 -0.99354546538E+02  0.13398836398E+03  0.47000000000E+01 0. -1.
         -5    1    4    4    0  502  0.43599581284E+02 -0.16916003409E+02 -0.80661208001E+02  0.93356280644E+02  0.47000000000E+01 0. -1.
          5    1    5    5  503    0  0.23922634595E+02  0.82482926549E+02 -0.11995080929E+03  0.14760085456E+03  0.47000000000E+01 0. -1.
         -5    1    5    5    0  503  0.19785739592E+02 -0.44667481138E+02 -0.59095712044E+02  0.76818308654E+02  0.47000000000E+01 0. -1.
<mgrwt>
<rscale>  0 0.27416203E+03</rscale>
<asrwt>0</asrwt>
<pdfrwt beam="1">  1        2 0.62371239E-01 0.27416203E+03</pdfrwt>
<pdfrwt beam="2">  1       -2 0.71308869E-02 0.27416203E+03</pdfrwt>
<totfact> 0.88449154E+03</totfact>
</mgrwt>
</event>
<event>
 9    1  0.8122655E-001  0.2693435E+03  0.7818608E-02  0.1101656E+00
         -2   -1    0    0    0  501 -0.00000000000E+00  0.00000000000E+00  0.32340313661E+03  0.32340313661E+03  0.00000000000E+00 0. -1.
          2   -1    0    0  501    0  0.00000000000E+00 -0.00000000000E+00 -0.56080119421E+02  0.56080119421E+02  0.00000000000E+00 0. -1.
         35    2    1    2    0    0  0.14210854715E-13  0.00000000000E+00  0.26732301719E+03  0.37948325603E+03  0.26934354659E+03 0.  0.
         25    2    3    3    0    0  0.33432602384E+02  0.26113536042E+02  0.11657598002E+03  0.17633897976E+03  0.12532286703E+03 0.  0.
         25    2    3    3    0    0 -0.33432602384E+02 -0.26113536042E+02  0.15074703717E+03  0.20314427627E+03  0.12939579629E+03 0.  0.
          5    1    4    4  502    0  0.50837650764E+02 -0.21825603832E+02  0.77488599898E+01  0.56062095474E+02  0.47000000000E+01 0. -1.
         -5    1    4    4    0  502 -0.17405048380E+02  0.47939139874E+02  0.10882712003E+03  0.12027688429E+03  0.47000000000E+01 0. -1.
          5    1    5    5  503    0  0.45468167381E+02 -0.33546065294E+02  0.59303645179E+02  0.82046968702E+02  0.47000000000E+01 0.  1.
         -5    1    5    5    0  503 -0.78900769764E+02  0.74325292522E+01  0.91443391993E+02  0.12109730757E+03  0.47000000000E+01 0.  1.
<mgrwt>
<rscale>  0 0.26934355E+03</rscale>
<asrwt>0</asrwt>
<pdfrwt beam="1">  1        2 0.86277109E-02 0.26934355E+03</pdfrwt>
<pdfrwt beam="2">  1       -2 0.49754327E-01 0.26934355E+03</pdfrwt>
<totfact> 0.29813502E+03</totfact>
</mgrwt>
</event>
<event>
 9    1  0.8122655E-001  0.2740752E+03  0.7818608E-02  0.1098970E+00
         -1   -1    0    0    0  501 -0.00000000000E+00  0.00000000000E+00  0.20815025184E+03  0.20815025184E+03  0.00000000000E+00 0.  1.
          1   -1    0    0  501    0  0.00000000000E+00 -0.00000000000E+00 -0.90219965413E+02  0.90219965413E+02  0.00000000000E+00 0.  1.
         35    2    1    2    0    0 -0.14210854715E-13  0.00000000000E+00  0.11793028642E+03  0.29837021725E+03  0.27407523435E+03 0.  0.
         25    2    3    3    0    0 -0.54672490450E+02  0.96504845446E+00  0.47781240652E+02  0.14493379977E+03  0.12543024686E+03 0.  0.
         25    2    3    3    0    0  0.54672490450E+02 -0.96504845446E+00  0.70149045771E+02  0.15343641748E+03  0.12502732923E+03 0.  0.
          5    1    4    4  502    0  0.15451651134E+02 -0.19542464368E+02 -0.29218375226E+02  0.38684168431E+02  0.47000000000E+01 0.  1.
         -5    1    4    4    0  502 -0.70124141584E+02  0.20507512822E+02  0.76999615878E+02  0.10624963134E+03  0.47000000000E+01 0.  1.
          5    1    5    5  503    0 -0.22586853060E+02  0.31675760227E+02  0.55847994764E+02  0.68224689345E+02  0.47000000000E+01 0. -1.
         -5    1    5    5    0  503  0.77259343510E+02 -0.32640808682E+02  0.14301051007E+02  0.85211728130E+02  0.47000000000E+01 0. -1.
<mgrwt>
<rscale>  0 0.27407523E+03</rscale>
<asrwt>0</asrwt>
<pdfrwt beam="1">  1        1 0.13879995E-01 0.27407523E+03</pdfrwt>
<pdfrwt beam="2">  1       -1 0.32023115E-01 0.27407523E+03</pdfrwt>
<totfact> 0.37510705E+03</totfact>
</mgrwt>
</event>
<event>
 9    1  0.8122655E-001  0.2691152E+03  0.7818608E-02  0.1101787E+00
         -2   -1    0    0    0  501 -0.00000000000E+00  0.00000000000E+00  0.14439245347E+02  0.14439245347E+02  0.00000000000E+00 0.  1.
          2   -1    0    0  501    0  0.00000000000E+00 -0.00000000000E+00 -0.12539262882E+04  0.12539262882E+04  0.00000000000E+00 0.  1.
         35    2    1    2    0    0  0.00000000000E+00  0.14210854715E-13 -0.12394870428E+04  0.12683655335E+04  0.26911521192E+03 0.  0.
         25    2    3    3    0    0  0.23741722927E+02 -0.36235583233E+02 -0.72667406209E+03  0.73856703737E+03  0.12469719035E+03 0.  0.
         25    2    3    3    0    0 -0.23741722927E+02  0.36235583233E+02 -0.51281298073E+03  0.52979849614E+03  0.12582768537E+03 0.  0.
          5    1    4    4  502    0  0.63290320247E+02 -0.57120050437E+02 -0.52864190247E+03  0.53549296526E+03  0.47000000000E+01 0. -1.
         -5    1    4    4    0  502 -0.39548597319E+02  0.20884467204E+02 -0.19803215962E+03  0.20307407211E+03  0.47000000000E+01 0. -1.
          5    1    5    5  503    0 -0.46381219073E+02  0.20021764798E+02 -0.49226731259E+03  0.49487502018E+03  0.47000000000E+01 0.  1.
         -5    1    5    5    0  503  0.22639496146E+02  0.16213818435E+02 -0.20545668136E+02  0.34923475960E+02  0.47000000000E+01 0.  1.
<mgrwt>
<rscale>  0 0.26911521E+03</rscale>
<asrwt>0</asrwt>
<pdfrwt beam="1">  1        2 0.19291171E+00 0.26911521E+03</pdfrwt>
<pdfrwt beam="2">  1       -2 0.22214227E-02 0.26911521E+03</pdfrwt>
<totfact> 0.12305681E+04</totfact>
</mgrwt>
</event>
<event>
 9    1  0.8122655E-001  0.2744069E+03  0.7818608E-02  0.1098784E+00
          2   -1    0    0  501    0  0.00000000000E+00  0.00000000000E+00  0.22351664242E+04  0.22351664242E+04  0.00000000000E+00 0. -1.
         -2   -1    0    0    0  501 -0.00000000000E+00 -0.00000000000E+00 -0.84220979410E+01  0.84220979410E+01  0.00000000000E+00 0. -1.
         35    2    1    2    0    0 -0.71054273576E-14  0.00000000000E+00  0.22267443263E+04  0.22435885222E+04  0.27440692804E+03 0.  0.
         25    2    3    3    0    0 -0.15824031757E+02  0.16371184328E+02  0.15271596194E+04  0.15325322020E+04  0.12617460580E+03 0.  0.
         25    2    3    3    0    0  0.15824031757E+02 -0.16371184328E+02  0.69958470682E+03  0.71105632018E+03  0.12515555438E+03 0.  0.
          5    1    4    4  502    0 -0.54380584336E+02  0.49200250509E+02  0.71034313557E+03  0.71413400203E+03  0.47000000000E+01 0. -1.
         -5    1    4    4    0  502  0.38556552579E+02 -0.32829066181E+02  0.81681648388E+03  0.81839819994E+03  0.47000000000E+01 0. -1.
          5    1    5    5  503    0  0.17988969722E+02 -0.50472537844E+02  0.13359543324E+03  0.14401704723E+03  0.47000000000E+01 0. -1.
         -5    1    5    5    0  503 -0.21649379652E+01  0.34101353516E+02  0.56598927358E+03  0.56703927296E+03  0.47000000000E+01 0. -1.
<mgrwt>
<rscale>  0 0.27440693E+03</rscale>
<asrwt>0</asrwt>
<pdfrwt beam="1">  1        2 0.34387128E+00 0.27440693E+03</pdfrwt>
<pdfrwt beam="2">  1       -2 0.12957092E-02 0.27440693E+03</pdfrwt>
<totfact> 0.81508302E+03</totfact>
</mgrwt>
</event>
<event>
 9    1  0.8122655E-001  0.2766120E+03  0.7818608E-02  0.1097554E+00
          1   -1    0    0  501    0  0.00000000000E+00  0.00000000000E+00  0.26961947501E+03  0.26961947501E+03  0.00000000000E+00 0. -1.
         -1   -1    0    0    0  501 -0.00000000000E+00 -0.00000000000E+00 -0.70946493073E+02  0.70946493073E+02  0.00000000000E+00 0. -1.
         35    2    1    2    0    0 -0.35527136788E-14  0.00000000000E+00  0.19867298194E+03  0.34056596808E+03  0.27661204758E+03 0.  0.
         25    2    3    3    0    0  0.90281705175E+01  0.20924368871E+02  0.33144755831E+02  0.13176380610E+03  0.12547425506E+03 0.  0.
         25    2    3    3    0    0 -0.90281705175E+01 -0.20924368871E+02  0.16552822611E+03  0.20880216198E+03  0.12521745938E+03 0.  0.
          5    1    4    4  502    0 -0.11825796790E+02 -0.26002930782E+02 -0.35563589833E+02  0.45856960222E+02  0.47000000000E+01 0. -1.
         -5    1    4    4    0  502  0.20853967308E+02  0.46927299653E+02  0.68708345664E+02  0.85906845880E+02  0.47000000000E+01 0. -1.
          5    1    5    5  503    0  0.30006099530E+01 -0.61642866385E+02  0.34229054606E+02  0.70728811778E+02  0.47000000000E+01 0. -1.
         -5    1    5    5    0  503 -0.12028780470E+02  0.40718497514E+02  0.13129917150E+03  0.13807335020E+03  0.47000000000E+01 0. -1.
<mgrwt>
<rscale>  0 0.27661205E+03</rscale>
<asrwt>0</asrwt>
<pdfrwt beam="1">  1        1 0.41479919E-01 0.27661205E+03</pdfrwt>
<pdfrwt beam="2">  1       -1 0.10914845E-01 0.27661205E+03</pdfrwt>
<totfact> 0.53003320E+03</totfact>
</mgrwt>
</event>
<event>
 9    1  0.8122655E-001  0.2752998E+03  0.7818608E-02  0.1098284E+00
         -2   -1    0    0    0  501 -0.00000000000E+00  0.00000000000E+00  0.15362520907E+02  0.15362520907E+02  0.00000000000E+00 0. -1.
          2   -1    0    0  501    0  0.00000000000E+00 -0.00000000000E+00 -0.12333586251E+04  0.12333586251E+04  0.00000000000E+00 0. -1.
         35    2    1    2    0    0  0.88817841970E-15  0.00000000000E+00 -0.12179961042E+04  0.12487211460E+04  0.27529981957E+03 0.  0.
         25    2    3    3    0    0 -0.76350231147E+01 -0.93170144463E+01 -0.85730850869E+03  0.86651975675E+03  0.12543328680E+03 0.  0.
         25    2    3    3    0    0  0.76350231147E+01  0.93170144463E+01 -0.36068759547E+03  0.38220138922E+03  0.12584617618E+03 0.  0.
          5    1    4    4  502    0  0.26186482343E+02  0.21793559238E+02 -0.71361785983E+02  0.79216700136E+02  0.47000000000E+01 0. -1.
         -5    1    4    4    0  502 -0.33821505458E+02 -0.31110573685E+02 -0.78594672270E+03  0.78730305662E+03  0.47000000000E+01 0. -1.
          5    1    5    5  503    0  0.31664089022E+01 -0.57437327803E+02 -0.19774002008E+03  0.20599096658E+03  0.47000000000E+01 0. -1.
         -5    1    5    5    0  503  0.44686142125E+01  0.66754342250E+02 -0.16294757539E+03  0.17621042264E+03  0.47000000000E+01 0. -1.
<mgrwt>
<rscale>  0 0.27529982E+03</rscale>
<asrwt>0</asrwt>
<pdfrwt beam="1">  1        2 0.18974753E+00 0.27529982E+03</pdfrwt>
<pdfrwt beam="2">  1       -2 0.23634641E-02 0.27529982E+03</pdfrwt>
<totfact> 0.11539551E+04</totfact>
</mgrwt>
</event>
<event>
 9    1  0.8122655E-001  0.2768102E+03  0.7818608E-02  0.1097444E+00
          2   -1    0    0  501    0  0.00000000000E+00  0.00000000000E+00  0.12551772743E+03  0.12551772743E+03  0.00000000000E+00 0.  1.
         -2   -1    0    0    0  501 -0.00000000000E+00 -0.00000000000E+00 -0.15261566195E+03  0.15261566195E+03  0.00000000000E+00 0.  1.
         35    2    1    2    0    0  0.35527136788E-14  0.00000000000E+00 -0.27097934518E+02  0.27813338938E+03  0.27681019532E+03 0.  0.
         25    2    3    3    0    0  0.31675247381E+02  0.25091442638E+02 -0.57865154790E+02  0.14315598595E+03  0.12454861856E+03 0.  0.
         25    2    3    3    0    0 -0.31675247381E+02 -0.25091442638E+02  0.30767220272E+02  0.13497740343E+03  0.12505748999E+03 0.  0.
          5    1    4    4  502    0  0.27083315130E+02  0.66109822949E+02 -0.69741920848E+02  0.99950188455E+02  0.47000000000E+01 0. -1.
         -5    1    4    4    0  502  0.45919322514E+01 -0.41018380311E+02  0.11876766058E+02  0.43205797494E+02  0.47000000000E+01 0. -1.
          5    1    5    5  503    0 -0.30853676130E+01  0.50241442591E+02  0.15062022953E+02  0.52751081339E+02  0.47000000000E+01 0.  1.
         -5    1    5    5    0  503 -0.28589879768E+02 -0.75332885229E+02  0.15705197320E+02  0.82226322093E+02  0.47000000000E+01 0.  1.
<mgrwt>
<rscale>  0 0.27681020E+03</rscale>
<asrwt>0</asrwt>
<pdfrwt beam="1">  1        2 0.19310420E-01 0.27681020E+03</pdfrwt>
<pdfrwt beam="2">  1       -2 0.23479333E-01 0.27681020E+03</pdfrwt>
<totfact> 0.45672514E+03</totfact>
</mgrwt>
</event>
<event>
 9    1  0.8122655E-001  0.2743994E+03  0.7818608E-02  0.1098788E+00
          1   -1    0    0  501    0  0.00000000000E+00  0.00000000000E+00  0.16325017798E+03  0.16325017798E+03  0.00000000000E+00 0. -1.
         -1   -1    0    0    0  501 -0.00000000000E+00 -0.00000000000E+00 -0.11530620063E+03  0.11530620063E+03  0.00000000000E+00 0. -1.
         35    2    1    2    0    0  0.35527136788E-14  0.00000000000E+00  0.47943977350E+02  0.27855637860E+03  0.27439940069E+03 0.  0.
         25    2    3    3    0    0 -0.17642248526E+02  0.51206357169E+02  0.34909674732E+02  0.14122943909E+03  0.12567310424E+03 0.  0.
         25    2    3    3    0    0  0.17642248526E+02 -0.51206357169E+02  0.13034302618E+02  0.13732693951E+03  0.12552073662E+03 0.  0.
          5    1    4    4  502    0 -0.52026474226E+02 -0.19887978899E+02  0.31648200158E+01  0.55985639327E+02  0.47000000000E+01 0.  1.
         -5    1    4    4    0  502  0.34384225700E+02  0.71094336068E+02  0.31744854716E+02  0.85243799768E+02  0.47000000000E+01 0.  1.
          5    1    5    5  503    0  0.25628391427E+02 -0.91589980649E+02  0.73781500158E+01  0.95509507904E+02  0.47000000000E+01 0.  1.
         -5    1    5    5    0  503 -0.79861429003E+01  0.40383623480E+02  0.56561526024E+01  0.41817431605E+02  0.47000000000E+01 0.  1.
<mgrwt>
<rscale>  0 0.27439940E+03</rscale>
<asrwt>0</asrwt>
<pdfrwt beam="1">  1        1 0.25115412E-01 0.27439940E+03</pdfrwt>
<pdfrwt beam="2">  1       -1 0.17739415E-01 0.27439940E+03</pdfrwt>
<totfact> 0.46329071E+03</totfact>
</mgrwt>
</event>
<event>
 8    1  0.8122655E-001  0.7917537E+03  0.7818608E-02  0.9572031E-01
          1   -1    0    0  501    0  0.00000000000E+00  0.00000000000E+00  0.12096064975E+04  0.12096064975E+04  0.00000000000E+00 0.  1.
         -1   -1    0    0    0  501 -0.00000000000E+00 -0.00000000000E+00 -0.12956154716E+03  0.12956154716E+03  0.00000000000E+00 0.  1.
         25    2    1    2    0    0  0.34236814608E+03 -0.40620812252E+02  0.28750239136E+03  0.46595930334E+03  0.12487773818E+03 0.  0.
         25    2    1    2    0    0 -0.34236814608E+03  0.40620812252E+02  0.79254255900E+03  0.87320874135E+03  0.12451425746E+03 0.  0.
          5    1    3    3  502    0  0.94502480925E+02  0.13923430126E+02  0.14827907310E+03  0.17644646306E+03  0.47000000000E+01 0. -1.
         -5    1    3    3    0  502  0.24786566515E+03 -0.54544242379E+02  0.13922331827E+03  0.28951284028E+03  0.47000000000E+01 0. -1.
          5    1    4    4  503    0 -0.10487424415E+03 -0.25294953326E+01  0.38933005950E+03  0.40324309128E+03  0.47000000000E+01 0.  1.
         -5    1    4    4    0  503 -0.23749390192E+03  0.43150307585E+02  0.40321249950E+03  0.46996565007E+03  0.47000000000E+01 0.  1.
<mgrwt>
<rscale>  0 0.79175372E+03</rscale>
<asrwt>0</asrwt>
<pdfrwt beam="1">  1        1 0.18609330E+00 0.79175372E+03</pdfrwt>
<pdfrwt beam="2">  1       -1 0.19932547E-01 0.79175372E+03</pdfrwt>
<totfact> 0.21877817E+02</totfact>
</mgrwt>
</event>
<event>
 9    1  0.8122655E-001  0.2779568E+03  0.7818608E-02  0.1096810E+00
          1   -1    0    0  501    0  0.00000000000E+00  0.00000000000E+00  0.61740924989E+02  0.61740924989E+02  0.00000000000E+00 0.  1.
         -1   -1    0    0    0  501 -0.00000000000E+00 -0.00000000000E+00 -0.31283931958E+03  0.31283931958E+03  0.00000000000E+00 0.  1.
         35    2    1    2    0    0  0.35527136788E-14 -0.14210854715E-13 -0.25109839459E+03  0.37458024457E+03  0.27795675177E+03 0.  0.
         25    2    3    3    0    0  0.27611040271E+02  0.40865707968E+02 -0.17330464820E+03  0.21900151770E+03  0.12447806247E+03 0.  0.
         25    2    3    3    0    0 -0.27611040271E+02 -0.40865707968E+02 -0.77793746391E+02  0.15557872687E+03  0.12538140868E+03 0.  0.
          5    1    4    4  502    0  0.17237380924E+02 -0.38632039900E+02 -0.22496813968E+02  0.48143103833E+02  0.47000000000E+01 0. -1.
         -5    1    4    4    0  502  0.10373659347E+02  0.79497747868E+02 -0.15080783423E+03  0.17085841387E+03  0.47000000000E+01 0. -1.
          5    1    5    5  503    0 -0.15408415344E+02  0.34809636214E+02  0.92941746733E+01  0.39466463227E+02  0.47000000000E+01 0. -1.
         -5    1    5    5    0  503 -0.12202624927E+02 -0.75675344182E+02 -0.87087921064E+02  0.11611226364E+03  0.47000000000E+01 0. -1.
<mgrwt>
<rscale>  0 0.27795675E+03</rscale>
<asrwt>0</asrwt>
<pdfrwt beam="1">  1        1 0.94986038E-02 0.27795675E+03</pdfrwt>
<pdfrwt beam="2">  1       -1 0.48129126E-01 0.27795675E+03</pdfrwt>
<totfact> 0.30234150E+03</totfact>
</mgrwt>
</event>
<event>
 9    1  0.8122655E-001  0.2708544E+03  0.7818608E-02  0.1100792E+00
         -2   -1    0    0    0  501 -0.00000000000E+00  0.00000000000E+00  0.23806731177E+02  0.23806731177E+02  0.00000000000E+00 0.  1.
          2   -1    0    0  501    0  0.00000000000E+00 -0.00000000000E+00 -0.77039235162E+03  0.77039235162E+03  0.00000000000E+00 0.  1.
         35    2    1    2    0    0 -0.35527136788E-14 -0.71054273576E-14 -0.74658562044E+03  0.79419908280E+03  0.27085437870E+03 0.  0.
         25    2    3    3    0    0 -0.23652113487E+02  0.51581960846E+02 -0.33449178799E+03  0.36052622987E+03  0.12196017805E+03 0.  0.
         25    2    3    3    0    0  0.23652113487E+02 -0.51581960846E+02 -0.41209383245E+03  0.43367285293E+03  0.12259973682E+03 0.  0.
          5    1    4    4  502    0  0.21954512350E+02 -0.26709561857E+02 -0.16106028405E+03  0.16479656066E+03  0.47000000000E+01 0. -1.
         -5    1    4    4    0  502 -0.45606625837E+02  0.78291522703E+02 -0.17343150394E+03  0.19572966920E+03  0.47000000000E+01 0. -1.
          5    1    5    5  503    0 -0.21862070151E+02  0.88362703741E+01 -0.12778486692E+02  0.27228835956E+02  0.47000000000E+01 0. -1.
         -5    1    5    5    0  503  0.45514183638E+02 -0.60418231220E+02 -0.39931534576E+03  0.40644401698E+03  0.47000000000E+01 0. -1.
<mgrwt>
<rscale>  0 0.27085438E+03</rscale>
<asrwt>0</asrwt>
<pdfrwt beam="1">  1        2 0.11852192E+00 0.27085438E+03</pdfrwt>
<pdfrwt beam="2">  1       -2 0.36625735E-02 0.27085438E+03</pdfrwt>
<totfact> 0.11634834E+04</totfact>
</mgrwt>
</event>
<event>
 9    1  0.8122655E-001  0.2765059E+03  0.7818608E-02  0.1097613E+00
         -1   -1    0    0    0  501 -0.00000000000E+00  0.00000000000E+00  0.23718027515E+02  0.23718027515E+02  0.00000000000E+00 0.  1.
          1   -1    0    0  501    0  0.00000000000E+00 -0.00000000000E+00 -0.80587980124E+03  0.80587980124E+03  0.00000000000E+00 0.  1.
         35    2    1    2    0    0  0.71054273576E-14 -0.71054273576E-14 -0.78216177372E+03  0.82959782875E+03  0.27650590807E+03 0.  0.
         25    2    3    3    0    0 -0.48169858937E+02  0.28814826435E+02 -0.41739050349E+03  0.43952182906E+03  0.12575363329E+03 0.  0.
         25    2    3    3    0    0  0.48169858937E+02 -0.28814826435E+02 -0.36477127023E+03  0.39007599969E+03  0.12629559144E+03 0.  0.
          5    1    4    4  502    0 -0.27081287034E+02 -0.10212919294E+02 -0.38051888410E+03  0.38164697167E+03  0.47000000000E+01 0.  1.
         -5    1    4    4    0  502 -0.21088571904E+02  0.39027745730E+02 -0.36871619392E+02  0.57874857393E+02  0.47000000000E+01 0.  1.
          5    1    5    5  503    0  0.11075215621E+02 -0.63670140854E+02 -0.30322073998E+03  0.31006685471E+03  0.47000000000E+01 0.  1.
         -5    1    5    5    0  503  0.37094643316E+02  0.34855314419E+02 -0.61550530249E+02  0.80009144977E+02  0.47000000000E+01 0.  1.
<mgrwt>
<rscale>  0 0.27650591E+03</rscale>
<asrwt>0</asrwt>
<pdfrwt beam="1">  1        1 0.12398151E+00 0.27650591E+03</pdfrwt>
<pdfrwt beam="2">  1       -1 0.36489273E-02 0.27650591E+03</pdfrwt>
<totfact> 0.64141711E+03</totfact>
</mgrwt>
</event>
<event>
 9    1  0.8122655E-001  0.2757006E+03  0.7818608E-02  0.1098061E+00
         -4   -1    0    0    0  501 -0.00000000000E+00  0.00000000000E+00  0.61153492055E+02  0.61153492055E+02  0.00000000000E+00 0. -1.
          4   -1    0    0  501    0  0.00000000000E+00 -0.00000000000E+00 -0.31073793966E+03  0.31073793966E+03  0.00000000000E+00 0. -1.
         35    2    1    2    0    0 -0.71054273576E-14  0.00000000000E+00 -0.24958444760E+03  0.37189143171E+03  0.27570063565E+03 0.  0.
         25    2    3    3    0    0 -0.36532099187E+02 -0.22548556697E+02 -0.19317773103E+03  0.23419839920E+03  0.12525263568E+03 0.  0.
         25    2    3    3    0    0  0.36532099187E+02  0.22548556697E+02 -0.56406716577E+02  0.13769303251E+03  0.11804499925E+03 0.  0.
          5    1    4    4  502    0  0.94220881285E+01  0.42236494230E+02 -0.11365091249E+03  0.12170175471E+03  0.47000000000E+01 0. -1.
         -5    1    4    4    0  502 -0.45954187316E+02 -0.64785050927E+02 -0.79526818533E+02  0.11249664449E+03  0.47000000000E+01 0. -1.
          5    1    5    5  503    0  0.54195915315E+02  0.34761446819E+02 -0.81735244893E+02  0.10415515196E+03  0.47000000000E+01 0. -1.
         -5    1    5    5    0  503 -0.17663816128E+02 -0.12212890123E+02  0.25328528315E+02  0.33537880553E+02  0.47000000000E+01 0. -1.
<mgrwt>
<rscale>  0 0.27570064E+03</rscale>
<asrwt>0</asrwt>
<pdfrwt beam="1">  1        4 0.47805836E-01 0.27570064E+03</pdfrwt>
<pdfrwt beam="2">  1       -4 0.94082296E-02 0.27570064E+03</pdfrwt>
<totfact> 0.67069816E+02</totfact>
</mgrwt>
</event>
<event>
 9    1  0.8122655E-001  0.2698185E+03  0.7818608E-02  0.1101384E+00
         -2   -1    0    0    0  501 -0.00000000000E+00  0.00000000000E+00  0.25786548790E+02  0.25786548790E+02  0.00000000000E+00 0. -1.
          2   -1    0    0  501    0  0.00000000000E+00 -0.00000000000E+00 -0.70581369440E+03  0.70581369440E+03  0.00000000000E+00 0. -1.
         35    2    1    2    0    0  0.00000000000E+00 -0.71054273576E-14 -0.68002714561E+03  0.73160024319E+03  0.26981845206E+03 0.  0.
         25    2    3    3    0    0 -0.16648772819E+02  0.25934127622E+02 -0.44418232892E+03  0.46231768348E+03  0.12445858156E+03 0.  0.
         25    2    3    3    0    0  0.16648772819E+02 -0.25934127622E+02 -0.23584481669E+03  0.26928255971E+03  0.12625592577E+03 0.  0.
          5    1    4    4  502    0 -0.26796723884E+02  0.58256985289E+02 -0.40598627330E+03  0.41104608605E+03  0.47000000000E+01 0.  1.
         -5    1    4    4    0  502  0.10147951066E+02 -0.32322857667E+02 -0.38196055614E+02  0.51271597431E+02  0.47000000000E+01 0.  1.
          5    1    5    5  503    0 -0.13811978601E+02  0.23771810087E+02 -0.19724448150E+03  0.19920679002E+03  0.47000000000E+01 0.  1.
         -5    1    5    5    0  503  0.30460751420E+02 -0.49705937709E+02 -0.38600335189E+02  0.70075769688E+02  0.47000000000E+01 0.  1.
<mgrwt>
<rscale>  0 0.26981845E+03</rscale>
<asrwt>0</asrwt>
<pdfrwt beam="1">  1        2 0.10858672E+00 0.26981845E+03</pdfrwt>
<pdfrwt beam="2">  1       -2 0.39671615E-02 0.26981845E+03</pdfrwt>
<totfact> 0.11496460E+04</totfact>
</mgrwt>
</event>
<event>
 9    1  0.8122655E-001  0.2775165E+03  0.7818608E-02  0.1097053E+00
          1   -1    0    0  501    0  0.00000000000E+00  0.00000000000E+00  0.18194239612E+03  0.18194239612E+03  0.00000000000E+00 0.  1.
         -1   -1    0    0    0  501 -0.00000000000E+00 -0.00000000000E+00 -0.10582390512E+03  0.10582390512E+03  0.00000000000E+00 0.  1.
         35    2    1    2    0    0  0.00000000000E+00 -0.35527136788E-14  0.76118490999E+02  0.28776630124E+03  0.27751652105E+03 0.  0.
         25    2    3    3    0    0 -0.59456798008E+02  0.84809197973E+01  0.36730521314E+02  0.14410724261E+03  0.12574072271E+03 0.  0.
         25    2    3    3    0    0  0.59456798008E+02 -0.84809197973E+01  0.39387969685E+02  0.14365905863E+03  0.12441654287E+03 0.  0.
          5    1    4    4  502    0  0.32839428008E+02 -0.32789901509E+01  0.38503600693E+02  0.50929334127E+02  0.47000000000E+01 0. -1.
         -5    1    4    4    0  502 -0.92296226016E+02  0.11759909948E+02 -0.17730793792E+01  0.93177908483E+02  0.47000000000E+01 0. -1.
          5    1    5    5  503    0  0.52292444647E+02 -0.61091845605E+02  0.40883084017E+02  0.90333990974E+02  0.47000000000E+01 0. -1.
         -5    1    5    5    0  503  0.71643533609E+01  0.52610925807E+02 -0.14951143319E+01  0.53325067654E+02  0.47000000000E+01 0. -1.
<mgrwt>
<rscale>  0 0.27751652E+03</rscale>
<asrwt>0</asrwt>
<pdfrwt beam="1">  1        1 0.27991138E-01 0.27751652E+03</pdfrwt>
<pdfrwt beam="2">  1       -1 0.16280601E-01 0.27751652E+03</pdfrwt>
<totfact> 0.46342350E+03</totfact>
</mgrwt>
</event>
<event>
 9    1  0.8122655E-001  0.2732955E+03  0.7818608E-02  0.1099408E+00
          2   -1    0    0  501    0  0.00000000000E+00  0.00000000000E+00  0.36817974725E+03  0.36817974725E+03  0.00000000000E+00 0. -1.
         -2   -1    0    0    0  501 -0.00000000000E+00 -0.00000000000E+00 -0.50716027616E+02  0.50716027616E+02  0.00000000000E+00 0. -1.
         35    2    1    2    0    0 -0.14210854715E-13  0.35527136788E-14  0.31746371964E+03  0.41889577487E+03  0.27329554866E+03 0.  0.
         25    2    3    3    0    0 -0.45812864837E+02  0.21267028267E+02  0.19507509669E+03  0.23652688634E+03  0.12385301585E+03 0.  0.
         25    2    3    3    0    0  0.45812864837E+02 -0.21267028267E+02  0.12238862295E+03  0.18236888853E+03  0.12541264451E+03 0.  0.
          5    1    4    4  502    0 -0.32421870491E+02  0.65473474347E+02  0.63200096673E+02  0.96717608265E+02  0.47000000000E+01 0.  1.
         -5    1    4    4    0  502 -0.13390994346E+02 -0.44206446080E+02  0.13187500002E+03  0.13980927807E+03  0.47000000000E+01 0.  1.
          5    1    5    5  503    0  0.61337318914E+02 -0.23224940563E+02  0.14221340747E+03  0.15667931523E+03  0.47000000000E+01 0. -1.
         -5    1    5    5    0  503 -0.15524454077E+02  0.19579122967E+01 -0.19824784527E+02  0.25689573303E+02  0.47000000000E+01 0. -1.
<mgrwt>
<rscale>  0 0.27329555E+03</rscale>
<asrwt>0</asrwt>
<pdfrwt beam="1">  1        2 0.56643036E-01 0.27329555E+03</pdfrwt>
<pdfrwt beam="2">  1       -2 0.78024660E-02 0.27329555E+03</pdfrwt>
<totfact> 0.85353612E+03</totfact>
</mgrwt>
</event>
<event>
 9    1  0.8122655E-001  0.2731883E+03  0.7818608E-02  0.1099469E+00
         -2   -1    0    0    0  501 -0.00000000000E+00  0.00000000000E+00  0.69546831989E+02  0.69546831989E+02  0.00000000000E+00 0.  1.
          2   -1    0    0  501    0  0.00000000000E+00 -0.00000000000E+00 -0.26827905609E+03  0.26827905609E+03  0.00000000000E+00 0.  1.
         35    2    1    2    0    0  0.00000000000E+00 -0.71054273576E-14 -0.19873222410E+03  0.33782588808E+03  0.27318827530E+03 0.  0.
         25    2    3    3    0    0 -0.24837036076E+02 -0.28291878716E+02 -0.14625964930E+03  0.19681497500E+03  0.12620198338E+03 0.  0.
         25    2    3    3    0    0  0.24837036076E+02  0.28291878716E+02 -0.52472574803E+02  0.14101091308E+03  0.12535309226E+03 0.  0.
          5    1    4    4  502    0  0.19244292505E+02  0.42467739566E+02 -0.39556267514E+02  0.61324057249E+02  0.47000000000E+01 0. -1.
         -5    1    4    4    0  502 -0.44081328580E+02 -0.70759618282E+02 -0.10670338178E+03  0.13549091775E+03  0.47000000000E+01 0. -1.
          5    1    5    5  503    0 -0.42944978782E+02 -0.19352000696E+02 -0.12841050713E+02  0.49048483330E+02  0.47000000000E+01 0. -1.
         -5    1    5    5    0  503  0.67782014858E+02  0.47643879412E+02 -0.39631524090E+02  0.91962429749E+02  0.47000000000E+01 0. -1.
<mgrwt>
<rscale>  0 0.27318828E+03</rscale>
<asrwt>0</asrwt>
<pdfrwt beam="1">  1        2 0.41273701E-01 0.27318828E+03</pdfrwt>
<pdfrwt beam="2">  1       -2 0.10699513E-01 0.27318828E+03</pdfrwt>
<totfact> 0.72921650E+03</totfact>
</mgrwt>
</event>
<event>
 9    1  0.8122655E-001  0.2755069E+03  0.7818608E-02  0.1098169E+00
         -1   -1    0    0    0  501 -0.00000000000E+00  0.00000000000E+00  0.46125553707E+02  0.46125553707E+02  0.00000000000E+00 0. -1.
          1   -1    0    0  501    0  0.00000000000E+00 -0.00000000000E+00 -0.41139927299E+03  0.41139927299E+03  0.00000000000E+00 0. -1.
         35    2    1    2    0    0 -0.88817841970E-15 -0.71054273576E-14 -0.36527371928E+03  0.45752482670E+03  0.27550694555E+03 0.  0.
         25    2    3    3    0    0 -0.71577401855E+01  0.54874280701E+02 -0.18147077220E+03  0.22772704673E+03  0.12595851192E+03 0.  0.
         25    2    3    3    0    0  0.71577401855E+01 -0.54874280701E+02 -0.18380294709E+03  0.22979777996E+03  0.12633715365E+03 0.  0.
          5    1    4    4  502    0  0.20092191183E+02  0.84858039959E+01 -0.17133195599E+03  0.17277856973E+03  0.47000000000E+01 0.  1.
         -5    1    4    4    0  502 -0.27249931369E+02  0.46388476705E+02 -0.10138816208E+02  0.54948477001E+02  0.47000000000E+01 0.  1.
          5    1    5    5  503    0 -0.53991741037E+01 -0.86231065399E+02 -0.17397846524E+03  0.19430785905E+03  0.47000000000E+01 0.  1.
         -5    1    5    5    0  503  0.12556914289E+02  0.31356784698E+02 -0.98244818481E+01  0.35489920917E+02  0.47000000000E+01 0.  1.
<mgrwt>
<rscale>  0 0.27550695E+03</rscale>
<asrwt>0</asrwt>
<pdfrwt beam="1">  1        1 0.63292194E-01 0.27550695E+03</pdfrwt>
<pdfrwt beam="2">  1       -1 0.70962392E-02 0.27550695E+03</pdfrwt>
<totfact> 0.60112958E+03</totfact>
</mgrwt>
</event>
<event>
 9    1  0.8122655E-001  0.2749748E+03  0.7818608E-02  0.1098466E+00
          2   -1    0    0  501    0  0.00000000000E+00  0.00000000000E+00  0.49375672376E+03  0.49375672376E+03  0.00000000000E+00 0. -1.
         -2   -1    0    0    0  501 -0.00000000000E+00 -0.00000000000E+00 -0.38283613920E+02  0.38283613920E+02  0.00000000000E+00 0. -1.
         35    2    1    2    0    0 -0.71054273576E-14  0.35527136788E-14  0.45547310984E+03  0.53204033768E+03  0.27497484818E+03 0.  0.
         25    2    3    3    0    0 -0.50735846148E+02  0.18309119405E+02  0.18806400994E+03  0.23187187536E+03  0.12444735758E+03 0.  0.
         25    2    3    3    0    0  0.50735846148E+02 -0.18309119405E+02  0.26740909990E+03  0.30016846233E+03  0.12523629317E+03 0.  0.
          5    1    4    4  502    0 -0.77696702160E+02  0.22710042806E+02  0.18734995837E+03  0.20414362706E+03  0.47000000000E+01 0. -1.
         -5    1    4    4    0  502  0.26960856012E+02 -0.44009234012E+01  0.71405157139E+00  0.27728248292E+02  0.47000000000E+01 0. -1.
          5    1    5    5  503    0 -0.36575123324E+02  0.17993741086E+01  0.34317661596E+02  0.50406044189E+02  0.47000000000E+01 0.  1.
         -5    1    5    5    0  503  0.87310969473E+02 -0.20108493514E+02  0.23309143831E+03  0.24976241814E+03  0.47000000000E+01 0.  1.
<mgrwt>
<rscale>  0 0.27497485E+03</rscale>
<asrwt>0</asrwt>
<pdfrwt beam="1">  1        2 0.75962568E-01 0.27497485E+03</pdfrwt>
<pdfrwt beam="2">  1       -2 0.58897871E-02 0.27497485E+03</pdfrwt>
<totfact> 0.95605376E+03</totfact>
</mgrwt>
</event>
<event>
 9    1  0.8122655E-001  0.2738484E+03  0.7818608E-02  0.1099097E+00
          2   -1    0    0  501    0  0.00000000000E+00  0.00000000000E+00  0.10454717086E+03  0.10454717086E+03  0.00000000000E+00 0.  1.
         -2   -1    0    0    0  501 -0.00000000000E+00 -0.00000000000E+00 -0.17932797379E+03  0.17932797379E+03  0.00000000000E+00 0.  1.
         35    2    1    2    0    0  0.71054273576E-14  0.71054273576E-14 -0.74780802931E+02  0.28387514465E+03  0.27384836911E+03 0.  0.
         25    2    3    3    0    0  0.29671820918E+02  0.47015176335E+02 -0.27248636979E+02  0.13930276701E+03  0.12478753510E+03 0.  0.
         25    2    3    3    0    0 -0.29671820918E+02 -0.47015176335E+02 -0.47532165951E+02  0.14457237764E+03  0.12470373617E+03 0.  0.
          5    1    4    4  502    0  0.24009188696E+02 -0.39400775246E+02 -0.24679519911E+02  0.52535996563E+02  0.47000000000E+01 0.  1.
         -5    1    4    4    0  502  0.56626322220E+01  0.86415951580E+02 -0.25691170678E+01  0.86766770447E+02  0.47000000000E+01 0.  1.
          5    1    5    5  503    0  0.31600397462E+02  0.12763041776E+02  0.15926009642E+02  0.37910528066E+02  0.47000000000E+01 0. -1.
         -5    1    5    5    0  503 -0.61272218379E+02 -0.59778218111E+02 -0.63458175593E+02  0.10666184958E+03  0.47000000000E+01 0. -1.
<mgrwt>
<rscale>  0 0.27384837E+03</rscale>
<asrwt>0</asrwt>
<pdfrwt beam="1">  1        2 0.16084180E-01 0.27384837E+03</pdfrwt>
<pdfrwt beam="2">  1       -2 0.27588919E-01 0.27384837E+03</pdfrwt>
<totfact> 0.42449783E+03</totfact>
</mgrwt>
</event>
<event>
 9    1  0.8122655E-001  0.2795343E+03  0.7818608E-02  0.1095944E+00
         -2   -1    0    0    0  501 -0.00000000000E+00  0.00000000000E+00  0.83944335784E+01  0.83944335784E+01  0.00000000000E+00 0.  1.
          2   -1    0    0  501    0  0.00000000000E+00 -0.00000000000E+00 -0.23271199034E+04  0.23271199034E+04  0.00000000000E+00 0.  1.
         35    2    1    2    0    0 -0.71054273576E-14  0.00000000000E+00 -0.23187254699E+04  0.23355143370E+04  0.27953428025E+03 0.  0.
         25    2    3    3    0    0 -0.19783777504E+02  0.23840234863E+02 -0.82038581233E+03  0.83159435679E+03  0.13250108874E+03 0.  0.
         25    2    3    3    0    0  0.19783777504E+02 -0.23840234863E+02 -0.14983396575E+04  0.15039199802E+04  0.12567347754E+03 0.  0.
          5    1    4    4  502    0 -0.51464885582E+01  0.82364398807E+01 -0.80441068643E+03  0.80448304378E+03  0.47000000000E+01 0. -1.
         -5    1    4    4    0  502 -0.14637288946E+02  0.15603794983E+02 -0.15975125904E+02  0.27111313011E+02  0.47000000000E+01 0. -1.
          5    1    5    5  503    0 -0.36159009311E+02 -0.73321744540E+00 -0.15593046331E+03  0.16013872408E+03  0.47000000000E+01 0.  1.
         -5    1    5    5    0  503  0.55942786815E+02 -0.23107017418E+02 -0.13424091942E+04  0.13437812561E+04  0.47000000000E+01 0.  1.
<mgrwt>
<rscale>  0 0.27953428E+03</rscale>
<asrwt>0</asrwt>
<pdfrwt beam="1">  1        2 0.35801857E+00 0.27953428E+03</pdfrwt>
<pdfrwt beam="2">  1       -2 0.12914509E-02 0.27953428E+03</pdfrwt>
<totfact> 0.73119942E+03</totfact>
</mgrwt>
</event>
<event>
 9    1  0.8122655E-001  0.2715704E+03  0.7818608E-02  0.1100384E+00
          2   -1    0    0  501    0  0.00000000000E+00  0.00000000000E+00  0.11536171812E+03  0.11536171812E+03  0.00000000000E+00 0.  1.
         -2   -1    0    0    0  501 -0.00000000000E+00 -0.00000000000E+00 -0.15982447094E+03  0.15982447094E+03  0.00000000000E+00 0.  1.
         35    2    1    2    0    0  0.35527136788E-14 -0.71054273576E-14 -0.44462752825E+02  0.27518618906E+03  0.27157043701E+03 0.  0.
         25    2    3    3    0    0  0.21087873407E+02  0.46874736700E+02 -0.37434425745E+02  0.14031084422E+03  0.12507540697E+03 0.  0.
         25    2    3    3    0    0 -0.21087873407E+02 -0.46874736700E+02 -0.70283270794E+01  0.13487534484E+03  0.12449908401E+03 0.  0.
          5    1    4    4  502    0  0.62547172618E+01 -0.18488177617E+02  0.35725121366E+02  0.40979366713E+02  0.47000000000E+01 0.  1.
         -5    1    4    4    0  502  0.14833156145E+02  0.65362914318E+02 -0.73159547111E+02  0.99331477503E+02  0.47000000000E+01 0.  1.
          5    1    5    5  503    0 -0.57450209672E+02 -0.64841029189E+02 -0.24965786694E+02  0.90278824554E+02  0.47000000000E+01 0.  1.
         -5    1    5    5    0  503  0.36362336265E+02  0.17966292489E+02  0.17937459615E+02  0.44596520289E+02  0.47000000000E+01 0.  1.
<mgrwt>
<rscale>  0 0.27157044E+03</rscale>
<asrwt>0</asrwt>
<pdfrwt beam="1">  1        2 0.17747957E-01 0.27157044E+03</pdfrwt>
<pdfrwt beam="2">  1       -2 0.24588380E-01 0.27157044E+03</pdfrwt>
<totfact> 0.46405106E+03</totfact>
</mgrwt>
</event>
<event>
 9    1  0.8122655E-001  0.2759142E+03  0.7818608E-02  0.1097942E+00
         -2   -1    0    0    0  501 -0.00000000000E+00  0.00000000000E+00  0.63829935552E+02  0.63829935552E+02  0.00000000000E+00 0. -1.
          2   -1    0    0  501    0  0.00000000000E+00 -0.00000000000E+00 -0.29816978955E+03  0.29816978955E+03  0.00000000000E+00 0. -1.
         35    2    1    2    0    0  0.71054273576E-14 -0.35527136788E-14 -0.23433985400E+03  0.36199972510E+03  0.27591417833E+03 0.  0.
         25    2    3    3    0    0 -0.51430578575E+02 -0.29716725525E+02 -0.12323672596E+03  0.18517330626E+03  0.12479452928E+03 0.  0.
         25    2    3    3    0    0  0.51430578575E+02  0.29716725525E+02 -0.11110312804E+03  0.17682641885E+03  0.12407856041E+03 0.  0.
          5    1    4    4  502    0 -0.68994542189E+02 -0.41816321358E+02 -0.25080363887E+02  0.84616583697E+02  0.47000000000E+01 0.  1.
         -5    1    4    4    0  502  0.17563963615E+02  0.12099595834E+02 -0.98156362069E+02  0.10055672256E+03  0.47000000000E+01 0.  1.
          5    1    5    5  503    0  0.80133790996E+01 -0.30688998291E+02  0.10890555381E+02  0.33863299562E+02  0.47000000000E+01 0. -1.
         -5    1    5    5    0  503  0.43417199475E+02  0.60405723816E+02 -0.12199368343E+03  0.14296311928E+03  0.47000000000E+01 0. -1.
<mgrwt>
<rscale>  0 0.27591418E+03</rscale>
<asrwt>0</asrwt>
<pdfrwt beam="1">  1        2 0.45872274E-01 0.27591418E+03</pdfrwt>
<pdfrwt beam="2">  1       -2 0.98199903E-02 0.27591418E+03</pdfrwt>
<totfact> 0.74645144E+03</totfact>
</mgrwt>
</event>
<event>
 9    1  0.8122655E-001  0.2746183E+03  0.7818608E-02  0.1098665E+00
          1   -1    0    0  501    0  0.00000000000E+00  0.00000000000E+00  0.29043368058E+04  0.29043368058E+04  0.00000000000E+00 0. -1.
         -1   -1    0    0    0  501 -0.00000000000E+00 -0.00000000000E+00 -0.64916017947E+01  0.64916017947E+01  0.00000000000E+00 0. -1.
         35    2    1    2    0    0 -0.71054273576E-14  0.35527136788E-14  0.28978452040E+04  0.29108284076E+04  0.27461826611E+03 0.  0.
         25    2    3    3    0    0 -0.53158238349E+02  0.18288302912E+02  0.15762684246E+04  0.15822038737E+04  0.12484667065E+03 0.  0.
         25    2    3    3    0    0  0.53158238349E+02 -0.18288302912E+02  0.13215767794E+04  0.13286245339E+04  0.12457009242E+03 0.  0.
          5    1    4    4  502    0 -0.86599341928E+02  0.31727229639E+02  0.84467717945E+03  0.84971035689E+03  0.47000000000E+01 0.  1.
         -5    1    4    4    0  502  0.33441103580E+02 -0.13438926727E+02  0.73159124515E+03  0.73249351679E+03  0.47000000000E+01 0.  1.
          5    1    5    5  503    0  0.64941680205E+02  0.13299464935E+02  0.12133991592E+04  0.12152176378E+04  0.47000000000E+01 0.  1.
         -5    1    5    5    0  503 -0.11783441856E+02 -0.31587767847E+02  0.10817762015E+03  0.11340689609E+03  0.47000000000E+01 0.  1.
<mgrwt>
<rscale>  0 0.27461827E+03</rscale>
<asrwt>0</asrwt>
<pdfrwt beam="1">  1        1 0.44682001E+00 0.27461827E+03</pdfrwt>
<pdfrwt beam="2">  1       -1 0.99871029E-03 0.27461827E+03</pdfrwt>
<totfact> 0.15900721E+03</totfact>
</mgrwt>
</event>
<event>
 9    1  0.8122655E-001  0.2764138E+03  0.7818608E-02  0.1097664E+00
          2   -1    0    0  501    0  0.00000000000E+00  0.00000000000E+00  0.25036777743E+03  0.25036777743E+03  0.00000000000E+00 0.  1.
         -2   -1    0    0    0  501 -0.00000000000E+00 -0.00000000000E+00 -0.76292345920E+02  0.76292345920E+02  0.00000000000E+00 0.  1.
         35    2    1    2    0    0  0.00000000000E+00 -0.14210854715E-13  0.17407543151E+03  0.32666012335E+03  0.27641378463E+03 0.  0.
         25    2    3    3    0    0  0.38589873218E+02  0.45914375891E+02  0.10025024204E+03  0.16912817137E+03  0.12229848361E+03 0.  0.
         25    2    3    3    0    0 -0.38589873218E+02 -0.45914375891E+02  0.73825189476E+02  0.15753195199E+03  0.12557407800E+03 0.  0.
          5    1    4    4  502    0  0.22876622000E+02  0.56498805716E+02 -0.56945978846E+01  0.61400108522E+02  0.47000000000E+01 0.  1.
         -5    1    4    4    0  502  0.15713251219E+02 -0.10584429826E+02  0.10594483992E+03  0.10772806285E+03  0.47000000000E+01 0.  1.
          5    1    5    5  503    0 -0.60948787574E+02 -0.75960428896E+02  0.69067613439E+02  0.11948709843E+03  0.47000000000E+01 0.  1.
         -5    1    5    5    0  503  0.22358914356E+02  0.30046053005E+02  0.47575760369E+01  0.38044853556E+02  0.47000000000E+01 0.  1.
<mgrwt>
<rscale>  0 0.27641378E+03</rscale>
<asrwt>0</asrwt>
<pdfrwt beam="1">  1        2 0.38518119E-01 0.27641378E+03</pdfrwt>
<pdfrwt beam="2">  1       -2 0.11737284E-01 0.27641378E+03</pdfrwt>
<totfact> 0.67746828E+03</totfact>
</mgrwt>
</event>
<event>
 9    1  0.8122655E-001  0.2753398E+03  0.7818608E-02  0.1098262E+00
         -1   -1    0    0    0  501 -0.00000000000E+00  0.00000000000E+00  0.26045656958E+03  0.26045656958E+03  0.00000000000E+00 0.  1.
          1   -1    0    0  501    0  0.00000000000E+00 -0.00000000000E+00 -0.72768357682E+02  0.72768357682E+02  0.00000000000E+00 0.  1.
         35    2    1    2    0    0  0.00000000000E+00 -0.71054273576E-14  0.18768821190E+03  0.33322492727E+03  0.27533976695E+03 0.  0.
         25    2    3    3    0    0 -0.29738863747E+02  0.49161950638E+02  0.10057823265E+03  0.17003561659E+03  0.12447824154E+03 0.  0.
         25    2    3    3    0    0  0.29738863747E+02 -0.49161950638E+02  0.87109979253E+02  0.16318931068E+03  0.12546435839E+03 0.  0.
          5    1    4    4  502    0  0.17817645056E+02 -0.30345085288E+02  0.33587992105E+01  0.35660401128E+02  0.47000000000E+01 0. -1.
         -5    1    4    4    0  502 -0.47556508804E+02  0.79507035926E+02  0.97219433438E+02  0.13437521546E+03  0.47000000000E+01 0. -1.
          5    1    5    5  503    0 -0.28478709445E+01  0.22177218217E+02 -0.19991017639E+02  0.30359021114E+02  0.47000000000E+01 0.  1.
         -5    1    5    5    0  503  0.32586734692E+02 -0.71339168855E+02  0.10710099689E+03  0.13283028957E+03  0.47000000000E+01 0.  1.
<mgrwt>
<rscale>  0 0.27533977E+03</rscale>
<asrwt>0</asrwt>
<pdfrwt beam="1">  1        1 0.11195132E-01 0.27533977E+03</pdfrwt>
<pdfrwt beam="2">  1       -1 0.40070241E-01 0.27533977E+03</pdfrwt>
<totfact> 0.33749891E+03</totfact>
</mgrwt>
</event>
<event>
 9    1  0.8122655E-001  0.2788620E+03  0.7818608E-02  0.1096312E+00
         -2   -1    0    0    0  501 -0.00000000000E+00  0.00000000000E+00  0.55860276316E+02  0.55860276316E+02  0.00000000000E+00 0.  1.
          2   -1    0    0  501    0  0.00000000000E+00 -0.00000000000E+00 -0.34802901617E+03  0.34802901617E+03  0.00000000000E+00 0.  1.
         35    2    1    2    0    0 -0.71054273576E-14  0.00000000000E+00 -0.29216873985E+03  0.40388929249E+03  0.27886195157E+03 0.  0.
         25    2    3    3    0    0  0.49195329685E+02 -0.12621200462E+02 -0.96955455638E+02  0.16644519627E+03  0.12539604387E+03 0.  0.
         25    2    3    3    0    0 -0.49195329685E+02  0.12621200462E+02 -0.19521328422E+03  0.23744409622E+03  0.12526770266E+03 0.  0.
          5    1    4    4  502    0  0.62349106541E+02 -0.59169440457E+02 -0.69419839588E+02  0.11058769325E+03  0.47000000000E+01 0.  1.
         -5    1    4    4    0  502 -0.13153776856E+02  0.46548239995E+02 -0.27535616050E+02  0.55857503018E+02  0.47000000000E+01 0.  1.
          5    1    5    5  503    0 -0.81264781582E+02 -0.21795499983E+02 -0.97323897484E+02  0.12873631798E+03  0.47000000000E+01 0. -1.
         -5    1    5    5    0  503  0.32069451897E+02  0.34416700445E+02 -0.97889386732E+02  0.10870777824E+03  0.47000000000E+01 0. -1.
<mgrwt>
<rscale>  0 0.27886195E+03</rscale>
<asrwt>0</asrwt>
<pdfrwt beam="1">  1        2 0.53542926E-01 0.27886195E+03</pdfrwt>
<pdfrwt beam="2">  1       -2 0.85938887E-02 0.27886195E+03</pdfrwt>
<totfact> 0.78039111E+03</totfact>
</mgrwt>
</event>
<event>
 9    1  0.8122655E-001  0.2897231E+03  0.7818608E-02  0.1090494E+00
         -2   -1    0    0    0  501 -0.00000000000E+00  0.00000000000E+00  0.18324372092E+02  0.18324372092E+02  0.00000000000E+00 0.  1.
          2   -1    0    0  501    0  0.00000000000E+00 -0.00000000000E+00 -0.11451890454E+04  0.11451890454E+04  0.00000000000E+00 0.  1.
         35    2    1    2    0    0  0.00000000000E+00  0.00000000000E+00 -0.11268646733E+04  0.11635134175E+04  0.28972311045E+03 0.  0.
         25    2    3    3    0    0 -0.33431326948E+02  0.45223220269E+02 -0.75012896752E+03  0.76256664840E+03  0.12510648290E+03 0.  0.
         25    2    3    3    0    0  0.33431326948E+02 -0.45223220269E+02 -0.37673570577E+03  0.40094676907E+03  0.12516279941E+03 0.  0.
          5    1    4    4  502    0 -0.80581497849E+02  0.30859006450E+02 -0.52425597486E+03  0.53133047461E+03  0.47000000000E+01 0.  1.
         -5    1    4    4    0  502  0.47150170901E+02  0.14364213820E+02 -0.22587299266E+03  0.23123617379E+03  0.47000000000E+01 0.  1.
          5    1    5    5  503    0  0.46998802322E+02 -0.19628183044E+02 -0.36621619982E+03  0.36977093991E+03  0.47000000000E+01 0. -1.
         -5    1    5    5    0  503 -0.13567475374E+02 -0.25595037225E+02 -0.10519505945E+02  0.31175829162E+02  0.47000000000E+01 0. -1.
<mgrwt>
<rscale>  0 0.28972311E+03</rscale>
<asrwt>0</asrwt>
<pdfrwt beam="1">  1        2 0.17618293E+00 0.28972311E+03</pdfrwt>
<pdfrwt beam="2">  1       -2 0.28191342E-02 0.28972311E+03</pdfrwt>
<totfact> 0.99903530E+03</totfact>
</mgrwt>
</event>
<event>
 9    1  0.8122655E-001  0.2784702E+03  0.7818608E-02  0.1096527E+00
         -2   -1    0    0    0  501 -0.00000000000E+00  0.00000000000E+00  0.79182664782E+01  0.79182664782E+01  0.00000000000E+00 0.  1.
          2   -1    0    0  501    0  0.00000000000E+00 -0.00000000000E+00 -0.24483156688E+04  0.24483156688E+04  0.00000000000E+00 0.  1.
         35    2    1    2    0    0  0.00000000000E+00  0.00000000000E+00 -0.24403974023E+04  0.24562339353E+04  0.27847022023E+03 0.  0.
         25    2    3    3    0    0 -0.56040484443E+02 -0.16260984178E+02 -0.12251229727E+04  0.12331199925E+04  0.12748985094E+03 0.  0.
         25    2    3    3    0    0  0.56040484443E+02  0.16260984178E+02 -0.12152744296E+04  0.12231139428E+04  0.12534281907E+03 0.  0.
          5    1    4    4  502    0  0.19260764865E+02 -0.82250100862E+01 -0.38543268374E+02  0.44116905955E+02  0.47000000000E+01 0.  1.
         -5    1    4    4    0  502 -0.75301249308E+02 -0.80359740917E+01 -0.11865797043E+04  0.11890030865E+04  0.47000000000E+01 0.  1.
          5    1    5    5  503    0  0.66067984591E+02  0.14676938813E+02 -0.12076997756E+04  0.12096037488E+04  0.47000000000E+01 0. -1.
         -5    1    5    5    0  503 -0.10027500148E+02  0.15840453646E+01 -0.75746540481E+01  0.13510194036E+02  0.47000000000E+01 0. -1.
<mgrwt>
<rscale>  0 0.27847022E+03</rscale>
<asrwt>0</asrwt>
<pdfrwt beam="1">  1        2 0.37666423E+00 0.27847022E+03</pdfrwt>
<pdfrwt beam="2">  1       -2 0.12181939E-02 0.27847022E+03</pdfrwt>
<totfact> 0.68456764E+03</totfact>
</mgrwt>
</event>
<event>
 9    1  0.8122655E-001  0.2757069E+03  0.7818608E-02  0.1098057E+00
         -1   -1    0    0    0  501 -0.00000000000E+00  0.00000000000E+00  0.70617795579E+02  0.70617795579E+02  0.00000000000E+00 0. -1.
          1   -1    0    0  501    0  0.00000000000E+00 -0.00000000000E+00 -0.26910460002E+03  0.26910460002E+03  0.00000000000E+00 0. -1.
         35    2    1    2    0    0 -0.71054273576E-14  0.71054273576E-14 -0.19848680445E+03  0.33972239560E+03  0.27570689969E+03 0.  0.
         25    2    3    3    0    0  0.16332421366E+02 -0.14512951807E+02 -0.31726476093E+02  0.13040342013E+03  0.12458374267E+03 0.  0.
         25    2    3    3    0    0 -0.16332421366E+02  0.14512951807E+02 -0.16676032835E+03  0.20931897548E+03  0.12461160710E+03 0.  0.
          5    1    4    4  502    0 -0.54110822012E+02 -0.12568559530E+02 -0.11315489381E+02  0.56886554188E+02  0.47000000000E+01 0.  1.
         -5    1    4    4    0  502  0.70443243378E+02 -0.19443922771E+01 -0.20410986712E+02  0.73516865939E+02  0.47000000000E+01 0.  1.
          5    1    5    5  503    0 -0.28270847344E+02  0.65574459428E+02 -0.75975996595E+02  0.10437285374E+03  0.47000000000E+01 0.  1.
         -5    1    5    5    0  503  0.11938425978E+02 -0.51061507621E+02 -0.90784331758E+02  0.10494612174E+03  0.47000000000E+01 0.  1.
<mgrwt>
<rscale>  0 0.27570690E+03</rscale>
<asrwt>0</asrwt>
<pdfrwt beam="1">  1        1 0.41400708E-01 0.27570690E+03</pdfrwt>
<pdfrwt beam="2">  1       -1 0.10864276E-01 0.27570690E+03</pdfrwt>
<totfact> 0.53509499E+03</totfact>
</mgrwt>
</event>
<event>
 9    1  0.8122655E-001  0.2765689E+03  0.7818608E-02  0.1097578E+00
          3   -1    0    0  501    0  0.00000000000E+00  0.00000000000E+00  0.25785349976E+03  0.25785349976E+03  0.00000000000E+00 0. -1.
         -3   -1    0    0    0  501 -0.00000000000E+00 -0.00000000000E+00 -0.74160655899E+02  0.74160655899E+02  0.00000000000E+00 0. -1.
         35    2    1    2    0    0  0.35527136788E-14 -0.14210854715E-13  0.18369284386E+03  0.33201415566E+03  0.27656886787E+03 0.  0.
         25    2    3    3    0    0 -0.10580421528E+02 -0.57355525375E+02  0.72054200133E+02  0.15455195247E+03  0.12366445182E+03 0.  0.
         25    2    3    3    0    0  0.10580421528E+02  0.57355525375E+02  0.11163864373E+03  0.17746220319E+03  0.12501218012E+03 0.  0.
          5    1    4    4  502    0  0.12371280321E+02 -0.64853675294E+02  0.98346903540E+02  0.11854640953E+03  0.47000000000E+01 0. -1.
         -5    1    4    4    0  502 -0.22951701849E+02  0.74981499183E+01 -0.26292703407E+02  0.36005542940E+02  0.47000000000E+01 0. -1.
          5    1    5    5  503    0  0.45236219528E+02  0.27510016085E+02  0.11952798827E+03  0.13081340345E+03  0.47000000000E+01 0.  1.
         -5    1    5    5    0  503 -0.34655798000E+02  0.29845509291E+02 -0.78893445438E+01  0.46648799740E+02  0.47000000000E+01 0.  1.
<mgrwt>
<rscale>  0 0.27656887E+03</rscale>
<asrwt>0</asrwt>
<pdfrwt beam="1">  1        3 0.39669769E-01 0.27656887E+03</pdfrwt>
<pdfrwt beam="2">  1       -3 0.11409332E-01 0.27656887E+03</pdfrwt>
<totfact> 0.95022289E+02</totfact>
</mgrwt>
</event>
<event>
 9    1  0.8122655E-001  0.2695633E+03  0.7818608E-02  0.1101530E+00
          2   -1    0    0  501    0  0.00000000000E+00  0.00000000000E+00  0.10644163186E+04  0.10644163186E+04  0.00000000000E+00 0. -1.
         -2   -1    0    0    0  501 -0.00000000000E+00 -0.00000000000E+00 -0.17066712769E+02  0.17066712769E+02  0.00000000000E+00 0. -1.
         35    2    1    2    0    0 -0.14210854715E-13 -0.35527136788E-14  0.10473496059E+04  0.10814830314E+04  0.26956325845E+03 0.  0.
         25    2    3    3    0    0  0.57573721246E+02  0.30722972988E+02  0.55081058398E+03  0.56552660628E+03  0.11031504219E+03 0.  0.
         25    2    3    3    0    0 -0.57573721246E+02 -0.30722972988E+02  0.49653902189E+03  0.51595642513E+03  0.12410236874E+03 0.  0.
          5    1    4    4  502    0  0.62200950763E+02  0.31677731313E+02  0.15961353563E+03  0.17427279677E+03  0.47000000000E+01 0.  1.
         -5    1    4    4    0  502 -0.46272295180E+01 -0.95475832492E+00  0.39119704835E+03  0.39125380951E+03  0.47000000000E+01 0.  1.
          5    1    5    5  503    0 -0.60511953182E+02 -0.26405929821E+02  0.50244020834E+03  0.50678123738E+03  0.47000000000E+01 0. -1.
         -5    1    5    5    0  503  0.29382319367E+01 -0.43170431672E+01 -0.59011864525E+01  0.91751877457E+01  0.47000000000E+01 0. -1.
<mgrwt>
<rscale>  0 0.26956326E+03</rscale>
<asrwt>0</asrwt>
<pdfrwt beam="1">  1        2 0.16375630E+00 0.26956326E+03</pdfrwt>
<pdfrwt beam="2">  1       -2 0.26256490E-02 0.26956326E+03</pdfrwt>
<totfact> 0.12357835E+04</totfact>
</mgrwt>
</event>
<event>
 9    1  0.8122655E-001  0.2728899E+03  0.7818608E-02  0.1099637E+00
          2   -1    0    0  501    0  0.00000000000E+00  0.00000000000E+00  0.42014474815E+03  0.42014474815E+03  0.00000000000E+00 0. -1.
         -2   -1    0    0    0  501 -0.00000000000E+00 -0.00000000000E+00 -0.44311457950E+02  0.44311457950E+02  0.00000000000E+00 0. -1.
         35    2    1    2    0    0 -0.71054273576E-14  0.00000000000E+00  0.37583329020E+03  0.46445620610E+03  0.27288991436E+03 0.  0.
         25    2    3    3    0    0 -0.32361874863E+02  0.38988768612E+02  0.17345938082E+03  0.22125110493E+03  0.12765766571E+03 0.  0.
         25    2    3    3    0    0  0.32361874863E+02 -0.38988768612E+02  0.20237390938E+03  0.24320510117E+03  0.12500442799E+03 0.  0.
          5    1    4    4  502    0 -0.78821098854E+02  0.27692995335E+02  0.78043899420E+02  0.11442293412E+03  0.47000000000E+01 0. -1.
         -5    1    4    4    0  502  0.46459223991E+02  0.11295773278E+02  0.95415481402E+02  0.10682817081E+03  0.47000000000E+01 0. -1.
          5    1    5    5  503    0 -0.44684798335E+02 -0.21949820992E+02  0.45809287130E+02  0.67816713509E+02  0.47000000000E+01 0.  1.
         -5    1    5    5    0  503  0.77046673198E+02 -0.17038947620E+02  0.15656462225E+03  0.17538838766E+03  0.47000000000E+01 0.  1.
<mgrwt>
<rscale>  0 0.27288991E+03</rscale>
<asrwt>0</asrwt>
<pdfrwt beam="1">  1        2 0.64637651E-01 0.27288991E+03</pdfrwt>
<pdfrwt beam="2">  1       -2 0.68171477E-02 0.27288991E+03</pdfrwt>
<totfact> 0.91194351E+03</totfact>
</mgrwt>
</event>
<event>
 9    1  0.8122655E-001  0.2709744E+03  0.7818608E-02  0.1100723E+00
         -2   -1    0    0    0  501 -0.00000000000E+00  0.00000000000E+00  0.19311844496E+02  0.19311844496E+02  0.00000000000E+00 0. -1.
          2   -1    0    0  501    0  0.00000000000E+00 -0.00000000000E+00 -0.95054495929E+03  0.95054495929E+03  0.00000000000E+00 0. -1.
         35    2    1    2    0    0 -0.35527136788E-14 -0.71054273576E-14 -0.93123311479E+03  0.96985680379E+03  0.27097436366E+03 0.  0.
         25    2    3    3    0    0  0.18360197942E+02 -0.53843198845E+02 -0.47429127783E+03  0.49403474862E+03  0.12602352830E+03 0.  0.
         25    2    3    3    0    0 -0.18360197942E+02  0.53843198845E+02 -0.45694183696E+03  0.47582205517E+03  0.11989411531E+03 0.  0.
          5    1    4    4  502    0  0.31075184189E+02  0.30577456880E+02 -0.25353142158E+03  0.25729539380E+03  0.47000000000E+01 0. -1.
         -5    1    4    4    0  502 -0.12714986247E+02 -0.84420655725E+02 -0.22075985625E+03  0.23673935482E+03  0.47000000000E+01 0. -1.
          5    1    5    5  503    0 -0.25585662584E+02 -0.27008785837E+01 -0.37489402026E+03  0.37580518531E+03  0.47000000000E+01 0. -1.
         -5    1    5    5    0  503  0.72254646417E+01  0.56544077428E+02 -0.82047816702E+02  0.10001686986E+03  0.47000000000E+01 0. -1.
<mgrwt>
<rscale>  0 0.27097436E+03</rscale>
<asrwt>0</asrwt>
<pdfrwt beam="1">  1        2 0.14623768E+00 0.27097436E+03</pdfrwt>
<pdfrwt beam="2">  1       -2 0.29710532E-02 0.27097436E+03</pdfrwt>
<totfact> 0.12074508E+04</totfact>
</mgrwt>
</event>
<event>
 9    1  0.8122655E-001  0.2736974E+03  0.7818608E-02  0.1099182E+00
         -1   -1    0    0    0  501 -0.00000000000E+00  0.00000000000E+00  0.19770670975E+02  0.19770670975E+02  0.00000000000E+00 0. -1.
          1   -1    0    0  501    0  0.00000000000E+00 -0.00000000000E+00 -0.94724014474E+03  0.94724014474E+03  0.00000000000E+00 0. -1.
         35    2    1    2    0    0  0.00000000000E+00  0.14210854715E-13 -0.92746947376E+03  0.96701081571E+03  0.27369744782E+03 0.  0.
         25    2    3    3    0    0  0.98377036285E+01  0.53307035581E+02 -0.42126318662E+03  0.44268633704E+03  0.12478020736E+03 0.  0.
         25    2    3    3    0    0 -0.98377036285E+01 -0.53307035581E+02 -0.50620628714E+03  0.52432447867E+03  0.12543099033E+03 0.  0.
          5    1    4    4  502    0  0.29167779908E+02  0.60647199361E+02 -0.99428591109E+02  0.12015397166E+03  0.47000000000E+01 0. -1.
         -5    1    4    4    0  502 -0.19330076280E+02 -0.73401637798E+01 -0.32183459551E+03  0.32253236538E+03  0.47000000000E+01 0. -1.
          5    1    5    5  503    0 -0.50514322394E+02  0.13470201948E+02 -0.13293891363E+03  0.14292651211E+03  0.47000000000E+01 0. -1.
         -5    1    5    5    0  503  0.40676618765E+02 -0.66777237529E+02 -0.37326737351E+03  0.38139796656E+03  0.47000000000E+01 0. -1.
<mgrwt>
<rscale>  0 0.27369745E+03</rscale>
<asrwt>0</asrwt>
<pdfrwt beam="1">  1        1 0.14572922E+00 0.27369745E+03</pdfrwt>
<pdfrwt beam="2">  1       -1 0.30416423E-02 0.27369745E+03</pdfrwt>
<totfact> 0.64759691E+03</totfact>
</mgrwt>
</event>
<event>
 9    1  0.8122655E-001  0.2731166E+03  0.7818608E-02  0.1099509E+00
          2   -1    0    0  501    0  0.00000000000E+00  0.00000000000E+00  0.21147442862E+03  0.21147442862E+03  0.00000000000E+00 0.  1.
         -2   -1    0    0    0  501 -0.00000000000E+00 -0.00000000000E+00 -0.88181704085E+02  0.88181704085E+02  0.00000000000E+00 0.  1.
         35    2    1    2    0    0 -0.71054273576E-14 -0.35527136788E-14  0.12329272454E+03  0.29965613271E+03  0.27311664531E+03 0.  0.
         25    2    3    3    0    0 -0.62314000460E+01  0.11474137996E+02  0.34658498140E+01  0.12612832264E+03  0.12540277296E+03 0.  0.
         25    2    3    3    0    0  0.62314000460E+01 -0.11474137996E+02  0.11982687472E+03  0.17352781007E+03  0.12483162569E+03 0.  0.
          5    1    4    4  502    0  0.35784895508E+02 -0.35905361221E+02 -0.24790393843E+02  0.56625147575E+02  0.47000000000E+01 0. -1.
         -5    1    4    4    0  502 -0.42016295554E+02  0.47379499217E+02  0.28256243657E+02  0.69503175062E+02  0.47000000000E+01 0. -1.
          5    1    5    5  503    0 -0.40478695910E+02  0.11321625706E+02  0.11329596958E+03  0.12093291841E+03  0.47000000000E+01 0.  1.
         -5    1    5    5    0  503  0.46710095956E+02 -0.22795763702E+02  0.65309051402E+01  0.52594891662E+02  0.47000000000E+01 0.  1.
<mgrwt>
<rscale>  0 0.27311665E+03</rscale>
<asrwt>0</asrwt>
<pdfrwt beam="1">  1        2 0.32534527E-01 0.27311665E+03</pdfrwt>
<pdfrwt beam="2">  1       -2 0.13566416E-01 0.27311665E+03</pdfrwt>
<totfact> 0.64299541E+03</totfact>
</mgrwt>
</event>
<event>
 9    1  0.8122655E-001  0.2761388E+03  0.7818608E-02  0.1097817E+00
          3   -1    0    0  501    0  0.00000000000E+00  0.00000000000E+00  0.96685911778E+01  0.96685911778E+01  0.00000000000E+00 0.  1.
         -3   -1    0    0    0  501 -0.00000000000E+00 -0.00000000000E+00 -0.19716591225E+04  0.19716591225E+04  0.00000000000E+00 0.  1.
         35    2    1    2    0    0 -0.35527136788E-14  0.00000000000E+00 -0.19619905313E+04  0.19813277137E+04  0.27613884911E+03 0.  0.
         25    2    3    3    0    0  0.12983713236E+02 -0.63561574324E+01 -0.13723640099E+04  0.13783588550E+04  0.12759772652E+03 0.  0.
         25    2    3    3    0    0 -0.12983713236E+02  0.63561574324E+01 -0.58962652139E+03  0.60296885869E+03  0.12531174039E+03 0.  0.
          5    1    4    4  502    0 -0.10523381311E+02 -0.33252431489E+02 -0.11025214158E+03  0.11573284096E+03  0.47000000000E+01 0. -1.
         -5    1    4    4    0  502  0.23507094547E+02  0.26896274057E+02 -0.12621118683E+04  0.12626260140E+04  0.47000000000E+01 0. -1.
          5    1    5    5  503    0 -0.63315731480E+02 -0.23161876933E+02 -0.31036023342E+03  0.31763330884E+03  0.47000000000E+01 0.  1.
         -5    1    5    5    0  503  0.50332018244E+02  0.29518034365E+02 -0.27926628797E+03  0.28533554985E+03  0.47000000000E+01 0.  1.
<mgrwt>
<rscale>  0 0.27613885E+03</rscale>
<asrwt>0</asrwt>
<pdfrwt beam="1">  1        3 0.14874731E-02 0.27613885E+03</pdfrwt>
<pdfrwt beam="2">  1       -3 0.30333269E+00 0.27613885E+03</pdfrwt>
<totfact> 0.15955931E+02</totfact>
</mgrwt>
</event>
<event>
 9    1  0.8122655E-001  0.2839901E+03  0.7818608E-02  0.1093529E+00
          2   -1    0    0  501    0  0.00000000000E+00  0.00000000000E+00  0.10456236220E+04  0.10456236220E+04  0.00000000000E+00 0.  1.
         -2   -1    0    0    0  501 -0.00000000000E+00 -0.00000000000E+00 -0.19282845454E+02  0.19282845454E+02  0.00000000000E+00 0.  1.
         35    2    1    2    0    0 -0.71054273576E-14  0.00000000000E+00  0.10263407765E+04  0.10649064674E+04  0.28399013156E+03 0.  0.
         25    2    3    3    0    0  0.62785387815E+02  0.22567957826E+02  0.46389069363E+03  0.48509560504E+03  0.12518727072E+03 0.  0.
         25    2    3    3    0    0 -0.62785387815E+02 -0.22567957826E+02  0.56245008290E+03  0.57981086239E+03  0.12401299429E+03 0.  0.
          5    1    4    4  502    0  0.18446047099E+02  0.71988938047E+02  0.21861329878E+03  0.23094702479E+03  0.47000000000E+01 0.  1.
         -5    1    4    4    0  502  0.44339340716E+02 -0.49420980221E+02  0.24527739485E+03  0.25414858025E+03  0.47000000000E+01 0.  1.
          5    1    5    5  503    0  0.21565428211E+02 -0.44889466772E+02  0.14721927707E+03  0.15548548955E+03  0.47000000000E+01 0. -1.
         -5    1    5    5    0  503 -0.84350816026E+02  0.22321508946E+02  0.41523080583E+03  0.42432537284E+03  0.47000000000E+01 0. -1.
<mgrwt>
<rscale>  0 0.28399013E+03</rscale>
<asrwt>0</asrwt>
<pdfrwt beam="1">  1        2 0.16086513E+00 0.28399013E+03</pdfrwt>
<pdfrwt beam="2">  1       -2 0.29665924E-02 0.28399013E+03</pdfrwt>
<totfact> 0.10595463E+04</totfact>
</mgrwt>
</event>
<event>
 9    1  0.8122655E-001  0.2750761E+03  0.7818608E-02  0.1098409E+00
         -2   -1    0    0    0  501 -0.00000000000E+00  0.00000000000E+00  0.55258374487E+01  0.55258374487E+01  0.00000000000E+00 0.  1.
          2   -1    0    0  501    0  0.00000000000E+00 -0.00000000000E+00 -0.34233199285E+04  0.34233199285E+04  0.00000000000E+00 0.  1.
         35    2    1    2    0    0  0.00000000000E+00  0.35527136788E-14 -0.34177940910E+04  0.34288457659E+04  0.27507605828E+03 0.  0.
         25    2    3    3    0    0 -0.32118906101E+02 -0.41965516061E+01 -0.11154089200E+04  0.11228091145E+04  0.12455526270E+03 0.  0.
         25    2    3    3    0    0  0.32118906101E+02  0.41965516061E+01 -0.23023851710E+04  0.23060366514E+04  0.12561181105E+03 0.  0.
          5    1    4    4  502    0  0.17916801050E+02  0.20378678016E+02 -0.61127350527E+02  0.67044352931E+02  0.47000000000E+01 0.  1.
         -5    1    4    4    0  502 -0.50035707150E+02 -0.24575229622E+02 -0.10542815695E+04  0.10557647616E+04  0.47000000000E+01 0.  1.
          5    1    5    5  503    0  0.71443573568E+02  0.81822800427E+01 -0.83268120436E+03  0.83579376164E+03  0.47000000000E+01 0. -1.
         -5    1    5    5    0  503 -0.39324667467E+02 -0.39857284366E+01 -0.14697039666E+04  0.14702428898E+04  0.47000000000E+01 0. -1.
<mgrwt>
<rscale>  0 0.27507606E+03</rscale>
<asrwt>0</asrwt>
<pdfrwt beam="1">  1        2 0.52666365E+00 0.27507606E+03</pdfrwt>
<pdfrwt beam="2">  1       -2 0.85013038E-03 0.27507606E+03</pdfrwt>
<totfact> 0.30732273E+03</totfact>
</mgrwt>
</event>
<event>
 9    1  0.8122655E-001  0.2773088E+03  0.7818608E-02  0.1097168E+00
         -1   -1    0    0    0  501 -0.00000000000E+00  0.00000000000E+00  0.13253539634E+03  0.13253539634E+03  0.00000000000E+00 0. -1.
          1   -1    0    0  501    0  0.00000000000E+00 -0.00000000000E+00 -0.14505596014E+03  0.14505596014E+03  0.00000000000E+00 0. -1.
         35    2    1    2    0    0 -0.71054273576E-14 -0.35527136788E-14 -0.12520563799E+02  0.27759135648E+03  0.27730884709E+03 0.  0.
         25    2    3    3    0    0  0.52446652923E+02  0.11902014747E+02 -0.34471349973E+02  0.14043769663E+03  0.12506863439E+03 0.  0.
         25    2    3    3    0    0 -0.52446652923E+02 -0.11902014747E+02  0.21950786174E+02  0.13715365985E+03  0.12424564394E+03 0.  0.
          5    1    4    4  502    0  0.54901478988E+02  0.19160505648E+02  0.36554760340E+02  0.68845027963E+02  0.47000000000E+01 0. -1.
         -5    1    4    4    0  502 -0.24548260648E+01 -0.72584909014E+01 -0.71026110312E+02  0.71592668670E+02  0.47000000000E+01 0. -1.
          5    1    5    5  503    0  0.19931439333E+02 -0.34910472282E+02  0.42140009964E+02  0.58428364590E+02  0.47000000000E+01 0.  1.
         -5    1    5    5    0  503 -0.72378092256E+02  0.23008457535E+02 -0.20189223790E+02  0.78725295262E+02  0.47000000000E+01 0.  1.
<mgrwt>
<rscale>  0 0.27730885E+03</rscale>
<asrwt>0</asrwt>
<pdfrwt beam="1">  1        1 0.22316302E-01 0.27730885E+03</pdfrwt>
<pdfrwt beam="2">  1       -1 0.20390061E-01 0.27730885E+03</pdfrwt>
<totfact> 0.43015793E+03</totfact>
</mgrwt>
</event>
<event>
 9    1  0.8122655E-001  0.2746642E+03  0.7818608E-02  0.1098639E+00
          2   -1    0    0  501    0  0.00000000000E+00  0.00000000000E+00  0.72871565672E+03  0.72871565672E+03  0.00000000000E+00 0.  1.
         -2   -1    0    0    0  501 -0.00000000000E+00 -0.00000000000E+00 -0.25881289454E+02  0.25881289454E+02  0.00000000000E+00 0.  1.
         35    2    1    2    0    0  0.71054273576E-14  0.00000000000E+00  0.70283436727E+03  0.75459694618E+03  0.27466416469E+03 0.  0.
         25    2    3    3    0    0  0.42644837878E+02  0.31466777134E+02  0.40197774441E+03  0.42431866031E+03  0.12510586807E+03 0.  0.
         25    2    3    3    0    0 -0.42644837878E+02 -0.31466777134E+02  0.30085662286E+03  0.33027828587E+03  0.12554002683E+03 0.  0.
          5    1    4    4  502    0  0.32827940063E+02 -0.41960946081E+02  0.24368719207E+03  0.24948733881E+03  0.47000000000E+01 0. -1.
         -5    1    4    4    0  502  0.98168978148E+01  0.73427723215E+02  0.15829055234E+03  0.17483132150E+03  0.47000000000E+01 0. -1.
          5    1    5    5  503    0  0.10149460622E+02 -0.10193766312E+02  0.25906879830E+03  0.25951041728E+03  0.47000000000E+01 0. -1.
         -5    1    5    5    0  503 -0.52794298500E+02 -0.21273010822E+02  0.41787824560E+02  0.70767868592E+02  0.47000000000E+01 0. -1.
<mgrwt>
<rscale>  0 0.27466416E+03</rscale>
<asrwt>0</asrwt>
<pdfrwt beam="1">  1        2 0.11211009E+00 0.27466416E+03</pdfrwt>
<pdfrwt beam="2">  1       -2 0.39817374E-02 0.27466416E+03</pdfrwt>
<totfact> 0.11002701E+04</totfact>
</mgrwt>
</event>
<event>
 9    1  0.8122655E-001  0.2690509E+03  0.7818608E-02  0.1101824E+00
          2   -1    0    0  501    0  0.00000000000E+00  0.00000000000E+00  0.38645235611E+04  0.38645235611E+04  0.00000000000E+00 0. -1.
         -2   -1    0    0    0  501 -0.00000000000E+00 -0.00000000000E+00 -0.46828779563E+01  0.46828779563E+01  0.00000000000E+00 0. -1.
         35    2    1    2    0    0 -0.17763568394E-14 -0.71054273576E-14  0.38598406831E+04  0.38692064390E+04  0.26905086653E+03 0.  0.
         25    2    3    3    0    0 -0.30383194583E+01  0.50400769469E+02  0.22261241379E+04  0.22301754237E+04  0.12451616061E+03 0.  0.
         25    2    3    3    0    0  0.30383194583E+01 -0.50400769469E+02  0.16337165452E+04  0.16390310153E+04  0.12183369854E+03 0.  0.
          5    1    4    4  502    0  0.15279060716E+02  0.37742259891E+02  0.21217789045E+03  0.21610061331E+03  0.47000000000E+01 0.  1.
         -5    1    4    4    0  502 -0.18317380175E+02  0.12658509577E+02  0.20139462475E+04  0.20140748104E+04  0.47000000000E+01 0.  1.
          5    1    5    5  503    0  0.48214733455E+02 -0.58676990578E+02  0.12879662000E+04  0.12902118710E+04  0.47000000000E+01 0.  1.
         -5    1    5    5    0  503 -0.45176413996E+02  0.82762211096E+01  0.34575034517E+03  0.34881914426E+03  0.47000000000E+01 0.  1.
<mgrwt>
<rscale>  0 0.26905087E+03</rscale>
<asrwt>0</asrwt>
<pdfrwt beam="1">  1        2 0.59453954E+00 0.26905087E+03</pdfrwt>
<pdfrwt beam="2">  1       -2 0.72044585E-03 0.26905087E+03</pdfrwt>
<totfact> 0.19406433E+03</totfact>
</mgrwt>
</event>
<event>
 9    1  0.8122655E-001  0.2694665E+03  0.7818608E-02  0.1101585E+00
         -2   -1    0    0    0  501 -0.00000000000E+00  0.00000000000E+00  0.28060043604E+02  0.28060043604E+02  0.00000000000E+00 0. -1.
          2   -1    0    0  501    0  0.00000000000E+00 -0.00000000000E+00 -0.64693568038E+03  0.64693568038E+03  0.00000000000E+00 0. -1.
         35    2    1    2    0    0  0.00000000000E+00  0.71054273576E-14 -0.61887563677E+03  0.67499572398E+03  0.26946646100E+03 0.  0.
         25    2    3    3    0    0  0.21096565363E+02  0.42820503946E+02 -0.34525557485E+03  0.37029999787E+03  0.12506804478E+03 0.  0.
         25    2    3    3    0    0 -0.21096565363E+02 -0.42820503946E+02 -0.27362006192E+03  0.30469572611E+03  0.12527125209E+03 0.  0.
          5    1    4    4  502    0 -0.74023941241E+01  0.63594153136E+02 -0.32072011394E+03  0.32708178371E+03  0.47000000000E+01 0.  1.
         -5    1    4    4    0  502  0.28498959487E+02 -0.20773649190E+02 -0.24535460917E+02  0.43218214157E+02  0.47000000000E+01 0.  1.
          5    1    5    5  503    0 -0.41353115040E+02 -0.26057153536E+02 -0.27361447427E+03  0.27798565773E+03  0.47000000000E+01 0. -1.
         -5    1    5    5    0  503  0.20256549677E+02 -0.16763350410E+02 -0.55876485995E-02  0.26710068383E+02  0.47000000000E+01 0. -1.
<mgrwt>
<rscale>  0 0.26946646E+03</rscale>
<asrwt>0</asrwt>
<pdfrwt beam="1">  1        2 0.99528563E-01 0.26946646E+03</pdfrwt>
<pdfrwt beam="2">  1       -2 0.43169299E-02 0.26946646E+03</pdfrwt>
<totfact> 0.11237534E+04</totfact>
</mgrwt>
</event>
<event>
 9    1  0.8122655E-001  0.2766145E+03  0.7818608E-02  0.1097553E+00
          2   -1    0    0  501    0  0.00000000000E+00  0.00000000000E+00  0.12554862168E+03  0.12554862168E+03  0.00000000000E+00 0. -1.
         -2   -1    0    0    0  501 -0.00000000000E+00 -0.00000000000E+00 -0.15236240003E+03  0.15236240003E+03  0.00000000000E+00 0. -1.
         35    2    1    2    0    0  0.71054273576E-14 -0.14210854715E-13 -0.26813778349E+02  0.27791102171E+03  0.27661445602E+03 0.  0.
         25    2    3    3    0    0 -0.45976259760E+02  0.35556429020E+02 -0.24358061566E+02  0.13982677948E+03  0.12482041896E+03 0.  0.
         25    2    3    3    0    0  0.45976259760E+02 -0.35556429020E+02 -0.24557167835E+01  0.13808424223E+03  0.12523238919E+03 0.  0.
          5    1    4    4  502    0  0.19431110311E+02 -0.35657734306E+02 -0.68918235870E+01  0.41456354111E+02  0.47000000000E+01 0.  1.
         -5    1    4    4    0  502 -0.65407370072E+02  0.71214163326E+02 -0.17466237979E+02  0.98370425368E+02  0.47000000000E+01 0.  1.
          5    1    5    5  503    0  0.47252618359E+02 -0.47658235575E+02  0.50132898198E+02  0.83901816677E+02  0.47000000000E+01 0.  1.
         -5    1    5    5    0  503 -0.12763585985E+01  0.12101806555E+02 -0.52588614982E+02  0.54182425554E+02  0.47000000000E+01 0.  1.
<mgrwt>
<rscale>  0 0.27661446E+03</rscale>
<asrwt>0</asrwt>
<pdfrwt beam="1">  1        2 0.19315173E-01 0.27661446E+03</pdfrwt>
<pdfrwt beam="2">  1       -2 0.23440369E-01 0.27661446E+03</pdfrwt>
<totfact> 0.45791284E+03</totfact>
</mgrwt>
</event>
<event>
 9    1  0.8122655E-001  0.2753751E+03  0.7818608E-02  0.1098242E+00
          1   -1    0    0  501    0  0.00000000000E+00  0.00000000000E+00  0.49556632148E+03  0.49556632148E+03  0.00000000000E+00 0. -1.
         -1   -1    0    0    0  501 -0.00000000000E+00 -0.00000000000E+00 -0.38254938339E+02  0.38254938339E+02  0.00000000000E+00 0. -1.
         35    2    1    2    0    0  0.00000000000E+00  0.35527136788E-14  0.45731138315E+03  0.53382125982E+03  0.27537508291E+03 0.  0.
         25    2    3    3    0    0  0.50145568780E+02  0.21172408371E+02  0.19137160453E+03  0.23485173965E+03  0.12477740041E+03 0.  0.
         25    2    3    3    0    0 -0.50145568780E+02 -0.21172408371E+02  0.26593977862E+03  0.29896952017E+03  0.12528351526E+03 0.  0.
          5    1    4    4  502    0 -0.71861499827E+01  0.39622601050E+02  0.73955968640E+01  0.41211359096E+02  0.47000000000E+01 0. -1.
         -5    1    4    4    0  502  0.57331718763E+02 -0.18450192679E+02  0.18397600766E+03  0.19364038056E+03  0.47000000000E+01 0. -1.
          5    1    5    5  503    0 -0.67552703690E+02  0.38270534617E+00  0.26197952225E+03  0.27058986366E+03  0.47000000000E+01 0. -1.
         -5    1    5    5    0  503  0.17407134909E+02 -0.21555113717E+02  0.39602563699E+01  0.28379656510E+02  0.47000000000E+01 0. -1.
<mgrwt>
<rscale>  0 0.27537508E+03</rscale>
<asrwt>0</asrwt>
<pdfrwt beam="1">  1        1 0.76240968E-01 0.27537508E+03</pdfrwt>
<pdfrwt beam="2">  1       -1 0.58853755E-02 0.27537508E+03</pdfrwt>
<totfact> 0.62574185E+03</totfact>
</mgrwt>
</event>
<event>
 9    1  0.8122655E-001  0.2714727E+03  0.7818608E-02  0.1100440E+00
         -1   -1    0    0    0  501 -0.00000000000E+00  0.00000000000E+00  0.33878342901E+02  0.33878342901E+02  0.00000000000E+00 0. -1.
          1   -1    0    0  501    0  0.00000000000E+00 -0.00000000000E+00 -0.54383865364E+03  0.54383865364E+03  0.00000000000E+00 0. -1.
         35    2    1    2    0    0 -0.35527136788E-14 -0.71054273576E-14 -0.50996031074E+03  0.57771699654E+03  0.27147266817E+03 0.  0.
         25    2    3    3    0    0 -0.38706187240E+01  0.18188875927E+02 -0.36007743675E+03  0.38162389874E+03  0.12504088427E+03 0.  0.
         25    2    3    3    0    0  0.38706187240E+01 -0.18188875927E+02 -0.14988287399E+03  0.19609309780E+03  0.12506722269E+03 0.  0.
          5    1    4    4  502    0 -0.31642314341E+02  0.49362964770E+02 -0.85072045368E+02  0.10342766192E+03  0.47000000000E+01 0.  1.
         -5    1    4    4    0  502  0.27771695617E+02 -0.31174088842E+02 -0.27500539138E+03  0.27819623682E+03  0.47000000000E+01 0.  1.
          5    1    5    5  503    0 -0.31364212663E+02 -0.60678771462E+02 -0.62940852366E+02  0.93001441057E+02  0.47000000000E+01 0. -1.
         -5    1    5    5    0  503  0.35234831387E+02  0.42489895535E+02 -0.86942021627E+02  0.10309165674E+03  0.47000000000E+01 0. -1.
<mgrwt>
<rscale>  0 0.27147267E+03</rscale>
<asrwt>0</asrwt>
<pdfrwt beam="1">  1        1 0.83667475E-01 0.27147267E+03</pdfrwt>
<pdfrwt beam="2">  1       -1 0.52120534E-02 0.27147267E+03</pdfrwt>
<totfact> 0.66294177E+03</totfact>
</mgrwt>
</event>
<event>
 9    1  0.8122655E-001  0.2844400E+03  0.7818608E-02  0.1093288E+00
         -2   -1    0    0    0  501 -0.00000000000E+00  0.00000000000E+00  0.63887683899E+02  0.63887683899E+02  0.00000000000E+00 0.  1.
          2   -1    0    0  501    0  0.00000000000E+00 -0.00000000000E+00 -0.31659510489E+03  0.31659510489E+03  0.00000000000E+00 0.  1.
         35    2    1    2    0    0  0.14210854715E-13  0.00000000000E+00 -0.25270742099E+03  0.38048278879E+03  0.28443999708E+03 0.  0.
         25    2    3    3    0    0 -0.43342334729E+02 -0.35482977411E+01 -0.57140477472E+02  0.14410562392E+03  0.12494097920E+03 0.  0.
         25    2    3    3    0    0  0.43342334729E+02  0.35482977411E+01 -0.19556694352E+03  0.23637716487E+03  0.12544555105E+03 0.  0.
          5    1    4    4  502    0  0.38270870111E+02  0.13240982255E+02 -0.43368419530E+02  0.59522205291E+02  0.47000000000E+01 0. -1.
         -5    1    4    4    0  502 -0.81613204840E+02 -0.16789279996E+02 -0.13772057942E+02  0.84583418629E+02  0.47000000000E+01 0. -1.
          5    1    5    5  503    0 -0.25204704885E+02 -0.41193171654E+02 -0.52550330363E+02  0.71524693362E+02  0.47000000000E+01 0.  1.
         -5    1    5    5    0  503  0.68547039614E+02  0.44741469395E+02 -0.14301661316E+03  0.16485247151E+03  0.47000000000E+01 0.  1.
<mgrwt>
<rscale>  0 0.28444000E+03</rscale>
<asrwt>0</asrwt>
<pdfrwt beam="1">  1        2 0.48706938E-01 0.28444000E+03</pdfrwt>
<pdfrwt beam="2">  1       -2 0.98288746E-02 0.28444000E+03</pdfrwt>
<totfact> 0.69956626E+03</totfact>
</mgrwt>
</event>
<event>
 9    1  0.8122655E-001  0.2722280E+03  0.7818608E-02  0.1100011E+00
         -2   -1    0    0    0  501 -0.00000000000E+00  0.00000000000E+00  0.20395682646E+02  0.20395682646E+02  0.00000000000E+00 0. -1.
          2   -1    0    0  501    0  0.00000000000E+00 -0.00000000000E+00 -0.90837966029E+03  0.90837966029E+03  0.00000000000E+00 0. -1.
         35    2    1    2    0    0  0.00000000000E+00  0.00000000000E+00 -0.88798397765E+03  0.92877534294E+03  0.27222801673E+03 0.  0.
         25    2    3    3    0    0  0.51231152845E+02 -0.22227863985E+02 -0.45093893241E+03  0.47101619416E+03  0.12406298982E+03 0.  0.
         25    2    3    3    0    0 -0.51231152845E+02  0.22227863985E+02 -0.43704504524E+03  0.45775914878E+03  0.12416262627E+03 0.  0.
          5    1    4    4  502    0 -0.37186166572E+02 -0.23831029138E+02 -0.20110447533E+03  0.20595103528E+03  0.47000000000E+01 0. -1.
         -5    1    4    4    0  502  0.88417319418E+02  0.16031651531E+01 -0.24983445708E+03  0.26506515889E+03  0.47000000000E+01 0. -1.
          5    1    5    5  503    0 -0.48115054824E+02  0.62098422773E+02 -0.16565819462E+03  0.18340119971E+03  0.47000000000E+01 0. -1.
         -5    1    5    5    0  503 -0.31160980214E+01 -0.39870558788E+02 -0.27138685062E+03  0.27435794907E+03  0.47000000000E+01 0. -1.
<mgrwt>
<rscale>  0 0.27222802E+03</rscale>
<asrwt>0</asrwt>
<pdfrwt beam="1">  1        2 0.13975071E+00 0.27222802E+03</pdfrwt>
<pdfrwt beam="2">  1       -2 0.31377975E-02 0.27222802E+03</pdfrwt>
<totfact> 0.11841387E+04</totfact>
</mgrwt>
</event>
<event>
 9    1  0.8122655E-001  0.2592913E+03  0.7818608E-02  0.1107570E+00
          2   -1    0    0  501    0  0.00000000000E+00  0.00000000000E+00  0.44317014446E+03  0.44317014446E+03  0.00000000000E+00 0.  1.
         -2   -1    0    0    0  501 -0.00000000000E+00 -0.00000000000E+00 -0.37926736247E+02  0.37926736247E+02  0.00000000000E+00 0.  1.
         35    2    1    2    0    0  0.71054273576E-14  0.35527136788E-14  0.40524340822E+03  0.48109688071E+03  0.25929132019E+03 0.  0.
         25    2    3    3    0    0 -0.14926661475E+02 -0.15939077825E+02  0.15338994768E+03  0.19903175029E+03  0.12493319075E+03 0.  0.
         25    2    3    3    0    0  0.14926661475E+02  0.15939077825E+02  0.25185346054E+03  0.28206513042E+03  0.12511479843E+03 0.  0.
          5    1    4    4  502    0 -0.45517488723E+02 -0.55194063616E+02  0.61652141860E+02  0.94558463577E+02  0.47000000000E+01 0. -1.
         -5    1    4    4    0  502  0.30590827249E+02  0.39254985791E+02  0.91737805819E+02  0.10447328672E+03  0.47000000000E+01 0. -1.
          5    1    5    5  503    0  0.68719438290E+02  0.13309113449E+02  0.11236764528E+03  0.13246913378E+03  0.47000000000E+01 0. -1.
         -5    1    5    5    0  503 -0.53792776815E+02  0.26299643763E+01  0.13948581526E+03  0.14959599664E+03  0.47000000000E+01 0. -1.
<mgrwt>
<rscale>  0 0.25929132E+03</rscale>
<asrwt>0</asrwt>
<pdfrwt beam="1">  1        2 0.68180019E-01 0.25929132E+03</pdfrwt>
<pdfrwt beam="2">  1       -2 0.58348828E-02 0.25929132E+03</pdfrwt>
<totfact> 0.10904305E+04</totfact>
</mgrwt>
</event>
<event>
 9    1  0.8122655E-001  0.2744967E+03  0.7818608E-02  0.1098733E+00
         -1   -1    0    0    0  501 -0.00000000000E+00  0.00000000000E+00  0.55853041211E+01  0.55853041211E+01  0.00000000000E+00 0.  1.
          1   -1    0    0  501    0  0.00000000000E+00 -0.00000000000E+00 -0.33726207389E+04  0.33726207389E+04  0.00000000000E+00 0.  1.
         35    2    1    2    0    0  0.14210854715E-13  0.71054273576E-14 -0.33670354348E+04  0.33782060430E+04  0.27449672138E+03 0.  0.
         25    2    3    3    0    0 -0.54652453389E+02 -0.77738629052E+01 -0.14615340097E+04  0.14678710213E+04  0.12456464195E+03 0.  0.
         25    2    3    3    0    0  0.54652453389E+02  0.77738629052E+01 -0.19055014251E+04  0.19103350217E+04  0.12408420799E+03 0.  0.
          5    1    4    4  502    0  0.14249806500E+02  0.40622862780E+02 -0.27976405398E+03  0.28309590224E+03  0.47000000000E+01 0. -1.
         -5    1    4    4    0  502 -0.68902259889E+02 -0.48396725685E+02 -0.11817699557E+04  0.11847751190E+04  0.47000000000E+01 0. -1.
          5    1    5    5  503    0  0.42953614272E+02  0.62289447800E+02 -0.85898021101E+03  0.86231901359E+03  0.47000000000E+01 0.  1.
         -5    1    5    5    0  503  0.11698839117E+02 -0.54515584895E+02 -0.10465212141E+04  0.10480160081E+04  0.47000000000E+01 0.  1.
<mgrwt>
<rscale>  0 0.27449672E+03</rscale>
<asrwt>0</asrwt>
<pdfrwt beam="1">  1        1 0.51886428E+00 0.27449672E+03</pdfrwt>
<pdfrwt beam="2">  1       -1 0.85927830E-03 0.27449672E+03</pdfrwt>
<totfact> 0.91510574E+02</totfact>
</mgrwt>
</event>
<event>
 9    1  0.8122655E-001  0.2728460E+03  0.7818608E-02  0.1099662E+00
         -2   -1    0    0    0  501 -0.00000000000E+00  0.00000000000E+00  0.21498537819E+02  0.21498537819E+02  0.00000000000E+00 0.  1.
          2   -1    0    0  501    0  0.00000000000E+00 -0.00000000000E+00 -0.86569797934E+03  0.86569797934E+03  0.00000000000E+00 0.  1.
         35    2    1    2    0    0 -0.35527136788E-14  0.00000000000E+00 -0.84419944152E+03  0.88719651716E+03  0.27284604266E+03 0.  0.
         25    2    3    3    0    0 -0.21368606452E+02 -0.30750690885E+02 -0.56085137252E+03  0.57588556960E+03  0.12525056840E+03 0.  0.
         25    2    3    3    0    0  0.21368606452E+02  0.30750690885E+02 -0.28334806900E+03  0.31131094756E+03  0.12339430915E+03 0.  0.
          5    1    4    4  502    0 -0.51161023131E+02  0.17502813592E+02 -0.12419546866E+03  0.13553746053E+03  0.47000000000E+01 0. -1.
         -5    1    4    4    0  502  0.29792416679E+02 -0.48253504478E+02 -0.43665590386E+03  0.44034810907E+03  0.47000000000E+01 0. -1.
          5    1    5    5  503    0  0.62253917531E+01  0.59864252789E+02 -0.26811449559E+03  0.27482714023E+03  0.47000000000E+01 0. -1.
         -5    1    5    5    0  503  0.15143214699E+02 -0.29113561904E+02 -0.15233573416E+02  0.36483807328E+02  0.47000000000E+01 0. -1.
<mgrwt>
<rscale>  0 0.27284604E+03</rscale>
<asrwt>0</asrwt>
<pdfrwt beam="1">  1        2 0.13318431E+00 0.27284604E+03</pdfrwt>
<pdfrwt beam="2">  1       -2 0.33074671E-02 0.27284604E+03</pdfrwt>
<totfact> 0.11670950E+04</totfact>
</mgrwt>
</event>
<event>
 9    1  0.8122655E-001  0.2673693E+03  0.7818608E-02  0.1102795E+00
          1   -1    0    0  501    0  0.00000000000E+00  0.00000000000E+00  0.22154550170E+03  0.22154550170E+03  0.00000000000E+00 0.  1.
         -1   -1    0    0    0  501 -0.00000000000E+00 -0.00000000000E+00 -0.80667793976E+02  0.80667793976E+02  0.00000000000E+00 0.  1.
         35    2    1    2    0    0 -0.35527136788E-14  0.00000000000E+00  0.14087770773E+03  0.30221329568E+03  0.26736930929E+03 0.  0.
         25    2    3    3    0    0 -0.14967712654E+02  0.76090567760E+01  0.12141532121E+03  0.17533233060E+03  0.12537071334E+03 0.  0.
         25    2    3    3    0    0  0.14967712654E+02 -0.76090567760E+01  0.19462386516E+02  0.12688096508E+03  0.12425000862E+03 0.  0.
          5    1    4    4  502    0  0.17536010794E+02 -0.49917237276E+02  0.83630264333E+02  0.99072465218E+02  0.47000000000E+01 0.  1.
         -5    1    4    4    0  502 -0.32503723448E+02  0.57526294052E+02  0.37785056876E+02  0.76259865385E+02  0.47000000000E+01 0.  1.
          5    1    5    5  503    0 -0.32739914066E+02 -0.50153006020E+02  0.64389580710E+00  0.60081033510E+02  0.47000000000E+01 0.  1.
         -5    1    5    5    0  503  0.47707626720E+02  0.42543949244E+02  0.18818490709E+02  0.66799931565E+02  0.47000000000E+01 0.  1.
<mgrwt>
<rscale>  0 0.26736931E+03</rscale>
<asrwt>0</asrwt>
<pdfrwt beam="1">  1        1 0.34083923E-01 0.26736931E+03</pdfrwt>
<pdfrwt beam="2">  1       -1 0.12410430E-01 0.26736931E+03</pdfrwt>
<totfact> 0.55454606E+03</totfact>
</mgrwt>
</event>
<event>
 9    1  0.8122655E-001  0.2745416E+03  0.7818608E-02  0.1098708E+00
          1   -1    0    0  501    0  0.00000000000E+00  0.00000000000E+00  0.42437221720E+02  0.42437221720E+02  0.00000000000E+00 0.  1.
         -1   -1    0    0    0  501 -0.00000000000E+00 -0.00000000000E+00 -0.44402716058E+03  0.44402716058E+03  0.00000000000E+00 0.  1.
         35    2    1    2    0    0  0.00000000000E+00  0.00000000000E+00 -0.40158993886E+03  0.48646438230E+03  0.27454164757E+03 0.  0.
         25    2    3    3    0    0  0.24834705698E+02  0.40007889038E+02 -0.25877990323E+03  0.29124988196E+03  0.12506822792E+03 0.  0.
         25    2    3    3    0    0 -0.24834705698E+02 -0.40007889038E+02 -0.14281003564E+03  0.19521450035E+03  0.12448534482E+03 0.  0.
          5    1    4    4  502    0 -0.13716403584E+02 -0.34156404598E+02 -0.14690797761E+03  0.15152175945E+03  0.47000000000E+01 0.  1.
         -5    1    4    4    0  502  0.38551109283E+02  0.74164293636E+02 -0.11187192561E+03  0.13972812250E+03  0.47000000000E+01 0.  1.
          5    1    5    5  503    0  0.26180809696E+02 -0.15348488039E+02 -0.13424841650E+03  0.13771615088E+03  0.47000000000E+01 0.  1.
         -5    1    5    5    0  503 -0.51015515395E+02 -0.24659400999E+02 -0.85616191383E+01  0.57498349462E+02  0.47000000000E+01 0.  1.
<mgrwt>
<rscale>  0 0.27454165E+03</rscale>
<asrwt>0</asrwt>
<pdfrwt beam="1">  1        1 0.65288038E-02 0.27454165E+03</pdfrwt>
<pdfrwt beam="2">  1       -1 0.68311866E-01 0.27454165E+03</pdfrwt>
<totfact> 0.25821049E+03</totfact>
</mgrwt>
</event>
<event>
 9    1  0.8122655E-001  0.2732209E+03  0.7818608E-02  0.1099450E+00
          1   -1    0    0  501    0  0.00000000000E+00  0.00000000000E+00  0.74062178984E+02  0.74062178984E+02  0.00000000000E+00 0.  1.
         -1   -1    0    0    0  501 -0.00000000000E+00 -0.00000000000E+00 -0.25198311869E+03  0.25198311869E+03  0.00000000000E+00 0.  1.
         35    2    1    2    0    0 -0.35527136788E-14 -0.71054273576E-14 -0.17792093970E+03  0.32604529767E+03  0.27322092773E+03 0.  0.
         25    2    3    3    0    0  0.29182292569E+02  0.42712312422E+02 -0.65614318123E+02  0.14967437120E+03  0.12418224840E+03 0.  0.
         25    2    3    3    0    0 -0.29182292569E+02 -0.42712312422E+02 -0.11230662158E+03  0.17637092647E+03  0.12576954569E+03 0.  0.
          5    1    4    4  502    0  0.46869996844E+02  0.79910396812E+02 -0.40607776368E+02  0.10125981248E+03  0.47000000000E+01 0. -1.
         -5    1    4    4    0  502 -0.17687704275E+02 -0.37198084390E+02 -0.25006541754E+02  0.48414558712E+02  0.47000000000E+01 0. -1.
          5    1    5    5  503    0 -0.26384895968E+02 -0.22147104963E+02 -0.13840016763E+03  0.14270022213E+03  0.47000000000E+01 0. -1.
         -5    1    5    5    0  503 -0.27973966017E+01 -0.20565207459E+02  0.26093546055E+02  0.33670704348E+02  0.47000000000E+01 0. -1.
<mgrwt>
<rscale>  0 0.27322093E+03</rscale>
<asrwt>0</asrwt>
<pdfrwt beam="1">  1        1 0.11394181E-01 0.27322093E+03</pdfrwt>
<pdfrwt beam="2">  1       -1 0.38766634E-01 0.27322093E+03</pdfrwt>
<totfact> 0.34945777E+03</totfact>
</mgrwt>
</event>
<event>
 9    1  0.8122655E-001  0.2728010E+03  0.7818608E-02  0.1099687E+00
         -1   -1    0    0    0  501 -0.00000000000E+00  0.00000000000E+00  0.51487241429E+02  0.51487241429E+02  0.00000000000E+00 0. -1.
          1   -1    0    0  501    0  0.00000000000E+00 -0.00000000000E+00 -0.36135342699E+03  0.36135342699E+03  0.00000000000E+00 0. -1.
         35    2    1    2    0    0  0.00000000000E+00  0.00000000000E+00 -0.30986618556E+03  0.41284066842E+03  0.27280096141E+03 0.  0.
         25    2    3    3    0    0 -0.10152108957E+02  0.50107682495E+02 -0.15288578449E+03  0.20422131455E+03  0.12537319115E+03 0.  0.
         25    2    3    3    0    0  0.10152108957E+02 -0.50107682495E+02 -0.15698040108E+03  0.20861935387E+03  0.12753565511E+03 0.  0.
          5    1    4    4  502    0  0.97219631186E+01 -0.40606212342E+02 -0.40531429158E+02  0.58380371678E+02  0.47000000000E+01 0. -1.
         -5    1    4    4    0  502 -0.19874072076E+02  0.90713894837E+02 -0.11235435533E+03  0.14584094287E+03  0.47000000000E+01 0. -1.
          5    1    5    5  503    0 -0.36491018237E+02 -0.53600162063E+02 -0.26994838455E+02  0.70394481946E+02  0.47000000000E+01 0. -1.
         -5    1    5    5    0  503  0.46643127195E+02  0.34924795684E+01 -0.12998556262E+03  0.13822487192E+03  0.47000000000E+01 0. -1.
<mgrwt>
<rscale>  0 0.27280096E+03</rscale>
<asrwt>0</asrwt>
<pdfrwt beam="1">  1        1 0.55592835E-01 0.27280096E+03</pdfrwt>
<pdfrwt beam="2">  1       -1 0.79211141E-02 0.27280096E+03</pdfrwt>
<totfact> 0.59994114E+03</totfact>
</mgrwt>
</event>
<event>
 9    1  0.8122655E-001  0.2852351E+03  0.7818608E-02  0.1092864E+00
          2   -1    0    0  501    0  0.00000000000E+00  0.00000000000E+00  0.15601804334E+03  0.15601804334E+03  0.00000000000E+00 0. -1.
         -2   -1    0    0    0  501 -0.00000000000E+00 -0.00000000000E+00 -0.13036803280E+03  0.13036803280E+03  0.00000000000E+00 0. -1.
         35    2    1    2    0    0 -0.35527136788E-14  0.00000000000E+00  0.25650010541E+02  0.28638607613E+03  0.28523509876E+03 0.  0.
         25    2    3    3    0    0 -0.26848814716E+02 -0.10034228868E+02 -0.48048748022E+02  0.13887147385E+03  0.12710255490E+03 0.  0.
         25    2    3    3    0    0  0.26848814716E+02  0.10034228868E+02  0.73698758563E+02  0.14751460228E+03  0.12452913825E+03 0.  0.
          5    1    4    4  502    0  0.13360880103E+02 -0.59891325253E+02 -0.41688946499E+02  0.74333990999E+02  0.47000000000E+01 0. -1.
         -5    1    4    4    0  502 -0.40209694819E+02  0.49857096385E+02 -0.63598015231E+01  0.64537482851E+02  0.47000000000E+01 0. -1.
          5    1    5    5  503    0 -0.18827496832E+02  0.53491535994E+02  0.60260215328E+02  0.82880652817E+02  0.47000000000E+01 0.  1.
         -5    1    5    5    0  503  0.45676311548E+02 -0.43457307126E+02  0.13438543235E+02  0.64633949466E+02  0.47000000000E+01 0.  1.
<mgrwt>
<rscale>  0 0.28523510E+03</rscale>
<asrwt>0</asrwt>
<pdfrwt beam="1">  1        2 0.24002776E-01 0.28523510E+03</pdfrwt>
<pdfrwt beam="2">  1       -2 0.20056620E-01 0.28523510E+03</pdfrwt>
<totfact> 0.46894524E+03</totfact>
</mgrwt>
</event>
<event>
 9    1  0.8122655E-001  0.2747531E+03  0.7818608E-02  0.1098590E+00
          2   -1    0    0  501    0  0.00000000000E+00  0.00000000000E+00  0.44309101557E+02  0.44309101557E+02  0.00000000000E+00 0.  1.
         -2   -1    0    0    0  501 -0.00000000000E+00 -0.00000000000E+00 -0.42592426703E+03  0.42592426703E+03  0.00000000000E+00 0.  1.
         35    2    1    2    0    0  0.35527136788E-14 -0.71054273576E-14 -0.38161516547E+03  0.47023336859E+03  0.27475313722E+03 0.  0.
         25    2    3    3    0    0 -0.19106248827E+02  0.57696362390E+02 -0.19958597196E+03  0.24309009897E+03  0.12475703203E+03 0.  0.
         25    2    3    3    0    0  0.19106248827E+02 -0.57696362390E+02 -0.18202919352E+03  0.22714326961E+03  0.12151345054E+03 0.  0.
          5    1    4    4  502    0 -0.56563729343E+02  0.33807633074E+02 -0.39689329590E+02  0.77069737346E+02  0.47000000000E+01 0. -1.
         -5    1    4    4    0  502  0.37457480516E+02  0.23888729316E+02 -0.15989664237E+03  0.16602036163E+03  0.47000000000E+01 0. -1.
          5    1    5    5  503    0  0.93255407866E+01  0.37245198658E+02 -0.69269068702E+02  0.79337660748E+02  0.47000000000E+01 0. -1.
         -5    1    5    5    0  503  0.97807080402E+01 -0.94941561049E+02 -0.11276012481E+03  0.14780560887E+03  0.47000000000E+01 0. -1.
<mgrwt>
<rscale>  0 0.27475314E+03</rscale>
<asrwt>0</asrwt>
<pdfrwt beam="1">  1        2 0.68167847E-02 0.27475314E+03</pdfrwt>
<pdfrwt beam="2">  1       -2 0.65526812E-01 0.27475314E+03</pdfrwt>
<totfact> 0.22910490E+03</totfact>
</mgrwt>
</event>
<event>
 9    1  0.8122655E-001  0.2737841E+03  0.7818608E-02  0.1099133E+00
          2   -1    0    0  501    0  0.00000000000E+00  0.00000000000E+00  0.15090849182E+04  0.15090849182E+04  0.00000000000E+00 0. -1.
         -2   -1    0    0    0  501 -0.00000000000E+00 -0.00000000000E+00 -0.12417747705E+02  0.12417747705E+02  0.00000000000E+00 0. -1.
         35    2    1    2    0    0 -0.17763568394E-14  0.00000000000E+00  0.14966671705E+04  0.15215026659E+04  0.27378411773E+03 0.  0.
         25    2    3    3    0    0  0.74204578185E+01  0.53122048001E+02  0.65788242835E+03  0.67186522703E+03  0.12536577919E+03 0.  0.
         25    2    3    3    0    0 -0.74204578185E+01 -0.53122048001E+02  0.83878474216E+03  0.84963743889E+03  0.12428563349E+03 0.  0.
          5    1    4    4  502    0 -0.20539136588E+01 -0.32302175484E+02  0.64979154788E+02  0.72746337773E+02  0.47000000000E+01 0.  1.
         -5    1    4    4    0  502  0.94743714773E+01  0.85424223486E+02  0.59290327356E+03  0.59911888926E+03  0.47000000000E+01 0.  1.
          5    1    5    5  503    0 -0.53627732509E+02 -0.59636895987E+02  0.65724981102E+03  0.66214190107E+03  0.47000000000E+01 0.  1.
         -5    1    5    5    0  503  0.46207274690E+02  0.65148479853E+01  0.18153493114E+03  0.18749553782E+03  0.47000000000E+01 0.  1.
<mgrwt>
<rscale>  0 0.27378412E+03</rscale>
<asrwt>0</asrwt>
<pdfrwt beam="1">  1        2 0.23216677E+00 0.27378412E+03</pdfrwt>
<pdfrwt beam="2">  1       -2 0.19104239E-02 0.27378412E+03</pdfrwt>
<totfact> 0.11156982E+04</totfact>
</mgrwt>
</event>
<event>
 9    1  0.8122655E-001  0.2761108E+03  0.7818608E-02  0.1097832E+00
         -1   -1    0    0    0  501 -0.00000000000E+00  0.00000000000E+00  0.10275747372E+03  0.10275747372E+03  0.00000000000E+00 0. -1.
          1   -1    0    0  501    0  0.00000000000E+00 -0.00000000000E+00 -0.18547846749E+03  0.18547846749E+03  0.00000000000E+00 0. -1.
         35    2    1    2    0    0 -0.88817841970E-15  0.00000000000E+00 -0.82720993764E+02  0.28823594121E+03  0.27611083825E+03 0.  0.
         25    2    3    3    0    0  0.78016686260E+01  0.24522481453E+02  0.15232080048E+02  0.12787892572E+03  0.12433336339E+03 0.  0.
         25    2    3    3    0    0 -0.78016686260E+01 -0.24522481453E+02 -0.97953073812E+02  0.16035701549E+03  0.12432758993E+03 0.  0.
          5    1    4    4  502    0  0.50724435931E+02  0.51812441799E+02  0.22993979257E+02  0.76212273341E+02  0.47000000000E+01 0.  1.
         -5    1    4    4    0  502 -0.42922767305E+02 -0.27289960346E+02 -0.77618992088E+01  0.51666652379E+02  0.47000000000E+01 0.  1.
          5    1    5    5  503    0  0.48083299716E+01  0.50391970348E+02 -0.38207124205E+02  0.63595165324E+02  0.47000000000E+01 0. -1.
         -5    1    5    5    0  503 -0.12609998598E+02 -0.74914451801E+02 -0.59745949608E+02  0.96761850167E+02  0.47000000000E+01 0. -1.
<mgrwt>
<rscale>  0 0.27611084E+03</rscale>
<asrwt>0</asrwt>
<pdfrwt beam="1">  1        1 0.28535149E-01 0.27611084E+03</pdfrwt>
<pdfrwt beam="2">  1       -1 0.15808842E-01 0.27611084E+03</pdfrwt>
<totfact> 0.47391992E+03</totfact>
</mgrwt>
</event>
<event>
 9    1  0.8122655E-001  0.2746480E+03  0.7818608E-02  0.1098649E+00
          1   -1    0    0  501    0  0.00000000000E+00  0.00000000000E+00  0.20429928580E+03  0.20429928580E+03  0.00000000000E+00 0.  1.
         -1   -1    0    0    0  501 -0.00000000000E+00 -0.00000000000E+00 -0.92305187621E+02  0.92305187621E+02  0.00000000000E+00 0.  1.
         35    2    1    2    0    0 -0.35527136788E-14  0.00000000000E+00  0.11199409818E+03  0.29660447342E+03  0.27464802134E+03 0.  0.
         25    2    3    3    0    0  0.20863875181E+02  0.31734512385E+02  0.10109851688E+03  0.16535768634E+03  0.12521930263E+03 0.  0.
         25    2    3    3    0    0 -0.20863875181E+02 -0.31734512385E+02  0.10895581297E+02  0.13124678709E+03  0.12515839910E+03 0.  0.
          5    1    4    4  502    0 -0.12763408558E+02 -0.42685330319E+02  0.16667249546E+02  0.47799887342E+02  0.47000000000E+01 0.  1.
         -5    1    4    4    0  502  0.33627283739E+02  0.74419842704E+02  0.84431267339E+02  0.11755779899E+03  0.47000000000E+01 0.  1.
          5    1    5    5  503    0 -0.56751800985E+02  0.23606372912E+02 -0.87528664899E+01  0.62263395578E+02  0.47000000000E+01 0. -1.
         -5    1    5    5    0  503  0.35887925804E+02 -0.55340885297E+02  0.19648447787E+02  0.68983391511E+02  0.47000000000E+01 0. -1.
<mgrwt>
<rscale>  0 0.27464802E+03</rscale>
<asrwt>0</asrwt>
<pdfrwt beam="1">  1        1 0.31430659E-01 0.27464802E+03</pdfrwt>
<pdfrwt beam="2">  1       -1 0.14200798E-01 0.27464802E+03</pdfrwt>
<totfact> 0.49725670E+03</totfact>
</mgrwt>
</event>
<event>
 9    1  0.8122655E-001  0.2775090E+03  0.7818608E-02  0.1097057E+00
          2   -1    0    0  501    0  0.00000000000E+00  0.00000000000E+00  0.19235537079E+04  0.19235537079E+04  0.00000000000E+00 0. -1.
         -2   -1    0    0    0  501 -0.00000000000E+00 -0.00000000000E+00 -0.10008979748E+02  0.10008979748E+02  0.00000000000E+00 0. -1.
         35    2    1    2    0    0  0.00000000000E+00 -0.14210854715E-13  0.19135447281E+04  0.19335626876E+04  0.27750899161E+03 0.  0.
         25    2    3    3    0    0  0.25286144573E+02 -0.55030777388E+02  0.97624676888E+03  0.98606188984E+03  0.12487001750E+03 0.  0.
         25    2    3    3    0    0 -0.25286144573E+02  0.55030777388E+02  0.93729795925E+03  0.94750079779E+03  0.12474983699E+03 0.  0.
          5    1    4    4  502    0  0.56302270856E+02  0.15689159301E+02  0.32627682837E+03  0.33150377698E+03  0.47000000000E+01 0.  1.
         -5    1    4    4    0  502 -0.31016126282E+02 -0.70719936689E+02  0.64996994052E+03  0.65455811286E+03  0.47000000000E+01 0.  1.
          5    1    5    5  503    0  0.11225820697E+02  0.64077374727E+02  0.22679514368E+03  0.23598740687E+03  0.47000000000E+01 0. -1.
         -5    1    5    5    0  503 -0.36511965271E+02 -0.90465973388E+01  0.71050281557E+03  0.71151339092E+03  0.47000000000E+01 0. -1.
<mgrwt>
<rscale>  0 0.27750899E+03</rscale>
<asrwt>0</asrwt>
<pdfrwt beam="1">  1        2 0.29593105E+00 0.27750899E+03</pdfrwt>
<pdfrwt beam="2">  1       -2 0.15398446E-02 0.27750899E+03</pdfrwt>
<totfact> 0.92543535E+03</totfact>
</mgrwt>
</event>
<event>
 9    1  0.8122655E-001  0.2749847E+03  0.7818608E-02  0.1098460E+00
         -2   -1    0    0    0  501 -0.00000000000E+00  0.00000000000E+00  0.35922873556E+02  0.35922873556E+02  0.00000000000E+00 0.  1.
          2   -1    0    0  501    0  0.00000000000E+00 -0.00000000000E+00 -0.52624262955E+03  0.52624262955E+03  0.00000000000E+00 0.  1.
         35    2    1    2    0    0  0.00000000000E+00  0.00000000000E+00 -0.49031975599E+03  0.56216550310E+03  0.27498470824E+03 0.  0.
         25    2    3    3    0    0 -0.46105493301E+02  0.24109124189E+02 -0.28317393200E+03  0.31449159665E+03  0.12653269229E+03 0.  0.
         25    2    3    3    0    0  0.46105493301E+02 -0.24109124189E+02 -0.20714582399E+03  0.24767390645E+03  0.12540336980E+03 0.  0.
          5    1    4    4  502    0 -0.34851581649E+02  0.74869990976E+02 -0.19811022437E+03  0.21468558240E+03  0.47000000000E+01 0. -1.
         -5    1    4    4    0  502 -0.11253911652E+02 -0.50760866787E+02 -0.85063707632E+02  0.99806014250E+02  0.47000000000E+01 0. -1.
          5    1    5    5  503    0  0.13718718877E+02  0.37553840622E+02 -0.14530839888E+02  0.42798709103E+02  0.47000000000E+01 0. -1.
         -5    1    5    5    0  503  0.32386774424E+02 -0.61662964811E+02 -0.19261498411E+03  0.20487519735E+03  0.47000000000E+01 0. -1.
<mgrwt>
<rscale>  0 0.27498471E+03</rscale>
<asrwt>0</asrwt>
<pdfrwt beam="1">  1        2 0.80960408E-01 0.27498471E+03</pdfrwt>
<pdfrwt beam="2">  1       -2 0.55265957E-02 0.27498471E+03</pdfrwt>
<totfact> 0.98108164E+03</totfact>
</mgrwt>
</event>
<event>
 9    1  0.8122655E-001  0.2765656E+03  0.7818608E-02  0.1097580E+00
          1   -1    0    0  501    0  0.00000000000E+00  0.00000000000E+00  0.57557996916E+02  0.57557996916E+02  0.00000000000E+00 0. -1.
         -1   -1    0    0    0  501 -0.00000000000E+00 -0.00000000000E+00 -0.33222368012E+03  0.33222368012E+03  0.00000000000E+00 0. -1.
         35    2    1    2    0    0  0.00000000000E+00 -0.35527136788E-14 -0.27466568320E+03  0.38978167704E+03  0.27656557671E+03 0.  0.
         25    2    3    3    0    0  0.53966579686E+02 -0.15697680984E+02 -0.14715584984E+03  0.20165819693E+03  0.12590621644E+03 0.  0.
         25    2    3    3    0    0 -0.53966579686E+02  0.15697680984E+02 -0.12750983336E+03  0.18812348010E+03  0.12638384885E+03 0.  0.
          5    1    4    4  502    0  0.22249981629E+02  0.43815117779E+02 -0.11824361745E+03  0.12813457494E+03  0.47000000000E+01 0.  1.
         -5    1    4    4    0  502  0.31716598058E+02 -0.59512798763E+02 -0.28912232392E+02  0.73523621992E+02  0.47000000000E+01 0.  1.
          5    1    5    5  503    0 -0.34104147214E+02  0.39926649938E+02 -0.14332608735E+03  0.15271439863E+03  0.47000000000E+01 0. -1.
         -5    1    5    5    0  503 -0.19862432473E+02 -0.24228968954E+02  0.15816253991E+02  0.35409081471E+02  0.47000000000E+01 0. -1.
<mgrwt>
<rscale>  0 0.27656558E+03</rscale>
<asrwt>0</asrwt>
<pdfrwt beam="1">  1        1 0.88550764E-02 0.27656558E+03</pdfrwt>
<pdfrwt beam="2">  1       -1 0.51111335E-01 0.27656558E+03</pdfrwt>
<totfact> 0.29742847E+03</totfact>
</mgrwt>
</event>
<event>
 9    1  0.8122655E-001  0.2730801E+03  0.7818608E-02  0.1099530E+00
         -1   -1    0    0    0  501 -0.00000000000E+00  0.00000000000E+00  0.25216543385E+02  0.25216543385E+02  0.00000000000E+00 0.  1.
          1   -1    0    0  501    0  0.00000000000E+00 -0.00000000000E+00 -0.73932382255E+03  0.73932382255E+03  0.00000000000E+00 0.  1.
         35    2    1    2    0    0  0.17763568394E-14 -0.71054273576E-14 -0.71410727916E+03  0.76454036593E+03  0.27308014389E+03 0.  0.
         25    2    3    3    0    0 -0.74679140823E+00 -0.45519409286E+02 -0.28287572613E+03  0.31308512547E+03  0.12621824368E+03 0.  0.
         25    2    3    3    0    0  0.74679140823E+00  0.45519409286E+02 -0.43123155304E+03  0.45145524046E+03  0.12561292724E+03 0.  0.
          5    1    4    4  502    0 -0.28590866902E+02 -0.38656960989E+02 -0.27971229643E+03  0.28385358387E+03  0.47000000000E+01 0.  1.
         -5    1    4    4    0  502  0.27844075493E+02 -0.68624482963E+01 -0.31634296988E+01  0.29231541597E+02  0.47000000000E+01 0.  1.
          5    1    5    5  503    0  0.11760336324E+02  0.84400015374E+02 -0.35424242149E+03  0.36437817070E+03  0.47000000000E+01 0. -1.
         -5    1    5    5    0  503 -0.11013544915E+02 -0.38880606088E+02 -0.76989131549E+02  0.87077069761E+02  0.47000000000E+01 0. -1.
<mgrwt>
<rscale>  0 0.27308014E+03</rscale>
<asrwt>0</asrwt>
<pdfrwt beam="1">  1        1 0.11374213E+00 0.27308014E+03</pdfrwt>
<pdfrwt beam="2">  1       -1 0.38794680E-02 0.27308014E+03</pdfrwt>
<totfact> 0.66722643E+03</totfact>
</mgrwt>
</event>
<event>
 9    1  0.8122655E-001  0.2716048E+03  0.7818608E-02  0.1100365E+00
         -2   -1    0    0    0  501 -0.00000000000E+00  0.00000000000E+00  0.14207070898E+02  0.14207070898E+02  0.00000000000E+00 0. -1.
          2   -1    0    0  501    0  0.00000000000E+00 -0.00000000000E+00 -0.12981065524E+04  0.12981065524E+04  0.00000000000E+00 0. -1.
         35    2    1    2    0    0  0.00000000000E+00 -0.35527136788E-14 -0.12838994815E+04  0.13123136233E+04  0.27160479983E+03 0.  0.
         25    2    3    3    0    0 -0.97747316420E+01 -0.10996428891E+02 -0.39117672706E+03  0.41074897544E+03  0.12441471862E+03 0.  0.
         25    2    3    3    0    0  0.97747316420E+01  0.10996428891E+02 -0.89272275442E+03  0.90156464783E+03  0.12509368942E+03 0.  0.
          5    1    4    4  502    0  0.55776575529E+02 -0.29060244337E+00 -0.22179847501E+03  0.22875262697E+03  0.47000000000E+01 0. -1.
         -5    1    4    4    0  502 -0.65551307171E+02 -0.10705826448E+02 -0.16937825205E+03  0.18199634848E+03  0.47000000000E+01 0. -1.
          5    1    5    5  503    0  0.31690487099E+02  0.16364299733E+02 -0.86395157591E+03  0.86470023291E+03  0.47000000000E+01 0. -1.
         -5    1    5    5    0  503 -0.21915755457E+02 -0.53678708415E+01 -0.28771178515E+02  0.36864414925E+02  0.47000000000E+01 0. -1.
<mgrwt>
<rscale>  0 0.27160480E+03</rscale>
<asrwt>0</asrwt>
<pdfrwt beam="1">  1        2 0.19970870E+00 0.27160480E+03</pdfrwt>
<pdfrwt beam="2">  1       -2 0.21857032E-02 0.27160480E+03</pdfrwt>
<totfact> 0.11912560E+04</totfact>
</mgrwt>
</event>
<event>
 9    1  0.8122655E-001  0.2754728E+03  0.7818608E-02  0.1098188E+00
         -4   -1    0    0    0  501 -0.00000000000E+00  0.00000000000E+00  0.25889468921E+03  0.25889468921E+03  0.00000000000E+00 0.  1.
          4   -1    0    0  501    0  0.00000000000E+00 -0.00000000000E+00 -0.73278104789E+02  0.73278104789E+02  0.00000000000E+00 0.  1.
         35    2    1    2    0    0 -0.14210854715E-13 -0.35527136788E-14  0.18561658442E+03  0.33217279400E+03  0.27547277300E+03 0.  0.
         25    2    3    3    0    0 -0.33768006474E+02 -0.27764528143E+02  0.13890714513E+03  0.19186756300E+03  0.12492725675E+03 0.  0.
         25    2    3    3    0    0  0.33768006474E+02  0.27764528143E+02  0.46709439294E+02  0.14030523100E+03  0.12487048828E+03 0.  0.
          5    1    4    4  502    0 -0.81065992443E+02 -0.20688949683E+02  0.80080368159E+02  0.11590808054E+03  0.47000000000E+01 0. -1.
         -5    1    4    4    0  502  0.47297985969E+02 -0.70755784598E+01  0.58826776972E+02  0.75959482463E+02  0.47000000000E+01 0. -1.
          5    1    5    5  503    0 -0.36771865427E+02  0.43222226902E+02  0.59568973909E+01  0.57252996532E+02  0.47000000000E+01 0.  1.
         -5    1    5    5    0  503  0.70539871901E+02 -0.15457698759E+02  0.40752541903E+02  0.83052234469E+02  0.47000000000E+01 0.  1.
<mgrwt>
<rscale>  0 0.27547277E+03</rscale>
<asrwt>0</asrwt>
<pdfrwt beam="1">  1        4 0.11273555E-01 0.27547277E+03</pdfrwt>
<pdfrwt beam="2">  1       -4 0.39829952E-01 0.27547277E+03</pdfrwt>
<totfact> 0.71159972E+02</totfact>
</mgrwt>
</event>
<event>
 9    1  0.8122655E-001  0.2758686E+03  0.7818608E-02  0.1097967E+00
          1   -1    0    0  501    0  0.00000000000E+00  0.00000000000E+00  0.29717497942E+03  0.29717497942E+03  0.00000000000E+00 0.  1.
         -1   -1    0    0    0  501 -0.00000000000E+00 -0.00000000000E+00 -0.64022469069E+02  0.64022469069E+02  0.00000000000E+00 0.  1.
         35    2    1    2    0    0  0.00000000000E+00 -0.71054273576E-14  0.23315251035E+03  0.36119744849E+03  0.27586863488E+03 0.  0.
         25    2    3    3    0    0  0.16252939583E+02 -0.46961294967E+02  0.15283794043E+03  0.20433897757E+03  0.12619611900E+03 0.  0.
         25    2    3    3    0    0 -0.16252939583E+02  0.46961294967E+02  0.80314569921E+02  0.15685847092E+03  0.12523828683E+03 0.  0.
          5    1    4    4  502    0 -0.42668004641E+02 -0.57059804851E+02  0.10797676498E+03  0.12945057638E+03  0.47000000000E+01 0. -1.
         -5    1    4    4    0  502  0.58920944224E+02  0.10098509884E+02  0.44861175455E+02  0.74888401194E+02  0.47000000000E+01 0. -1.
          5    1    5    5  503    0 -0.29147501506E+02 -0.41373404157E+01  0.96922165053E+02  0.10140360205E+03  0.47000000000E+01 0.  1.
         -5    1    5    5    0  503  0.12894561923E+02  0.51098635383E+02 -0.16607595133E+02  0.55454868869E+02  0.47000000000E+01 0.  1.
<mgrwt>
<rscale>  0 0.27586863E+03</rscale>
<asrwt>0</asrwt>
<pdfrwt beam="1">  1        1 0.45719227E-01 0.27586863E+03</pdfrwt>
<pdfrwt beam="2">  1       -1 0.98496108E-02 0.27586863E+03</pdfrwt>
<totfact> 0.54987501E+03</totfact>
</mgrwt>
</event>
<event>
 9    1  0.8122655E-001  0.2734739E+03  0.7818608E-02  0.1099308E+00
         -2   -1    0    0    0  501 -0.00000000000E+00  0.00000000000E+00  0.13891430079E+03  0.13891430079E+03  0.00000000000E+00 0. -1.
          2   -1    0    0  501    0  0.00000000000E+00 -0.00000000000E+00 -0.13459371322E+03  0.13459371322E+03  0.00000000000E+00 0. -1.
         35    2    1    2    0    0  0.00000000000E+00  0.00000000000E+00  0.43205875621E+01  0.27350801401E+03  0.27347388587E+03 0.  0.
         25    2    3    3    0    0  0.34081031783E+02 -0.10543570841E+02  0.36711497631E+02  0.13999250931E+03  0.13029767838E+03 0.  0.
         25    2    3    3    0    0 -0.34081031783E+02  0.10543570841E+02 -0.32390910069E+02  0.13351550469E+03  0.12451720895E+03 0.  0.
          5    1    4    4  502    0  0.34935152681E+02  0.30402640810E+02 -0.34341631627E+02  0.57846548072E+02  0.47000000000E+01 0. -1.
         -5    1    4    4    0  502 -0.85412089851E+00 -0.40946211651E+02  0.71053129258E+02  0.82145961242E+02  0.47000000000E+01 0. -1.
          5    1    5    5  503    0 -0.16737648175E+02  0.45109466119E+01  0.47827201654E+02  0.51088440217E+02  0.47000000000E+01 0.  1.
         -5    1    5    5    0  503 -0.17343383608E+02  0.60326242293E+01 -0.80218111722E+02  0.82427064478E+02  0.47000000000E+01 0.  1.
<mgrwt>
<rscale>  0 0.27347389E+03</rscale>
<asrwt>0</asrwt>
<pdfrwt beam="1">  1        2 0.20706725E-01 0.27347389E+03</pdfrwt>
<pdfrwt beam="2">  1       -2 0.21371431E-01 0.27347389E+03</pdfrwt>
<totfact> 0.49626680E+03</totfact>
</mgrwt>
</event>
<event>
 9    1  0.8122655E-001  0.2752449E+03  0.7818608E-02  0.1098315E+00
          2   -1    0    0  501    0  0.00000000000E+00  0.00000000000E+00  0.42502780516E+03  0.42502780516E+03  0.00000000000E+00 0. -1.
         -2   -1    0    0    0  501 -0.00000000000E+00 -0.00000000000E+00 -0.44561642924E+02  0.44561642924E+02  0.00000000000E+00 0. -1.
         35    2    1    2    0    0 -0.14210854715E-13  0.44408920985E-14  0.38046616223E+03  0.46958944808E+03  0.27524488941E+03 0.  0.
         25    2    3    3    0    0 -0.67275825382E+02  0.63177794049E+01  0.18345624566E+03  0.22477824961E+03  0.11091941403E+03 0.  0.
         25    2    3    3    0    0  0.67275825382E+02 -0.63177794049E+01  0.19700991657E+03  0.24481119847E+03  0.12866104558E+03 0.  0.
          5    1    4    4  502    0 -0.13114470721E+01  0.46619271576E+02  0.10268830461E+03  0.11288070818E+03  0.47000000000E+01 0. -1.
         -5    1    4    4    0  502 -0.65964378309E+02 -0.40301492171E+02  0.80767941056E+02  0.11189754144E+03  0.47000000000E+01 0. -1.
          5    1    5    5  503    0 -0.27586975770E+02 -0.22251382757E+01  0.11771189289E+03  0.12101310755E+03  0.47000000000E+01 0.  1.
         -5    1    5    5    0  503  0.94862801151E+02 -0.40926411292E+01  0.79298023680E+02  0.12379809091E+03  0.47000000000E+01 0.  1.
<mgrwt>
<rscale>  0 0.27524489E+03</rscale>
<asrwt>0</asrwt>
<pdfrwt beam="1">  1        2 0.65388890E-01 0.27524489E+03</pdfrwt>
<pdfrwt beam="2">  1       -2 0.68556377E-02 0.27524489E+03</pdfrwt>
<totfact> 0.89299431E+03</totfact>
</mgrwt>
</event>
<event>
 9    1  0.8122655E-001  0.2701743E+03  0.7818608E-02  0.1101180E+00
         -2   -1    0    0    0  501 -0.00000000000E+00  0.00000000000E+00  0.22135637137E+02  0.22135637137E+02  0.00000000000E+00 0.  1.
          2   -1    0    0  501    0  0.00000000000E+00 -0.00000000000E+00 -0.82439625032E+03  0.82439625032E+03  0.00000000000E+00 0.  1.
         35    2    1    2    0    0 -0.44408920985E-15  0.71054273576E-14 -0.80226061318E+03  0.84653188746E+03  0.27017428637E+03 0.  0.
         25    2    3    3    0    0  0.14821232287E+01  0.17756228595E+02 -0.55111858411E+03  0.56531839340E+03  0.12464233560E+03 0.  0.
         25    2    3    3    0    0 -0.14821232287E+01 -0.17756228595E+02 -0.25114202908E+03  0.28121349406E+03  0.12526464038E+03 0.  0.
          5    1    4    4  502    0  0.20021205935E+02 -0.44006214178E+02 -0.12130523330E+03  0.13066922055E+03  0.47000000000E+01 0. -1.
         -5    1    4    4    0  502 -0.18539082706E+02  0.61762442772E+02 -0.42981335081E+03  0.43464917285E+03  0.47000000000E+01 0. -1.
          5    1    5    5  503    0 -0.29007025901E+01  0.44848739540E+02 -0.38090467852E+02  0.59099892174E+02  0.47000000000E+01 0.  1.
         -5    1    5    5    0  503  0.14185793613E+01 -0.62604968134E+02 -0.21305156122E+03  0.22211360189E+03  0.47000000000E+01 0.  1.
<mgrwt>
<rscale>  0 0.27017429E+03</rscale>
<asrwt>0</asrwt>
<pdfrwt beam="1">  1        2 0.12683018E+00 0.27017429E+03</pdfrwt>
<pdfrwt beam="2">  1       -2 0.34054829E-02 0.27017429E+03</pdfrwt>
<totfact> 0.11902392E+04</totfact>
</mgrwt>
</event>
<event>
 9    1  0.8122655E-001  0.2863140E+03  0.7818608E-02  0.1092289E+00
         -1   -1    0    0    0  501 -0.00000000000E+00  0.00000000000E+00  0.26323288130E+02  0.26323288130E+02  0.00000000000E+00 0. -1.
          1   -1    0    0  501    0  0.00000000000E+00 -0.00000000000E+00 -0.77854758283E+03  0.77854758283E+03  0.00000000000E+00 0. -1.
         35    2    1    2    0    0  0.00000000000E+00  0.00000000000E+00 -0.75222429470E+03  0.80487087096E+03  0.28631403979E+03 0.  0.
         25    2    3    3    0    0  0.11186111294E+02 -0.67357237278E+02 -0.34313089416E+03  0.37163154291E+03  0.12533581556E+03 0.  0.
         25    2    3    3    0    0 -0.11186111294E+02  0.67357237278E+02 -0.40909340055E+03  0.43323932805E+03  0.12520694270E+03 0.  0.
          5    1    4    4  502    0 -0.11330372101E+02 -0.67497181707E+02 -0.34177202202E+03  0.34858923091E+03  0.47000000000E+01 0.  1.
         -5    1    4    4    0  502  0.22516483395E+02  0.13994442839E+00 -0.13588721378E+01  0.23042312002E+02  0.47000000000E+01 0.  1.
          5    1    5    5  503    0  0.22308926294E+02 -0.30362242054E+02 -0.86199425903E+02  0.94191214882E+02  0.47000000000E+01 0.  1.
         -5    1    5    5    0  503 -0.33495037588E+02  0.97719479332E+02 -0.32289397464E+03  0.33904811317E+03  0.47000000000E+01 0.  1.
<mgrwt>
<rscale>  0 0.28631404E+03</rscale>
<asrwt>0</asrwt>
<pdfrwt beam="1">  1        1 0.11977655E+00 0.28631404E+03</pdfrwt>
<pdfrwt beam="2">  1       -1 0.40497368E-02 0.28631404E+03</pdfrwt>
<totfact> 0.57971550E+03</totfact>
</mgrwt>
</event>
<event>
 9    1  0.8122655E-001  0.2750214E+03  0.7818608E-02  0.1098440E+00
          4   -1    0    0  501    0  0.00000000000E+00  0.00000000000E+00  0.12589501213E+02  0.12589501213E+02  0.00000000000E+00 0. -1.
         -4   -1    0    0    0  501 -0.00000000000E+00 -0.00000000000E+00 -0.15019813147E+04  0.15019813147E+04  0.00000000000E+00 0. -1.
         35    2    1    2    0    0 -0.71054273576E-14  0.00000000000E+00 -0.14893918135E+04  0.15145708160E+04  0.27502142160E+03 0.  0.
         25    2    3    3    0    0 -0.18420239458E+02  0.53246426219E+02 -0.66178030685E+03  0.67571465563E+03  0.12434884066E+03 0.  0.
         25    2    3    3    0    0  0.18420239458E+02 -0.53246426219E+02 -0.82761150668E+03  0.83885616033E+03  0.12475722264E+03 0.  0.
          5    1    4    4  502    0 -0.32338731089E+02  0.69769670053E+02 -0.21499177191E+03  0.22837940445E+03  0.47000000000E+01 0. -1.
         -5    1    4    4    0  502  0.13918491631E+02 -0.16523243834E+02 -0.44678853494E+03  0.44733525118E+03  0.47000000000E+01 0. -1.
          5    1    5    5  503    0 -0.11941116380E+02 -0.44877693521E+02 -0.97978724903E+02  0.10852888173E+03  0.47000000000E+01 0.  1.
         -5    1    5    5    0  503  0.30361355838E+02 -0.83687326982E+01 -0.72963278178E+03  0.73032727859E+03  0.47000000000E+01 0.  1.
<mgrwt>
<rscale>  0 0.27502142E+03</rscale>
<asrwt>0</asrwt>
<pdfrwt beam="1">  1        4 0.19368471E-02 0.27502142E+03</pdfrwt>
<pdfrwt beam="2">  1       -4 0.23107396E+00 0.27502142E+03</pdfrwt>
<totfact> 0.18510111E+02</totfact>
</mgrwt>
</event>
<event>
 9    1  0.8122655E-001  0.2727422E+03  0.7818608E-02  0.1099720E+00
         -1   -1    0    0    0  501 -0.00000000000E+00  0.00000000000E+00  0.48740221138E+02  0.48740221138E+02  0.00000000000E+00 0. -1.
          1   -1    0    0  501    0  0.00000000000E+00 -0.00000000000E+00 -0.38155493477E+03  0.38155493477E+03  0.00000000000E+00 0. -1.
         35    2    1    2    0    0  0.00000000000E+00 -0.71054273576E-14 -0.33281471364E+03  0.43029515591E+03  0.27274216320E+03 0.  0.
         25    2    3    3    0    0 -0.11010291111E+02 -0.59071930318E+02 -0.14280157854E+03  0.19500155576E+03  0.11841704461E+03 0.  0.
         25    2    3    3    0    0  0.11010291111E+02  0.59071930318E+02 -0.19001313510E+03  0.23529360015E+03  0.12508943721E+03 0.  0.
          5    1    4    4  502    0 -0.29154545822E+02 -0.80039225115E+02 -0.14341443774E+03  0.16687137577E+03  0.47000000000E+01 0.  1.
         -5    1    4    4    0  502  0.18144254711E+02  0.20967294796E+02  0.61285919863E+00  0.28130179994E+02  0.47000000000E+01 0.  1.
          5    1    5    5  503    0  0.48972269469E+02 -0.16612991203E+02 -0.53282240988E+02  0.74400012489E+02  0.47000000000E+01 0.  1.
         -5    1    5    5    0  503 -0.37961978359E+02  0.75684921521E+02 -0.13673089411E+03  0.16089358766E+03  0.47000000000E+01 0.  1.
<mgrwt>
<rscale>  0 0.27274216E+03</rscale>
<asrwt>0</asrwt>
<pdfrwt beam="1">  1        1 0.58700760E-01 0.27274216E+03</pdfrwt>
<pdfrwt beam="2">  1       -1 0.74984955E-02 0.27274216E+03</pdfrwt>
<totfact> 0.60858419E+03</totfact>
</mgrwt>
</event>
<event>
 9    1  0.8122655E-001  0.2754393E+03  0.7818608E-02  0.1098206E+00
          2   -1    0    0  501    0  0.00000000000E+00  0.00000000000E+00  0.94064395774E+03  0.94064395774E+03  0.00000000000E+00 0.  1.
         -2   -1    0    0    0  501 -0.00000000000E+00 -0.00000000000E+00 -0.20163530500E+02  0.20163530500E+02  0.00000000000E+00 0.  1.
         35    2    1    2    0    0  0.14210854715E-13  0.00000000000E+00  0.92048042724E+03  0.96080748824E+03  0.27543930825E+03 0.  0.
         25    2    3    3    0    0 -0.37320502162E+02  0.39855571269E+02  0.39405175090E+03  0.41687965358E+03  0.12462173461E+03 0.  0.
         25    2    3    3    0    0  0.37320502162E+02 -0.39855571269E+02  0.52642867634E+03  0.54392783466E+03  0.12549522543E+03 0.  0.
          5    1    4    4  502    0  0.38786336000E+02  0.38941200228E+02  0.22083005863E+03  0.22761546900E+03  0.47000000000E+01 0. -1.
         -5    1    4    4    0  502 -0.76106838163E+02  0.91437104059E+00  0.17322169227E+03  0.18926418457E+03  0.47000000000E+01 0. -1.
          5    1    5    5  503    0 -0.18993023118E+02 -0.66360083640E+02  0.20116163418E+03  0.21272632346E+03  0.47000000000E+01 0. -1.
         -5    1    5    5    0  503  0.56313525280E+02  0.26504512371E+02  0.32526704216E+03  0.33120151120E+03  0.47000000000E+01 0. -1.
<mgrwt>
<rscale>  0 0.27543931E+03</rscale>
<asrwt>0</asrwt>
<pdfrwt beam="1">  1        2 0.14471442E+00 0.27543931E+03</pdfrwt>
<pdfrwt beam="2">  1       -2 0.31020823E-02 0.27543931E+03</pdfrwt>
<totfact> 0.11492997E+04</totfact>
</mgrwt>
</event>
<event>
 9    1  0.8122655E-001  0.2740263E+03  0.7818608E-02  0.1098997E+00
          3   -1    0    0  501    0  0.00000000000E+00  0.00000000000E+00  0.19270359539E+03  0.19270359539E+03  0.00000000000E+00 0. -1.
         -3   -1    0    0    0  501 -0.00000000000E+00 -0.00000000000E+00 -0.97417006131E+02  0.97417006131E+02  0.00000000000E+00 0. -1.
         35    2    1    2    0    0 -0.35527136788E-14  0.71054273576E-14  0.95286589262E+02  0.29012060152E+03  0.27402632964E+03 0.  0.
         25    2    3    3    0    0  0.31722536914E+02 -0.45250609624E+02  0.42932517988E+02  0.14444346829E+03  0.12635971435E+03 0.  0.
         25    2    3    3    0    0 -0.31722536914E+02  0.45250609624E+02  0.52354071274E+02  0.14567713323E+03  0.12420523881E+03 0.  0.
          5    1    4    4  502    0 -0.26235329717E+01 -0.62717770033E+02  0.72229791930E+02  0.95810408857E+02  0.47000000000E+01 0.  1.
         -5    1    4    4    0  502  0.34346069886E+02  0.17467160409E+02 -0.29297273943E+02  0.48633059433E+02  0.47000000000E+01 0.  1.
          5    1    5    5  503    0 -0.29146672671E+02  0.31054171019E+02  0.92942990793E+02  0.10234441657E+03  0.47000000000E+01 0.  1.
         -5    1    5    5    0  503 -0.25758642431E+01  0.14196438605E+02 -0.40588919519E+02  0.43332716663E+02  0.47000000000E+01 0.  1.
<mgrwt>
<rscale>  0 0.27402633E+03</rscale>
<asrwt>0</asrwt>
<pdfrwt beam="1">  1        3 0.29646707E-01 0.27402633E+03</pdfrwt>
<pdfrwt beam="2">  1       -3 0.14987232E-01 0.27402633E+03</pdfrwt>
<totfact> 0.10373882E+03</totfact>
</mgrwt>
</event>
<event>
 9    1  0.8122655E-001  0.2751358E+03  0.7818608E-02  0.1098376E+00
         -2   -1    0    0    0  501 -0.00000000000E+00  0.00000000000E+00  0.28039490190E+03  0.28039490190E+03  0.00000000000E+00 0. -1.
          2   -1    0    0  501    0  0.00000000000E+00 -0.00000000000E+00 -0.67493857008E+02  0.67493857008E+02  0.00000000000E+00 0. -1.
         35    2    1    2    0    0  0.00000000000E+00  0.00000000000E+00  0.21290104489E+03  0.34788875891E+03  0.27513584583E+03 0.  0.
         25    2    3    3    0    0 -0.23842403972E+02 -0.28836697730E+02  0.43365739171E+02  0.13754820240E+03  0.12505560877E+03 0.  0.
         25    2    3    3    0    0  0.23842403972E+02  0.28836697730E+02  0.16953530572E+03  0.21034055651E+03  0.11874727140E+03 0.  0.
          5    1    4    4  502    0 -0.12062269638E+02 -0.36371410795E+02 -0.38406047376E+02  0.54456334316E+02  0.47000000000E+01 0.  1.
         -5    1    4    4    0  502 -0.11780134334E+02  0.75347130647E+01  0.81771786547E+02  0.83091868080E+02  0.47000000000E+01 0.  1.
          5    1    5    5  503    0  0.58875331452E+01 -0.25584135227E+02  0.14566084214E+03  0.14808234856E+03  0.47000000000E+01 0. -1.
         -5    1    5    5    0  503  0.17954870827E+02  0.54420832957E+02  0.23874463578E+02  0.62258207951E+02  0.47000000000E+01 0. -1.
<mgrwt>
<rscale>  0 0.27513585E+03</rscale>
<asrwt>0</asrwt>
<pdfrwt beam="1">  1        2 0.10383670E-01 0.27513585E+03</pdfrwt>
<pdfrwt beam="2">  1       -2 0.43137677E-01 0.27513585E+03</pdfrwt>
<totfact> 0.31328556E+03</totfact>
</mgrwt>
</event>
<event>
 9    1  0.8122655E-001  0.2749245E+03  0.7818608E-02  0.1098494E+00
          1   -1    0    0  501    0  0.00000000000E+00  0.00000000000E+00  0.38501199132E+02  0.38501199132E+02  0.00000000000E+00 0. -1.
         -1   -1    0    0    0  501 -0.00000000000E+00 -0.00000000000E+00 -0.49078645890E+03  0.49078645890E+03  0.00000000000E+00 0. -1.
         35    2    1    2    0    0  0.71054273576E-14  0.35527136788E-14 -0.45228525977E+03  0.52928765803E+03  0.27492447825E+03 0.  0.
         25    2    3    3    0    0 -0.53218767370E+02  0.96450443953E+01 -0.26608045785E+03  0.29894113239E+03  0.12506688812E+03 0.  0.
         25    2    3    3    0    0  0.53218767370E+02 -0.96450443953E+01 -0.18620480191E+03  0.23034652564E+03  0.12434640942E+03 0.  0.
          5    1    4    4  502    0 -0.82366881251E+02  0.19304718572E+02 -0.24998627694E+03  0.26395492787E+03  0.47000000000E+01 0. -1.
         -5    1    4    4    0  502  0.29148113881E+02 -0.96596741766E+01 -0.16094180912E+02  0.34986204527E+02  0.47000000000E+01 0. -1.
          5    1    5    5  503    0 -0.74505565464E+01  0.22963704750E+02 -0.15073834057E+03  0.15273172508E+03  0.47000000000E+01 0.  1.
         -5    1    5    5    0  503  0.60669323917E+02 -0.32608749145E+02 -0.35466461347E+02  0.77614800559E+02  0.47000000000E+01 0.  1.
<mgrwt>
<rscale>  0 0.27492448E+03</rscale>
<asrwt>0</asrwt>
<pdfrwt beam="1">  1        1 0.59232619E-02 0.27492448E+03</pdfrwt>
<pdfrwt beam="2">  1       -1 0.75505602E-01 0.27492448E+03</pdfrwt>
<totfact> 0.24132432E+03</totfact>
</mgrwt>
</event>
<event>
 9    1  0.8122655E-001  0.2745825E+03  0.7818608E-02  0.1098685E+00
          1   -1    0    0  501    0  0.00000000000E+00  0.00000000000E+00  0.61184000103E+03  0.61184000103E+03  0.00000000000E+00 0.  1.
         -1   -1    0    0    0  501 -0.00000000000E+00 -0.00000000000E+00 -0.30806895159E+02  0.30806895159E+02  0.00000000000E+00 0.  1.
         35    2    1    2    0    0 -0.35527136788E-14  0.00000000000E+00  0.58103310587E+03  0.64264689619E+03  0.27458252505E+03 0.  0.
         25    2    3    3    0    0  0.19024127121E+02 -0.27717692960E+02  0.39607242825E+03  0.41688023660E+03  0.12564065957E+03 0.  0.
         25    2    3    3    0    0 -0.19024127121E+02  0.27717692960E+02  0.18496067763E+03  0.22576665959E+03  0.12501977603E+03 0.  0.
          5    1    4    4  502    0  0.22541215270E+02 -0.76526484623E+02  0.21963857502E+03  0.23372548614E+03  0.47000000000E+01 0. -1.
         -5    1    4    4    0  502 -0.35170881488E+01  0.48808791664E+02  0.17643385323E+03  0.18315475046E+03  0.47000000000E+01 0. -1.
          5    1    5    5  503    0 -0.20632457617E+02  0.14613328902E+02  0.20204198378E+03  0.20367204250E+03  0.47000000000E+01 0. -1.
         -5    1    5    5    0  503  0.16083304962E+01  0.13104364058E+02 -0.17081306150E+02  0.22094617085E+02  0.47000000000E+01 0. -1.
<mgrwt>
<rscale>  0 0.27458253E+03</rscale>
<asrwt>0</asrwt>
<pdfrwt beam="1">  1        1 0.94129222E-01 0.27458253E+03</pdfrwt>
<pdfrwt beam="2">  1       -1 0.47395228E-02 0.27458253E+03</pdfrwt>
<totfact> 0.65032094E+03</totfact>
</mgrwt>
</event>
<event>
 9    1  0.8122655E-001  0.2748024E+03  0.7818608E-02  0.1098562E+00
         -2   -1    0    0    0  501 -0.00000000000E+00  0.00000000000E+00  0.12828214965E+02  0.12828214965E+02  0.00000000000E+00 0. -1.
          2   -1    0    0  501    0  0.00000000000E+00 -0.00000000000E+00 -0.14716847844E+04  0.14716847844E+04  0.00000000000E+00 0. -1.
         35    2    1    2    0    0 -0.35527136788E-14  0.35527136788E-14 -0.14588565694E+04  0.14845129994E+04  0.27480239282E+03 0.  0.
         25    2    3    3    0    0 -0.12016666673E+02 -0.13427704658E+02 -0.10175601541E+04  0.10258429645E+04  0.12884260561E+03 0.  0.
         25    2    3    3    0    0  0.12016666673E+02  0.13427704658E+02 -0.44129641530E+03  0.45867003485E+03  0.12373750922E+03 0.  0.
          5    1    4    4  502    0 -0.34868879259E+02  0.49786955765E+02 -0.40028410877E+03  0.40490003388E+03  0.47000000000E+01 0. -1.
         -5    1    4    4    0  502  0.22852212585E+02 -0.63214660423E+02 -0.61727604538E+03  0.62094293064E+03  0.47000000000E+01 0. -1.
          5    1    5    5  503    0 -0.50293762342E+02 -0.88553641486E+01 -0.11840534965E+03  0.12903409174E+03  0.47000000000E+01 0.  1.
         -5    1    5    5    0  503  0.62310429015E+02  0.22283068806E+02 -0.32289106565E+03  0.32963594312E+03  0.47000000000E+01 0.  1.
<mgrwt>
<rscale>  0 0.27480239E+03</rscale>
<asrwt>0</asrwt>
<pdfrwt beam="1">  1        2 0.22641284E+00 0.27480239E+03</pdfrwt>
<pdfrwt beam="2">  1       -2 0.19735733E-02 0.27480239E+03</pdfrwt>
<totfact> 0.11139369E+04</totfact>
</mgrwt>
</event>
<event>
 9    1  0.8122655E-001  0.2742743E+03  0.7818608E-02  0.1098858E+00
          2   -1    0    0  501    0  0.00000000000E+00  0.00000000000E+00  0.10273249052E+04  0.10273249052E+04  0.00000000000E+00 0. -1.
         -2   -1    0    0    0  501 -0.00000000000E+00 -0.00000000000E+00 -0.18306376932E+02  0.18306376932E+02  0.00000000000E+00 0. -1.
         35    2    1    2    0    0  0.17763568394E-14 -0.71054273576E-14  0.10090185283E+04  0.10456312821E+04  0.27427429297E+03 0.  0.
         25    2    3    3    0    0 -0.42839694096E+01  0.19278785535E+02  0.69313338854E+03  0.70486096802E+03  0.12651112978E+03 0.  0.
         25    2    3    3    0    0  0.42839694096E+01 -0.19278785535E+02  0.31588513971E+03  0.34077031410E+03  0.12629711602E+03 0.  0.
          5    1    4    4  502    0  0.31556470500E+02 -0.44210850406E+02  0.26691080236E+03  0.27242223944E+03  0.47000000000E+01 0. -1.
         -5    1    4    4    0  502 -0.35840439910E+02  0.63489635942E+02  0.42622258618E+03  0.43243872858E+03  0.47000000000E+01 0. -1.
          5    1    5    5  503    0 -0.55938337198E+01  0.40731374407E+02  0.37712171685E+02  0.55987799832E+02  0.47000000000E+01 0.  1.
         -5    1    5    5    0  503  0.98778031294E+01 -0.60010159943E+02  0.27817296803E+03  0.28478251427E+03  0.47000000000E+01 0.  1.
<mgrwt>
<rscale>  0 0.27427429E+03</rscale>
<asrwt>0</asrwt>
<pdfrwt beam="1">  1        2 0.15804994E+00 0.27427429E+03</pdfrwt>
<pdfrwt beam="2">  1       -2 0.28163665E-02 0.27427429E+03</pdfrwt>
<totfact> 0.11729179E+04</totfact>
</mgrwt>
</event>
<event>
 9    1  0.8122655E-001  0.2755262E+03  0.7818608E-02  0.1098158E+00
         -1   -1    0    0    0  501 -0.00000000000E+00  0.00000000000E+00  0.46397263269E+03  0.46397263269E+03  0.00000000000E+00 0.  1.
          1   -1    0    0  501    0  0.00000000000E+00 -0.00000000000E+00 -0.40904718471E+02  0.40904718471E+02  0.00000000000E+00 0.  1.
         35    2    1    2    0    0 -0.35527136788E-14  0.00000000000E+00  0.42306791422E+03  0.50487735116E+03  0.27552618691E+03 0.  0.
         25    2    3    3    0    0  0.11022316650E+02 -0.32097399488E+02  0.30819538021E+03  0.33285931661E+03  0.12107517398E+03 0.  0.
         25    2    3    3    0    0 -0.11022316650E+02  0.32097399488E+02  0.11487253400E+03  0.17201803454E+03  0.12346161599E+03 0.  0.
          5    1    4    4  502    0 -0.19363337071E+02 -0.62219054889E+02  0.94579528867E+02  0.11495010611E+03  0.47000000000E+01 0.  1.
         -5    1    4    4    0  502  0.30385653721E+02  0.30121655401E+02  0.21361585135E+03  0.21790921051E+03  0.47000000000E+01 0.  1.
          5    1    5    5  503    0  0.43230337141E+02  0.41569899708E+02  0.22219706322E+02  0.64130522843E+02  0.47000000000E+01 0.  1.
         -5    1    5    5    0  503 -0.54252653791E+02 -0.94725002206E+01  0.92652827678E+02  0.10788751170E+03  0.47000000000E+01 0.  1.
<mgrwt>
<rscale>  0 0.27552619E+03</rscale>
<asrwt>0</asrwt>
<pdfrwt beam="1">  1        1 0.62930339E-02 0.27552619E+03</pdfrwt>
<pdfrwt beam="2">  1       -1 0.71380401E-01 0.27552619E+03</pdfrwt>
<totfact> 0.24878791E+03</totfact>
</mgrwt>
</event>
<event>
 9    1  0.8122655E-001  0.2736461E+03  0.7818608E-02  0.1099211E+00
         -1   -1    0    0    0  501 -0.00000000000E+00  0.00000000000E+00  0.33973509522E+03  0.33973509522E+03  0.00000000000E+00 0. -1.
          1   -1    0    0  501    0  0.00000000000E+00 -0.00000000000E+00 -0.55103352200E+02  0.55103352200E+02  0.00000000000E+00 0. -1.
         35    2    1    2    0    0 -0.71054273576E-14  0.00000000000E+00  0.28463174302E+03  0.39483844742E+03  0.27364606781E+03 0.  0.
         25    2    3    3    0    0  0.22737024092E+02 -0.43321301302E+02  0.10043988237E+03  0.16740257285E+03  0.12466653126E+03 0.  0.
         25    2    3    3    0    0 -0.22737024092E+02  0.43321301302E+02  0.18419186064E+03  0.22743587456E+03  0.12412384179E+03 0.  0.
          5    1    4    4  502    0  0.54273644966E+02 -0.55039655302E+02  0.19847985564E+02  0.79943884848E+02  0.47000000000E+01 0. -1.
         -5    1    4    4    0  502 -0.31536620874E+02  0.11718354000E+02  0.80591896807E+02  0.87458688005E+02  0.47000000000E+01 0. -1.
          5    1    5    5  503    0 -0.43596448115E+02  0.83364660383E+00  0.75499688348E+01  0.44502104268E+02  0.47000000000E+01 0.  1.
         -5    1    5    5    0  503  0.20859424023E+02  0.42487654698E+02  0.17664189181E+03  0.18293377030E+03  0.47000000000E+01 0.  1.
<mgrwt>
<rscale>  0 0.27364607E+03</rscale>
<asrwt>0</asrwt>
<pdfrwt beam="1">  1        1 0.84774390E-02 0.27364607E+03</pdfrwt>
<pdfrwt beam="2">  1       -1 0.52266936E-01 0.27364607E+03</pdfrwt>
<totfact> 0.30256733E+03</totfact>
</mgrwt>
</event>
<event>
 9    1  0.8122655E-001  0.2710387E+03  0.7818608E-02  0.1100687E+00
          2   -1    0    0  501    0  0.00000000000E+00  0.00000000000E+00  0.25897095237E+03  0.25897095237E+03  0.00000000000E+00 0. -1.
         -2   -1    0    0    0  501 -0.00000000000E+00 -0.00000000000E+00 -0.70917221630E+02  0.70917221630E+02  0.00000000000E+00 0. -1.
         35    2    1    2    0    0 -0.71054273576E-14  0.35527136788E-14  0.18805373074E+03  0.32988817400E+03  0.27103874575E+03 0.  0.
         25    2    3    3    0    0  0.29070451441E+02 -0.49247648206E+01  0.14535950344E+03  0.19452522749E+03  0.12586236306E+03 0.  0.
         25    2    3    3    0    0 -0.29070451441E+02  0.49247648206E+01  0.42694227298E+02  0.13536294651E+03  0.12502394086E+03 0.  0.
          5    1    4    4  502    0  0.49456469669E+02 -0.22880765492E+02  0.90295563658E+01  0.55435500446E+02  0.47000000000E+01 0.  1.
         -5    1    4    4    0  502 -0.20386018228E+02  0.17956000671E+02  0.13632994708E+03  0.13908972705E+03  0.47000000000E+01 0.  1.
          5    1    5    5  503    0  0.16900230507E+02  0.54789860455E+02  0.33997741234E+02  0.66824269609E+02  0.47000000000E+01 0. -1.
         -5    1    5    5    0  503 -0.45970681948E+02 -0.49865095634E+02  0.86964860644E+01  0.68538676900E+02  0.47000000000E+01 0. -1.
<mgrwt>
<rscale>  0 0.27103875E+03</rscale>
<asrwt>0</asrwt>
<pdfrwt beam="1">  1        2 0.39841685E-01 0.27103875E+03</pdfrwt>
<pdfrwt beam="2">  1       -2 0.10910342E-01 0.27103875E+03</pdfrwt>
<totfact> 0.73398091E+03</totfact>
</mgrwt>
</event>
<event>
 9    1  0.8122655E-001  0.2809136E+03  0.7818608E-02  0.1095191E+00
          2   -1    0    0  501    0  0.00000000000E+00  0.00000000000E+00  0.68118812610E+02  0.68118812610E+02  0.00000000000E+00 0. -1.
         -2   -1    0    0    0  501 -0.00000000000E+00 -0.00000000000E+00 -0.28961331608E+03  0.28961331608E+03  0.00000000000E+00 0. -1.
         35    2    1    2    0    0 -0.71054273576E-14  0.35527136788E-14 -0.22149450347E+03  0.35773212869E+03  0.28091361809E+03 0.  0.
         25    2    3    3    0    0  0.60242789358E+02 -0.17945750793E+01 -0.79906919730E+02  0.16020415788E+03  0.12509133548E+03 0.  0.
         25    2    3    3    0    0 -0.60242789358E+02  0.17945750793E+01 -0.14158758374E+03  0.19752797082E+03  0.12384603835E+03 0.  0.
          5    1    4    4  502    0  0.93548948127E+02 -0.18436995453E+02 -0.76846906859E+02  0.12255148139E+03  0.47000000000E+01 0.  1.
         -5    1    4    4    0  502 -0.33306158770E+02  0.16642420373E+02 -0.30600128714E+01  0.37652676487E+02  0.47000000000E+01 0.  1.
          5    1    5    5  503    0 -0.86368792297E+02 -0.33812439965E+02 -0.10307805019E+03  0.13874445506E+03  0.47000000000E+01 0. -1.
         -5    1    5    5    0  503  0.26126002940E+02  0.35607015044E+02 -0.38509533553E+02  0.58783515754E+02  0.47000000000E+01 0. -1.
<mgrwt>
<rscale>  0 0.28091362E+03</rscale>
<asrwt>0</asrwt>
<pdfrwt beam="1">  1        2 0.10479817E-01 0.28091362E+03</pdfrwt>
<pdfrwt beam="2">  1       -2 0.44555894E-01 0.28091362E+03</pdfrwt>
<totfact> 0.29103504E+03</totfact>
</mgrwt>
</event>
<event>
 9    1  0.8122655E-001  0.2774839E+03  0.7818608E-02  0.1097071E+00
         -1   -1    0    0    0  501 -0.00000000000E+00  0.00000000000E+00  0.23253016411E+02  0.23253016411E+02  0.00000000000E+00 0. -1.
          1   -1    0    0  501    0  0.00000000000E+00 -0.00000000000E+00 -0.82782077784E+03  0.82782077784E+03  0.00000000000E+00 0. -1.
         35    2    1    2    0    0 -0.71054273576E-14  0.00000000000E+00 -0.80456776142E+03  0.85107379425E+03  0.27748391040E+03 0.  0.
         25    2    3    3    0    0  0.59564509225E+02  0.12913472064E+02 -0.39006460064E+03  0.41397745552E+03  0.12454819344E+03 0.  0.
         25    2    3    3    0    0 -0.59564509225E+02 -0.12913472064E+02 -0.41450316078E+03  0.43709633872E+03  0.12460196830E+03 0.  0.
          5    1    4    4  502    0  0.24074198905E+02 -0.52307735553E+02 -0.23485927389E+03  0.24186077562E+03  0.47000000000E+01 0.  1.
         -5    1    4    4    0  502  0.35490310321E+02  0.65221207617E+02 -0.15520532675E+03  0.17211667990E+03  0.47000000000E+01 0.  1.
          5    1    5    5  503    0 -0.23424226243E+02 -0.65007810353E+02 -0.15251057380E+03  0.16750007434E+03  0.47000000000E+01 0. -1.
         -5    1    5    5    0  503 -0.36140282982E+02  0.52094338289E+02 -0.26199258698E+03  0.26959626438E+03  0.47000000000E+01 0. -1.
<mgrwt>
<rscale>  0 0.27748391E+03</rscale>
<asrwt>0</asrwt>
<pdfrwt beam="1">  1        1 0.12735704E+00 0.27748391E+03</pdfrwt>
<pdfrwt beam="2">  1       -1 0.35773872E-02 0.27748391E+03</pdfrwt>
<totfact> 0.63356978E+03</totfact>
</mgrwt>
</event>
<event>
 9    1  0.8122655E-001  0.2837278E+03  0.7818608E-02  0.1093670E+00
         -1   -1    0    0    0  501 -0.00000000000E+00  0.00000000000E+00  0.42812979922E+03  0.42812979922E+03  0.00000000000E+00 0.  1.
          1   -1    0    0  501    0  0.00000000000E+00 -0.00000000000E+00 -0.47007630441E+02  0.47007630441E+02  0.00000000000E+00 0.  1.
         35    2    1    2    0    0 -0.71054273576E-14  0.00000000000E+00  0.38112216878E+03  0.47513742966E+03  0.28372780888E+03 0.  0.
         25    2    3    3    0    0 -0.54550700464E+02  0.27681564501E+02  0.15164488824E+03  0.20689676712E+03  0.12675982084E+03 0.  0.
         25    2    3    3    0    0  0.54550700464E+02 -0.27681564501E+02  0.22947728054E+03  0.26824066254E+03  0.12470438174E+03 0.  0.
          5    1    4    4  502    0  0.30738687494E+02 -0.16924402670E+02  0.77851134443E+02  0.85523046301E+02  0.47000000000E+01 0.  1.
         -5    1    4    4    0  502 -0.85289387957E+02  0.44605967171E+02  0.73793753798E+02  0.12137372082E+03  0.47000000000E+01 0.  1.
          5    1    5    5  503    0  0.52221941724E+02  0.34715671302E+02  0.57465827218E+02  0.85186385821E+02  0.47000000000E+01 0.  1.
         -5    1    5    5    0  503  0.23287587398E+01 -0.62397235802E+02  0.17201145332E+03  0.18305427672E+03  0.47000000000E+01 0.  1.
<mgrwt>
<rscale>  0 0.28372781E+03</rscale>
<asrwt>0</asrwt>
<pdfrwt beam="1">  1        1 0.72319434E-02 0.28372781E+03</pdfrwt>
<pdfrwt beam="2">  1       -1 0.65866120E-01 0.28372781E+03</pdfrwt>
<totfact> 0.24141632E+03</totfact>
</mgrwt>
</event>
<event>
 9    1  0.8122655E-001  0.2741646E+03  0.7818608E-02  0.1098919E+00
         -2   -1    0    0    0  501 -0.00000000000E+00  0.00000000000E+00  0.15198508780E+02  0.15198508780E+02  0.00000000000E+00 0.  1.
          2   -1    0    0  501    0  0.00000000000E+00 -0.00000000000E+00 -0.12364076276E+04  0.12364076276E+04  0.00000000000E+00 0.  1.
         35    2    1    2    0    0  0.14210854715E-13  0.00000000000E+00 -0.12212091188E+04  0.12516061364E+04  0.27416456506E+03 0.  0.
         25    2    3    3    0    0 -0.52508068539E+02  0.17357380635E+02 -0.66510838462E+03  0.67897606536E+03  0.12482370816E+03 0.  0.
         25    2    3    3    0    0  0.52508068539E+02 -0.17357380635E+02 -0.55610073418E+03  0.57263007099E+03  0.12489513894E+03 0.  0.
          5    1    4    4  502    0 -0.89260750076E+02  0.32476722359E+02 -0.50981681294E+03  0.51861111805E+03  0.47000000000E+01 0.  1.
         -5    1    4    4    0  502  0.36752681537E+02 -0.15119341723E+02 -0.15529157168E+03  0.16036494732E+03  0.47000000000E+01 0.  1.
          5    1    5    5  503    0 -0.14436325833E+02 -0.43479540562E+02 -0.37371380830E+03  0.37654080584E+03  0.47000000000E+01 0. -1.
         -5    1    5    5    0  503  0.66944394371E+02  0.26122159927E+02 -0.18238692588E+03  0.19608926515E+03  0.47000000000E+01 0. -1.
<mgrwt>
<rscale>  0 0.27416457E+03</rscale>
<asrwt>0</asrwt>
<pdfrwt beam="1">  1        2 0.19021655E+00 0.27416457E+03</pdfrwt>
<pdfrwt beam="2">  1       -2 0.23382323E-02 0.27416457E+03</pdfrwt>
<totfact> 0.11676469E+04</totfact>
</mgrwt>
</event>
<event>
 9    1  0.8122655E-001  0.2758599E+03  0.7818608E-02  0.1097972E+00
          2   -1    0    0  501    0  0.00000000000E+00  0.00000000000E+00  0.18328414469E+03  0.18328414469E+03  0.00000000000E+00 0. -1.
         -2   -1    0    0    0  501 -0.00000000000E+00 -0.00000000000E+00 -0.10379877807E+03  0.10379877807E+03  0.00000000000E+00 0. -1.
         35    2    1    2    0    0  0.00000000000E+00  0.00000000000E+00  0.79485366620E+02  0.28708292276E+03  0.27585989385E+03 0.  0.
         25    2    3    3    0    0  0.17440519681E+02  0.27826173432E+02  0.87910082784E+02  0.15631197315E+03  0.12500713036E+03 0.  0.
         25    2    3    3    0    0 -0.17440519681E+02 -0.27826173432E+02 -0.84247161635E+01  0.13077094961E+03  0.12629963486E+03 0.  0.
          5    1    4    4  502    0  0.53061602034E+02  0.44262470287E+02  0.93553290097E+02  0.11640020607E+03  0.47000000000E+01 0.  1.
         -5    1    4    4    0  502 -0.35621082353E+02 -0.16436296856E+02 -0.56432073131E+01  0.39911767076E+02  0.47000000000E+01 0.  1.
          5    1    5    5  503    0  0.19960846729E+02 -0.13163962406E+02  0.52363689699E+02  0.57756136533E+02  0.47000000000E+01 0. -1.
         -5    1    5    5    0  503 -0.37401366409E+02 -0.14662211026E+02 -0.60788405862E+02  0.73014813078E+02  0.47000000000E+01 0. -1.
<mgrwt>
<rscale>  0 0.27585989E+03</rscale>
<asrwt>0</asrwt>
<pdfrwt beam="1">  1        2 0.28197561E-01 0.27585989E+03</pdfrwt>
<pdfrwt beam="2">  1       -2 0.15969043E-01 0.27585989E+03</pdfrwt>
<totfact> 0.57511092E+03</totfact>
</mgrwt>
</event>
<event>
 9    1  0.8122655E-001  0.2775038E+03  0.7818608E-02  0.1097060E+00
         -4   -1    0    0    0  501 -0.00000000000E+00  0.00000000000E+00  0.16201431856E+02  0.16201431856E+02  0.00000000000E+00 0. -1.
          4   -1    0    0  501    0  0.00000000000E+00 -0.00000000000E+00 -0.11882956848E+04  0.11882956848E+04  0.00000000000E+00 0. -1.
         35    2    1    2    0    0  0.00000000000E+00  0.00000000000E+00 -0.11720942530E+04  0.12044971167E+04  0.27750381304E+03 0.  0.
         25    2    3    3    0    0 -0.44572730424E+02 -0.38608833682E+02 -0.57203358564E+03  0.58858197626E+03  0.12541510812E+03 0.  0.
         25    2    3    3    0    0  0.44572730424E+02  0.38608833682E+02 -0.60006066735E+03  0.61591514044E+03  0.12570316379E+03 0.  0.
          5    1    4    4  502    0 -0.77502468225E+02 -0.57558942490E+02 -0.34244093018E+03  0.35581954008E+03  0.47000000000E+01 0.  1.
         -5    1    4    4    0  502  0.32929737801E+02  0.18950108809E+02 -0.22959265546E+03  0.23276243618E+03  0.47000000000E+01 0.  1.
          5    1    5    5  503    0 -0.31486234070E+01  0.76674000265E+02 -0.36526076238E+03  0.37326442461E+03  0.47000000000E+01 0. -1.
         -5    1    5    5    0  503  0.47721353831E+02 -0.38065166583E+02 -0.23479990497E+03  0.24265071583E+03  0.47000000000E+01 0. -1.
<mgrwt>
<rscale>  0 0.27750381E+03</rscale>
<asrwt>0</asrwt>
<pdfrwt beam="1">  1        4 0.18281472E+00 0.27750381E+03</pdfrwt>
<pdfrwt beam="2">  1       -4 0.24925280E-02 0.27750381E+03</pdfrwt>
<totfact> 0.25126445E+02</totfact>
</mgrwt>
</event>
<event>
 9    1  0.8122655E-001  0.2736003E+03  0.7818608E-02  0.1099237E+00
          1   -1    0    0  501    0  0.00000000000E+00  0.00000000000E+00  0.41078301504E+04  0.41078301504E+04  0.00000000000E+00 0.  1.
         -1   -1    0    0    0  501 -0.00000000000E+00 -0.00000000000E+00 -0.45557585940E+01  0.45557585940E+01  0.00000000000E+00 0.  1.
         35    2    1    2    0    0  0.35527136788E-14  0.14210854715E-13  0.41032743918E+04  0.41123859090E+04  0.27360031075E+03 0.  0.
         25    2    3    3    0    0  0.20008753399E+02  0.41118072669E+02  0.15964134220E+04  0.16019183951E+04  0.12456197139E+03 0.  0.
         25    2    3    3    0    0 -0.20008753399E+02 -0.41118072669E+02  0.25068609699E+04  0.25104675139E+04  0.12650758845E+03 0.  0.
          5    1    4    4  502    0  0.22785730694E+02 -0.40215449979E+02  0.79888307160E+03  0.80023291861E+03  0.47000000000E+01 0.  1.
         -5    1    4    4    0  502 -0.27769772954E+01  0.81333522648E+02  0.79753035035E+03  0.80168547650E+03  0.47000000000E+01 0.  1.
          5    1    5    5  503    0  0.36612112788E+02 -0.62398659959E+02  0.11859064118E+04  0.11881204262E+04  0.47000000000E+01 0. -1.
         -5    1    5    5    0  503 -0.56620866187E+02  0.21280587291E+02  0.13209545581E+04  0.13223470877E+04  0.47000000000E+01 0. -1.
<mgrwt>
<rscale>  0 0.27360031E+03</rscale>
<asrwt>0</asrwt>
<pdfrwt beam="1">  1        1 0.63197091E+00 0.27360031E+03</pdfrwt>
<pdfrwt beam="2">  1       -1 0.70088922E-03 0.27360031E+03</pdfrwt>
<totfact> 0.31896181E+02</totfact>
</mgrwt>
</event>
<event>
 9    1  0.8122655E-001  0.2808676E+03  0.7818608E-02  0.1095216E+00
         -2   -1    0    0    0  501 -0.00000000000E+00  0.00000000000E+00  0.67003648289E+02  0.67003648289E+02  0.00000000000E+00 0. -1.
          2   -1    0    0  501    0  0.00000000000E+00 -0.00000000000E+00 -0.29433694346E+03  0.29433694346E+03  0.00000000000E+00 0. -1.
         35    2    1    2    0    0  0.71054273576E-14 -0.71054273576E-14 -0.22733329517E+03  0.36134059175E+03  0.28086757761E+03 0.  0.
         25    2    3    3    0    0 -0.38937062359E+02  0.17458615908E+02 -0.53642925636E+02  0.14298935158E+03  0.12548901586E+03 0.  0.
         25    2    3    3    0    0  0.38937062359E+02 -0.17458615908E+02 -0.17369036953E+03  0.21835124016E+03  0.12525183239E+03 0.  0.
          5    1    4    4  502    0  0.36152626876E+02  0.34931914742E+01  0.15582924530E+02  0.39801160204E+02  0.47000000000E+01 0.  1.
         -5    1    4    4    0  502 -0.75089689234E+02  0.13965424433E+02 -0.69225850165E+02  0.10318819138E+03  0.47000000000E+01 0.  1.
          5    1    5    5  503    0  0.85826959186E+01 -0.70117845185E+02 -0.10328765981E+03  0.12522222467E+03  0.47000000000E+01 0.  1.
         -5    1    5    5    0  503  0.30354366440E+02  0.52659229278E+02 -0.70402709718E+02  0.93129015488E+02  0.47000000000E+01 0.  1.
<mgrwt>
<rscale>  0 0.28086758E+03</rscale>
<asrwt>0</asrwt>
<pdfrwt beam="1">  1        2 0.45282607E-01 0.28086758E+03</pdfrwt>
<pdfrwt beam="2">  1       -2 0.10308254E-01 0.28086758E+03</pdfrwt>
<totfact> 0.70115485E+03</totfact>
</mgrwt>
</event>
<event>
 9    1  0.8122655E-001  0.2736251E+03  0.7818608E-02  0.1099223E+00
         -2   -1    0    0    0  501 -0.00000000000E+00  0.00000000000E+00  0.99993356793E+01  0.99993356793E+01  0.00000000000E+00 0.  1.
          2   -1    0    0  501    0  0.00000000000E+00 -0.00000000000E+00 -0.18718915510E+04  0.18718915510E+04  0.00000000000E+00 0.  1.
         35    2    1    2    0    0  0.00000000000E+00  0.35527136788E-14 -0.18618922153E+04  0.18818908866E+04  0.27362508637E+03 0.  0.
         25    2    3    3    0    0  0.44399882739E+02  0.20210041654E+02 -0.11311987071E+04  0.11391016761E+04  0.12474902128E+03 0.  0.
         25    2    3    3    0    0 -0.44399882739E+02 -0.20210041654E+02 -0.73069350823E+03  0.74278921053E+03  0.12426991969E+03 0.  0.
          5    1    4    4  502    0  0.66916727065E+02 -0.25435928407E+02 -0.86971656311E+03  0.87267051340E+03  0.47000000000E+01 0. -1.
         -5    1    4    4    0  502 -0.22516844326E+02  0.45645970062E+02 -0.26148214395E+03  0.26643116271E+03  0.47000000000E+01 0. -1.
          5    1    5    5  503    0 -0.81106492885E+02  0.13052126547E+02 -0.50651182190E+03  0.51315196279E+03  0.47000000000E+01 0. -1.
         -5    1    5    5    0  503  0.36706610146E+02 -0.33262168201E+02 -0.22418168633E+03  0.22963724774E+03  0.47000000000E+01 0. -1.
<mgrwt>
<rscale>  0 0.27362509E+03</rscale>
<asrwt>0</asrwt>
<pdfrwt beam="1">  1        2 0.28798380E+00 0.27362509E+03</pdfrwt>
<pdfrwt beam="2">  1       -2 0.15383568E-02 0.27362509E+03</pdfrwt>
<totfact> 0.98629818E+03</totfact>
</mgrwt>
</event>
<event>
 9    1  0.8122655E-001  0.2775255E+03  0.7818608E-02  0.1097048E+00
         -1   -1    0    0    0  501 -0.00000000000E+00  0.00000000000E+00  0.23036779172E+03  0.23036779172E+03  0.00000000000E+00 0.  1.
          1   -1    0    0  501    0  0.00000000000E+00 -0.00000000000E+00 -0.83584179515E+02  0.83584179515E+02  0.00000000000E+00 0.  1.
         35    2    1    2    0    0  0.00000000000E+00  0.00000000000E+00  0.14678361221E+03  0.31395197124E+03  0.27752551492E+03 0.  0.
         25    2    3    3    0    0  0.84904332637E+01 -0.10830711499E+00  0.50468820193E+01  0.12533411431E+03  0.12494426759E+03 0.  0.
         25    2    3    3    0    0 -0.84904332637E+01  0.10830711499E+00  0.14173673019E+03  0.18861785693E+03  0.12415835083E+03 0.  0.
          5    1    4    4  502    0 -0.80122904365E+01 -0.64086247351E+01 -0.58310546203E+02  0.59392567444E+02  0.47000000000E+01 0.  1.
         -5    1    4    4    0  502  0.16502723700E+02  0.63003176201E+01  0.63357428222E+02  0.65941546862E+02  0.47000000000E+01 0.  1.
          5    1    5    5  503    0  0.34785775850E+02 -0.24245408372E+02  0.13076131290E+03  0.13754454181E+03  0.47000000000E+01 0.  1.
         -5    1    5    5    0  503 -0.43276209113E+02  0.24353715487E+02  0.10975417284E+02  0.51073315125E+02  0.47000000000E+01 0.  1.
<mgrwt>
<rscale>  0 0.27752551E+03</rscale>
<asrwt>0</asrwt>
<pdfrwt beam="1">  1        1 0.12859105E-01 0.27752551E+03</pdfrwt>
<pdfrwt beam="2">  1       -1 0.35441198E-01 0.27752551E+03</pdfrwt>
<totfact> 0.34836101E+03</totfact>
</mgrwt>
</event>
<event>
 9    1  0.8122655E-001  0.3090152E+03  0.7818608E-02  0.1080819E+00
         -2   -1    0    0    0  501 -0.00000000000E+00  0.00000000000E+00  0.62285583190E+02  0.62285583190E+02  0.00000000000E+00 0.  1.
          2   -1    0    0  501    0  0.00000000000E+00 -0.00000000000E+00 -0.38327659229E+03  0.38327659229E+03  0.00000000000E+00 0.  1.
         35    2    1    2    0    0 -0.71054273576E-14  0.00000000000E+00 -0.32099100910E+03  0.44556217548E+03  0.30901524929E+03 0.  0.
         25    2    3    3    0    0  0.23714709304E+02  0.22511157493E+02 -0.36705364104E+02  0.13378780064E+03  0.12442970786E+03 0.  0.
         25    2    3    3    0    0 -0.23714709304E+02 -0.22511157493E+02 -0.28428564500E+03  0.31177437483E+03  0.12375699255E+03 0.  0.
          5    1    4    4  502    0 -0.65747494127E+01  0.29401141235E+02 -0.76927557067E+02  0.82750187142E+02  0.47000000000E+01 0. -1.
         -5    1    4    4    0  502  0.30289458717E+02 -0.68899837412E+01  0.40222192963E+02  0.51037613503E+02  0.47000000000E+01 0. -1.
          5    1    5    5  503    0  0.15747049902E+02 -0.51078123095E+02 -0.23948774906E+03  0.24542497059E+03  0.47000000000E+01 0. -1.
         -5    1    5    5    0  503 -0.39461759206E+02  0.28566965602E+02 -0.44797895937E+02  0.66349404245E+02  0.47000000000E+01 0. -1.
<mgrwt>
<rscale>  0 0.30901525E+03</rscale>
<asrwt>0</asrwt>
<pdfrwt beam="1">  1        2 0.58965628E-01 0.30901525E+03</pdfrwt>
<pdfrwt beam="2">  1       -2 0.95823977E-02 0.30901525E+03</pdfrwt>
<totfact> 0.59380398E+03</totfact>
</mgrwt>
</event>
<event>
 9    1  0.8122655E-001  0.2730420E+03  0.7818608E-02  0.1099551E+00
          1   -1    0    0  501    0  0.00000000000E+00  0.00000000000E+00  0.95392964209E+03  0.95392964209E+03  0.00000000000E+00 0.  1.
         -1   -1    0    0    0  501 -0.00000000000E+00 -0.00000000000E+00 -0.19538105929E+02  0.19538105929E+02  0.00000000000E+00 0.  1.
         35    2    1    2    0    0  0.35527136788E-14  0.00000000000E+00  0.93439153616E+03  0.97346774802E+03  0.27304196305E+03 0.  0.
         25    2    3    3    0    0  0.13397582323E+01  0.37178590275E+02  0.60794760269E+03  0.62269063529E+03  0.12945770402E+03 0.  0.
         25    2    3    3    0    0 -0.13397582323E+01 -0.37178590275E+02  0.32644393347E+03  0.35077711274E+03  0.12286129818E+03 0.  0.
          5    1    4    4  502    0  0.32015008566E+02 -0.38747631565E+02  0.28833357552E+03  0.29271945698E+03  0.47000000000E+01 0. -1.
         -5    1    4    4    0  502 -0.30675250333E+02  0.75926221840E+02  0.31961402717E+03  0.32997117830E+03  0.47000000000E+01 0. -1.
          5    1    5    5  503    0  0.58707834343E+02 -0.31775728735E+02  0.19292167123E+03  0.20419884422E+03  0.47000000000E+01 0. -1.
         -5    1    5    5    0  503 -0.60047592575E+02 -0.54028615402E+01  0.13352226225E+03  0.14657826852E+03  0.47000000000E+01 0. -1.
<mgrwt>
<rscale>  0 0.27304196E+03</rscale>
<asrwt>0</asrwt>
<pdfrwt beam="1">  1        1 0.14675837E+00 0.27304196E+03</pdfrwt>
<pdfrwt beam="2">  1       -1 0.30058632E-02 0.27304196E+03</pdfrwt>
<totfact> 0.65124517E+03</totfact>
</mgrwt>
</event>
<event>
 9    1  0.8122655E-001  0.2729438E+03  0.7818608E-02  0.1099606E+00
          1   -1    0    0  501    0  0.00000000000E+00  0.00000000000E+00  0.64926565902E+03  0.64926565902E+03  0.00000000000E+00 0.  1.
         -1   -1    0    0    0  501 -0.00000000000E+00 -0.00000000000E+00 -0.28685615495E+02  0.28685615495E+02  0.00000000000E+00 0.  1.
         35    2    1    2    0    0  0.00000000000E+00  0.71054273576E-14  0.62058004352E+03  0.67795127451E+03  0.27294384073E+03 0.  0.
         25    2    3    3    0    0  0.55192770114E+02  0.73043019013E+01  0.31047198744E+03  0.33898976654E+03  0.12418378369E+03 0.  0.
         25    2    3    3    0    0 -0.55192770114E+02 -0.73043019013E+01  0.31010805608E+03  0.33896150798E+03  0.12501321028E+03 0.  0.
          5    1    4    4  502    0  0.27739843988E+02 -0.47999420338E+02  0.23434634620E+03  0.24086042280E+03  0.47000000000E+01 0.  1.
         -5    1    4    4    0  502  0.27452926126E+02  0.55303722240E+02  0.76125641244E+02  0.98129343732E+02  0.47000000000E+01 0.  1.
          5    1    5    5  503    0 -0.42654988849E+01  0.52125998195E+02  0.17545146619E+03  0.18314098711E+03  0.47000000000E+01 0.  1.
         -5    1    5    5    0  503 -0.50927271229E+02 -0.59430300096E+02  0.13465658989E+03  0.15582052087E+03  0.47000000000E+01 0.  1.
<mgrwt>
<rscale>  0 0.27294384E+03</rscale>
<asrwt>0</asrwt>
<pdfrwt beam="1">  1        1 0.99887013E-01 0.27294384E+03</pdfrwt>
<pdfrwt beam="2">  1       -1 0.44131721E-02 0.27294384E+03</pdfrwt>
<totfact> 0.66527000E+03</totfact>
</mgrwt>
</event>
<event>
 9    1  0.8122655E-001  0.2711940E+03  0.7818608E-02  0.1100598E+00
          2   -1    0    0  501    0  0.00000000000E+00  0.00000000000E+00  0.12246732924E+04  0.12246732924E+04  0.00000000000E+00 0.  1.
         -2   -1    0    0    0  501 -0.00000000000E+00 -0.00000000000E+00 -0.15013433362E+02  0.15013433362E+02  0.00000000000E+00 0.  1.
         35    2    1    2    0    0  0.71054273576E-14  0.14210854715E-13  0.12096598590E+04  0.12396867258E+04  0.27119403286E+03 0.  0.
         25    2    3    3    0    0  0.88091640941E+01 -0.43496503910E+02  0.47633913179E+03  0.49433855113E+03  0.12450737902E+03 0.  0.
         25    2    3    3    0    0 -0.88091640941E+01  0.43496503910E+02  0.73332072724E+03  0.74534817462E+03  0.12575796275E+03 0.  0.
          5    1    4    4  502    0 -0.47485626895E+02  0.10440220134E+02  0.25466180051E+03  0.25930407941E+03  0.47000000000E+01 0.  1.
         -5    1    4    4    0  502  0.56294790989E+02 -0.53936724044E+02  0.22167733128E+03  0.23503447172E+03  0.47000000000E+01 0.  1.
          5    1    5    5  503    0  0.25762662883E+02  0.23487955339E+02  0.51648487872E+02  0.62490440424E+02  0.47000000000E+01 0. -1.
         -5    1    5    5    0  503 -0.34571826977E+02  0.20008548571E+02  0.68167223937E+03  0.68285773420E+03  0.47000000000E+01 0. -1.
<mgrwt>
<rscale>  0 0.27119403E+03</rscale>
<asrwt>0</asrwt>
<pdfrwt beam="1">  1        2 0.18841120E+00 0.27119403E+03</pdfrwt>
<pdfrwt beam="2">  1       -2 0.23097599E-02 0.27119403E+03</pdfrwt>
<totfact> 0.12068330E+04</totfact>
</mgrwt>
</event>
<event>
 9    1  0.8122655E-001  0.2812283E+03  0.7818608E-02  0.1095020E+00
          2   -1    0    0  501    0  0.00000000000E+00  0.00000000000E+00  0.12907496219E+04  0.12907496219E+04  0.00000000000E+00 0.  1.
         -2   -1    0    0    0  501 -0.00000000000E+00 -0.00000000000E+00 -0.15318489647E+02  0.15318489647E+02  0.00000000000E+00 0.  1.
         35    2    1    2    0    0 -0.71054273576E-14  0.00000000000E+00  0.12754311323E+04  0.13060681116E+04  0.28122826828E+03 0.  0.
         25    2    3    3    0    0 -0.26083173280E+02  0.19050229025E+02  0.36222189470E+03  0.38461558616E+03  0.12522461805E+03 0.  0.
         25    2    3    3    0    0  0.26083173280E+02 -0.19050229025E+02  0.91320923756E+03  0.92145252539E+03  0.11866086898E+03 0.  0.
          5    1    4    4  502    0 -0.50584870423E+02  0.43489996062E+02  0.10140809070E+03  0.12147386440E+03  0.47000000000E+01 0.  1.
         -5    1    4    4    0  502  0.24501697143E+02 -0.24439767037E+02  0.26081380399E+03  0.26314172176E+03  0.47000000000E+01 0.  1.
          5    1    5    5  503    0  0.48921757293E+02  0.18919560567E+02  0.76192806987E+03  0.76374587512E+03  0.47000000000E+01 0. -1.
         -5    1    5    5    0  503 -0.22838584013E+02 -0.37969789592E+02  0.15128116770E+03  0.15770665028E+03  0.47000000000E+01 0. -1.
<mgrwt>
<rscale>  0 0.28122827E+03</rscale>
<asrwt>0</asrwt>
<pdfrwt beam="1">  1        2 0.19857678E+00 0.28122827E+03</pdfrwt>
<pdfrwt beam="2">  1       -2 0.23566917E-02 0.28122827E+03</pdfrwt>
<totfact> 0.10769019E+04</totfact>
</mgrwt>
</event>
<event>
 9    1  0.8122655E-001  0.2697850E+03  0.7818608E-02  0.1101403E+00
          2   -1    0    0  501    0  0.00000000000E+00  0.00000000000E+00  0.16601052943E+04  0.16601052943E+04  0.00000000000E+00 0.  1.
         -2   -1    0    0    0  501 -0.00000000000E+00 -0.00000000000E+00 -0.10960742219E+02  0.10960742219E+02  0.00000000000E+00 0.  1.
         35    2    1    2    0    0  0.35527136788E-14  0.44408920985E-14  0.16491445521E+04  0.16710660365E+04  0.26978499727E+03 0.  0.
         25    2    3    3    0    0  0.23794475387E+01  0.70308253447E+01  0.51332285344E+03  0.52838288410E+03  0.12503210015E+03 0.  0.
         25    2    3    3    0    0 -0.23794475387E+01 -0.70308253447E+01  0.11358216987E+04  0.11426831524E+04  0.12481490876E+03 0.  0.
          5    1    4    4  502    0  0.32494969283E+02 -0.36873192146E+02  0.40059941196E+03  0.40363044260E+03  0.47000000000E+01 0. -1.
         -5    1    4    4    0  502 -0.30115521744E+02  0.43904017491E+02  0.11272344148E+03  0.12475244150E+03  0.47000000000E+01 0. -1.
          5    1    5    5  503    0 -0.30343018232E+02  0.47865777709E+01  0.10653950516E+04  0.10658481674E+04  0.47000000000E+01 0.  1.
         -5    1    5    5    0  503  0.27963570693E+02 -0.11817403116E+02  0.70426647055E+02  0.76834984986E+02  0.47000000000E+01 0.  1.
<mgrwt>
<rscale>  0 0.26978500E+03</rscale>
<asrwt>0</asrwt>
<pdfrwt beam="1">  1        2 0.25540062E+00 0.26978500E+03</pdfrwt>
<pdfrwt beam="2">  1       -2 0.16862693E-02 0.26978500E+03</pdfrwt>
<totfact> 0.11138326E+04</totfact>
</mgrwt>
</event>
<event>
 9    1  0.8122655E-001  0.2763469E+03  0.7818608E-02  0.1097701E+00
          2   -1    0    0  501    0  0.00000000000E+00  0.00000000000E+00  0.46594119154E+03  0.46594119154E+03  0.00000000000E+00 0.  1.
         -2   -1    0    0    0  501 -0.00000000000E+00 -0.00000000000E+00 -0.40974917926E+02  0.40974917926E+02  0.00000000000E+00 0.  1.
         35    2    1    2    0    0  0.00000000000E+00  0.00000000000E+00  0.42496627362E+03  0.50691610947E+03  0.27634689853E+03 0.  0.
         25    2    3    3    0    0  0.19531615663E+01 -0.57938523317E+02  0.24866076583E+03  0.28347185002E+03  0.12313986345E+03 0.  0.
         25    2    3    3    0    0 -0.19531615663E+01  0.57938523317E+02  0.17630550779E+03  0.22344425944E+03  0.12443077464E+03 0.  0.
          5    1    4    4  502    0 -0.13649120889E+02 -0.74349234674E+02  0.24908139000E+03  0.26034157571E+03  0.47000000000E+01 0. -1.
         -5    1    4    4    0  502  0.15602282456E+02  0.16410711356E+02 -0.42062417697E+00  0.23130274312E+02  0.47000000000E+01 0. -1.
          5    1    5    5  503    0 -0.62393574131E+01 -0.19462421086E+02 -0.87725237212E+01  0.22732412716E+02  0.47000000000E+01 0.  1.
         -5    1    5    5    0  503  0.42861958468E+01  0.77400944403E+02  0.18507803151E+03  0.20071184673E+03  0.47000000000E+01 0.  1.
<mgrwt>
<rscale>  0 0.27634690E+03</rscale>
<asrwt>0</asrwt>
<pdfrwt beam="1">  1        2 0.71683257E-01 0.27634690E+03</pdfrwt>
<pdfrwt beam="2">  1       -2 0.63038338E-02 0.27634690E+03</pdfrwt>
<totfact> 0.91884367E+03</totfact>
</mgrwt>
</event>
<event>
 9    1  0.8122655E-001  0.2757355E+03  0.7818608E-02  0.1098041E+00
          1   -1    0    0  501    0  0.00000000000E+00  0.00000000000E+00  0.13541275626E+03  0.13541275626E+03  0.00000000000E+00 0.  1.
         -1   -1    0    0    0  501 -0.00000000000E+00 -0.00000000000E+00 -0.14036727950E+03  0.14036727950E+03  0.00000000000E+00 0.  1.
         35    2    1    2    0    0 -0.71054273576E-14  0.71054273576E-14 -0.49545232380E+01  0.27578003576E+03  0.27573552695E+03 0.  0.
         25    2    3    3    0    0 -0.27799766834E+02 -0.47275570868E+02 -0.17773967150E+02  0.13807649769E+03  0.12546473078E+03 0.  0.
         25    2    3    3    0    0  0.27799766834E+02  0.47275570868E+02  0.12819443912E+02  0.13770353807E+03  0.12565874271E+03 0.  0.
          5    1    4    4  502    0  0.20009891065E+02 -0.58034688870E+01  0.44376144486E+02  0.49248433387E+02  0.47000000000E+01 0.  1.
         -5    1    4    4    0  502 -0.47809657900E+02 -0.41472101981E+02 -0.62150111636E+02  0.88828064302E+02  0.47000000000E+01 0.  1.
          5    1    5    5  503    0 -0.38560706681E+02 -0.16561792890E+02 -0.84849682549E+01  0.43073260496E+02  0.47000000000E+01 0. -1.
         -5    1    5    5    0  503  0.66360473515E+02  0.63837363758E+02  0.21304412167E+02  0.94630277578E+02  0.47000000000E+01 0. -1.
<mgrwt>
<rscale>  0 0.27573553E+03</rscale>
<asrwt>0</asrwt>
<pdfrwt beam="1">  1        1 0.20832732E-01 0.27573553E+03</pdfrwt>
<pdfrwt beam="2">  1       -1 0.21594966E-01 0.27573553E+03</pdfrwt>
<totfact> 0.42771892E+03</totfact>
</mgrwt>
</event>
<event>
 9    1  0.8122655E-001  0.2805374E+03  0.7818608E-02  0.1095396E+00
         -1   -1    0    0    0  501 -0.00000000000E+00  0.00000000000E+00  0.10084200313E+03  0.10084200313E+03  0.00000000000E+00 0. -1.
          1   -1    0    0  501    0  0.00000000000E+00 -0.00000000000E+00 -0.19511018039E+03  0.19511018039E+03  0.00000000000E+00 0. -1.
         35    2    1    2    0    0  0.14210854715E-13  0.00000000000E+00 -0.94268177260E+02  0.29595218351E+03  0.28053735167E+03 0.  0.
         25    2    3    3    0    0  0.43232648545E+02 -0.11828336059E+02 -0.42489871771E+01  0.13573137806E+03  0.12804679482E+03 0.  0.
         25    2    3    3    0    0 -0.43232648545E+02  0.11828336059E+02 -0.90019190083E+02  0.16022080546E+03  0.12473283643E+03 0.  0.
          5    1    4    4  502    0 -0.41087000063E+02  0.30372690653E+01 -0.23759402500E+02  0.47790854614E+02  0.47000000000E+01 0. -1.
         -5    1    4    4    0  502  0.84319648608E+02 -0.14865605125E+02  0.19510415323E+02  0.87940523442E+02  0.47000000000E+01 0. -1.
          5    1    5    5  503    0 -0.18681282061E+01  0.30978146836E+02 -0.10687975665E+03  0.11139348216E+03  0.47000000000E+01 0.  1.
         -5    1    5    5    0  503 -0.41364520338E+02 -0.19149810777E+02  0.16860566571E+02  0.48827323301E+02  0.47000000000E+01 0.  1.
<mgrwt>
<rscale>  0 0.28053735E+03</rscale>
<asrwt>0</asrwt>
<pdfrwt beam="1">  1        1 0.30016951E-01 0.28053735E+03</pdfrwt>
<pdfrwt beam="2">  1       -1 0.15514154E-01 0.28053735E+03</pdfrwt>
<totfact> 0.45830613E+03</totfact>
</mgrwt>
</event>
<event>
 9    1  0.8122655E-001  0.2753443E+03  0.7818608E-02  0.1098259E+00
         -1   -1    0    0    0  501 -0.00000000000E+00  0.00000000000E+00  0.12919324618E+02  0.12919324618E+02  0.00000000000E+00 0. -1.
          1   -1    0    0  501    0  0.00000000000E+00 -0.00000000000E+00 -0.14670748763E+04  0.14670748763E+04  0.00000000000E+00 0. -1.
         35    2    1    2    0    0  0.00000000000E+00  0.00000000000E+00 -0.14541555517E+04  0.14799942009E+04  0.27534426862E+03 0.  0.
         25    2    3    3    0    0  0.48605211050E+02 -0.22818379399E+02 -0.82729925566E+03  0.83842637790E+03  0.12510630584E+03 0.  0.
         25    2    3    3    0    0 -0.48605211050E+02  0.22818379399E+02 -0.62685629602E+03  0.64156782302E+03  0.12560776525E+03 0.  0.
          5    1    4    4  502    0  0.64651601684E+02 -0.45389027041E+02 -0.77527657503E+03  0.77930472292E+03  0.47000000000E+01 0. -1.
         -5    1    4    4    0  502 -0.16046390635E+02  0.22570647641E+02 -0.52022680624E+02  0.59121654972E+02  0.47000000000E+01 0. -1.
          5    1    5    5  503    0  0.31739448551E+02  0.40790487711E+02 -0.18803863817E+03  0.19506890046E+03  0.47000000000E+01 0.  1.
         -5    1    5    5    0  503 -0.80344659601E+02 -0.17972108312E+02 -0.43881765785E+03  0.44649892256E+03  0.47000000000E+01 0.  1.
<mgrwt>
<rscale>  0 0.27534427E+03</rscale>
<asrwt>0</asrwt>
<pdfrwt beam="1">  1        1 0.22570368E+00 0.27534427E+03</pdfrwt>
<pdfrwt beam="2">  1       -1 0.19875897E-02 0.27534427E+03</pdfrwt>
<totfact> 0.52081175E+03</totfact>
</mgrwt>
</event>
<event>
 9    1  0.8122655E-001  0.2731085E+03  0.7818608E-02  0.1099514E+00
         -1   -1    0    0    0  501 -0.00000000000E+00  0.00000000000E+00  0.68426702258E+02  0.68426702258E+02  0.00000000000E+00 0.  1.
          1   -1    0    0  501    0  0.00000000000E+00 -0.00000000000E+00 -0.27251148678E+03  0.27251148678E+03  0.00000000000E+00 0.  1.
         35    2    1    2    0    0  0.00000000000E+00 -0.71054273576E-14 -0.20408478452E+03  0.34093818904E+03  0.27310849396E+03 0.  0.
         25    2    3    3    0    0 -0.28720623934E+01  0.41618195902E+02 -0.53322201617E+02  0.14218970071E+03  0.12503731775E+03 0.  0.
         25    2    3    3    0    0  0.28720623934E+01 -0.41618195902E+02 -0.15076258291E+03  0.19874848833E+03  0.12260212982E+03 0.  0.
          5    1    4    4  502    0 -0.22641426314E+02 -0.17094936942E+02  0.27807498483E+02  0.40002725238E+02  0.47000000000E+01 0. -1.
         -5    1    4    4    0  502  0.19769363921E+02  0.58713132844E+02 -0.81129700101E+02  0.10218697547E+03  0.47000000000E+01 0. -1.
          5    1    5    5  503    0  0.21926361683E+02 -0.29083913166E+02  0.85794473083E+01  0.37713873546E+02  0.47000000000E+01 0. -1.
         -5    1    5    5    0  503 -0.19054299290E+02 -0.12534282736E+02 -0.15934203021E+03  0.16103461478E+03  0.47000000000E+01 0. -1.
<mgrwt>
<rscale>  0 0.27310849E+03</rscale>
<asrwt>0</asrwt>
<pdfrwt beam="1">  1        1 0.41924844E-01 0.27310849E+03</pdfrwt>
<pdfrwt beam="2">  1       -1 0.10527185E-01 0.27310849E+03</pdfrwt>
<totfact> 0.55293697E+03</totfact>
</mgrwt>
</event>
<event>
 9    1  0.8122655E-001  0.2745809E+03  0.7818608E-02  0.1098686E+00
          1   -1    0    0  501    0  0.00000000000E+00  0.00000000000E+00  0.81478305848E+03  0.81478305848E+03  0.00000000000E+00 0.  1.
         -1   -1    0    0    0  501 -0.00000000000E+00 -0.00000000000E+00 -0.23133362761E+02  0.23133362761E+02  0.00000000000E+00 0.  1.
         35    2    1    2    0    0  0.00000000000E+00 -0.71054273576E-14  0.79164969572E+03  0.83791642124E+03  0.27458093206E+03 0.  0.
         25    2    3    3    0    0  0.31769232023E+02 -0.38757122131E+02  0.30299284138E+03  0.33151568657E+03  0.12484626505E+03 0.  0.
         25    2    3    3    0    0 -0.31769232023E+02  0.38757122131E+02  0.48865685434E+03  0.50640073467E+03  0.12306414653E+03 0.  0.
          5    1    4    4  502    0  0.25399986080E+02 -0.80844335955E+02  0.24598257844E+03  0.26021238411E+03  0.47000000000E+01 0.  1.
         -5    1    4    4    0  502  0.63692459433E+01  0.42087213824E+02  0.57010262941E+02  0.71303302461E+02  0.47000000000E+01 0.  1.
          5    1    5    5  503    0 -0.53401309026E+02  0.72286199821E+02  0.28695218832E+03  0.30073350807E+03  0.47000000000E+01 0. -1.
         -5    1    5    5    0  503  0.21632077003E+02 -0.33529077689E+02  0.20170466601E+03  0.20566722660E+03  0.47000000000E+01 0. -1.
<mgrwt>
<rscale>  0 0.27458093E+03</rscale>
<asrwt>0</asrwt>
<pdfrwt beam="1">  1        1 0.12535122E+00 0.27458093E+03</pdfrwt>
<pdfrwt beam="2">  1       -1 0.35589795E-02 0.27458093E+03</pdfrwt>
<totfact> 0.65425510E+03</totfact>
</mgrwt>
</event>
<event>
 9    1  0.8122655E-001  0.2765975E+03  0.7818608E-02  0.1097562E+00
          2   -1    0    0  501    0  0.00000000000E+00  0.00000000000E+00  0.98672177973E+03  0.98672177973E+03  0.00000000000E+00 0.  1.
         -2   -1    0    0    0  501 -0.00000000000E+00 -0.00000000000E+00 -0.19383931140E+02  0.19383931140E+02  0.00000000000E+00 0.  1.
         35    2    1    2    0    0 -0.14210854715E-13  0.00000000000E+00  0.96733784859E+03  0.10061057109E+04  0.27659752011E+03 0.  0.
         25    2    3    3    0    0  0.52016216604E+02 -0.81752369482E+01  0.60269885025E+03  0.61747091028E+03  0.12349858160E+03 0.  0.
         25    2    3    3    0    0 -0.52016216604E+02  0.81752369482E+01  0.36463899834E+03  0.38863480059E+03  0.12370484159E+03 0.  0.
          5    1    4    4  502    0  0.70371529756E+02 -0.38069631510E+02  0.53603959634E+03  0.54199814381E+03  0.47000000000E+01 0. -1.
         -5    1    4    4    0  502 -0.18355313152E+02  0.29894394562E+02  0.66659253910E+02  0.75472766472E+02  0.47000000000E+01 0. -1.
          5    1    5    5  503    0 -0.92706272747E+02  0.15400687565E+01  0.24455329394E+03  0.26158216376E+03  0.47000000000E+01 0. -1.
         -5    1    5    5    0  503  0.40690056143E+02  0.66351681917E+01  0.12008570440E+03  0.12705263684E+03  0.47000000000E+01 0. -1.
<mgrwt>
<rscale>  0 0.27659752E+03</rscale>
<asrwt>0</asrwt>
<pdfrwt beam="1">  1        2 0.15180331E+00 0.27659752E+03</pdfrwt>
<pdfrwt beam="2">  1       -2 0.29821440E-02 0.27659752E+03</pdfrwt>
<totfact> 0.11409071E+04</totfact>
</mgrwt>
</event>
<event>
 9    1  0.8122655E-001  0.2784988E+03  0.7818608E-02  0.1096512E+00
         -2   -1    0    0    0  501 -0.00000000000E+00  0.00000000000E+00  0.52392499009E+02  0.52392499009E+02  0.00000000000E+00 0.  1.
          2   -1    0    0  501    0  0.00000000000E+00 -0.00000000000E+00 -0.37009862410E+03  0.37009862410E+03  0.00000000000E+00 0.  1.
         35    2    1    2    0    0  0.35527136788E-14  0.00000000000E+00 -0.31770612509E+03  0.42249112311E+03  0.27849877412E+03 0.  0.
         25    2    3    3    0    0  0.52086125848E+01 -0.43218554284E+02 -0.94528533516E+02  0.16229609033E+03  0.12453675846E+03 0.  0.
         25    2    3    3    0    0 -0.52086125848E+01  0.43218554284E+02 -0.22317759158E+03  0.26019503278E+03  0.12648416748E+03 0.  0.
          5    1    4    4  502    0 -0.20969597851E+02 -0.70402439334E+02 -0.16416291244E+02  0.75417584929E+02  0.47000000000E+01 0. -1.
         -5    1    4    4    0  502  0.26178210435E+02  0.27183885050E+02 -0.78112242272E+02  0.86878505401E+02  0.47000000000E+01 0. -1.
          5    1    5    5  503    0 -0.48779937367E+02  0.67186736828E+02 -0.12670067891E+03  0.15155425408E+03  0.47000000000E+01 0. -1.
         -5    1    5    5    0  503  0.43571324782E+02 -0.23968182544E+02 -0.96476912668E+02  0.10864077870E+03  0.47000000000E+01 0. -1.
<mgrwt>
<rscale>  0 0.27849877E+03</rscale>
<asrwt>0</asrwt>
<pdfrwt beam="1">  1        2 0.56938250E-01 0.27849877E+03</pdfrwt>
<pdfrwt beam="2">  1       -2 0.80603845E-02 0.27849877E+03</pdfrwt>
<totfact> 0.80730741E+03</totfact>
</mgrwt>
</event>
<event>
 9    1  0.8122655E-001  0.2751896E+03  0.7818608E-02  0.1098346E+00
         -2   -1    0    0    0  501 -0.00000000000E+00  0.00000000000E+00  0.15169474994E+03  0.15169474994E+03  0.00000000000E+00 0.  1.
          2   -1    0    0  501    0  0.00000000000E+00 -0.00000000000E+00 -0.12480539080E+03  0.12480539080E+03  0.00000000000E+00 0.  1.
         35    2    1    2    0    0  0.00000000000E+00  0.35527136788E-14  0.26889359141E+02  0.27650014074E+03  0.27518955321E+03 0.  0.
         25    2    3    3    0    0  0.45213686520E+02 -0.29629420561E+02  0.25315882022E+02  0.13901668866E+03  0.12554905747E+03 0.  0.
         25    2    3    3    0    0 -0.45213686520E+02  0.29629420561E+02  0.15734771190E+01  0.13748345208E+03  0.12640033130E+03 0.  0.
          5    1    4    4  502    0  0.63326135308E+02 -0.46480620087E+02  0.57998839210E+02  0.97757878487E+02  0.47000000000E+01 0. -1.
         -5    1    4    4    0  502 -0.18112448787E+02  0.16851199526E+02 -0.32682957188E+02  0.41258810176E+02  0.47000000000E+01 0. -1.
          5    1    5    5  503    0  0.28089136074E+02  0.53188271157E+02  0.28441469124E+00  0.60333760415E+02  0.47000000000E+01 0.  1.
         -5    1    5    5    0  503 -0.73302822594E+02 -0.23558850596E+02  0.12890624278E+01  0.77149691663E+02  0.47000000000E+01 0.  1.
<mgrwt>
<rscale>  0 0.27518955E+03</rscale>
<asrwt>0</asrwt>
<pdfrwt beam="1">  1        2 0.19200829E-01 0.27518955E+03</pdfrwt>
<pdfrwt beam="2">  1       -2 0.23337654E-01 0.27518955E+03</pdfrwt>
<totfact> 0.46452150E+03</totfact>
</mgrwt>
</event>
<event>
 9    1  0.8122655E-001  0.2702127E+03  0.7818608E-02  0.1101158E+00
          2   -1    0    0  501    0  0.00000000000E+00  0.00000000000E+00  0.15923725542E+04  0.15923725542E+04  0.00000000000E+00 0. -1.
         -2   -1    0    0    0  501 -0.00000000000E+00 -0.00000000000E+00 -0.11463229711E+02  0.11463229711E+02  0.00000000000E+00 0. -1.
         35    2    1    2    0    0  0.00000000000E+00  0.14210854715E-13  0.15809093245E+04  0.16038357839E+04  0.27021274858E+03 0.  0.
         25    2    3    3    0    0 -0.36390755794E+01  0.48286375660E+02  0.69121490430E+03  0.70410025210E+03  0.12503721100E+03 0.  0.
         25    2    3    3    0    0  0.36390755794E+01 -0.48286375660E+02  0.88969442020E+03  0.89973553182E+03  0.12499219553E+03 0.  0.
          5    1    4    4  502    0  0.35633718818E+02  0.74775450551E+02  0.51163157444E+03  0.51831466107E+03  0.47000000000E+01 0.  1.
         -5    1    4    4    0  502 -0.39272794397E+02 -0.26489074891E+02  0.17958332987E+03  0.18578559103E+03  0.47000000000E+01 0.  1.
          5    1    5    5  503    0 -0.13623330444E+02 -0.77697515041E+02  0.79607313191E+03  0.79998563758E+03  0.47000000000E+01 0. -1.
         -5    1    5    5    0  503  0.17262406023E+02  0.29411139381E+02  0.93621288286E+02  0.99749894244E+02  0.47000000000E+01 0. -1.
<mgrwt>
<rscale>  0 0.27021275E+03</rscale>
<asrwt>0</asrwt>
<pdfrwt beam="1">  1        2 0.24498022E+00 0.27021275E+03</pdfrwt>
<pdfrwt beam="2">  1       -2 0.17635751E-02 0.27021275E+03</pdfrwt>
<totfact> 0.11326577E+04</totfact>
</mgrwt>
</event>
<event>
 9    1  0.8122655E-001  0.2706163E+03  0.7818608E-02  0.1100927E+00
         -1   -1    0    0    0  501 -0.00000000000E+00  0.00000000000E+00  0.11872122257E+02  0.11872122257E+02  0.00000000000E+00 0.  1.
          1   -1    0    0  501    0  0.00000000000E+00 -0.00000000000E+00 -0.15421251398E+04  0.15421251398E+04  0.00000000000E+00 0.  1.
         35    2    1    2    0    0  0.00000000000E+00  0.44408920985E-15 -0.15302530175E+04  0.15539972621E+04  0.27061632024E+03 0.  0.
         25    2    3    3    0    0  0.49283518189E+02  0.34226838803E+01 -0.86393129888E+03  0.87420400785E+03  0.12415626538E+03 0.  0.
         25    2    3    3    0    0 -0.49283518189E+02 -0.34226838803E+01 -0.66632171866E+03  0.67979325420E+03  0.12527432206E+03 0.  0.
          5    1    4    4  502    0  0.29957506031E+02  0.70640829994E+01 -0.84770977853E+03  0.84828138731E+03  0.47000000000E+01 0. -1.
         -5    1    4    4    0  502  0.19326012158E+02 -0.36413991191E+01 -0.16221520346E+02  0.25922620543E+02  0.47000000000E+01 0. -1.
          5    1    5    5  503    0  0.33569079087E+02  0.50057335756E+01 -0.38075543502E+03  0.38229403832E+03  0.47000000000E+01 0. -1.
         -5    1    5    5    0  503 -0.82852597276E+02 -0.84284174559E+01 -0.28556628364E+03  0.29749921588E+03  0.47000000000E+01 0. -1.
<mgrwt>
<rscale>  0 0.27061632E+03</rscale>
<asrwt>0</asrwt>
<pdfrwt beam="1">  1        1 0.23725012E+00 0.27061632E+03</pdfrwt>
<pdfrwt beam="2">  1       -1 0.18264796E-02 0.27061632E+03</pdfrwt>
<totfact> 0.52543059E+03</totfact>
</mgrwt>
</event>
<event>
 9    1  0.8122655E-001  0.2751239E+03  0.7818608E-02  0.1098382E+00
          3   -1    0    0  501    0  0.00000000000E+00  0.00000000000E+00  0.12975573400E+03  0.12975573400E+03  0.00000000000E+00 0. -1.
         -3   -1    0    0    0  501 -0.00000000000E+00 -0.00000000000E+00 -0.14583775768E+03  0.14583775768E+03  0.00000000000E+00 0. -1.
         35    2    1    2    0    0  0.00000000000E+00  0.00000000000E+00 -0.16082023680E+02  0.27559349168E+03  0.27512386514E+03 0.  0.
         25    2    3    3    0    0 -0.16421333384E+02  0.32918922514E+02  0.33601378735E+02  0.13503124394E+03  0.12550326106E+03 0.  0.
         25    2    3    3    0    0  0.16421333384E+02 -0.32918922514E+02 -0.49683402415E+02  0.14056224774E+03  0.12623782858E+03 0.  0.
          5    1    4    4  502    0  0.43944544048E+02  0.15142020510E+01 -0.19754710570E+02  0.48432988232E+02  0.47000000000E+01 0.  1.
         -5    1    4    4    0  502 -0.60365877431E+02  0.31404720463E+02  0.53356089305E+02  0.86598255706E+02  0.47000000000E+01 0.  1.
          5    1    5    5  503    0  0.33840900170E+02 -0.76691638564E+02 -0.28162726955E+02  0.88555311187E+02  0.47000000000E+01 0. -1.
         -5    1    5    5    0  503 -0.17419566786E+02  0.43772716050E+02 -0.21520675460E+02  0.52006936553E+02  0.47000000000E+01 0. -1.
<mgrwt>
<rscale>  0 0.27512387E+03</rscale>
<asrwt>0</asrwt>
<pdfrwt beam="1">  1        3 0.19962421E-01 0.27512387E+03</pdfrwt>
<pdfrwt beam="2">  1       -3 0.22436578E-01 0.27512387E+03</pdfrwt>
<totfact> 0.10465328E+03</totfact>
</mgrwt>
</event>
<event>
 9    1  0.8122655E-001  0.2754535E+03  0.7818608E-02  0.1098198E+00
         -2   -1    0    0    0  501 -0.00000000000E+00  0.00000000000E+00  0.14191045246E+03  0.14191045246E+03  0.00000000000E+00 0.  1.
          2   -1    0    0  501    0  0.00000000000E+00 -0.00000000000E+00 -0.13366640063E+03  0.13366640063E+03  0.00000000000E+00 0.  1.
         35    2    1    2    0    0  0.00000000000E+00 -0.88817841970E-15  0.82440518391E+01  0.27557685309E+03  0.27545351254E+03 0.  0.
         25    2    3    3    0    0  0.87726202727E+01 -0.64941581466E+01  0.61300422040E+02  0.13875292432E+03  0.12399798106E+03 0.  0.
         25    2    3    3    0    0 -0.87726202727E+01  0.64941581466E+01 -0.53056370200E+02  0.13682392877E+03  0.12564504013E+03 0.  0.
          5    1    4    4  502    0 -0.26796003154E+02 -0.93804232208E+01  0.88870575139E+02  0.93413528198E+02  0.47000000000E+01 0.  1.
         -5    1    4    4    0  502  0.35568623426E+02  0.28862650742E+01 -0.27570153099E+02  0.45339396119E+02  0.47000000000E+01 0.  1.
          5    1    5    5  503    0  0.35086935102E+02 -0.57394803434E-01  0.27446989725E+02  0.44794235722E+02  0.47000000000E+01 0.  1.
         -5    1    5    5    0  503 -0.43859555374E+02  0.65515529500E+01 -0.80503359925E+02  0.92029693050E+02  0.47000000000E+01 0.  1.
<mgrwt>
<rscale>  0 0.27545351E+03</rscale>
<asrwt>0</asrwt>
<pdfrwt beam="1">  1        2 0.20564062E-01 0.27545351E+03</pdfrwt>
<pdfrwt beam="2">  1       -2 0.21832377E-01 0.27545351E+03</pdfrwt>
<totfact> 0.48220696E+03</totfact>
</mgrwt>
</event>
<event>
 9    1  0.8122655E-001  0.2768608E+03  0.7818608E-02  0.1097416E+00
          1   -1    0    0  501    0  0.00000000000E+00  0.00000000000E+00  0.47952948768E+03  0.47952948768E+03  0.00000000000E+00 0.  1.
         -1   -1    0    0    0  501 -0.00000000000E+00 -0.00000000000E+00 -0.39962035826E+02  0.39962035826E+02  0.00000000000E+00 0.  1.
         35    2    1    2    0    0  0.00000000000E+00 -0.35527136788E-14  0.43956745185E+03  0.51949152350E+03  0.27686079221E+03 0.  0.
         25    2    3    3    0    0 -0.25768533506E+02 -0.14260959364E+02  0.11772445505E+03  0.17305614399E+03  0.12337742652E+03 0.  0.
         25    2    3    3    0    0  0.25768533506E+02  0.14260959364E+02  0.32184299680E+03  0.34643537951E+03  0.12476844676E+03 0.  0.
          5    1    4    4  502    0  0.46281861549E+02  0.15084985990E+02  0.45466556879E+02  0.66774735531E+02  0.47000000000E+01 0. -1.
         -5    1    4    4    0  502 -0.72050395055E+02 -0.29345945354E+02  0.72257898173E+02  0.10628140846E+03  0.47000000000E+01 0. -1.
          5    1    5    5  503    0 -0.53347320396E+01  0.66659808879E+02  0.16383877279E+03  0.17702322716E+03  0.47000000000E+01 0.  1.
         -5    1    5    5    0  503  0.31103265545E+02 -0.52398849516E+02  0.15800422401E+03  0.16941215235E+03  0.47000000000E+01 0.  1.
<mgrwt>
<rscale>  0 0.27686079E+03</rscale>
<asrwt>0</asrwt>
<pdfrwt beam="1">  1        1 0.73773764E-01 0.27686079E+03</pdfrwt>
<pdfrwt beam="2">  1       -1 0.61480058E-02 0.27686079E+03</pdfrwt>
<totfact> 0.61200394E+03</totfact>
</mgrwt>
</event>
<event>
 9    1  0.8122655E-001  0.2735629E+03  0.7818608E-02  0.1099258E+00
          2   -1    0    0  501    0  0.00000000000E+00  0.00000000000E+00  0.35352769097E+03  0.35352769097E+03  0.00000000000E+00 0.  1.
         -2   -1    0    0    0  501 -0.00000000000E+00 -0.00000000000E+00 -0.52921344268E+02  0.52921344268E+02  0.00000000000E+00 0.  1.
         35    2    1    2    0    0  0.00000000000E+00 -0.71054273576E-14  0.30060634670E+03  0.40644903523E+03  0.27356286767E+03 0.  0.
         25    2    3    3    0    0 -0.84352948379E+01  0.51277809473E+02  0.15812535918E+03  0.20974063543E+03  0.12762028440E+03 0.  0.
         25    2    3    3    0    0  0.84352948379E+01 -0.51277809473E+02  0.14248098752E+03  0.19670839981E+03  0.12527088571E+03 0.  0.
          5    1    4    4  502    0 -0.60231583388E+02 -0.12730792055E+01  0.94649482554E+02  0.11229460769E+03  0.47000000000E+01 0. -1.
         -5    1    4    4    0  502  0.51796288550E+02  0.52550888679E+02  0.63475876625E+02  0.97446027738E+02  0.47000000000E+01 0. -1.
          5    1    5    5  503    0  0.55545087825E+02 -0.59695287590E+02  0.60412859957E+02  0.10159029378E+03  0.47000000000E+01 0.  1.
         -5    1    5    5    0  503 -0.47109792987E+02  0.84174781164E+01  0.82068127562E+02  0.95118106029E+02  0.47000000000E+01 0.  1.
<mgrwt>
<rscale>  0 0.27356287E+03</rscale>
<asrwt>0</asrwt>
<pdfrwt beam="1">  1        2 0.54388874E-01 0.27356287E+03</pdfrwt>
<pdfrwt beam="2">  1       -2 0.81417455E-02 0.27356287E+03</pdfrwt>
<totfact> 0.83451156E+03</totfact>
</mgrwt>
</event>
<event>
 9    1  0.8122655E-001  0.3078666E+03  0.7818608E-02  0.1081373E+00
         -2   -1    0    0    0  501 -0.00000000000E+00  0.00000000000E+00  0.13036497107E+03  0.13036497107E+03  0.00000000000E+00 0.  1.
          2   -1    0    0  501    0  0.00000000000E+00 -0.00000000000E+00 -0.18176248938E+03  0.18176248938E+03  0.00000000000E+00 0.  1.
         35    2    1    2    0    0  0.00000000000E+00 -0.14210854715E-13 -0.51397518312E+02  0.31212746045E+03  0.30786660533E+03 0.  0.
         25    2    3    3    0    0  0.59623973255E+02  0.64370625722E+02 -0.42642197681E+02  0.15884519677E+03  0.12535886036E+03 0.  0.
         25    2    3    3    0    0 -0.59623973255E+02 -0.64370625722E+02 -0.87553206310E+01  0.15328226368E+03  0.12538022602E+03 0.  0.
          5    1    4    4  502    0  0.78385875375E+02 -0.55031262237E+01 -0.34293434504E+02  0.85864774539E+02  0.47000000000E+01 0. -1.
         -5    1    4    4    0  502 -0.18761902120E+02  0.69873751946E+02 -0.83487631769E+01  0.72980422229E+02  0.47000000000E+01 0. -1.
          5    1    5    5  503    0  0.39276740253E+02 -0.14258176628E+02 -0.15408086336E+01  0.42076383125E+02  0.47000000000E+01 0.  1.
         -5    1    5    5    0  503 -0.98900713508E+02 -0.50112449094E+02 -0.72145119973E+01  0.11120588055E+03  0.47000000000E+01 0.  1.
<mgrwt>
<rscale>  0 0.30786661E+03</rscale>
<asrwt>0</asrwt>
<pdfrwt beam="1">  1        2 0.27963460E-01 0.30786661E+03</pdfrwt>
<pdfrwt beam="2">  1       -2 0.20056149E-01 0.30786661E+03</pdfrwt>
<totfact> 0.39632936E+03</totfact>
</mgrwt>
</event>
<event>
 9    1  0.8122655E-001  0.2791590E+03  0.7818608E-02  0.1096149E+00
         -1   -1    0    0    0  501 -0.00000000000E+00  0.00000000000E+00  0.66266768139E+02  0.66266768139E+02  0.00000000000E+00 0. -1.
          1   -1    0    0  501    0  0.00000000000E+00 -0.00000000000E+00 -0.29400013816E+03  0.29400013816E+03  0.00000000000E+00 0. -1.
         35    2    1    2    0    0  0.00000000000E+00 -0.17763568394E-14 -0.22773337002E+03  0.36026690630E+03  0.27915901553E+03 0.  0.
         25    2    3    3    0    0 -0.30878415311E+01 -0.12003451376E+02 -0.37562526505E+02  0.13169312946E+03  0.12561257636E+03 0.  0.
         25    2    3    3    0    0  0.30878415311E+01  0.12003451376E+02 -0.19017084351E+03  0.22857377683E+03  0.12620381976E+03 0.  0.
          5    1    4    4  502    0 -0.58989779258E+02  0.16735213966E+02 -0.78082087698E+01  0.61991286224E+02  0.47000000000E+01 0.  1.
         -5    1    4    4    0  502  0.55901937727E+02 -0.28738665343E+02 -0.29754317735E+02  0.69701843241E+02  0.47000000000E+01 0.  1.
          5    1    5    5  503    0 -0.60553356086E+02 -0.44237617596E+01 -0.93347519195E+02  0.11145460036E+03  0.47000000000E+01 0. -1.
         -5    1    5    5    0  503  0.63641197617E+02  0.16427213136E+02 -0.96823324317E+02  0.11711917647E+03  0.47000000000E+01 0. -1.
<mgrwt>
<rscale>  0 0.27915902E+03</rscale>
<asrwt>0</asrwt>
<pdfrwt beam="1">  1        1 0.45230790E-01 0.27915902E+03</pdfrwt>
<pdfrwt beam="2">  1       -1 0.10194888E-01 0.27915902E+03</pdfrwt>
<totfact> 0.52864200E+03</totfact>
</mgrwt>
</event>
<event>
 9    1  0.8122655E-001  0.2804275E+03  0.7818608E-02  0.1095456E+00
          2   -1    0    0  501    0  0.00000000000E+00  0.00000000000E+00  0.11582323740E+03  0.11582323740E+03  0.00000000000E+00 0. -1.
         -2   -1    0    0    0  501 -0.00000000000E+00 -0.00000000000E+00 -0.16974048783E+03  0.16974048783E+03  0.00000000000E+00 0. -1.
         35    2    1    2    0    0  0.00000000000E+00  0.00000000000E+00 -0.53917250430E+02  0.28556372524E+03  0.28042747953E+03 0.  0.
         25    2    3    3    0    0  0.28676462981E+02 -0.48090572143E+02 -0.52556741620E+02  0.14657944842E+03  0.12485303742E+03 0.  0.
         25    2    3    3    0    0 -0.28676462981E+02  0.48090572143E+02 -0.13605088101E+01  0.13898427681E+03  0.12719958946E+03 0.  0.
          5    1    4    4  502    0 -0.33062594393E+01  0.38719067214E+02  0.17840937562E+01  0.39183804154E+02  0.47000000000E+01 0. -1.
         -5    1    4    4    0  502  0.31982722420E+02 -0.86809639357E+02 -0.54340835376E+02  0.10739564427E+03  0.47000000000E+01 0. -1.
          5    1    5    5  503    0 -0.43409051873E+02  0.70206458407E+02 -0.40007704888E+02  0.91847694783E+02  0.47000000000E+01 0.  1.
         -5    1    5    5    0  503  0.14732588892E+02 -0.22115886264E+02  0.38647196078E+02  0.47136582029E+02  0.47000000000E+01 0.  1.
<mgrwt>
<rscale>  0 0.28042748E+03</rscale>
<asrwt>0</asrwt>
<pdfrwt beam="1">  1        2 0.17818960E-01 0.28042748E+03</pdfrwt>
<pdfrwt beam="2">  1       -2 0.26113921E-01 0.28042748E+03</pdfrwt>
<totfact> 0.41571308E+03</totfact>
</mgrwt>
</event>
<event>
 9    1  0.8122655E-001  0.2758247E+03  0.7818608E-02  0.1097991E+00
          1   -1    0    0  501    0  0.00000000000E+00  0.00000000000E+00  0.70864777514E+03  0.70864777514E+03  0.00000000000E+00 0. -1.
         -1   -1    0    0    0  501 -0.00000000000E+00 -0.00000000000E+00 -0.26839596503E+02  0.26839596503E+02  0.00000000000E+00 0. -1.
         35    2    1    2    0    0 -0.14210854715E-13  0.71054273576E-14  0.68180817864E+03  0.73548737164E+03  0.27582472948E+03 0.  0.
         25    2    3    3    0    0  0.29477444823E+02  0.35661300216E+02  0.33720537944E+03  0.36609362802E+03  0.13481998542E+03 0.  0.
         25    2    3    3    0    0 -0.29477444823E+02 -0.35661300216E+02  0.34460279920E+03  0.36939374362E+03  0.12473973114E+03 0.  0.
          5    1    4    4  502    0  0.81028212205E+02  0.40200767162E+02  0.21449968809E+03  0.23283874043E+03  0.47000000000E+01 0. -1.
         -5    1    4    4    0  502 -0.51550767383E+02 -0.45394669459E+01  0.12270569135E+03  0.13325488759E+03  0.47000000000E+01 0. -1.
          5    1    5    5  503    0 -0.41330348646E+02  0.33765908577E+02  0.85942103762E+02  0.10127422920E+03  0.47000000000E+01 0.  1.
         -5    1    5    5    0  503  0.11852903823E+02 -0.69427208793E+02  0.25866069544E+03  0.26811951442E+03  0.47000000000E+01 0.  1.
<mgrwt>
<rscale>  0 0.27582473E+03</rscale>
<asrwt>0</asrwt>
<pdfrwt beam="1">  1        1 0.10902272E+00 0.27582473E+03</pdfrwt>
<pdfrwt beam="2">  1       -1 0.41291692E-02 0.27582473E+03</pdfrwt>
<totfact> 0.64758310E+03</totfact>
</mgrwt>
</event>
<event>
 9    1  0.8122655E-001  0.2728116E+03  0.7818608E-02  0.1099681E+00
          2   -1    0    0  501    0  0.00000000000E+00  0.00000000000E+00  0.12489940071E+04  0.12489940071E+04  0.00000000000E+00 0.  1.
         -2   -1    0    0    0  501 -0.00000000000E+00 -0.00000000000E+00 -0.14897221193E+02  0.14897221193E+02  0.00000000000E+00 0.  1.
         35    2    1    2    0    0  0.71054273576E-14  0.00000000000E+00  0.12340967860E+04  0.12638912283E+04  0.27281158328E+03 0.  0.
         25    2    3    3    0    0  0.35730318113E+02  0.33692932880E+02  0.74633660893E+03  0.75800503684E+03  0.12305052899E+03 0.  0.
         25    2    3    3    0    0 -0.35730318113E+02 -0.33692932880E+02  0.48776017702E+03  0.50588619150E+03  0.12489587304E+03 0.  0.
          5    1    4    4  502    0  0.69954573147E+02  0.56964505776E+02  0.54035483330E+03  0.54785402535E+03  0.47000000000E+01 0. -1.
         -5    1    4    4    0  502 -0.34224255033E+02 -0.23271572896E+02  0.20598177564E+03  0.21015101149E+03  0.47000000000E+01 0. -1.
          5    1    5    5  503    0 -0.29815763796E+01 -0.64260425240E+02  0.41732138408E+03  0.42227659142E+03  0.47000000000E+01 0.  1.
         -5    1    5    5    0  503 -0.32748741734E+02  0.30567492360E+02  0.70438792938E+02  0.83609600076E+02  0.47000000000E+01 0.  1.
<mgrwt>
<rscale>  0 0.27281158E+03</rscale>
<asrwt>0</asrwt>
<pdfrwt beam="1">  1        2 0.19215284E+00 0.27281158E+03</pdfrwt>
<pdfrwt beam="2">  1       -2 0.22918812E-02 0.27281158E+03</pdfrwt>
<totfact> 0.11831129E+04</totfact>
</mgrwt>
</event>
<event>
 9    1  0.8122655E-001  0.2729923E+03  0.7818608E-02  0.1099579E+00
         -2   -1    0    0    0  501 -0.00000000000E+00  0.00000000000E+00  0.36860302193E+02  0.36860302193E+02  0.00000000000E+00 0. -1.
          2   -1    0    0  501    0  0.00000000000E+00 -0.00000000000E+00 -0.50545441557E+03  0.50545441557E+03  0.00000000000E+00 0. -1.
         35    2    1    2    0    0 -0.12212453271E-14  0.14210854715E-13 -0.46859411338E+03  0.54231471777E+03  0.27299232592E+03 0.  0.
         25    2    3    3    0    0 -0.35891767921E+00 -0.47592755570E+02 -0.28777186670E+03  0.31732872090E+03  0.12497868074E+03 0.  0.
         25    2    3    3    0    0  0.35891767921E+00  0.47592755570E+02 -0.18082224668E+03  0.22498599686E+03  0.12512719403E+03 0.  0.
          5    1    4    4  502    0  0.31257897934E+02  0.33518465087E+02 -0.11259488313E+03  0.12165624271E+03  0.47000000000E+01 0.  1.
         -5    1    4    4    0  502 -0.31616815613E+02 -0.81111220657E+02 -0.17517698358E+03  0.19567247819E+03  0.47000000000E+01 0.  1.
          5    1    5    5  503    0 -0.94121430102E+00  0.44494113879E+02 -0.68569540549E+00  0.44756812134E+02  0.47000000000E+01 0. -1.
         -5    1    5    5    0  503  0.13001319802E+01  0.30986416908E+01 -0.18013655127E+03  0.18022918473E+03  0.47000000000E+01 0. -1.
<mgrwt>
<rscale>  0 0.27299233E+03</rscale>
<asrwt>0</asrwt>
<pdfrwt beam="1">  1        2 0.77762211E-01 0.27299233E+03</pdfrwt>
<pdfrwt beam="2">  1       -2 0.56708162E-02 0.27299233E+03</pdfrwt>
<totfact> 0.98667580E+03</totfact>
</mgrwt>
</event>
<event>
 9    1  0.8122655E-001  0.2805809E+03  0.7818608E-02  0.1095372E+00
          2   -1    0    0  501    0  0.00000000000E+00  0.00000000000E+00  0.17466601238E+04  0.17466601238E+04  0.00000000000E+00 0.  1.
         -2   -1    0    0    0  501 -0.00000000000E+00 -0.00000000000E+00 -0.11268021650E+02  0.11268021650E+02  0.00000000000E+00 0.  1.
         35    2    1    2    0    0  0.00000000000E+00  0.00000000000E+00  0.17353921022E+04  0.17579281455E+04  0.28058085530E+03 0.  0.
         25    2    3    3    0    0 -0.52610975042E+02  0.53732203597E+01  0.10945379316E+04  0.11026682313E+04  0.12274835363E+03 0.  0.
         25    2    3    3    0    0  0.52610975042E+02 -0.53732203597E+01  0.64085417054E+03  0.65525991419E+03  0.12599484532E+03 0.  0.
          5    1    4    4  502    0 -0.28463013024E+01  0.56225071835E+02  0.64970539687E+03  0.65215684682E+03  0.47000000000E+01 0.  1.
         -5    1    4    4    0  502 -0.49764673739E+02 -0.50851851476E+02  0.44483253476E+03  0.45051138446E+03  0.47000000000E+01 0.  1.
          5    1    5    5  503    0  0.53150450048E+02  0.17664532275E+02  0.10678938514E+03  0.12067754065E+03  0.47000000000E+01 0.  1.
         -5    1    5    5    0  503 -0.53947500687E+00 -0.23037752635E+02  0.53406478541E+03  0.53458237353E+03  0.47000000000E+01 0.  1.
<mgrwt>
<rscale>  0 0.28058086E+03</rscale>
<asrwt>0</asrwt>
<pdfrwt beam="1">  1        2 0.26871673E+00 0.28058086E+03</pdfrwt>
<pdfrwt beam="2">  1       -2 0.17335432E-02 0.28058086E+03</pdfrwt>
<totfact> 0.96362558E+03</totfact>
</mgrwt>
</event>
<event>
 9    1  0.8122655E-001  0.2729436E+03  0.7818608E-02  0.1099607E+00
          2   -1    0    0  501    0  0.00000000000E+00  0.00000000000E+00  0.87481155979E+03  0.87481155979E+03  0.00000000000E+00 0. -1.
         -2   -1    0    0    0  501 -0.00000000000E+00 -0.00000000000E+00 -0.21289787632E+02  0.21289787632E+02  0.00000000000E+00 0. -1.
         35    2    1    2    0    0  0.44408920985E-15  0.00000000000E+00  0.85352177216E+03  0.89610134742E+03  0.27294360096E+03 0.  0.
         25    2    3    3    0    0  0.23914062278E+01  0.45057561117E+02  0.32248804244E+03  0.34867713436E+03  0.12466476594E+03 0.  0.
         25    2    3    3    0    0 -0.23914062278E+01 -0.45057561117E+02  0.53103372972E+03  0.54742421307E+03  0.12506216182E+03 0.  0.
          5    1    4    4  502    0  0.10856748486E+01  0.88616296348E+02  0.21634367910E+03  0.23383905610E+03  0.47000000000E+01 0.  1.
         -5    1    4    4    0  502  0.13057313792E+01 -0.43558735231E+02  0.10614436334E+03  0.11483807826E+03  0.47000000000E+01 0.  1.
          5    1    5    5  503    0  0.58242925106E+02 -0.82909547822E+01  0.29829764138E+03  0.30407984332E+03  0.47000000000E+01 0.  1.
         -5    1    5    5    0  503 -0.60634331334E+02 -0.36766606335E+02  0.23273608833E+03  0.24334436975E+03  0.47000000000E+01 0.  1.
<mgrwt>
<rscale>  0 0.27294360E+03</rscale>
<asrwt>0</asrwt>
<pdfrwt beam="1">  1        2 0.13458637E+00 0.27294360E+03</pdfrwt>
<pdfrwt beam="2">  1       -2 0.32753526E-02 0.27294360E+03</pdfrwt>
<totfact> 0.11679990E+04</totfact>
</mgrwt>
</event>
<event>
 9    1  0.8122655E-001  0.2749401E+03  0.7818608E-02  0.1098485E+00
          1   -1    0    0  501    0  0.00000000000E+00  0.00000000000E+00  0.34075065572E+03  0.34075065572E+03  0.00000000000E+00 0. -1.
         -1   -1    0    0    0  501 -0.00000000000E+00 -0.00000000000E+00 -0.55459947243E+02  0.55459947243E+02  0.00000000000E+00 0. -1.
         35    2    1    2    0    0  0.00000000000E+00  0.17763568394E-14  0.28529070847E+03  0.39621060296E+03  0.27494009085E+03 0.  0.
         25    2    3    3    0    0 -0.24117673445E+01 -0.66280962324E+01  0.64269328418E+02  0.14050456035E+03  0.12474468574E+03 0.  0.
         25    2    3    3    0    0  0.24117673445E+01  0.66280962324E+01  0.22102138005E+03  0.25570604261E+03  0.12839541077E+03 0.  0.
          5    1    4    4  502    0  0.27512118149E+02 -0.14214094149E+02  0.92962530940E+02  0.98097294949E+02  0.47000000000E+01 0. -1.
         -5    1    4    4    0  502 -0.29923885494E+02  0.75859979164E+01 -0.28693202522E+02  0.42407265396E+02  0.47000000000E+01 0. -1.
          5    1    5    5  503    0  0.19648969657E+02  0.32872691563E+02  0.22060556540E+03  0.22395446266E+03  0.47000000000E+01 0.  1.
         -5    1    5    5    0  503 -0.17237202312E+02 -0.26244595330E+02  0.41581465083E+00  0.31751579952E+02  0.47000000000E+01 0.  1.
<mgrwt>
<rscale>  0 0.27494009E+03</rscale>
<asrwt>0</asrwt>
<pdfrwt beam="1">  1        1 0.52423177E-01 0.27494009E+03</pdfrwt>
<pdfrwt beam="2">  1       -1 0.85322998E-02 0.27494009E+03</pdfrwt>
<totfact> 0.57701815E+03</totfact>
</mgrwt>
</event>
<event>
 9    1  0.8122655E-001  0.2626180E+03  0.7818608E-02  0.1105580E+00
         -2   -1    0    0    0  501 -0.00000000000E+00  0.00000000000E+00  0.68717800316E+02  0.68717800316E+02  0.00000000000E+00 0.  1.
          2   -1    0    0  501    0  0.00000000000E+00 -0.00000000000E+00 -0.25091102708E+03  0.25091102708E+03  0.00000000000E+00 0.  1.
         35    2    1    2    0    0  0.00000000000E+00  0.00000000000E+00 -0.18219322676E+03  0.31962882739E+03  0.26261800285E+03 0.  0.
         25    2    3    3    0    0  0.18960423319E+02 -0.22232517598E+02 -0.11494466011E+03  0.17374685596E+03  0.12697209370E+03 0.  0.
         25    2    3    3    0    0 -0.18960423319E+02  0.22232517598E+02 -0.67248566653E+02  0.14588197143E+03  0.12611660232E+03 0.  0.
          5    1    4    4  502    0 -0.48609387137E+02 -0.30103555680E+02 -0.75995345943E+02  0.95218061246E+02  0.47000000000E+01 0. -1.
         -5    1    4    4    0  502  0.67569810456E+02  0.78710380822E+01 -0.38949314167E+02  0.78528794716E+02  0.47000000000E+01 0. -1.
          5    1    5    5  503    0 -0.51734719677E+02 -0.30318176027E+02 -0.57123179828E+02  0.82950712422E+02  0.47000000000E+01 0.  1.
         -5    1    5    5    0  503  0.32774296358E+02  0.52550693625E+02 -0.10125386825E+02  0.62931259010E+02  0.47000000000E+01 0.  1.
<mgrwt>
<rscale>  0 0.26261800E+03</rscale>
<asrwt>0</asrwt>
<pdfrwt beam="1">  1        2 0.38601697E-01 0.26261800E+03</pdfrwt>
<pdfrwt beam="2">  1       -2 0.10571969E-01 0.26261800E+03</pdfrwt>
<totfact> 0.79764926E+03</totfact>
</mgrwt>
</event>
<event>
 9    1  0.8122655E-001  0.2759459E+03  0.7818608E-02  0.1097924E+00
         -2   -1    0    0    0  501 -0.00000000000E+00  0.00000000000E+00  0.13953941092E+02  0.13953941092E+02  0.00000000000E+00 0. -1.
          2   -1    0    0  501    0  0.00000000000E+00 -0.00000000000E+00 -0.13642408947E+04  0.13642408947E+04  0.00000000000E+00 0. -1.
         35    2    1    2    0    0 -0.71054273576E-14  0.00000000000E+00 -0.13502869536E+04  0.13781948358E+04  0.27594591557E+03 0.  0.
         25    2    3    3    0    0  0.46822565894E+02 -0.28857507741E+02 -0.62485195130E+03  0.63944740303E+03  0.12420914527E+03 0.  0.
         25    2    3    3    0    0 -0.46822565894E+02  0.28857507741E+02 -0.72543500227E+03  0.73874743273E+03  0.12832271197E+03 0.  0.
          5    1    4    4  502    0 -0.32698466568E+02  0.14257200703E+01 -0.35312754464E+03  0.35467220807E+03  0.47000000000E+01 0.  1.
         -5    1    4    4    0  502  0.79521032462E+02 -0.30283227811E+02 -0.27172440666E+03  0.28477519496E+03  0.47000000000E+01 0.  1.
          5    1    5    5  503    0  0.21868046016E+01  0.16600522324E+02 -0.63352124851E+03  0.63375990861E+03  0.47000000000E+01 0.  1.
         -5    1    5    5    0  503 -0.49009370495E+02  0.12256985417E+02 -0.91913753765E+02  0.10498752411E+03  0.47000000000E+01 0.  1.
<mgrwt>
<rscale>  0 0.27594592E+03</rscale>
<asrwt>0</asrwt>
<pdfrwt beam="1">  1        2 0.20988331E+00 0.27594592E+03</pdfrwt>
<pdfrwt beam="2">  1       -2 0.21467592E-02 0.27594592E+03</pdfrwt>
<totfact> 0.11254014E+04</totfact>
</mgrwt>
</event>
<event>
 9    1  0.8122655E-001  0.2755775E+03  0.7818608E-02  0.1098129E+00
         -2   -1    0    0    0  501 -0.00000000000E+00  0.00000000000E+00  0.38011455339E+02  0.38011455339E+02  0.00000000000E+00 0. -1.
          2   -1    0    0  501    0  0.00000000000E+00 -0.00000000000E+00 -0.49947421688E+03  0.49947421688E+03  0.00000000000E+00 0. -1.
         35    2    1    2    0    0  0.00000000000E+00  0.00000000000E+00 -0.46146276155E+03  0.53748567222E+03  0.27557751641E+03 0.  0.
         25    2    3    3    0    0 -0.20896592363E+02 -0.41354097957E+02 -0.15313537214E+03  0.20267260389E+03  0.12441428045E+03 0.  0.
         25    2    3    3    0    0  0.20896592363E+02  0.41354097957E+02 -0.30832738941E+03  0.33481306833E+03  0.12201304304E+03 0.  0.
          5    1    4    4  502    0 -0.56806903037E+02  0.20922835913E+02 -0.70232941726E+02  0.92841506875E+02  0.47000000000E+01 0. -1.
         -5    1    4    4    0  502  0.35910310673E+02 -0.62276933870E+02 -0.82902430409E+02  0.10983109702E+03  0.47000000000E+01 0. -1.
          5    1    5    5  503    0  0.58587900981E+02  0.58737453980E+02 -0.15465496048E+03  0.17556445381E+03  0.47000000000E+01 0.  1.
         -5    1    5    5    0  503 -0.37691308618E+02 -0.17383356024E+02 -0.15367242893E+03  0.15924861451E+03  0.47000000000E+01 0.  1.
<mgrwt>
<rscale>  0 0.27557752E+03</rscale>
<asrwt>0</asrwt>
<pdfrwt beam="1">  1        2 0.76842185E-01 0.27557752E+03</pdfrwt>
<pdfrwt beam="2">  1       -2 0.58479164E-02 0.27557752E+03</pdfrwt>
<totfact> 0.95428634E+03</totfact>
</mgrwt>
</event>
<event>
 9    1  0.8122655E-001  0.2751418E+03  0.7818608E-02  0.1098372E+00
         -2   -1    0    0    0  501 -0.00000000000E+00  0.00000000000E+00  0.29988036315E+02  0.29988036315E+02  0.00000000000E+00 0.  1.
          2   -1    0    0  501    0  0.00000000000E+00 -0.00000000000E+00 -0.63111006029E+03  0.63111006029E+03  0.00000000000E+00 0.  1.
         35    2    1    2    0    0  0.00000000000E+00  0.71054273576E-14 -0.60112202398E+03  0.66109809661E+03  0.27514179186E+03 0.  0.
         25    2    3    3    0    0 -0.41284154428E+02  0.18245961958E+02 -0.38401584211E+03  0.40631919547E+03  0.12485922106E+03 0.  0.
         25    2    3    3    0    0  0.41284154428E+02 -0.18245961958E+02 -0.21710618187E+03  0.25477890114E+03  0.12545874909E+03 0.  0.
          5    1    4    4  502    0  0.22568549178E+01  0.66842668454E+02 -0.18063481939E+03  0.19267605896E+03  0.47000000000E+01 0.  1.
         -5    1    4    4    0  502 -0.43541009346E+02 -0.48596706496E+02 -0.20338102271E+03  0.21364313651E+03  0.47000000000E+01 0.  1.
          5    1    5    5  503    0 -0.22348645343E+02  0.39900515742E+02 -0.60884772889E+02  0.76292585975E+02  0.47000000000E+01 0.  1.
         -5    1    5    5    0  503  0.63632799770E+02 -0.58146477700E+02 -0.15622140898E+03  0.17848631516E+03  0.47000000000E+01 0.  1.
<mgrwt>
<rscale>  0 0.27514179E+03</rscale>
<asrwt>0</asrwt>
<pdfrwt beam="1">  1        2 0.97093854E-01 0.27514179E+03</pdfrwt>
<pdfrwt beam="2">  1       -2 0.46135441E-02 0.27514179E+03</pdfrwt>
<totfact> 0.10473672E+04</totfact>
</mgrwt>
</event>
<event>
 9    1  0.8122655E-001  0.2761606E+03  0.7818608E-02  0.1097805E+00
         -4   -1    0    0    0  501 -0.00000000000E+00  0.00000000000E+00  0.31679159212E+02  0.31679159212E+02  0.00000000000E+00 0. -1.
          4   -1    0    0  501    0  0.00000000000E+00 -0.00000000000E+00 -0.60185209992E+03  0.60185209992E+03  0.00000000000E+00 0. -1.
         35    2    1    2    0    0  0.14210854715E-13  0.00000000000E+00 -0.57017294071E+03  0.63353125913E+03  0.27616059455E+03 0.  0.
         25    2    3    3    0    0 -0.54216053482E+02 -0.12716126943E+02 -0.32256925271E+03  0.35055758256E+03  0.12545363906E+03 0.  0.
         25    2    3    3    0    0  0.54216053482E+02  0.12716126943E+02 -0.24760368799E+03  0.28297367657E+03  0.12516163544E+03 0.  0.
          5    1    4    4  502    0  0.30001479541E+02 -0.20309219024E+02 -0.34321045318E+02  0.50125615245E+02  0.47000000000E+01 0.  1.
         -5    1    4    4    0  502 -0.84217533023E+02  0.75930920804E+01 -0.28824820740E+03  0.30043196731E+03  0.47000000000E+01 0.  1.
          5    1    5    5  503    0 -0.14950542133E+02 -0.92271754085E+01 -0.18820340696E+03  0.18908006734E+03  0.47000000000E+01 0.  1.
         -5    1    5    5    0  503  0.69166595614E+02  0.21943302352E+02 -0.59400281034E+02  0.93893609228E+02  0.47000000000E+01 0.  1.
<mgrwt>
<rscale>  0 0.27616059E+03</rscale>
<asrwt>0</asrwt>
<pdfrwt beam="1">  1        4 0.92592627E-01 0.27616059E+03</pdfrwt>
<pdfrwt beam="2">  1       -4 0.48737170E-02 0.27616059E+03</pdfrwt>
<totfact> 0.47593721E+02</totfact>
</mgrwt>
</event>
<event>
 9    1  0.8122655E-001  0.2774672E+03  0.7818608E-02  0.1097080E+00
          2   -1    0    0  501    0  0.00000000000E+00  0.00000000000E+00  0.88794787001E+02  0.88794787001E+02  0.00000000000E+00 0.  1.
         -2   -1    0    0    0  501 -0.00000000000E+00 -0.00000000000E+00 -0.21675837225E+03  0.21675837225E+03  0.00000000000E+00 0.  1.
         35    2    1    2    0    0  0.71054273576E-14  0.35527136788E-14 -0.12796358525E+03  0.30555315925E+03  0.27746721244E+03 0.  0.
         25    2    3    3    0    0 -0.50137204804E+02 -0.13726747537E+02 -0.99627260181E+02  0.16816719680E+03  0.12510976064E+03 0.  0.
         25    2    3    3    0    0  0.50137204804E+02  0.13726747537E+02 -0.28336325064E+02  0.13738596244E+03  0.12397496705E+03 0.  0.
          5    1    4    4  502    0 -0.63595633554E+02 -0.41114115441E+02 -0.11168575208E+03  0.13502063662E+03  0.47000000000E+01 0.  1.
         -5    1    4    4    0  502  0.13458428750E+02  0.27387367904E+02  0.12058491900E+02  0.33146560184E+02  0.47000000000E+01 0.  1.
          5    1    5    5  503    0 -0.30796738907E+02 -0.82705546121E+01  0.22399513382E+02  0.39251361768E+02  0.47000000000E+01 0. -1.
         -5    1    5    5    0  503  0.80933943712E+02  0.21997302149E+02 -0.50735838446E+02  0.98134600673E+02  0.47000000000E+01 0. -1.
<mgrwt>
<rscale>  0 0.27746721E+03</rscale>
<asrwt>0</asrwt>
<pdfrwt beam="1">  1        2 0.13660737E-01 0.27746721E+03</pdfrwt>
<pdfrwt beam="2">  1       -2 0.33347441E-01 0.27746721E+03</pdfrwt>
<totfact> 0.36512278E+03</totfact>
</mgrwt>
</event>
<event>
 9    1  0.8122655E-001  0.2950634E+03  0.7818608E-02  0.1087735E+00
          2   -1    0    0  501    0  0.00000000000E+00  0.00000000000E+00  0.13974602172E+03  0.13974602172E+03  0.00000000000E+00 0.  1.
         -2   -1    0    0    0  501 -0.00000000000E+00 -0.00000000000E+00 -0.15575110154E+03  0.15575110154E+03  0.00000000000E+00 0.  1.
         35    2    1    2    0    0 -0.35527136788E-14  0.00000000000E+00 -0.16005079821E+02  0.29549712326E+03  0.29506336146E+03 0.  0.
         25    2    3    3    0    0 -0.21411662558E+01  0.22720473994E+02  0.67274975712E+02  0.14378717684E+03  0.12501210075E+03 0.  0.
         25    2    3    3    0    0  0.21411662558E+01 -0.22720473994E+02 -0.83280055533E+02  0.15170994642E+03  0.12473786780E+03 0.  0.
          5    1    4    4  502    0  0.24368085937E+02  0.21190766499E+02  0.97774180568E+02  0.10307634347E+03  0.47000000000E+01 0.  1.
         -5    1    4    4    0  502 -0.26509252192E+02  0.15297074945E+01 -0.30499204857E+02  0.40710833370E+02  0.47000000000E+01 0.  1.
          5    1    5    5  503    0  0.61116647229E+02 -0.14239546776E+02 -0.61798382897E+02  0.88199429644E+02  0.47000000000E+01 0.  1.
         -5    1    5    5    0  503 -0.58975480973E+02 -0.84809272177E+01 -0.21481672636E+02  0.63510516781E+02  0.47000000000E+01 0.  1.
<mgrwt>
<rscale>  0 0.29506336E+03</rscale>
<asrwt>0</asrwt>
<pdfrwt beam="1">  1        2 0.21499388E-01 0.29506336E+03</pdfrwt>
<pdfrwt beam="2">  1       -2 0.23961708E-01 0.29506336E+03</pdfrwt>
<totfact> 0.39053155E+03</totfact>
</mgrwt>
</event>
<event>
 9    1  0.8122655E-001  0.2738826E+03  0.7818608E-02  0.1099078E+00
         -2   -1    0    0    0  501 -0.00000000000E+00  0.00000000000E+00  0.18423547254E+02  0.18423547254E+02  0.00000000000E+00 0.  1.
          2   -1    0    0  501    0  0.00000000000E+00 -0.00000000000E+00 -0.10178780066E+04  0.10178780066E+04  0.00000000000E+00 0.  1.
         35    2    1    2    0    0  0.71054273576E-14  0.35527136788E-14 -0.99945445933E+03  0.10363015538E+04  0.27388262853E+03 0.  0.
         25    2    3    3    0    0  0.51027252568E+02 -0.21843509894E+02 -0.54731824388E+03  0.56413209089E+03  0.12492732473E+03 0.  0.
         25    2    3    3    0    0 -0.51027252568E+02  0.21843509894E+02 -0.45213621546E+03  0.47216946295E+03  0.12424139803E+03 0.  0.
          5    1    4    4  502    0  0.27387801599E+02 -0.18600254058E+02 -0.53645597283E+03  0.53749712735E+03  0.47000000000E+01 0.  1.
         -5    1    4    4    0  502  0.23639450969E+02 -0.32432558366E+01 -0.10862271049E+02  0.26634963542E+02  0.47000000000E+01 0.  1.
          5    1    5    5  503    0 -0.27660992287E+02  0.37331377048E+02 -0.43789302848E+03  0.44037615353E+03  0.47000000000E+01 0.  1.
         -5    1    5    5    0  503 -0.23366260281E+02 -0.15487867154E+02 -0.14243186975E+02  0.31793309418E+02  0.47000000000E+01 0.  1.
<mgrwt>
<rscale>  0 0.27388263E+03</rscale>
<asrwt>0</asrwt>
<pdfrwt beam="1">  1        2 0.15659663E+00 0.27388263E+03</pdfrwt>
<pdfrwt beam="2">  1       -2 0.28343916E-02 0.27388263E+03</pdfrwt>
<totfact> 0.11772248E+04</totfact>
</mgrwt>
</event>
<event>
 9    1  0.8122655E-001  0.2741349E+03  0.7818608E-02  0.1098936E+00
          3   -1    0    0  501    0  0.00000000000E+00  0.00000000000E+00  0.70711445588E+02  0.70711445588E+02  0.00000000000E+00 0. -1.
         -3   -1    0    0    0  501 -0.00000000000E+00 -0.00000000000E+00 -0.26569222272E+03  0.26569222272E+03  0.00000000000E+00 0. -1.
         35    2    1    2    0    0 -0.17763568394E-14  0.00000000000E+00 -0.19498077713E+03  0.33640366831E+03  0.27413486571E+03 0.  0.
         25    2    3    3    0    0  0.74763527319E+01  0.52501325611E+02 -0.12658042552E+03  0.18564799040E+03  0.12502114691E+03 0.  0.
         25    2    3    3    0    0 -0.74763527319E+01 -0.52501325611E+02 -0.68400351615E+02  0.15075567791E+03  0.12343573745E+03 0.  0.
          5    1    4    4  502    0 -0.47342511019E+02 -0.96562765224E+00 -0.14351271261E+02  0.49702060049E+02  0.47000000000E+01 0. -1.
         -5    1    4    4    0  502  0.54818863751E+02  0.53466953263E+02 -0.11222915426E+03  0.13594593035E+03  0.47000000000E+01 0. -1.
          5    1    5    5  503    0 -0.32158475203E+01 -0.70170399951E+02 -0.94972680533E+02  0.11822066973E+03  0.47000000000E+01 0. -1.
         -5    1    5    5    0  503 -0.42605052116E+01  0.17669074340E+02  0.26572328918E+02  0.32535008173E+02  0.47000000000E+01 0. -1.
<mgrwt>
<rscale>  0 0.27413487E+03</rscale>
<asrwt>0</asrwt>
<pdfrwt beam="1">  1        3 0.10878684E-01 0.27413487E+03</pdfrwt>
<pdfrwt beam="2">  1       -3 0.40875726E-01 0.27413487E+03</pdfrwt>
<totfact> 0.96994851E+02</totfact>
</mgrwt>
</event>
<event>
 9    1  0.8122655E-001  0.2756683E+03  0.7818608E-02  0.1098079E+00
          2   -1    0    0  501    0  0.00000000000E+00  0.00000000000E+00  0.17483504369E+04  0.17483504369E+04  0.00000000000E+00 0.  1.
         -2   -1    0    0    0  501 -0.00000000000E+00 -0.00000000000E+00 -0.10866389362E+02  0.10866389362E+02  0.00000000000E+00 0.  1.
         35    2    1    2    0    0  0.00000000000E+00  0.00000000000E+00  0.17374840476E+04  0.17592168263E+04  0.27566832672E+03 0.  0.
         25    2    3    3    0    0  0.15295651186E+01  0.98368322696E+01  0.12333446845E+04  0.12397065437E+04  0.12503639766E+03 0.  0.
         25    2    3    3    0    0 -0.15295651186E+01 -0.98368322696E+01  0.50413936304E+03  0.51951028261E+03  0.12504132732E+03 0.  0.
          5    1    4    4  502    0  0.20388613276E+02 -0.53364029663E+02  0.46435433650E+03  0.46787867555E+03  0.47000000000E+01 0.  1.
         -5    1    4    4    0  502 -0.18859048157E+02  0.63200861933E+02  0.76899034803E+03  0.77182786812E+03  0.47000000000E+01 0.  1.
          5    1    5    5  503    0  0.58808778112E+02 -0.46756739937E+01  0.32524207157E+03  0.33058256069E+03  0.47000000000E+01 0. -1.
         -5    1    5    5    0  503 -0.60338343230E+02 -0.51611582760E+01  0.17889729146E+03  0.18892772192E+03  0.47000000000E+01 0. -1.
<mgrwt>
<rscale>  0 0.27566833E+03</rscale>
<asrwt>0</asrwt>
<pdfrwt beam="1">  1        2 0.26897677E+00 0.27566833E+03</pdfrwt>
<pdfrwt beam="2">  1       -2 0.16717536E-02 0.27566833E+03</pdfrwt>
<totfact> 0.10139762E+04</totfact>
</mgrwt>
</event>
<event>
 9    1  0.8122655E-001  0.2782862E+03  0.7818608E-02  0.1096629E+00
         -4   -1    0    0    0  501 -0.00000000000E+00  0.00000000000E+00  0.23331794919E+02  0.23331794919E+02  0.00000000000E+00 0.  1.
          4   -1    0    0  501    0  0.00000000000E+00 -0.00000000000E+00 -0.82980337726E+03  0.82980337726E+03  0.00000000000E+00 0.  1.
         35    2    1    2    0    0  0.00000000000E+00  0.00000000000E+00 -0.80647158234E+03  0.85313517218E+03  0.27828619959E+03 0.  0.
         25    2    3    3    0    0 -0.55269089608E+02  0.12252197372E+02 -0.33638823344E+03  0.36343828144E+03  0.12540156384E+03 0.  0.
         25    2    3    3    0    0  0.55269089608E+02 -0.12252197372E+02 -0.47008334890E+03  0.48969689074E+03  0.12497960345E+03 0.  0.
          5    1    4    4  502    0 -0.43401571787E+02  0.67379240979E+02 -0.21526148489E+03  0.22974606727E+03  0.47000000000E+01 0. -1.
         -5    1    4    4    0  502 -0.11867517820E+02 -0.55127043607E+02 -0.12112674855E+03  0.13369221417E+03  0.47000000000E+01 0. -1.
          5    1    5    5  503    0 -0.68909616685E+01 -0.29801647073E+02 -0.24606067800E+02  0.39536971224E+02  0.47000000000E+01 0.  1.
         -5    1    5    5    0  503  0.62160051276E+02  0.17549449701E+02 -0.44547728110E+03  0.45015991952E+03  0.47000000000E+01 0.  1.
<mgrwt>
<rscale>  0 0.27828620E+03</rscale>
<asrwt>0</asrwt>
<pdfrwt beam="1">  1        4 0.12766206E+00 0.27828620E+03</pdfrwt>
<pdfrwt beam="2">  1       -4 0.35895069E-02 0.27828620E+03</pdfrwt>
<totfact> 0.36181728E+02</totfact>
</mgrwt>
</event>
<event>
 9    1  0.8122655E-001  0.2757908E+03  0.7818608E-02  0.1098010E+00
         -2   -1    0    0    0  501 -0.00000000000E+00  0.00000000000E+00  0.57063837069E+02  0.57063837069E+02  0.00000000000E+00 0. -1.
          2   -1    0    0  501    0  0.00000000000E+00 -0.00000000000E+00 -0.33322588590E+03  0.33322588590E+03  0.00000000000E+00 0. -1.
         35    2    1    2    0    0  0.00000000000E+00 -0.14210854715E-13 -0.27616204883E+03  0.39028972297E+03  0.27579084583E+03 0.  0.
         25    2    3    3    0    0 -0.47618468182E+02  0.27091393021E+02 -0.16652685548E+03  0.21530750143E+03  0.12499865794E+03 0.  0.
         25    2    3    3    0    0  0.47618468182E+02 -0.27091393021E+02 -0.10963519335E+03  0.17498222154E+03  0.12488971193E+03 0.  0.
          5    1    4    4  502    0 -0.57729625295E+02  0.53347946314E+02 -0.16923004282E+03  0.18665371790E+03  0.47000000000E+01 0. -1.
         -5    1    4    4    0  502  0.10111157113E+02 -0.26256553293E+02  0.27031873370E+01  0.28653783533E+02  0.47000000000E+01 0. -1.
          5    1    5    5  503    0 -0.27303794204E+02 -0.45244746190E+02 -0.70978074041E+02  0.88614678414E+02  0.47000000000E+01 0.  1.
         -5    1    5    5    0  503  0.74922262386E+02  0.18153353169E+02 -0.38657119309E+02  0.86367543126E+02  0.47000000000E+01 0.  1.
<mgrwt>
<rscale>  0 0.27579085E+03</rscale>
<asrwt>0</asrwt>
<pdfrwt beam="1">  1        2 0.51265521E-01 0.27579085E+03</pdfrwt>
<pdfrwt beam="2">  1       -2 0.87790519E-02 0.27579085E+03</pdfrwt>
<totfact> 0.79056291E+03</totfact>
</mgrwt>
</event>
<event>
 9    1  0.8122655E-001  0.2626960E+03  0.7818608E-02  0.1105534E+00
         -2   -1    0    0    0  501 -0.00000000000E+00  0.00000000000E+00  0.56017481107E+02  0.56017481107E+02  0.00000000000E+00 0. -1.
          2   -1    0    0  501    0  0.00000000000E+00 -0.00000000000E+00 -0.30798049734E+03  0.30798049734E+03  0.00000000000E+00 0. -1.
         35    2    1    2    0    0  0.00000000000E+00 -0.35527136788E-14 -0.25196301623E+03  0.36399797844E+03  0.26269595879E+03 0.  0.
         25    2    3    3    0    0  0.36404580425E+02 -0.21475062997E+02 -0.16458614764E+03  0.20632856727E+03  0.11703164474E+03 0.  0.
         25    2    3    3    0    0 -0.36404580425E+02  0.21475062997E+02 -0.87376868593E+02  0.15766941117E+03  0.12425157644E+03 0.  0.
          5    1    4    4  502    0  0.69610643508E+02  0.14663898353E+02 -0.12140062034E+03  0.14078661947E+03  0.47000000000E+01 0. -1.
         -5    1    4    4    0  502 -0.33206063083E+02 -0.36138961350E+02 -0.43185527298E+02  0.65541947796E+02  0.47000000000E+01 0. -1.
          5    1    5    5  503    0  0.15278402651E+02 -0.29062329561E+02  0.11493003273E+02  0.35103101164E+02  0.47000000000E+01 0.  1.
         -5    1    5    5    0  503 -0.51682983077E+02  0.50537392557E+02 -0.98869871866E+02  0.12256631001E+03  0.47000000000E+01 0.  1.
<mgrwt>
<rscale>  0 0.26269596E+03</rscale>
<asrwt>0</asrwt>
<pdfrwt beam="1">  1        2 0.47381614E-01 0.26269596E+03</pdfrwt>
<pdfrwt beam="2">  1       -2 0.86180742E-02 0.26269596E+03</pdfrwt>
<totfact> 0.88414003E+03</totfact>
</mgrwt>
</event>
<event>
 9    1  0.8122655E-001  0.2758279E+03  0.7818608E-02  0.1097990E+00
          2   -1    0    0  501    0  0.00000000000E+00  0.00000000000E+00  0.18228284972E+04  0.18228284972E+04  0.00000000000E+00 0. -1.
         -2   -1    0    0    0  501 -0.00000000000E+00 -0.00000000000E+00 -0.10434477736E+02  0.10434477736E+02  0.00000000000E+00 0. -1.
         35    2    1    2    0    0  0.00000000000E+00 -0.71054273576E-14  0.18123940194E+04  0.18332629749E+04  0.27582794181E+03 0.  0.
         25    2    3    3    0    0 -0.70620008195E+01 -0.45036586002E+02  0.11257120910E+04  0.11335470319E+04  0.12499198315E+03 0.  0.
         25    2    3    3    0    0  0.70620008195E+01  0.45036586002E+02  0.68668192846E+03  0.69971594299E+03  0.12646012841E+03 0.  0.
          5    1    4    4  502    0  0.37337946683E+02 -0.13982008749E+02  0.91658524958E+03  0.91746402032E+03  0.47000000000E+01 0. -1.
         -5    1    4    4    0  502 -0.44399947503E+02 -0.31054577253E+02  0.20912684139E+03  0.21608301159E+03  0.47000000000E+01 0. -1.
          5    1    5    5  503    0 -0.41059308783E+02 -0.62812707645E+01  0.46990993692E+03  0.47176557740E+03  0.47000000000E+01 0.  1.
         -5    1    5    5    0  503  0.48121309603E+02  0.51317856766E+02  0.21677199153E+03  0.22795036559E+03  0.47000000000E+01 0.  1.
<mgrwt>
<rscale>  0 0.27582794E+03</rscale>
<asrwt>0</asrwt>
<pdfrwt beam="1">  1        2 0.28043490E+00 0.27582794E+03</pdfrwt>
<pdfrwt beam="2">  1       -2 0.16053057E-02 0.27582794E+03</pdfrwt>
<totfact> 0.98337758E+03</totfact>
</mgrwt>
</event>
<event>
 9    1  0.8122655E-001  0.2685124E+03  0.7818608E-02  0.1102134E+00
         -1   -1    0    0    0  501 -0.00000000000E+00  0.00000000000E+00  0.18808873262E+02  0.18808873262E+02  0.00000000000E+00 0. -1.
          1   -1    0    0  501    0  0.00000000000E+00 -0.00000000000E+00 -0.95830946236E+03  0.95830946236E+03  0.00000000000E+00 0. -1.
         35    2    1    2    0    0  0.35527136788E-14 -0.71054273576E-14 -0.93950058910E+03  0.97711833562E+03  0.26851235519E+03 0.  0.
         25    2    3    3    0    0  0.18643887518E+02  0.34766503650E+02 -0.57339643432E+03  0.58822602694E+03  0.12518020436E+03 0.  0.
         25    2    3    3    0    0 -0.18643887518E+02 -0.34766503650E+02 -0.36610415479E+03  0.38889230869E+03  0.12509464931E+03 0.  0.
          5    1    4    4  502    0  0.46850904611E+02 -0.27334968764E+02 -0.15508754218E+03  0.16436679567E+03  0.47000000000E+01 0. -1.
         -5    1    4    4    0  502 -0.28207017093E+02  0.62101472414E+02 -0.41830889214E+03  0.42385923126E+03  0.47000000000E+01 0. -1.
          5    1    5    5  503    0 -0.12448046050E+02 -0.22081225454E+02 -0.37199648633E+03  0.37288873704E+03  0.47000000000E+01 0. -1.
         -5    1    5    5    0  503 -0.61958414678E+01 -0.12685278195E+02  0.58923315462E+01  0.16003571646E+02  0.47000000000E+01 0. -1.
<mgrwt>
<rscale>  0 0.26851236E+03</rscale>
<asrwt>0</asrwt>
<pdfrwt beam="1">  1        1 0.14743216E+00 0.26851236E+03</pdfrwt>
<pdfrwt beam="2">  1       -1 0.28936740E-02 0.26851236E+03</pdfrwt>
<totfact> 0.68326675E+03</totfact>
</mgrwt>
</event>
<event>
 9    1  0.8122655E-001  0.2735197E+03  0.7818608E-02  0.1099282E+00
         -2   -1    0    0    0  501 -0.00000000000E+00  0.00000000000E+00  0.48215766054E+02  0.48215766054E+02  0.00000000000E+00 0.  1.
          2   -1    0    0  501    0  0.00000000000E+00 -0.00000000000E+00 -0.38790740598E+03  0.38790740598E+03  0.00000000000E+00 0.  1.
         35    2    1    2    0    0  0.00000000000E+00  0.00000000000E+00 -0.33969163993E+03  0.43612317203E+03  0.27351967196E+03 0.  0.
         25    2    3    3    0    0 -0.54559613505E+01  0.23232598930E+02 -0.24752087263E+03  0.27931475756E+03  0.12720310623E+03 0.  0.
         25    2    3    3    0    0  0.54559613505E+01 -0.23232598930E+02 -0.92170767293E+02  0.15680841447E+03  0.12459497317E+03 0.  0.
          5    1    4    4  502    0 -0.55713622372E+02 -0.23367084222E+02 -0.12217335813E+03  0.13637612613E+03  0.47000000000E+01 0.  1.
         -5    1    4    4    0  502  0.50257661022E+02  0.46599683152E+02 -0.12534751451E+03  0.14293863143E+03  0.47000000000E+01 0.  1.
          5    1    5    5  503    0 -0.43552913864E+02 -0.15085591296E+02  0.59651874523E+01  0.46713004957E+02  0.47000000000E+01 0.  1.
         -5    1    5    5    0  503  0.49008875214E+02 -0.81470076341E+01 -0.98135954745E+02  0.11009540952E+03  0.47000000000E+01 0.  1.
<mgrwt>
<rscale>  0 0.27351967E+03</rscale>
<asrwt>0</asrwt>
<pdfrwt beam="1">  1        2 0.59678064E-01 0.27351967E+03</pdfrwt>
<pdfrwt beam="2">  1       -2 0.74178100E-02 0.27351967E+03</pdfrwt>
<totfact> 0.87273096E+03</totfact>
</mgrwt>
</event>
<event>
 9    1  0.8122655E-001  0.2760630E+03  0.7818608E-02  0.1097859E+00
          2   -1    0    0  501    0  0.00000000000E+00  0.00000000000E+00  0.14613943202E+04  0.14613943202E+04  0.00000000000E+00 0. -1.
         -2   -1    0    0    0  501 -0.00000000000E+00 -0.00000000000E+00 -0.13037338770E+02  0.13037338770E+02  0.00000000000E+00 0. -1.
         35    2    1    2    0    0  0.71054273576E-14  0.00000000000E+00  0.14483569814E+04  0.14744316589E+04  0.27606298433E+03 0.  0.
         25    2    3    3    0    0 -0.52512110701E+02 -0.21113863228E+02  0.79288528324E+03  0.80468081509E+03  0.12506328320E+03 0.  0.
         25    2    3    3    0    0  0.52512110701E+02  0.21113863228E+02  0.65547169817E+03  0.66975084386E+03  0.12537834246E+03 0.  0.
          5    1    4    4  502    0  0.12052290398E+02 -0.10791528640E+02  0.61286702687E+03  0.61309852179E+03  0.47000000000E+01 0.  1.
         -5    1    4    4    0  502 -0.64564401099E+02 -0.10322334588E+02  0.18001825637E+03  0.19158229330E+03  0.47000000000E+01 0.  1.
          5    1    5    5  503    0 -0.18375360524E+02  0.54163897553E+02  0.33207192528E+03  0.33699441424E+03  0.47000000000E+01 0.  1.
         -5    1    5    5    0  503  0.70887471225E+02 -0.33050034325E+02  0.32339977289E+03  0.33275642961E+03  0.47000000000E+01 0.  1.
<mgrwt>
<rscale>  0 0.27606298E+03</rscale>
<asrwt>0</asrwt>
<pdfrwt beam="1">  1        2 0.22482977E+00 0.27606298E+03</pdfrwt>
<pdfrwt beam="2">  1       -2 0.20057456E-02 0.27606298E+03</pdfrwt>
<totfact> 0.11018062E+04</totfact>
</mgrwt>
</event>
<event>
 9    1  0.8122655E-001  0.2763302E+03  0.7818608E-02  0.1097710E+00
         -1   -1    0    0    0  501 -0.00000000000E+00  0.00000000000E+00  0.22101333268E+03  0.22101333268E+03  0.00000000000E+00 0.  1.
          1   -1    0    0  501    0  0.00000000000E+00 -0.00000000000E+00 -0.86373070243E+02  0.86373070243E+02  0.00000000000E+00 0.  1.
         35    2    1    2    0    0  0.14210854715E-13  0.00000000000E+00  0.13464026243E+03  0.30738640292E+03  0.27633023800E+03 0.  0.
         25    2    3    3    0    0 -0.57687344011E+02  0.35374800881E+01  0.31049496682E+02  0.14216855282E+03  0.12612486964E+03 0.  0.
         25    2    3    3    0    0  0.57687344011E+02 -0.35374800881E+01  0.10359076575E+03  0.16521785010E+03  0.11500238180E+03 0.  0.
          5    1    4    4  502    0 -0.65946513060E+02  0.49793295280E+02 -0.47608996917E+01  0.82903986668E+02  0.47000000000E+01 0. -1.
         -5    1    4    4    0  502  0.82591690491E+01 -0.46255815192E+02  0.35810396373E+02  0.59264566149E+02  0.47000000000E+01 0. -1.
          5    1    5    5  503    0  0.41902958971E+02 -0.57455433071E+02  0.47210314848E+02  0.85486189457E+02  0.47000000000E+01 0. -1.
         -5    1    5    5    0  503  0.15784385040E+02  0.53917952983E+02  0.56380450904E+02  0.79731660644E+02  0.47000000000E+01 0. -1.
<mgrwt>
<rscale>  0 0.27633024E+03</rscale>
<asrwt>0</asrwt>
<pdfrwt beam="1">  1        1 0.13288165E-01 0.27633024E+03</pdfrwt>
<pdfrwt beam="2">  1       -1 0.34002051E-01 0.27633024E+03</pdfrwt>
<totfact> 0.35839798E+03</totfact>
</mgrwt>
</event>
<event>
 9    1  0.8122655E-001  0.2732890E+03  0.7818608E-02  0.1099412E+00
         -1   -1    0    0    0  501 -0.00000000000E+00  0.00000000000E+00  0.13048613382E+04  0.13048613382E+04  0.00000000000E+00 0.  1.
          1   -1    0    0  501    0  0.00000000000E+00 -0.00000000000E+00 -0.14309348174E+02  0.14309348174E+02  0.00000000000E+00 0.  1.
         35    2    1    2    0    0  0.00000000000E+00  0.00000000000E+00  0.12905519900E+04  0.13191706863E+04  0.27328896946E+03 0.  0.
         25    2    3    3    0    0 -0.56148427999E+02  0.50542550555E+01  0.65917362361E+03  0.67321267313E+03  0.12460836946E+03 0.  0.
         25    2    3    3    0    0  0.56148427999E+02 -0.50542550555E+01  0.63137836638E+03  0.64595801320E+03  0.12427759989E+03 0.  0.
          5    1    4    4  502    0 -0.44026846150E+02  0.21117210575E+02  0.81183930640E+02  0.94853678677E+02  0.47000000000E+01 0.  1.
         -5    1    4    4    0  502 -0.12121581849E+02 -0.16062955520E+02  0.57798969297E+03  0.57835899445E+03  0.47000000000E+01 0.  1.
          5    1    5    5  503    0 -0.21245821082E+02  0.21989034570E+02  0.38529614764E+03  0.38653604482E+03  0.47000000000E+01 0.  1.
         -5    1    5    5    0  503  0.77394249082E+02 -0.27043289625E+02  0.24608221873E+03  0.25942196839E+03  0.47000000000E+01 0.  1.
<mgrwt>
<rscale>  0 0.27328897E+03</rscale>
<asrwt>0</asrwt>
<pdfrwt beam="1">  1        1 0.22014392E-02 0.27328897E+03</pdfrwt>
<pdfrwt beam="2">  1       -1 0.20074780E+00 0.27328897E+03</pdfrwt>
<totfact> 0.87143094E+02</totfact>
</mgrwt>
</event>
<event>
 9    1  0.8122655E-001  0.2745978E+03  0.7818608E-02  0.1098677E+00
         -2   -1    0    0    0  501 -0.00000000000E+00  0.00000000000E+00  0.63306507932E+02  0.63306507932E+02  0.00000000000E+00 0. -1.
          2   -1    0    0  501    0  0.00000000000E+00 -0.00000000000E+00 -0.29777337023E+03  0.29777337023E+03  0.00000000000E+00 0. -1.
         35    2    1    2    0    0  0.00000000000E+00  0.00000000000E+00 -0.23446686230E+03  0.36107987816E+03  0.27459783120E+03 0.  0.
         25    2    3    3    0    0  0.51588801844E+02 -0.85446153257E+01 -0.88320645693E+02  0.16166265314E+03  0.12489940767E+03 0.  0.
         25    2    3    3    0    0 -0.51588801844E+02  0.85446153257E+01 -0.14614621661E+03  0.19941722503E+03  0.12519623829E+03 0.  0.
          5    1    4    4  502    0  0.56333248862E+02  0.44692271978E+02 -0.19987788238E+02  0.74782590089E+02  0.47000000000E+01 0.  1.
         -5    1    4    4    0  502 -0.47444470175E+01 -0.53236887303E+02 -0.68332857455E+02  0.86880063048E+02  0.47000000000E+01 0.  1.
          5    1    5    5  503    0 -0.61971740859E+02 -0.44658240339E+02 -0.11033925479E+03  0.13428215162E+03  0.47000000000E+01 0.  1.
         -5    1    5    5    0  503  0.10382939015E+02  0.53202855665E+02 -0.35806961818E+02  0.65135073410E+02  0.47000000000E+01 0.  1.
<mgrwt>
<rscale>  0 0.27459783E+03</rscale>
<asrwt>0</asrwt>
<pdfrwt beam="1">  1        2 0.45811290E-01 0.27459783E+03</pdfrwt>
<pdfrwt beam="2">  1       -2 0.97394624E-02 0.27459783E+03</pdfrwt>
<totfact> 0.75721145E+03</totfact>
</mgrwt>
</event>
<event>
 9    1  0.8122655E-001  0.2764850E+03  0.7818608E-02  0.1097624E+00
          2   -1    0    0  501    0  0.00000000000E+00  0.00000000000E+00  0.23567053424E+03  0.23567053424E+03  0.00000000000E+00 0.  1.
         -2   -1    0    0    0  501 -0.00000000000E+00 -0.00000000000E+00 -0.81091951855E+02  0.81091951855E+02  0.00000000000E+00 0.  1.
         35    2    1    2    0    0  0.71054273576E-14  0.00000000000E+00  0.15457858239E+03  0.31676248610E+03  0.27648496246E+03 0.  0.
         25    2    3    3    0    0 -0.61587332587E+02  0.52176460607E+01  0.93633310057E+02  0.16868658413E+03  0.12596723204E+03 0.  0.
         25    2    3    3    0    0  0.61587332587E+02 -0.52176460607E+01  0.60945272331E+02  0.14807590196E+03  0.11996634177E+03 0.  0.
          5    1    4    4  502    0  0.23676030588E+02  0.24337247654E+02  0.70160339513E+02  0.78085973698E+02  0.47000000000E+01 0.  1.
         -5    1    4    4    0  502 -0.85263363175E+02 -0.19119601593E+02  0.23472970543E+02  0.90600610435E+02  0.47000000000E+01 0.  1.
          5    1    5    5  503    0  0.46367311592E+02  0.46036445004E+02 -0.17660865984E+01  0.65532365399E+02  0.47000000000E+01 0. -1.
         -5    1    5    5    0  503  0.15220020995E+02 -0.51254091065E+02  0.62711358930E+02  0.82543536566E+02  0.47000000000E+01 0. -1.
<mgrwt>
<rscale>  0 0.27648496E+03</rscale>
<asrwt>0</asrwt>
<pdfrwt beam="1">  1        2 0.36257005E-01 0.27648496E+03</pdfrwt>
<pdfrwt beam="2">  1       -2 0.12475685E-01 0.27648496E+03</pdfrwt>
<totfact> 0.65540174E+03</totfact>
</mgrwt>
</event>
<event>
 9    1  0.8122655E-001  0.2765842E+03  0.7818608E-02  0.1097569E+00
          2   -1    0    0  501    0  0.00000000000E+00  0.00000000000E+00  0.12724722944E+04  0.12724722944E+04  0.00000000000E+00 0. -1.
         -2   -1    0    0    0  501 -0.00000000000E+00 -0.00000000000E+00 -0.15029562683E+02  0.15029562683E+02  0.00000000000E+00 0. -1.
         35    2    1    2    0    0 -0.71054273576E-14 -0.71054273576E-14  0.12574427317E+04  0.12875018571E+04  0.27658417967E+03 0.  0.
         25    2    3    3    0    0 -0.27226884420E+02  0.46484005978E+02  0.70733876782E+03  0.72048267333E+03  0.12595667535E+03 0.  0.
         25    2    3    3    0    0  0.27226884420E+02 -0.46484005978E+02  0.55010396388E+03  0.56701918373E+03  0.12646864274E+03 0.  0.
          5    1    4    4  502    0 -0.13116993625E+02 -0.39401689036E+02  0.35811878437E+03  0.36054916771E+03  0.47000000000E+01 0. -1.
         -5    1    4    4    0  502 -0.14109890795E+02  0.85885695015E+02  0.34921998345E+03  0.35993350562E+03  0.47000000000E+01 0. -1.
          5    1    5    5  503    0 -0.56186991407E+00  0.28781286305E+02  0.35238558387E+03  0.35359067841E+03  0.47000000000E+01 0.  1.
         -5    1    5    5    0  503  0.27788754334E+02 -0.75265292283E+02  0.19771838000E+03  0.21342850531E+03  0.47000000000E+01 0.  1.
<mgrwt>
<rscale>  0 0.27658418E+03</rscale>
<asrwt>0</asrwt>
<pdfrwt beam="1">  1        2 0.19576488E+00 0.27658418E+03</pdfrwt>
<pdfrwt beam="2">  1       -2 0.23122414E-02 0.27658418E+03</pdfrwt>
<totfact> 0.11334135E+04</totfact>
</mgrwt>
</event>
<event>
 9    1  0.8122655E-001  0.2732981E+03  0.7818608E-02  0.1099407E+00
         -1   -1    0    0    0  501 -0.00000000000E+00  0.00000000000E+00  0.77947203725E+02  0.77947203725E+02  0.00000000000E+00 0.  1.
          1   -1    0    0  501    0  0.00000000000E+00 -0.00000000000E+00 -0.23955902806E+03  0.23955902806E+03  0.00000000000E+00 0.  1.
         35    2    1    2    0    0  0.71054273576E-14  0.00000000000E+00 -0.16161182433E+03  0.31750623178E+03  0.27329805242E+03 0.  0.
         25    2    3    3    0    0  0.55700414936E+02  0.52340684634E+01 -0.86761468559E+02  0.16213610486E+03  0.12502252748E+03 0.  0.
         25    2    3    3    0    0 -0.55700414936E+02 -0.52340684634E+01 -0.74850355772E+02  0.15537012692E+03  0.12412642299E+03 0.  0.
          5    1    4    4  502    0  0.72249349164E+02 -0.43995385417E+02 -0.50690278649E+02  0.98727689845E+02  0.47000000000E+01 0.  1.
         -5    1    4    4    0  502 -0.16548934228E+02  0.49229453880E+02 -0.36071189910E+02  0.63408415017E+02  0.47000000000E+01 0.  1.
          5    1    5    5  503    0 -0.43246141422E+02 -0.61784406938E+02 -0.27460483572E+02  0.80397200490E+02  0.47000000000E+01 0.  1.
         -5    1    5    5    0  503 -0.12454273514E+02  0.56550338474E+02 -0.47389872200E+02  0.74972926430E+02  0.47000000000E+01 0.  1.
<mgrwt>
<rscale>  0 0.27329805E+03</rscale>
<asrwt>0</asrwt>
<pdfrwt beam="1">  1        1 0.36855235E-01 0.27329805E+03</pdfrwt>
<pdfrwt beam="2">  1       -1 0.11991878E-01 0.27329805E+03</pdfrwt>
<totfact> 0.53077498E+03</totfact>
</mgrwt>
</event>
<event>
 9    1  0.8122655E-001  0.2804490E+03  0.7818608E-02  0.1095444E+00
          2   -1    0    0  501    0  0.00000000000E+00  0.00000000000E+00  0.62694216608E+03  0.62694216608E+03  0.00000000000E+00 0.  1.
         -2   -1    0    0    0  501 -0.00000000000E+00 -0.00000000000E+00 -0.31363201304E+02  0.31363201304E+02  0.00000000000E+00 0.  1.
         35    2    1    2    0    0  0.00000000000E+00  0.14210854715E-13  0.59557896478E+03  0.65830536739E+03  0.28044902111E+03 0.  0.
         25    2    3    3    0    0  0.56663887641E+01  0.63284252520E+02  0.26447124809E+03  0.29929544386E+03  0.12488281333E+03 0.  0.
         25    2    3    3    0    0 -0.56663887641E+01 -0.63284252520E+02  0.33110771668E+03  0.35900992353E+03  0.12336450286E+03 0.  0.
          5    1    4    4  502    0  0.27826442715E+02 -0.30587419647E+02  0.10388189472E+03  0.11190817309E+03  0.47000000000E+01 0.  1.
         -5    1    4    4    0  502 -0.22160053951E+02  0.93871672167E+02  0.16058935338E+03  0.18738727076E+03  0.47000000000E+01 0.  1.
          5    1    5    5  503    0 -0.30934033169E+02 -0.31787043184E+02  0.26876414224E+02  0.52074582705E+02  0.47000000000E+01 0. -1.
         -5    1    5    5    0  503  0.25267644404E+02 -0.31497209337E+02  0.30423130246E+03  0.30693534082E+03  0.47000000000E+01 0. -1.
<mgrwt>
<rscale>  0 0.28044902E+03</rscale>
<asrwt>0</asrwt>
<pdfrwt beam="1">  1        2 0.96452632E-01 0.28044902E+03</pdfrwt>
<pdfrwt beam="2">  1       -2 0.48251084E-02 0.28044902E+03</pdfrwt>
<totfact> 0.98689760E+03</totfact>
</mgrwt>
</event>
<event>
 9    1  0.8122655E-001  0.2699325E+03  0.7818608E-02  0.1101318E+00
         -2   -1    0    0    0  501 -0.00000000000E+00  0.00000000000E+00  0.52792260912E+02  0.52792260912E+02  0.00000000000E+00 0. -1.
          2   -1    0    0  501    0  0.00000000000E+00 -0.00000000000E+00 -0.34504839003E+03  0.34504839003E+03  0.00000000000E+00 0. -1.
         35    2    1    2    0    0  0.35527136788E-14  0.00000000000E+00 -0.29225612912E+03  0.39784065094E+03  0.26993247032E+03 0.  0.
         25    2    3    3    0    0 -0.52245335882E+01 -0.19881236202E+02 -0.22029150459E+03  0.25398579713E+03  0.12473122642E+03 0.  0.
         25    2    3    3    0    0  0.52245335882E+01  0.19881236202E+02 -0.71964624523E+02  0.14385485381E+03  0.12285256398E+03 0.  0.
          5    1    4    4  502    0  0.22000758120E+02 -0.67497027310E+02 -0.13150075423E+03  0.14951394723E+03  0.47000000000E+01 0.  1.
         -5    1    4    4    0  502 -0.27225291708E+02  0.47615791108E+02 -0.88790750366E+02  0.10447184990E+03  0.47000000000E+01 0.  1.
          5    1    5    5  503    0  0.15573655454E+02 -0.41603867405E+02  0.47085131154E+01  0.44918599967E+02  0.47000000000E+01 0. -1.
         -5    1    5    5    0  503 -0.10349121866E+02  0.61485103607E+02 -0.76673137639E+02  0.98936253842E+02  0.47000000000E+01 0. -1.
<mgrwt>
<rscale>  0 0.26993247E+03</rscale>
<asrwt>0</asrwt>
<pdfrwt beam="1">  1        2 0.53084370E-01 0.26993247E+03</pdfrwt>
<pdfrwt beam="2">  1       -2 0.81218860E-02 0.26993247E+03</pdfrwt>
<totfact> 0.85948334E+03</totfact>
</mgrwt>
</event>
<event>
 9    1  0.8122655E-001  0.2734790E+03  0.7818608E-02  0.1099305E+00
         -4   -1    0    0    0  501 -0.00000000000E+00  0.00000000000E+00  0.22889251541E+02  0.22889251541E+02  0.00000000000E+00 0.  1.
          4   -1    0    0  501    0  0.00000000000E+00 -0.00000000000E+00 -0.81687652315E+03  0.81687652315E+03  0.00000000000E+00 0.  1.
         35    2    1    2    0    0  0.00000000000E+00  0.00000000000E+00 -0.79398727161E+03  0.83976577469E+03  0.27347900992E+03 0.  0.
         25    2    3    3    0    0 -0.37395805225E+02 -0.31440996998E+01 -0.52150032616E+03  0.53747791019E+03  0.12454550231E+03 0.  0.
         25    2    3    3    0    0  0.37395805225E+02  0.31440996998E+01 -0.27248694545E+03  0.30228786450E+03  0.12538136214E+03 0.  0.
          5    1    4    4  502    0 -0.74788190851E+02  0.27217716161E+02 -0.36766707482E+03  0.37621170299E+03  0.47000000000E+01 0. -1.
         -5    1    4    4    0  502  0.37392385626E+02 -0.30361815861E+02 -0.15383325135E+03  0.16126620720E+03  0.47000000000E+01 0. -1.
          5    1    5    5  503    0 -0.20588886500E+02 -0.38443644054E+02 -0.41124848867E+02  0.60126194040E+02  0.47000000000E+01 0. -1.
         -5    1    5    5    0  503  0.57984691725E+02  0.41587743754E+02 -0.23136209658E+03  0.24216167046E+03  0.47000000000E+01 0. -1.
<mgrwt>
<rscale>  0 0.27347901E+03</rscale>
<asrwt>0</asrwt>
<pdfrwt beam="1">  1        4 0.12567331E+00 0.27347901E+03</pdfrwt>
<pdfrwt beam="2">  1       -4 0.35214233E-02 0.27347901E+03</pdfrwt>
<totfact> 0.38696056E+02</totfact>
</mgrwt>
</event>
<event>
 9    1  0.8122655E-001  0.2776805E+03  0.7818608E-02  0.1096963E+00
         -2   -1    0    0    0  501 -0.00000000000E+00  0.00000000000E+00  0.22544282050E+02  0.22544282050E+02  0.00000000000E+00 0.  1.
          2   -1    0    0  501    0  0.00000000000E+00 -0.00000000000E+00 -0.85505589365E+03  0.85505589365E+03  0.00000000000E+00 0.  1.
         35    2    1    2    0    0  0.00000000000E+00 -0.35527136788E-14 -0.83251161160E+03  0.87760017570E+03  0.27768054476E+03 0.  0.
         25    2    3    3    0    0 -0.56809619594E+02  0.87234009128E+01 -0.46693101758E+03  0.48687971910E+03  0.12539479693E+03 0.  0.
         25    2    3    3    0    0  0.56809619594E+02 -0.87234009128E+01 -0.36558059402E+03  0.39072045660E+03  0.12533903572E+03 0.  0.
          5    1    4    4  502    0  0.30473320110E+02 -0.28374760312E+02 -0.17244605471E+03  0.17746403029E+03  0.47000000000E+01 0.  1.
         -5    1    4    4    0  502 -0.87282939703E+02  0.37098161225E+02 -0.29448496286E+03  0.30941568881E+03  0.47000000000E+01 0.  1.
          5    1    5    5  503    0  0.51972713979E+02  0.53515291505E+02 -0.18164400990E+03  0.19642221299E+03  0.47000000000E+01 0. -1.
         -5    1    5    5    0  503  0.48369056141E+01 -0.62238692418E+02 -0.18393658412E+03  0.19429824360E+03  0.47000000000E+01 0. -1.
<mgrwt>
<rscale>  0 0.27768054E+03</rscale>
<asrwt>0</asrwt>
<pdfrwt beam="1">  1        2 0.13154704E+00 0.27768054E+03</pdfrwt>
<pdfrwt beam="2">  1       -2 0.34683515E-02 0.27768054E+03</pdfrwt>
<totfact> 0.11055613E+04</totfact>
</mgrwt>
</event>
<event>
 9    1  0.8122655E-001  0.2754164E+03  0.7818608E-02  0.1098219E+00
          2   -1    0    0  501    0  0.00000000000E+00  0.00000000000E+00  0.94096800068E+02  0.94096800068E+02  0.00000000000E+00 0.  1.
         -2   -1    0    0    0  501 -0.00000000000E+00 -0.00000000000E+00 -0.20153227588E+03  0.20153227588E+03  0.00000000000E+00 0.  1.
         35    2    1    2    0    0  0.00000000000E+00  0.00000000000E+00 -0.10743547581E+03  0.29562907595E+03  0.27541635588E+03 0.  0.
         25    2    3    3    0    0  0.55576797310E+02 -0.12161967328E+02 -0.50427689866E+02  0.14626658368E+03  0.12495706362E+03 0.  0.
         25    2    3    3    0    0 -0.55576797310E+02  0.12161967328E+02 -0.57007785948E+02  0.14936249227E+03  0.12578780780E+03 0.  0.
          5    1    4    4  502    0  0.21913595990E+02 -0.51553523658E+02  0.19150296074E+02  0.59386827921E+02  0.47000000000E+01 0. -1.
         -5    1    4    4    0  502  0.33663201320E+02  0.39391556331E+02 -0.69577985940E+02  0.86879755759E+02  0.47000000000E+01 0. -1.
          5    1    5    5  503    0 -0.70572769656E+02  0.56511403896E+02 -0.31599056103E+02  0.95888711191E+02  0.47000000000E+01 0. -1.
         -5    1    5    5    0  503  0.14995972346E+02 -0.44349436568E+02 -0.25408729845E+02  0.53473781079E+02  0.47000000000E+01 0. -1.
<mgrwt>
<rscale>  0 0.27541636E+03</rscale>
<asrwt>0</asrwt>
<pdfrwt beam="1">  1        2 0.14476431E-01 0.27541636E+03</pdfrwt>
<pdfrwt beam="2">  1       -2 0.31004965E-01 0.27541636E+03</pdfrwt>
<totfact> 0.38937297E+03</totfact>
</mgrwt>
</event>
<event>
 9    1  0.8122655E-001  0.2730591E+03  0.7818608E-02  0.1099541E+00
          2   -1    0    0  501    0  0.00000000000E+00  0.00000000000E+00  0.39415232560E+03  0.39415232560E+03  0.00000000000E+00 0. -1.
         -2   -1    0    0    0  501 -0.00000000000E+00 -0.00000000000E+00 -0.47292183568E+02  0.47292183568E+02  0.00000000000E+00 0. -1.
         35    2    1    2    0    0  0.00000000000E+00  0.00000000000E+00  0.34686014204E+03  0.44144450917E+03  0.27305914478E+03 0.  0.
         25    2    3    3    0    0  0.25209792863E+02  0.37188823401E+02  0.12421451138E+03  0.18242789140E+03  0.12582586570E+03 0.  0.
         25    2    3    3    0    0 -0.25209792863E+02 -0.37188823401E+02  0.22264563065E+03  0.25901661778E+03  0.12449895258E+03 0.  0.
          5    1    4    4  502    0 -0.35877872772E+02 -0.17241672067E+02  0.79587682352E+02  0.89111089055E+02  0.47000000000E+01 0.  1.
         -5    1    4    4    0  502  0.61087665636E+02  0.54430495468E+02  0.44626829031E+02  0.93316802340E+02  0.47000000000E+01 0.  1.
          5    1    5    5  503    0 -0.53162861392E+02 -0.64796691867E+02  0.19000340852E+03  0.20772165597E+03  0.47000000000E+01 0. -1.
         -5    1    5    5    0  503  0.27953068529E+02  0.27607868466E+02  0.32642222134E+02  0.51294961812E+02  0.47000000000E+01 0. -1.
<mgrwt>
<rscale>  0 0.27305914E+03</rscale>
<asrwt>0</asrwt>
<pdfrwt beam="1">  1        2 0.60638817E-01 0.27305914E+03</pdfrwt>
<pdfrwt beam="2">  1       -2 0.72757208E-02 0.27305914E+03</pdfrwt>
<totfact> 0.88384135E+03</totfact>
</mgrwt>
</event>
<event>
 9    1  0.8122655E-001  0.2731231E+03  0.7818608E-02  0.1099505E+00
         -2   -1    0    0    0  501 -0.00000000000E+00  0.00000000000E+00  0.48346921320E+02  0.48346921320E+02  0.00000000000E+00 0. -1.
          2   -1    0    0  501    0  0.00000000000E+00 -0.00000000000E+00 -0.38573406259E+03  0.38573406259E+03  0.00000000000E+00 0. -1.
         35    2    1    2    0    0  0.00000000000E+00  0.00000000000E+00 -0.33738714127E+03  0.43408098391E+03  0.27312308122E+03 0.  0.
         25    2    3    3    0    0  0.21622691733E+01 -0.15458744299E+02 -0.25343794615E+03  0.28262594543E+03  0.12410875997E+03 0.  0.
         25    2    3    3    0    0 -0.21622691733E+01  0.15458744299E+02 -0.83949195118E+02  0.15145503847E+03  0.12509002012E+03 0.  0.
          5    1    4    4  502    0  0.58789160580E+02 -0.59462743326E+01 -0.17860696519E+03  0.18818624178E+03  0.47000000000E+01 0.  1.
         -5    1    4    4    0  502 -0.56626891407E+02 -0.95124699669E+01 -0.74830980959E+02  0.94439703655E+02  0.47000000000E+01 0.  1.
          5    1    5    5  503    0  0.22711891804E+02  0.11511658684E+02  0.27104379576E+02  0.37484472881E+02  0.47000000000E+01 0.  1.
         -5    1    5    5    0  503 -0.24874160977E+02  0.39470856159E+01 -0.11105357469E+03  0.11397056559E+03  0.47000000000E+01 0.  1.
<mgrwt>
<rscale>  0 0.27312308E+03</rscale>
<asrwt>0</asrwt>
<pdfrwt beam="1">  1        2 0.59343703E-01 0.27312308E+03</pdfrwt>
<pdfrwt beam="2">  1       -2 0.74379878E-02 0.27312308E+03</pdfrwt>
<totfact> 0.87431228E+03</totfact>
</mgrwt>
</event>
<event>
 9    1  0.8122655E-001  0.2787830E+03  0.7818608E-02  0.1096355E+00
          3   -1    0    0  501    0  0.00000000000E+00  0.00000000000E+00  0.20539609110E+03  0.20539609110E+03  0.00000000000E+00 0.  1.
         -3   -1    0    0    0  501 -0.00000000000E+00 -0.00000000000E+00 -0.94597677792E+02  0.94597677792E+02  0.00000000000E+00 0.  1.
         35    2    1    2    0    0  0.00000000000E+00  0.14210854715E-13  0.11079841330E+03  0.29999376889E+03  0.27878302133E+03 0.  0.
         25    2    3    3    0    0 -0.15862208888E+02 -0.58344897836E+02  0.67691760107E+02  0.15453000986E+03  0.12506643349E+03 0.  0.
         25    2    3    3    0    0  0.15862208888E+02  0.58344897836E+02  0.43106653197E+02  0.14546375903E+03  0.12508311184E+03 0.  0.
          5    1    4    4  502    0  0.75581608608E+01  0.33894879406E+02 -0.40240634638E+01  0.35274236098E+02  0.47000000000E+01 0. -1.
         -5    1    4    4    0  502 -0.23420369748E+02 -0.92239777243E+02  0.71715823571E+02  0.11925577376E+03  0.47000000000E+01 0. -1.
          5    1    5    5  503    0  0.20164970734E+02  0.49486227429E+02 -0.36647536186E+02  0.64966488733E+02  0.47000000000E+01 0.  1.
         -5    1    5    5    0  503 -0.43027618465E+01  0.88586704078E+01  0.79754189383E+02  0.80497270296E+02  0.47000000000E+01 0.  1.
<mgrwt>
<rscale>  0 0.27878302E+03</rscale>
<asrwt>0</asrwt>
<pdfrwt beam="1">  1        3 0.31599399E-01 0.27878302E+03</pdfrwt>
<pdfrwt beam="2">  1       -3 0.14553489E-01 0.27878302E+03</pdfrwt>
<totfact> 0.97018493E+02</totfact>
</mgrwt>
</event>
<event>
 9    1  0.8122655E-001  0.2679133E+03  0.7818608E-02  0.1102480E+00
          2   -1    0    0  501    0  0.00000000000E+00  0.00000000000E+00  0.94505324347E+03  0.94505324347E+03  0.00000000000E+00 0.  1.
         -2   -1    0    0    0  501 -0.00000000000E+00 -0.00000000000E+00 -0.18987699486E+02  0.18987699486E+02  0.00000000000E+00 0.  1.
         35    2    1    2    0    0  0.71054273576E-14  0.71054273576E-14  0.92606554398E+03  0.96404094295E+03  0.26791332170E+03 0.  0.
         25    2    3    3    0    0 -0.30379260320E+02  0.26169777110E+02  0.35882136250E+03  0.38188172649E+03  0.12439102120E+03 0.  0.
         25    2    3    3    0    0  0.30379260320E+02 -0.26169777110E+02  0.56724418148E+03  0.58215921646E+03  0.12464202818E+03 0.  0.
          5    1    4    4  502    0 -0.30867102913E+02  0.42827506572E+02  0.50932416999E+02  0.73506288593E+02  0.47000000000E+01 0. -1.
         -5    1    4    4    0  502  0.48784259274E+00 -0.16657729462E+02  0.30788894550E+03  0.30837543790E+03  0.47000000000E+01 0. -1.
          5    1    5    5  503    0  0.72876265612E+02 -0.43085331393E+02  0.38140517945E+03  0.39071638919E+03  0.47000000000E+01 0. -1.
         -5    1    5    5    0  503 -0.42497005292E+02  0.16915554283E+02  0.18583900204E+03  0.19144282727E+03  0.47000000000E+01 0. -1.
<mgrwt>
<rscale>  0 0.26791332E+03</rscale>
<asrwt>0</asrwt>
<pdfrwt beam="1">  1        2 0.14539277E+00 0.26791332E+03</pdfrwt>
<pdfrwt beam="2">  1       -2 0.29211853E-02 0.26791332E+03</pdfrwt>
<totfact> 0.12476168E+04</totfact>
</mgrwt>
</event>
<event>
 9    1  0.8122655E-001  0.2742471E+03  0.7818608E-02  0.1098873E+00
          1   -1    0    0  501    0  0.00000000000E+00  0.00000000000E+00  0.66339401929E+03  0.66339401929E+03  0.00000000000E+00 0. -1.
         -1   -1    0    0    0  501 -0.00000000000E+00 -0.00000000000E+00 -0.28343431143E+02  0.28343431143E+02  0.00000000000E+00 0. -1.
         35    2    1    2    0    0  0.00000000000E+00  0.71054273576E-14  0.63505058815E+03  0.69173745044E+03  0.27424706166E+03 0.  0.
         25    2    3    3    0    0 -0.13260507830E+02  0.35929059698E+02  0.21130022544E+03  0.24833803072E+03  0.12472872096E+03 0.  0.
         25    2    3    3    0    0  0.13260507830E+02 -0.35929059698E+02  0.42375036271E+03  0.44339941972E+03  0.12478756793E+03 0.  0.
          5    1    4    4  502    0 -0.42192137484E+02  0.50043096369E+02  0.46677781147E+02  0.80531939083E+02  0.47000000000E+01 0.  1.
         -5    1    4    4    0  502  0.28931629654E+02 -0.14114036671E+02  0.16462244429E+03  0.16780609164E+03  0.47000000000E+01 0.  1.
          5    1    5    5  503    0  0.39433722020E+02 -0.50940152065E+02  0.10560430653E+03  0.12379126416E+03  0.47000000000E+01 0.  1.
         -5    1    5    5    0  503 -0.26173214190E+02  0.15011092368E+02  0.31814605618E+03  0.31960815556E+03  0.47000000000E+01 0.  1.
<mgrwt>
<rscale>  0 0.27424706E+03</rscale>
<asrwt>0</asrwt>
<pdfrwt beam="1">  1        1 0.10206061E+00 0.27424706E+03</pdfrwt>
<pdfrwt beam="2">  1       -1 0.43605284E-02 0.27424706E+03</pdfrwt>
<totfact> 0.65687389E+03</totfact>
</mgrwt>
</event>
<event>
 9    1  0.8122655E-001  0.2812217E+03  0.7818608E-02  0.1095024E+00
         -2   -1    0    0    0  501 -0.00000000000E+00  0.00000000000E+00  0.11987745118E+02  0.11987745118E+02  0.00000000000E+00 0. -1.
          2   -1    0    0  501    0  0.00000000000E+00 -0.00000000000E+00 -0.16493018802E+04  0.16493018802E+04  0.00000000000E+00 0. -1.
         35    2    1    2    0    0 -0.71054273576E-14  0.17763568394E-14 -0.16373141351E+04  0.16612896253E+04  0.28122169591E+03 0.  0.
         25    2    3    3    0    0  0.48956974719E+02  0.58089833595E+00 -0.10562886029E+04  0.10647770061E+04  0.12492932909E+03 0.  0.
         25    2    3    3    0    0 -0.48956974719E+02 -0.58089833595E+00 -0.58102553218E+03  0.59651261922E+03  0.12585512716E+03 0.  0.
          5    1    4    4  502    0  0.15777690318E+02  0.25309370151E+02 -0.55990481591E+02  0.63612292507E+02  0.47000000000E+01 0.  1.
         -5    1    4    4    0  502  0.33179284401E+02 -0.24728471815E+02 -0.10002981213E+04  0.10011647136E+04  0.47000000000E+01 0.  1.
          5    1    5    5  503    0 -0.82390358659E+01  0.10999977610E+02 -0.61133505832E+00  0.14537707865E+02  0.47000000000E+01 0.  1.
         -5    1    5    5    0  503 -0.40717938853E+02 -0.11580875946E+02 -0.58041419712E+03  0.58197491136E+03  0.47000000000E+01 0.  1.
<mgrwt>
<rscale>  0 0.28122170E+03</rscale>
<asrwt>0</asrwt>
<pdfrwt beam="1">  1        2 0.25373855E+00 0.28122170E+03</pdfrwt>
<pdfrwt beam="2">  1       -2 0.18442700E-02 0.28122170E+03</pdfrwt>
<totfact> 0.99028910E+03</totfact>
</mgrwt>
</event>
<event>
 9    1  0.8122655E-001  0.2738817E+03  0.7818608E-02  0.1099078E+00
          1   -1    0    0  501    0  0.00000000000E+00  0.00000000000E+00  0.93015533221E+03  0.93015533221E+03  0.00000000000E+00 0.  1.
         -1   -1    0    0    0  501 -0.00000000000E+00 -0.00000000000E+00 -0.20160933528E+02  0.20160933528E+02  0.00000000000E+00 0.  1.
         35    2    1    2    0    0 -0.35527136788E-14  0.00000000000E+00  0.90999439868E+03  0.95031626574E+03  0.27388172501E+03 0.  0.
         25    2    3    3    0    0 -0.29761210298E+02  0.31279467449E+01  0.29414148737E+03  0.32080826447E+03  0.12451190413E+03 0.  0.
         25    2    3    3    0    0  0.29761210298E+02 -0.31279467449E+01  0.61585291131E+03  0.62950800127E+03  0.12692518112E+03 0.  0.
          5    1    4    4  502    0 -0.50329389226E+02 -0.31562728054E+02  0.65349911308E+02  0.88441812114E+02  0.47000000000E+01 0.  1.
         -5    1    4    4    0  502  0.20568178929E+02  0.34690674799E+02  0.22879157607E+03  0.23236645236E+03  0.47000000000E+01 0.  1.
          5    1    5    5  503    0  0.13502379786E+02 -0.19742016266E+02  0.60106480629E+03  0.60155885234E+03  0.47000000000E+01 0. -1.
         -5    1    5    5    0  503  0.16258830512E+02  0.16614069521E+02  0.14788105014E+02  0.27949148924E+02  0.47000000000E+01 0. -1.
<mgrwt>
<rscale>  0 0.27388173E+03</rscale>
<asrwt>0</asrwt>
<pdfrwt beam="1">  1        1 0.14310079E+00 0.27388173E+03</pdfrwt>
<pdfrwt beam="2">  1       -1 0.31016828E-02 0.27388173E+03</pdfrwt>
<totfact> 0.64853471E+03</totfact>
</mgrwt>
</event>
<event>
 9    1  0.8122655E-001  0.2814770E+03  0.7818608E-02  0.1094885E+00
          2   -1    0    0  501    0  0.00000000000E+00  0.00000000000E+00  0.20815322624E+03  0.20815322624E+03  0.00000000000E+00 0.  1.
         -2   -1    0    0    0  501 -0.00000000000E+00 -0.00000000000E+00 -0.95157397823E+02  0.95157397823E+02  0.00000000000E+00 0.  1.
         35    2    1    2    0    0  0.00000000000E+00  0.00000000000E+00  0.11299582842E+03  0.30331062407E+03  0.28147695719E+03 0.  0.
         25    2    3    3    0    0  0.44676179387E+02  0.43924717695E+02  0.75946743960E+02  0.15845891852E+03  0.12416110145E+03 0.  0.
         25    2    3    3    0    0 -0.44676179387E+02 -0.43924717695E+02  0.37049084459E+02  0.14485170554E+03  0.12523593777E+03 0.  0.
          5    1    4    4  502    0  0.19755826571E+02  0.82197367117E+02  0.74091795763E+02  0.11250948424E+03  0.47000000000E+01 0.  1.
         -5    1    4    4    0  502  0.24920352816E+02 -0.38272649421E+02  0.18549481969E+01  0.45949434284E+02  0.47000000000E+01 0.  1.
          5    1    5    5  503    0 -0.14369014429E+02  0.44158042812E+02  0.14809615069E+02  0.48967499621E+02  0.47000000000E+01 0. -1.
         -5    1    5    5    0  503 -0.30307164958E+02 -0.88082760507E+02  0.22239469391E+02  0.95884205921E+02  0.47000000000E+01 0. -1.
<mgrwt>
<rscale>  0 0.28147696E+03</rscale>
<asrwt>0</asrwt>
<pdfrwt beam="1">  1        2 0.32023573E-01 0.28147696E+03</pdfrwt>
<pdfrwt beam="2">  1       -2 0.14639600E-01 0.28147696E+03</pdfrwt>
<totfact> 0.57797560E+03</totfact>
</mgrwt>
</event>
<event>
 9    1  0.8122655E-001  0.2700096E+03  0.7818608E-02  0.1101274E+00
          1   -1    0    0  501    0  0.00000000000E+00  0.00000000000E+00  0.17441524883E+03  0.17441524883E+03  0.00000000000E+00 0. -1.
         -1   -1    0    0    0  501 -0.00000000000E+00 -0.00000000000E+00 -0.10449943692E+03  0.10449943692E+03  0.00000000000E+00 0. -1.
         35    2    1    2    0    0  0.35527136788E-14 -0.35527136788E-14  0.69915811912E+02  0.27891468575E+03  0.27000959459E+03 0.  0.
         25    2    3    3    0    0  0.61045768211E+01 -0.22840562512E+02  0.79919249011E+02  0.15107339341E+03  0.12600447087E+03 0.  0.
         25    2    3    3    0    0 -0.61045768211E+01  0.22840562512E+02 -0.10003437099E+02  0.12784129234E+03  0.12523725532E+03 0.  0.
          5    1    4    4  502    0 -0.11059661723E+02  0.14257945767E+02  0.10247007051E+03  0.10415282274E+03  0.47000000000E+01 0. -1.
         -5    1    4    4    0  502  0.17164238544E+02 -0.37098508278E+02 -0.22550821499E+02  0.46920570665E+02  0.47000000000E+01 0. -1.
          5    1    5    5  503    0 -0.48988162008E+02  0.24325591846E+02 -0.46011063343E+02  0.71628781823E+02  0.47000000000E+01 0.  1.
         -5    1    5    5    0  503  0.42883585187E+02 -0.14850293342E+01  0.36007626244E+02  0.56212510515E+02  0.47000000000E+01 0.  1.
<mgrwt>
<rscale>  0 0.27000959E+03</rscale>
<asrwt>0</asrwt>
<pdfrwt beam="1">  1        1 0.26833115E-01 0.27000959E+03</pdfrwt>
<pdfrwt beam="2">  1       -1 0.16076836E-01 0.27000959E+03</pdfrwt>
<totfact> 0.49838380E+03</totfact>
</mgrwt>
</event>
<event>
 9    1  0.8122655E-001  0.2792907E+03  0.7818608E-02  0.1096077E+00
         -2   -1    0    0    0  501 -0.00000000000E+00  0.00000000000E+00  0.27970677419E+03  0.27970677419E+03  0.00000000000E+00 0.  1.
          2   -1    0    0  501    0  0.00000000000E+00 -0.00000000000E+00 -0.69718787078E+02  0.69718787078E+02  0.00000000000E+00 0.  1.
         35    2    1    2    0    0  0.00000000000E+00  0.00000000000E+00  0.20998798711E+03  0.34942556127E+03  0.27929065172E+03 0.  0.
         25    2    3    3    0    0 -0.61262841859E+02  0.24148944728E+02  0.94162884147E+02  0.16964620340E+03  0.12480736458E+03 0.  0.
         25    2    3    3    0    0  0.61262841859E+02 -0.24148944728E+02  0.11582510297E+03  0.17977935787E+03  0.12070151496E+03 0.  0.
          5    1    4    4  502    0  0.21127517673E+02 -0.33898286589E+02  0.27047121384E+02  0.48467541838E+02  0.47000000000E+01 0. -1.
         -5    1    4    4    0  502 -0.82390359532E+02  0.58047231318E+02  0.67115762763E+02  0.12117866156E+03  0.47000000000E+01 0. -1.
          5    1    5    5  503    0  0.72828517232E+01 -0.59873447666E+02  0.93070370608E+02  0.11100474562E+03  0.47000000000E+01 0.  1.
         -5    1    5    5    0  503  0.53979990135E+02  0.35724502938E+02  0.22754732359E+02  0.68774612248E+02  0.47000000000E+01 0.  1.
<mgrwt>
<rscale>  0 0.27929065E+03</rscale>
<asrwt>0</asrwt>
<pdfrwt beam="1">  1        2 0.10725967E-01 0.27929065E+03</pdfrwt>
<pdfrwt beam="2">  1       -2 0.43031811E-01 0.27929065E+03</pdfrwt>
<totfact> 0.30255382E+03</totfact>
</mgrwt>
</event>
<event>
 9    1  0.8122655E-001  0.2740706E+03  0.7818608E-02  0.1098972E+00
         -2   -1    0    0    0  501 -0.00000000000E+00  0.00000000000E+00  0.42224642756E+02  0.42224642756E+02  0.00000000000E+00 0.  1.
          2   -1    0    0  501    0  0.00000000000E+00 -0.00000000000E+00 -0.44473265682E+03  0.44473265682E+03  0.00000000000E+00 0.  1.
         35    2    1    2    0    0  0.53290705182E-14 -0.10658141036E-13 -0.40250801406E+03  0.48695729957E+03  0.27407062999E+03 0.  0.
         25    2    3    3    0    0 -0.61503768350E+01  0.29129396224E+02 -0.29665127612E+03  0.32324300133E+03  0.12489079000E+03 0.  0.
         25    2    3    3    0    0  0.61503768350E+01 -0.29129396224E+02 -0.10585673794E+03  0.16371429824E+03  0.12128632908E+03 0.  0.
          5    1    4    4  502    0 -0.61785048048E+02  0.11521953072E+02 -0.20517652601E+03  0.21463840381E+03  0.47000000000E+01 0. -1.
         -5    1    4    4    0  502  0.55634671213E+02  0.17607443152E+02 -0.91474750111E+02  0.10860459752E+03  0.47000000000E+01 0. -1.
          5    1    5    5  503    0  0.14964798217E+02  0.37360335444E+02 -0.27376958629E+01  0.40611880389E+02  0.47000000000E+01 0.  1.
         -5    1    5    5    0  503 -0.88144213818E+01 -0.66489731667E+02 -0.10311904208E+03  0.12310241785E+03  0.47000000000E+01 0.  1.
<mgrwt>
<rscale>  0 0.27407063E+03</rscale>
<asrwt>0</asrwt>
<pdfrwt beam="1">  1        2 0.68420412E-01 0.27407063E+03</pdfrwt>
<pdfrwt beam="2">  1       -2 0.64960986E-02 0.27407063E+03</pdfrwt>
<totfact> 0.92325213E+03</totfact>
</mgrwt>
</event>
<event>
 9    1  0.8122655E-001  0.2713492E+03  0.7818608E-02  0.1100510E+00
          2   -1    0    0  501    0  0.00000000000E+00  0.00000000000E+00  0.13528883316E+03  0.13528883316E+03  0.00000000000E+00 0. -1.
         -2   -1    0    0    0  501 -0.00000000000E+00 -0.00000000000E+00 -0.13606142600E+03  0.13606142600E+03  0.00000000000E+00 0. -1.
         35    2    1    2    0    0  0.35527136788E-14 -0.71054273576E-14 -0.77259283139E+00  0.27135025916E+03  0.27134915929E+03 0.  0.
         25    2    3    3    0    0  0.29263767920E+02 -0.35376702658E+02  0.24805722715E+02  0.13530601116E+03  0.12483794925E+03 0.  0.
         25    2    3    3    0    0 -0.29263767920E+02  0.35376702658E+02 -0.25578315547E+02  0.13604424799E+03  0.12548269993E+03 0.  0.
          5    1    4    4  502    0  0.41657610256E+02 -0.60597898282E+02  0.56377056835E+02  0.92778900111E+02  0.47000000000E+01 0. -1.
         -5    1    4    4    0  502 -0.12393842336E+02  0.25221195624E+02 -0.31571334119E+02  0.42527111054E+02  0.47000000000E+01 0. -1.
          5    1    5    5  503    0 -0.57949717851E+02  0.47538641556E+02  0.22643215202E+02  0.78440406900E+02  0.47000000000E+01 0.  1.
         -5    1    5    5    0  503  0.28685949931E+02 -0.12161938897E+02 -0.48221530748E+02  0.57603841095E+02  0.47000000000E+01 0.  1.
<mgrwt>
<rscale>  0 0.27134916E+03</rscale>
<asrwt>0</asrwt>
<pdfrwt beam="1">  1        2 0.20813667E-01 0.27134916E+03</pdfrwt>
<pdfrwt beam="2">  1       -2 0.20932527E-01 0.27134916E+03</pdfrwt>
<totfact> 0.51117950E+03</totfact>
</mgrwt>
</event>
<event>
 9    1  0.8122655E-001  0.2811296E+03  0.7818608E-02  0.1095074E+00
          2   -1    0    0  501    0  0.00000000000E+00  0.00000000000E+00  0.96726575608E+03  0.96726575608E+03  0.00000000000E+00 0. -1.
         -2   -1    0    0    0  501 -0.00000000000E+00 -0.00000000000E+00 -0.20427130214E+02  0.20427130214E+02  0.00000000000E+00 0. -1.
         35    2    1    2    0    0  0.53290705182E-14  0.71054273576E-14  0.94683862587E+03  0.98769288629E+03  0.28112960392E+03 0.  0.
         25    2    3    3    0    0  0.87439077879E+01  0.59207635364E+02  0.40866377076E+03  0.43196849868E+03  0.12652551645E+03 0.  0.
         25    2    3    3    0    0 -0.87439077879E+01 -0.59207635364E+02  0.53817485511E+03  0.55572438761E+03  0.12496167535E+03 0.  0.
          5    1    4    4  502    0 -0.99300512962E+01 -0.17098546127E+02  0.53058837156E+01  0.21004966089E+02  0.47000000000E+01 0. -1.
         -5    1    4    4    0  502  0.18673959084E+02  0.76306181490E+02  0.40335788704E+03  0.41096353259E+03  0.47000000000E+01 0. -1.
          5    1    5    5  503    0 -0.40003364208E+02 -0.59978739742E+02  0.15242495517E+03  0.16868069044E+03  0.47000000000E+01 0.  1.
         -5    1    5    5    0  503  0.31259456421E+02  0.77110437774E+00  0.38574989994E+03  0.38704369717E+03  0.47000000000E+01 0.  1.
<mgrwt>
<rscale>  0 0.28112960E+03</rscale>
<asrwt>0</asrwt>
<pdfrwt beam="1">  1        2 0.14881008E+00 0.28112960E+03</pdfrwt>
<pdfrwt beam="2">  1       -2 0.31426362E-02 0.28112960E+03</pdfrwt>
<totfact> 0.10854485E+04</totfact>
</mgrwt>
</event>
<event>
 9    1  0.8122655E-001  0.2760149E+03  0.7818608E-02  0.1097886E+00
         -4   -1    0    0    0  501 -0.00000000000E+00  0.00000000000E+00  0.38091358848E+02  0.38091358848E+02  0.00000000000E+00 0. -1.
          4   -1    0    0  501    0  0.00000000000E+00 -0.00000000000E+00 -0.50000975685E+03  0.50000975685E+03  0.00000000000E+00 0. -1.
         35    2    1    2    0    0 -0.17763568394E-14 -0.28421709430E-13 -0.46191839800E+03  0.53810111570E+03  0.27601486247E+03 0.  0.
         25    2    3    3    0    0  0.12664417564E+02  0.62320177749E+02 -0.18627221296E+03  0.22855242545E+03  0.11616661237E+03 0.  0.
         25    2    3    3    0    0 -0.12664417564E+02 -0.62320177749E+02 -0.27564618504E+03  0.30954869024E+03  0.12567967329E+03 0.  0.
          5    1    4    4  502    0 -0.18503237195E+02 -0.25226231129E+02 -0.86603943785E+02  0.92201223434E+02  0.47000000000E+01 0. -1.
         -5    1    4    4    0  502  0.31167654758E+02  0.87546408878E+02 -0.99668269178E+02  0.13635120202E+03  0.47000000000E+01 0. -1.
          5    1    5    5  503    0 -0.24552820890E+01  0.33099204219E+02 -0.27189168585E+02  0.43161633639E+02  0.47000000000E+01 0.  1.
         -5    1    5    5    0  503 -0.10209135475E+02 -0.95419381968E+02 -0.24845701645E+03  0.26638705660E+03  0.47000000000E+01 0.  1.
<mgrwt>
<rscale>  0 0.27601486E+03</rscale>
<asrwt>0</asrwt>
<pdfrwt beam="1">  1        4 0.76924582E-01 0.27601486E+03</pdfrwt>
<pdfrwt beam="2">  1       -4 0.58602088E-02 0.27601486E+03</pdfrwt>
<totfact> 0.53588649E+02</totfact>
</mgrwt>
</event>
<event>
 9    1  0.8122655E-001  0.2758303E+03  0.7818608E-02  0.1097988E+00
         -4   -1    0    0    0  501 -0.00000000000E+00  0.00000000000E+00  0.19729949621E+03  0.19729949621E+03  0.00000000000E+00 0. -1.
          4   -1    0    0  501    0  0.00000000000E+00 -0.00000000000E+00 -0.96404663871E+02  0.96404663871E+02  0.00000000000E+00 0. -1.
         35    2    1    2    0    0  0.71054273576E-14  0.35527136788E-14  0.10089483234E+03  0.29370416008E+03  0.27583032186E+03 0.  0.
         25    2    3    3    0    0 -0.35894900933E+02 -0.62320215137E+01  0.99322105675E+02  0.16368690609E+03  0.12490492603E+03 0.  0.
         25    2    3    3    0    0  0.35894900933E+02  0.62320215137E+01  0.15727266650E+01  0.13001725399E+03  0.12479876145E+03 0.  0.
          5    1    4    4  502    0 -0.77524588326E+02  0.14589942212E+02  0.81778978924E+02  0.11372255538E+03  0.47000000000E+01 0.  1.
         -5    1    4    4    0  502  0.41629687392E+02 -0.20821963726E+02  0.17543126751E+02  0.49964350711E+02  0.47000000000E+01 0.  1.
          5    1    5    5  503    0  0.10884836307E+02  0.43759966851E+02 -0.45797973627E+02  0.64443453885E+02  0.47000000000E+01 0.  1.
         -5    1    5    5    0  503  0.25010064626E+02 -0.37527945337E+02  0.47370700292E+02  0.65573800104E+02  0.47000000000E+01 0.  1.
<mgrwt>
<rscale>  0 0.27583032E+03</rscale>
<asrwt>0</asrwt>
<pdfrwt beam="1">  1        4 0.14831487E-01 0.27583032E+03</pdfrwt>
<pdfrwt beam="2">  1       -4 0.30353769E-01 0.27583032E+03</pdfrwt>
<totfact> 0.74998856E+02</totfact>
</mgrwt>
</event>
<event>
 9    1  0.8122655E-001  0.2831282E+03  0.7818608E-02  0.1093993E+00
         -2   -1    0    0    0  501 -0.00000000000E+00  0.00000000000E+00  0.14933528453E+02  0.14933528453E+02  0.00000000000E+00 0. -1.
          2   -1    0    0  501    0  0.00000000000E+00 -0.00000000000E+00 -0.13419735829E+04  0.13419735829E+04  0.00000000000E+00 0. -1.
         35    2    1    2    0    0  0.17763568394E-14 -0.71054273576E-14 -0.13270400545E+04  0.13569071114E+04  0.28312824432E+03 0.  0.
         25    2    3    3    0    0  0.30451597095E+01 -0.55049256343E+02 -0.84920039126E+03  0.85999645437E+03  0.12414871483E+03 0.  0.
         25    2    3    3    0    0 -0.30451597095E+01  0.55049256343E+02 -0.47783966319E+03  0.49691065699E+03  0.12469869159E+03 0.  0.
          5    1    4    4  502    0  0.14199861283E+02 -0.25750828289E+02 -0.38484113528E+02  0.48660643358E+02  0.47000000000E+01 0. -1.
         -5    1    4    4    0  502 -0.11154701574E+02 -0.29298428054E+02 -0.81071627773E+03  0.81133581102E+03  0.47000000000E+01 0. -1.
          5    1    5    5  503    0  0.59138150842E+02  0.39471208626E+02 -0.22406299017E+03  0.23512041757E+03  0.47000000000E+01 0.  1.
         -5    1    5    5    0  503 -0.62183310552E+02  0.15578047717E+02 -0.25377667303E+03  0.26179023942E+03  0.47000000000E+01 0.  1.
<mgrwt>
<rscale>  0 0.28312824E+03</rscale>
<asrwt>0</asrwt>
<pdfrwt beam="1">  1        2 0.20645752E+00 0.28312824E+03</pdfrwt>
<pdfrwt beam="2">  1       -2 0.22974654E-02 0.28312824E+03</pdfrwt>
<totfact> 0.10478027E+04</totfact>
</mgrwt>
</event>
<event>
 9    1  0.8122655E-001  0.2932196E+03  0.7818608E-02  0.1088680E+00
         -2   -1    0    0    0  501 -0.00000000000E+00  0.00000000000E+00  0.36152857054E+02  0.36152857054E+02  0.00000000000E+00 0.  1.
          2   -1    0    0  501    0  0.00000000000E+00 -0.00000000000E+00 -0.59454315736E+03  0.59454315736E+03  0.00000000000E+00 0.  1.
         35    2    1    2    0    0  0.00000000000E+00  0.00000000000E+00 -0.55839030031E+03  0.63069601441E+03  0.29321960221E+03 0.  0.
         25    2    3    3    0    0 -0.64552563121E+02 -0.38544098364E+02 -0.22852923276E+03  0.27029966858E+03  0.12322183121E+03 0.  0.
         25    2    3    3    0    0  0.64552563121E+02  0.38544098364E+02 -0.32986106755E+03  0.36039634583E+03  0.12419549621E+03 0.  0.
          5    1    4    4  502    0 -0.45479025204E+02  0.40806989627E+02 -0.11625230929E+03  0.13141629104E+03  0.47000000000E+01 0.  1.
         -5    1    4    4    0  502 -0.19073537917E+02 -0.79351087991E+02 -0.11227692346E+03  0.13888337754E+03  0.47000000000E+01 0.  1.
          5    1    5    5  503    0  0.65215371466E+02  0.24936885336E+01 -0.31396721137E+03  0.32071289805E+03  0.47000000000E+01 0. -1.
         -5    1    5    5    0  503 -0.66280834444E+00  0.36050409831E+02 -0.15893856179E+02  0.39683447785E+02  0.47000000000E+01 0. -1.
<mgrwt>
<rscale>  0 0.29321960E+03</rscale>
<asrwt>0</asrwt>
<pdfrwt beam="1">  1        2 0.91468180E-01 0.29321960E+03</pdfrwt>
<pdfrwt beam="2">  1       -2 0.55619779E-02 0.29321960E+03</pdfrwt>
<totfact> 0.84678126E+03</totfact>
</mgrwt>
</event>
<event>
 9    1  0.8122655E-001  0.2736224E+03  0.7818608E-02  0.1099224E+00
          3   -1    0    0  501    0  0.00000000000E+00  0.00000000000E+00  0.22169700587E+03  0.22169700587E+03  0.00000000000E+00 0. -1.
         -3   -1    0    0    0  501 -0.00000000000E+00 -0.00000000000E+00 -0.84427414595E+02  0.84427414595E+02  0.00000000000E+00 0. -1.
         35    2    1    2    0    0  0.00000000000E+00  0.00000000000E+00  0.13726959128E+03  0.30612442047E+03  0.27362240427E+03 0.  0.
         25    2    3    3    0    0 -0.11526101271E+01 -0.53849908187E+02  0.89087342666E+02  0.16244976692E+03  0.12470858442E+03 0.  0.
         25    2    3    3    0    0  0.11526101271E+01  0.53849908187E+02  0.48182248613E+02  0.14367465354E+03  0.12417622908E+03 0.  0.
          5    1    4    4  502    0 -0.10122713513E+02  0.39949285645E+02  0.25929122059E+02  0.48916501542E+02  0.47000000000E+01 0.  1.
         -5    1    4    4    0  502  0.89701033860E+01 -0.93799193831E+02  0.63158220607E+02  0.11353326538E+03  0.47000000000E+01 0.  1.
          5    1    5    5  503    0 -0.87240123947E+01  0.81303925968E+02 -0.58229358989E+01  0.82112321563E+02  0.47000000000E+01 0.  1.
         -5    1    5    5    0  503  0.98766225218E+01 -0.27454017781E+02  0.54005184512E+02  0.61562331981E+02  0.47000000000E+01 0.  1.
<mgrwt>
<rscale>  0 0.27362240E+03</rscale>
<asrwt>0</asrwt>
<pdfrwt beam="1">  1        3 0.34107232E-01 0.27362240E+03</pdfrwt>
<pdfrwt beam="2">  1       -3 0.12988833E-01 0.27362240E+03</pdfrwt>
<totfact> 0.10184445E+03</totfact>
</mgrwt>
</event>
<event>
 9    1  0.8122655E-001  0.2782336E+03  0.7818608E-02  0.1096658E+00
          2   -1    0    0  501    0  0.00000000000E+00  0.00000000000E+00  0.16514294733E+03  0.16514294733E+03  0.00000000000E+00 0.  1.
         -2   -1    0    0    0  501 -0.00000000000E+00 -0.00000000000E+00 -0.11719230608E+03  0.11719230608E+03  0.00000000000E+00 0.  1.
         35    2    1    2    0    0 -0.71054273576E-14  0.00000000000E+00  0.47950641258E+02  0.28233525341E+03  0.27823359129E+03 0.  0.
         25    2    3    3    0    0  0.34252898163E+02 -0.40691244407E+02 -0.32920655542E+01  0.13625534803E+03  0.12540192888E+03 0.  0.
         25    2    3    3    0    0 -0.34252898163E+02  0.40691244407E+02  0.51242706812E+02  0.14607990538E+03  0.12603366752E+03 0.  0.
          5    1    4    4  502    0  0.39098213633E+02 -0.62624745173E+01 -0.58527260337E+02  0.70819623685E+02  0.47000000000E+01 0. -1.
         -5    1    4    4    0  502 -0.48453154697E+01 -0.34428769890E+02  0.55235194782E+02  0.65435724347E+02  0.47000000000E+01 0. -1.
          5    1    5    5  503    0 -0.67358623966E+01 -0.21079900906E+02 -0.31710110950E+02  0.38953243779E+02  0.47000000000E+01 0.  1.
         -5    1    5    5    0  503 -0.27517035766E+02  0.61771145313E+02  0.82952817762E+02  0.10712666160E+03  0.47000000000E+01 0.  1.
<mgrwt>
<rscale>  0 0.27823359E+03</rscale>
<asrwt>0</asrwt>
<pdfrwt beam="1">  1        2 0.25406607E-01 0.27823359E+03</pdfrwt>
<pdfrwt beam="2">  1       -2 0.18029586E-01 0.27823359E+03</pdfrwt>
<totfact> 0.52699471E+03</totfact>
</mgrwt>
</event>
<event>
 9    1  0.8122655E-001  0.2696552E+03  0.7818608E-02  0.1101477E+00
         -1   -1    0    0    0  501 -0.00000000000E+00  0.00000000000E+00  0.73160472327E+02  0.73160472327E+02  0.00000000000E+00 0. -1.
          1   -1    0    0  501    0  0.00000000000E+00 -0.00000000000E+00 -0.24847404146E+03  0.24847404146E+03  0.00000000000E+00 0. -1.
         35    2    1    2    0    0  0.00000000000E+00  0.71054273576E-14 -0.17531356914E+03  0.32163451379E+03  0.26965517414E+03 0.  0.
         25    2    3    3    0    0  0.74652665262E+01 -0.40230461726E+02 -0.12589238555E+03  0.18185155737E+03  0.12468711210E+03 0.  0.
         25    2    3    3    0    0 -0.74652665262E+01  0.40230461726E+02 -0.49421183581E+02  0.13978295642E+03  0.12418776616E+03 0.  0.
          5    1    4    4  502    0  0.49586407397E+02 -0.21500861334E+00 -0.11104161552E+03  0.12170122598E+03  0.47000000000E+01 0.  1.
         -5    1    4    4    0  502 -0.42121140870E+02 -0.40015453112E+02 -0.14850770033E+02  0.60150331392E+02  0.47000000000E+01 0.  1.
          5    1    5    5  503    0  0.48182235579E+02  0.51461698675E+02 -0.12100571707E+02  0.71682271807E+02  0.47000000000E+01 0. -1.
         -5    1    5    5    0  503 -0.55647502105E+02 -0.11231236949E+02 -0.37320611875E+02  0.68100684612E+02  0.47000000000E+01 0. -1.
<mgrwt>
<rscale>  0 0.26965517E+03</rscale>
<asrwt>0</asrwt>
<pdfrwt beam="1">  1        1 0.38226777E-01 0.26965517E+03</pdfrwt>
<pdfrwt beam="2">  1       -1 0.11255457E-01 0.26965517E+03</pdfrwt>
<totfact> 0.55936255E+03</totfact>
</mgrwt>
</event>
<event>
 9    1  0.8122655E-001  0.2689516E+03  0.7818608E-02  0.1101881E+00
          1   -1    0    0  501    0  0.00000000000E+00  0.00000000000E+00  0.95496868930E+03  0.95496868930E+03  0.00000000000E+00 0. -1.
         -1   -1    0    0    0  501 -0.00000000000E+00 -0.00000000000E+00 -0.18936477360E+02  0.18936477360E+02  0.00000000000E+00 0. -1.
         35    2    1    2    0    0  0.00000000000E+00  0.00000000000E+00  0.93603221194E+03  0.97390516666E+03  0.26895161621E+03 0.  0.
         25    2    3    3    0    0 -0.24907877581E+02 -0.44195713577E+02  0.51367400044E+03  0.53102420496E+03  0.12470791500E+03 0.  0.
         25    2    3    3    0    0  0.24907877581E+02  0.44195713577E+02  0.42235821150E+03  0.44288096170E+03  0.12322103696E+03 0.  0.
          5    1    4    4  502    0  0.49803448156E+02 -0.23512807607E+02  0.25605422734E+03  0.26195246307E+03  0.47000000000E+01 0. -1.
         -5    1    4    4    0  502 -0.74711325737E+02 -0.20682905969E+02  0.25761977310E+03  0.26907174189E+03  0.47000000000E+01 0. -1.
          5    1    5    5  503    0  0.30194426022E+02  0.57672593006E+02  0.42264782681E+03  0.42765769823E+03  0.47000000000E+01 0. -1.
         -5    1    5    5    0  503 -0.52865484413E+01 -0.13476879430E+02 -0.28961531241E+00  0.15223263468E+02  0.47000000000E+01 0. -1.
<mgrwt>
<rscale>  0 0.26895162E+03</rscale>
<asrwt>0</asrwt>
<pdfrwt beam="1">  1        1 0.14691822E+00 0.26895162E+03</pdfrwt>
<pdfrwt beam="2">  1       -1 0.29133050E-02 0.26895162E+03</pdfrwt>
<totfact> 0.68050150E+03</totfact>
</mgrwt>
</event>
<event>
 9    1  0.8122655E-001  0.2737788E+03  0.7818608E-02  0.1099136E+00
          1   -1    0    0  501    0  0.00000000000E+00  0.00000000000E+00  0.81076402411E+03  0.81076402411E+03  0.00000000000E+00 0.  1.
         -1   -1    0    0    0  501 -0.00000000000E+00 -0.00000000000E+00 -0.23112409831E+02  0.23112409831E+02  0.00000000000E+00 0.  1.
         35    2    1    2    0    0  0.71054273576E-14  0.00000000000E+00  0.78765161428E+03  0.83387643395E+03  0.27377881877E+03 0.  0.
         25    2    3    3    0    0  0.23628716329E+02  0.44063515532E+02  0.31919978070E+03  0.34643023743E+03  0.12500199907E+03 0.  0.
         25    2    3    3    0    0 -0.23628716329E+02 -0.44063515532E+02  0.46845183358E+03  0.48744619651E+03  0.12512699339E+03 0.  0.
          5    1    4    4  502    0 -0.51213776840E+02  0.10746841347E+02  0.12087706689E+03  0.13180174823E+03  0.47000000000E+01 0.  1.
         -5    1    4    4    0  502  0.74842493169E+02  0.33316674185E+02  0.19832271382E+03  0.21462848920E+03  0.47000000000E+01 0.  1.
          5    1    5    5  503    0  0.15244627945E+02  0.25703639269E+02  0.33253045047E+02  0.44954763461E+02  0.47000000000E+01 0. -1.
         -5    1    5    5    0  503 -0.38873344274E+02 -0.69767154801E+02  0.43519878853E+03  0.44249143305E+03  0.47000000000E+01 0. -1.
<mgrwt>
<rscale>  0 0.27377882E+03</rscale>
<asrwt>0</asrwt>
<pdfrwt beam="1">  1        1 0.12473291E+00 0.27377882E+03</pdfrwt>
<pdfrwt beam="2">  1       -1 0.35557560E-02 0.27377882E+03</pdfrwt>
<totfact> 0.66012838E+03</totfact>
</mgrwt>
</event>
<event>
 9    1  0.8122655E-001  0.2747178E+03  0.7818608E-02  0.1098609E+00
         -2   -1    0    0    0  501 -0.00000000000E+00  0.00000000000E+00  0.56050718327E+02  0.56050718327E+02  0.00000000000E+00 0.  1.
          2   -1    0    0  501    0  0.00000000000E+00 -0.00000000000E+00 -0.33661420265E+03  0.33661420265E+03  0.00000000000E+00 0.  1.
         35    2    1    2    0    0  0.14210854715E-13  0.00000000000E+00 -0.28056348433E+03  0.39266492098E+03  0.27471780327E+03 0.  0.
         25    2    3    3    0    0  0.55270825793E+02  0.14558757882E+02 -0.14100013812E+03  0.19698353970E+03  0.12511856117E+03 0.  0.
         25    2    3    3    0    0 -0.55270825793E+02 -0.14558757882E+02 -0.13956334621E+03  0.19568138128E+03  0.12468541920E+03 0.  0.
          5    1    4    4  502    0  0.16175951436E+01 -0.12884387407E+02  0.20400317864E+02  0.24635077062E+02  0.47000000000E+01 0. -1.
         -5    1    4    4    0  502  0.53653230650E+02  0.27443145289E+02 -0.16140045598E+03  0.17234846264E+03  0.47000000000E+01 0. -1.
          5    1    5    5  503    0 -0.59778728977E+02  0.29694625774E+02 -0.22877408915E+02  0.70715861563E+02  0.47000000000E+01 0. -1.
         -5    1    5    5    0  503  0.45079031834E+01 -0.44253383657E+02 -0.11668593730E+03  0.12496551972E+03  0.47000000000E+01 0. -1.
<mgrwt>
<rscale>  0 0.27471780E+03</rscale>
<asrwt>0</asrwt>
<pdfrwt beam="1">  1        2 0.51786800E-01 0.27471780E+03</pdfrwt>
<pdfrwt beam="2">  1       -2 0.86231875E-02 0.27471780E+03</pdfrwt>
<totfact> 0.80420090E+03</totfact>
</mgrwt>
</event>
<event>
 9    1  0.8122655E-001  0.2727193E+03  0.7818608E-02  0.1099733E+00
          2   -1    0    0  501    0  0.00000000000E+00  0.00000000000E+00  0.15454129207E+04  0.15454129207E+04  0.00000000000E+00 0. -1.
         -2   -1    0    0    0  501 -0.00000000000E+00 -0.00000000000E+00 -0.12031702520E+02  0.12031702520E+02  0.00000000000E+00 0. -1.
         35    2    1    2    0    0 -0.14210854715E-13  0.00000000000E+00  0.15333812182E+04  0.15574446233E+04  0.27271925882E+03 0.  0.
         25    2    3    3    0    0  0.44906908211E+02  0.60947328680E+01  0.98012679639E+03  0.98880869669E+03  0.12263900468E+03 0.  0.
         25    2    3    3    0    0 -0.44906908211E+02 -0.60947328680E+01  0.55325442182E+03  0.56863592656E+03  0.12329876537E+03 0.  0.
          5    1    4    4  502    0 -0.22094669942E+02 -0.42093030581E+02  0.39232693496E+03  0.39522463431E+03  0.47000000000E+01 0.  1.
         -5    1    4    4    0  502  0.67001578154E+02  0.48187763449E+02  0.58779986143E+03  0.59358406238E+03  0.47000000000E+01 0.  1.
          5    1    5    5  503    0  0.27198196912E+02  0.21493968175E+02  0.60812691162E+02  0.70157009554E+02  0.47000000000E+01 0.  1.
         -5    1    5    5    0  503 -0.72105105123E+02 -0.27588701042E+02  0.49244173066E+03  0.49847891701E+03  0.47000000000E+01 0.  1.
<mgrwt>
<rscale>  0 0.27271926E+03</rscale>
<asrwt>0</asrwt>
<pdfrwt beam="1">  1        2 0.23775568E+00 0.27271926E+03</pdfrwt>
<pdfrwt beam="2">  1       -2 0.18510324E-02 0.27271926E+03</pdfrwt>
<totfact> 0.11175787E+04</totfact>
</mgrwt>
</event>
<event>
 9    1  0.8122655E-001  0.2752973E+03  0.7818608E-02  0.1098286E+00
          2   -1    0    0  501    0  0.00000000000E+00  0.00000000000E+00  0.23955697094E+02  0.23955697094E+02  0.00000000000E+00 0. -1.
         -2   -1    0    0    0  501 -0.00000000000E+00 -0.00000000000E+00 -0.79092474692E+03  0.79092474692E+03  0.00000000000E+00 0. -1.
         35    2    1    2    0    0  0.00000000000E+00 -0.26645352591E-14 -0.76696904982E+03  0.81488044401E+03  0.27529732045E+03 0.  0.
         25    2    3    3    0    0 -0.26236488427E+02 -0.55942375295E+01 -0.53525828423E+03  0.55030968923E+03  0.12497869580E+03 0.  0.
         25    2    3    3    0    0  0.26236488427E+02  0.55942375295E+01 -0.23171076559E+03  0.26457075478E+03  0.12485253933E+03 0.  0.
          5    1    4    4  502    0  0.15226436895E+01 -0.39390781720E+02 -0.53880966529E+02  0.66926830812E+02  0.47000000000E+01 0. -1.
         -5    1    4    4    0  502 -0.27759132116E+02  0.33796544191E+02 -0.48137731770E+03  0.48338285842E+03  0.47000000000E+01 0. -1.
          5    1    5    5  503    0  0.21493106546E+02  0.21296957105E+01  0.89102587436E+01  0.23832161960E+02  0.47000000000E+01 0.  1.
         -5    1    5    5    0  503  0.47433818812E+01  0.34645418190E+01 -0.24062102433E+03  0.24073859282E+03  0.47000000000E+01 0.  1.
<mgrwt>
<rscale>  0 0.27529732E+03</rscale>
<asrwt>0</asrwt>
<pdfrwt beam="1">  1        2 0.36854910E-02 0.27529732E+03</pdfrwt>
<pdfrwt beam="2">  1       -2 0.12168076E+00 0.27529732E+03</pdfrwt>
<totfact> 0.12707098E+03</totfact>
</mgrwt>
</event>
<event>
 9    1  0.8122655E-001  0.2746784E+03  0.7818608E-02  0.1098631E+00
         -1   -1    0    0    0  501 -0.00000000000E+00  0.00000000000E+00  0.99758735992E+01  0.99758735992E+01  0.00000000000E+00 0.  1.
          1   -1    0    0  501    0  0.00000000000E+00 -0.00000000000E+00 -0.18907679871E+04  0.18907679871E+04  0.00000000000E+00 0.  1.
         35    2    1    2    0    0  0.00000000000E+00  0.00000000000E+00 -0.18807921135E+04  0.19007438607E+04  0.27467844797E+03 0.  0.
         25    2    3    3    0    0 -0.40748318583E+02  0.10070226127E+02 -0.11977414963E+04  0.12049508852E+04  0.12474016535E+03 0.  0.
         25    2    3    3    0    0  0.40748318583E+02 -0.10070226127E+02 -0.68305061718E+03  0.69579297548E+03  0.12572940858E+03 0.  0.
          5    1    4    4  502    0 -0.10378104454E+02  0.25618943869E+02 -0.11146718771E+04  0.11150244477E+04  0.47000000000E+01 0.  1.
         -5    1    4    4    0  502 -0.30370214129E+02 -0.15548717742E+02 -0.83069619237E+02  0.89926437547E+02  0.47000000000E+01 0.  1.
          5    1    5    5  503    0  0.73721632868E+02  0.14080091718E+02 -0.57966010100E+03  0.58451779342E+03  0.47000000000E+01 0. -1.
         -5    1    5    5    0  503 -0.32973314284E+02 -0.24150317845E+02 -0.10339051618E+03  0.11127518206E+03  0.47000000000E+01 0. -1.
<mgrwt>
<rscale>  0 0.27467845E+03</rscale>
<asrwt>0</asrwt>
<pdfrwt beam="1">  1        1 0.29088708E+00 0.27467845E+03</pdfrwt>
<pdfrwt beam="2">  1       -1 0.15347514E-02 0.27467845E+03</pdfrwt>
<totfact> 0.40100047E+03</totfact>
</mgrwt>
</event>
<event>
 9    1  0.8122655E-001  0.2749001E+03  0.7818608E-02  0.1098507E+00
         -1   -1    0    0    0  501 -0.00000000000E+00  0.00000000000E+00  0.26201393773E+02  0.26201393773E+02  0.00000000000E+00 0.  1.
          1   -1    0    0  501    0  0.00000000000E+00 -0.00000000000E+00 -0.72105001163E+03  0.72105001163E+03  0.00000000000E+00 0.  1.
         35    2    1    2    0    0 -0.71054273576E-14  0.00000000000E+00 -0.69484861786E+03  0.74725140541E+03  0.27490009301E+03 0.  0.
         25    2    3    3    0    0 -0.46071890811E+02 -0.35706266126E+02 -0.32651459957E+03  0.35409504979E+03  0.12399179000E+03 0.  0.
         25    2    3    3    0    0  0.46071890811E+02  0.35706266126E+02 -0.36833401829E+03  0.39315635562E+03  0.12451672326E+03 0.  0.
          5    1    4    4  502    0 -0.54535728201E+02  0.10132796069E+02 -0.53907724360E+02  0.77491625046E+02  0.47000000000E+01 0.  1.
         -5    1    4    4    0  502  0.84638373899E+01 -0.45839062195E+02 -0.27260687521E+03  0.27660342474E+03  0.47000000000E+01 0.  1.
          5    1    5    5  503    0  0.46655404492E+01  0.60741977606E+02 -0.31548859928E+03  0.32135105631E+03  0.47000000000E+01 0.  1.
         -5    1    5    5    0  503  0.41406350362E+02 -0.25035711480E+02 -0.52845419008E+02  0.71805299315E+02  0.47000000000E+01 0.  1.
<mgrwt>
<rscale>  0 0.27490009E+03</rscale>
<asrwt>0</asrwt>
<pdfrwt beam="1">  1        1 0.11093076E+00 0.27490009E+03</pdfrwt>
<pdfrwt beam="2">  1       -1 0.40309841E-02 0.27490009E+03</pdfrwt>
<totfact> 0.65422503E+03</totfact>
</mgrwt>
</event>
<event>
 9    1  0.8122655E-001  0.2751071E+03  0.7818608E-02  0.1098392E+00
         -1   -1    0    0    0  501 -0.00000000000E+00  0.00000000000E+00  0.24535481981E+02  0.24535481981E+02  0.00000000000E+00 0.  1.
          1   -1    0    0  501    0  0.00000000000E+00 -0.00000000000E+00 -0.77116825680E+03  0.77116825680E+03  0.00000000000E+00 0.  1.
         35    2    1    2    0    0  0.71054273576E-14  0.00000000000E+00 -0.74663277482E+03  0.79570373878E+03  0.27510714181E+03 0.  0.
         25    2    3    3    0    0  0.48527637240E+02  0.26932994728E+02 -0.32781310551E+03  0.35515313341E+03  0.12486792321E+03 0.  0.
         25    2    3    3    0    0 -0.48527637240E+02 -0.26932994728E+02 -0.41881966931E+03  0.44055060537E+03  0.12487835165E+03 0.  0.
          5    1    4    4  502    0  0.18049740441E+02  0.73066801522E+02 -0.23719927295E+03  0.24889784190E+03  0.47000000000E+01 0.  1.
         -5    1    4    4    0  502  0.30477896799E+02 -0.46133806794E+02 -0.90613832561E+02  0.10625529151E+03  0.47000000000E+01 0.  1.
          5    1    5    5  503    0 -0.66399036035E+02 -0.65789662792E+02 -0.28200311844E+03  0.29712785216E+03  0.47000000000E+01 0.  1.
         -5    1    5    5    0  503  0.17871398795E+02  0.38856668065E+02 -0.13681655086E+03  0.14342275321E+03  0.47000000000E+01 0.  1.
<mgrwt>
<rscale>  0 0.27510714E+03</rscale>
<asrwt>0</asrwt>
<pdfrwt beam="1">  1        1 0.11864125E+00 0.27510714E+03</pdfrwt>
<pdfrwt beam="2">  1       -1 0.37746903E-02 0.27510714E+03</pdfrwt>
<totfact> 0.65239784E+03</totfact>
</mgrwt>
</event>
<event>
 9    1  0.8122655E-001  0.2747965E+03  0.7818608E-02  0.1098565E+00
         -1   -1    0    0    0  501 -0.00000000000E+00  0.00000000000E+00  0.15926841248E+02  0.15926841248E+02  0.00000000000E+00 0. -1.
          1   -1    0    0  501    0  0.00000000000E+00 -0.00000000000E+00 -0.11853118743E+04  0.11853118743E+04  0.00000000000E+00 0. -1.
         35    2    1    2    0    0  0.35527136788E-14  0.14210854715E-13 -0.11693850330E+04  0.12012387155E+04  0.27479646323E+03 0.  0.
         25    2    3    3    0    0 -0.15015090562E+01  0.50135542952E+02 -0.52536277081E+03  0.54232746900E+03  0.12488881249E+03 0.  0.
         25    2    3    3    0    0  0.15015090562E+01 -0.50135542952E+02 -0.64402226224E+03  0.65891124654E+03  0.12993663596E+03 0.  0.
          5    1    4    4  502    0 -0.56248375762E+02 -0.49833764363E+01 -0.23126761070E+03  0.23810819300E+03  0.47000000000E+01 0. -1.
         -5    1    4    4    0  502  0.54746866706E+02  0.55118919389E+02 -0.29409516011E+03  0.30421927600E+03  0.47000000000E+01 0. -1.
          5    1    5    5  503    0 -0.16766398883E+02 -0.76662590008E+02 -0.59433362528E+03  0.59951047779E+03  0.47000000000E+01 0.  1.
         -5    1    5    5    0  503  0.18267907939E+02  0.26527047055E+02 -0.49688636957E+02  0.59400768755E+02  0.47000000000E+01 0.  1.
<mgrwt>
<rscale>  0 0.27479646E+03</rscale>
<asrwt>0</asrwt>
<pdfrwt beam="1">  1        1 0.18235569E+00 0.27479646E+03</pdfrwt>
<pdfrwt beam="2">  1       -1 0.24502831E-02 0.27479646E+03</pdfrwt>
<totfact> 0.59636788E+03</totfact>
</mgrwt>
</event>
<event>
 9    1  0.8122655E-001  0.2768465E+03  0.7818608E-02  0.1097424E+00
         -2   -1    0    0    0  501 -0.00000000000E+00  0.00000000000E+00  0.15642109439E+02  0.15642109439E+02  0.00000000000E+00 0. -1.
          2   -1    0    0  501    0  0.00000000000E+00 -0.00000000000E+00 -0.12249624670E+04  0.12249624670E+04  0.00000000000E+00 0. -1.
         35    2    1    2    0    0  0.71054273576E-14  0.00000000000E+00 -0.12093203576E+04  0.12406045765E+04  0.27684650598E+03 0.  0.
         25    2    3    3    0    0  0.45449242606E+02  0.11329146124E+02 -0.44871184074E+03  0.46836252904E+03  0.12580603876E+03 0.  0.
         25    2    3    3    0    0 -0.45449242606E+02 -0.11329146124E+02 -0.76060851686E+03  0.77224204743E+03  0.12505391117E+03 0.  0.
          5    1    4    4  502    0 -0.39567892483E+02  0.15481495655E+02 -0.22360545107E+03  0.22765496387E+03  0.47000000000E+01 0. -1.
         -5    1    4    4    0  502  0.85017135089E+02 -0.41523495315E+01 -0.22510638966E+03  0.24070756517E+03  0.47000000000E+01 0. -1.
          5    1    5    5  503    0 -0.31650227331E+02  0.48140422072E+02 -0.19665879353E+03  0.20497806761E+03  0.47000000000E+01 0.  1.
         -5    1    5    5    0  503 -0.13799015275E+02 -0.59469568196E+02 -0.56394972333E+03  0.56726397983E+03  0.47000000000E+01 0.  1.
<mgrwt>
<rscale>  0 0.27684651E+03</rscale>
<asrwt>0</asrwt>
<pdfrwt beam="1">  1        2 0.18845569E+00 0.27684651E+03</pdfrwt>
<pdfrwt beam="2">  1       -2 0.24064794E-02 0.27684651E+03</pdfrwt>
<totfact> 0.11360805E+04</totfact>
</mgrwt>
</event>
<event>
 9    1  0.8122655E-001  0.2682576E+03  0.7818608E-02  0.1102281E+00
          2   -1    0    0  501    0  0.00000000000E+00  0.00000000000E+00  0.94628487241E+02  0.94628487241E+02  0.00000000000E+00 0. -1.
         -2   -1    0    0    0  501 -0.00000000000E+00 -0.00000000000E+00 -0.19011749857E+03  0.19011749857E+03  0.00000000000E+00 0. -1.
         35    2    1    2    0    0 -0.71054273576E-14  0.00000000000E+00 -0.95489011325E+02  0.28474598581E+03  0.26825757240E+03 0.  0.
         25    2    3    3    0    0  0.40383168729E+02 -0.17912378924E+02 -0.24368002865E+02  0.13485635789E+03  0.12506312033E+03 0.  0.
         25    2    3    3    0    0 -0.40383168729E+02  0.17912378924E+02 -0.71121008460E+02  0.14988962791E+03  0.12432638126E+03 0.  0.
          5    1    4    4  502    0 -0.98484817933E+01 -0.93172184138E+01 -0.66832236269E+02  0.68355255521E+02  0.47000000000E+01 0.  1.
         -5    1    4    4    0  502  0.50231650523E+02 -0.85951605101E+01  0.42464233404E+02  0.66501102374E+02  0.47000000000E+01 0.  1.
          5    1    5    5  503    0 -0.77232660616E+02  0.12337974661E+02 -0.11174037657E+02  0.79145805966E+02  0.47000000000E+01 0.  1.
         -5    1    5    5    0  503  0.36849491886E+02  0.55744042628E+01 -0.59946970803E+02  0.70743821947E+02  0.47000000000E+01 0.  1.
<mgrwt>
<rscale>  0 0.26825757E+03</rscale>
<asrwt>0</asrwt>
<pdfrwt beam="1">  1        2 0.14558229E-01 0.26825757E+03</pdfrwt>
<pdfrwt beam="2">  1       -2 0.29248845E-01 0.26825757E+03</pdfrwt>
<totfact> 0.42962052E+03</totfact>
</mgrwt>
</event>
<event>
 9    1  0.8122655E-001  0.2763374E+03  0.7818608E-02  0.1097706E+00
         -1   -1    0    0    0  501 -0.00000000000E+00  0.00000000000E+00  0.31305460568E+02  0.31305460568E+02  0.00000000000E+00 0.  1.
          1   -1    0    0  501    0  0.00000000000E+00 -0.00000000000E+00 -0.60981653040E+03  0.60981653040E+03  0.00000000000E+00 0.  1.
         35    2    1    2    0    0  0.71054273576E-14  0.00000000000E+00 -0.57851106984E+03  0.64112199097E+03  0.27633738326E+03 0.  0.
         25    2    3    3    0    0  0.99326854002E+01  0.60832735316E+02 -0.27143103906E+03  0.30458834781E+03  0.12369305854E+03 0.  0.
         25    2    3    3    0    0 -0.99326854002E+01 -0.60832735316E+02 -0.30708003078E+03  0.33653364317E+03  0.12311566818E+03 0.  0.
          5    1    4    4  502    0  0.64327965728E+02  0.26210992816E+02 -0.10442935815E+03  0.12550969748E+03  0.47000000000E+01 0.  1.
         -5    1    4    4    0  502 -0.54395280327E+02  0.34621742500E+02 -0.16700168091E+03  0.17907865033E+03  0.47000000000E+01 0.  1.
          5    1    5    5  503    0 -0.13037033346E+01 -0.95664470374E+02 -0.26045466829E+03  0.27751056695E+03  0.47000000000E+01 0.  1.
         -5    1    5    5    0  503 -0.86289820657E+01  0.34831735058E+02 -0.46625362490E+02  0.59023076216E+02  0.47000000000E+01 0.  1.
<mgrwt>
<rscale>  0 0.27633738E+03</rscale>
<asrwt>0</asrwt>
<pdfrwt beam="1">  1        1 0.93817923E-01 0.27633738E+03</pdfrwt>
<pdfrwt beam="2">  1       -1 0.48162250E-02 0.27633738E+03</pdfrwt>
<totfact> 0.63794897E+03</totfact>
</mgrwt>
</event>
<event>
 9    1  0.8122655E-001  0.2743285E+03  0.7818608E-02  0.1098828E+00
         -1   -1    0    0    0  501 -0.00000000000E+00  0.00000000000E+00  0.10212989733E+02  0.10212989733E+02  0.00000000000E+00 0.  1.
          1   -1    0    0  501    0  0.00000000000E+00 -0.00000000000E+00 -0.18421664760E+04  0.18421664760E+04  0.00000000000E+00 0.  1.
         35    2    1    2    0    0  0.00000000000E+00  0.00000000000E+00 -0.18319534863E+04  0.18523794658E+04  0.27432846959E+03 0.  0.
         25    2    3    3    0    0  0.27322090174E+02  0.34682123395E+02 -0.71412784603E+03  0.72675921636E+03  0.12747953484E+03 0.  0.
         25    2    3    3    0    0 -0.27322090174E+02 -0.34682123395E+02 -0.11178256403E+04  0.11256202494E+04  0.12464925801E+03 0.  0.
          5    1    4    4  502    0  0.17966762066E+02 -0.23333414154E+02 -0.57349480536E+03  0.57426965315E+03  0.47000000000E+01 0. -1.
         -5    1    4    4    0  502  0.93553281081E+01  0.58015537550E+02 -0.14063304067E+03  0.15248956321E+03  0.47000000000E+01 0. -1.
          5    1    5    5  503    0 -0.61295946549E+02 -0.28088373886E+01 -0.28931439510E+03  0.29578707180E+03  0.47000000000E+01 0. -1.
         -5    1    5    5    0  503  0.33973856375E+02 -0.31873286007E+02 -0.82851124517E+03  0.82983317760E+03  0.47000000000E+01 0. -1.
<mgrwt>
<rscale>  0 0.27432847E+03</rscale>
<asrwt>0</asrwt>
<pdfrwt beam="1">  1        1 0.28340998E+00 0.27432847E+03</pdfrwt>
<pdfrwt beam="2">  1       -1 0.15712306E-02 0.27432847E+03</pdfrwt>
<totfact> 0.41671820E+03</totfact>
</mgrwt>
</event>
<event>
 9    1  0.8122655E-001  0.2794238E+03  0.7818608E-02  0.1096004E+00
         -1   -1    0    0    0  501 -0.00000000000E+00  0.00000000000E+00  0.15471985329E+02  0.15471985329E+02  0.00000000000E+00 0.  1.
          1   -1    0    0  501    0  0.00000000000E+00 -0.00000000000E+00 -0.12615974200E+04  0.12615974200E+04  0.00000000000E+00 0.  1.
         35    2    1    2    0    0  0.00000000000E+00  0.00000000000E+00 -0.12461254346E+04  0.12770694053E+04  0.27942381268E+03 0.  0.
         25    2    3    3    0    0  0.65550331186E+01  0.47677824670E+02 -0.81788885528E+03  0.82889326426E+03  0.12572080386E+03 0.  0.
         25    2    3    3    0    0 -0.65550331186E+01 -0.47677824670E+02 -0.42823657936E+03  0.44817614104E+03  0.12312246776E+03 0.  0.
          5    1    4    4  502    0 -0.53596406931E+02 -0.17102370110E+01 -0.25416270934E+03  0.25980044758E+03  0.47000000000E+01 0.  1.
         -5    1    4    4    0  502  0.60151440050E+02  0.49388061681E+02 -0.56372614594E+03  0.56909281668E+03  0.47000000000E+01 0.  1.
          5    1    5    5  503    0 -0.63844960675E+02 -0.28238475206E+02 -0.26305847099E+03  0.27220477521E+03  0.47000000000E+01 0.  1.
         -5    1    5    5    0  503  0.57289927557E+02 -0.19439349464E+02 -0.16517810837E+03  0.17597136583E+03  0.47000000000E+01 0.  1.
<mgrwt>
<rscale>  0 0.27942381E+03</rscale>
<asrwt>0</asrwt>
<pdfrwt beam="1">  1        1 0.19409185E+00 0.27942381E+03</pdfrwt>
<pdfrwt beam="2">  1       -1 0.23803062E-02 0.27942381E+03</pdfrwt>
<totfact> 0.55082407E+03</totfact>
</mgrwt>
</event>
<event>
 9    1  0.8122655E-001  0.2739649E+03  0.7818608E-02  0.1099032E+00
          2   -1    0    0  501    0  0.00000000000E+00  0.00000000000E+00  0.99591689612E+03  0.99591689612E+03  0.00000000000E+00 0. -1.
         -2   -1    0    0    0  501 -0.00000000000E+00 -0.00000000000E+00 -0.18841119104E+02  0.18841119104E+02  0.00000000000E+00 0. -1.
         35    2    1    2    0    0  0.17763568394E-14 -0.35527136788E-14  0.97707577702E+03  0.10147580152E+04  0.27396487992E+03 0.  0.
         25    2    3    3    0    0  0.10256902086E+02 -0.24738939911E+02  0.66635775488E+03  0.67905132123E+03  0.12790942183E+03 0.  0.
         25    2    3    3    0    0 -0.10256902086E+02  0.24738939911E+02  0.31071802214E+03  0.33570669399E+03  0.12424200546E+03 0.  0.
          5    1    4    4  502    0 -0.25009271122E+02  0.41500877494E+01  0.58581817909E+03  0.58638529639E+03  0.47000000000E+01 0. -1.
         -5    1    4    4    0  502  0.35266173208E+02 -0.28889027660E+02  0.80539575790E+02  0.92666024844E+02  0.47000000000E+01 0. -1.
          5    1    5    5  503    0 -0.72340966785E+01  0.45508326021E+02  0.31076574152E+03  0.31419862506E+03  0.47000000000E+01 0. -1.
         -5    1    5    5    0  503 -0.30228054079E+01 -0.20769386110E+02 -0.47719376420E-01  0.21508068929E+02  0.47000000000E+01 0. -1.
<mgrwt>
<rscale>  0 0.27396488E+03</rscale>
<asrwt>0</asrwt>
<pdfrwt beam="1">  1        2 0.15321794E+00 0.27396488E+03</pdfrwt>
<pdfrwt beam="2">  1       -2 0.28986345E-02 0.27396488E+03</pdfrwt>
<totfact> 0.11743824E+04</totfact>
</mgrwt>
</event>
<event>
 9    1  0.8122655E-001  0.2798499E+03  0.7818608E-02  0.1095771E+00
          2   -1    0    0  501    0  0.00000000000E+00  0.00000000000E+00  0.42311447493E+02  0.42311447493E+02  0.00000000000E+00 0. -1.
         -2   -1    0    0    0  501 -0.00000000000E+00 -0.00000000000E+00 -0.46273525436E+03  0.46273525436E+03  0.00000000000E+00 0. -1.
         35    2    1    2    0    0 -0.35527136788E-14  0.00000000000E+00 -0.42042380686E+03  0.50504670185E+03  0.27984994849E+03 0.  0.
         25    2    3    3    0    0 -0.14791858727E+02  0.10557578217E+02 -0.31835854865E+03  0.34257178718E+03  0.12519186208E+03 0.  0.
         25    2    3    3    0    0  0.14791858727E+02 -0.10557578217E+02 -0.10206525821E+03  0.16247491467E+03  0.12510203603E+03 0.  0.
          5    1    4    4  502    0 -0.31882504502E+02  0.61290642844E+02 -0.21795310530E+03  0.22868905331E+03  0.47000000000E+01 0. -1.
         -5    1    4    4    0  502  0.17090645775E+02 -0.50733064628E+02 -0.10040544336E+03  0.11388273388E+03  0.47000000000E+01 0. -1.
          5    1    5    5  503    0  0.60791096021E+02 -0.37645093028E+02 -0.69167831944E+02  0.99594123121E+02  0.47000000000E+01 0.  1.
         -5    1    5    5    0  503 -0.45999237295E+02  0.27087514811E+02 -0.32897426266E+02  0.62880791545E+02  0.47000000000E+01 0.  1.
<mgrwt>
<rscale>  0 0.27984995E+03</rscale>
<asrwt>0</asrwt>
<pdfrwt beam="1">  1        2 0.65094540E-02 0.27984995E+03</pdfrwt>
<pdfrwt beam="2">  1       -2 0.71190033E-01 0.27984995E+03</pdfrwt>
<totfact> 0.20392574E+03</totfact>
</mgrwt>
</event>
<event>
 9    1  0.8122655E-001  0.2687146E+03  0.7818608E-02  0.1102018E+00
         -3   -1    0    0    0  501 -0.00000000000E+00  0.00000000000E+00  0.13487379580E+03  0.13487379580E+03  0.00000000000E+00 0.  1.
          3   -1    0    0  501    0  0.00000000000E+00 -0.00000000000E+00 -0.13384276043E+03  0.13384276043E+03  0.00000000000E+00 0.  1.
         35    2    1    2    0    0  0.00000000000E+00  0.35527136788E-14  0.10310353709E+01  0.26871655623E+03  0.26871457824E+03 0.  0.
         25    2    3    3    0    0  0.43699063997E+02  0.17849399923E+02  0.18128889827E+02  0.13455715069E+03  0.12469467063E+03 0.  0.
         25    2    3    3    0    0 -0.43699063997E+02 -0.17849399923E+02 -0.17097854456E+02  0.13415940554E+03  0.12441141505E+03 0.  0.
          5    1    4    4  502    0  0.58830842030E+02  0.29076460932E+02 -0.37435643675E+02  0.75696935022E+02  0.47000000000E+01 0. -1.
         -5    1    4    4    0  502 -0.15131778033E+02 -0.11227061010E+02  0.55564533502E+02  0.58860215670E+02  0.47000000000E+01 0. -1.
          5    1    5    5  503    0 -0.58008977894E+02  0.40736836732E+02 -0.19344486252E+02  0.73626289677E+02  0.47000000000E+01 0. -1.
         -5    1    5    5    0  503  0.14309913897E+02 -0.58586236655E+02  0.22466317959E+01  0.60533115859E+02  0.47000000000E+01 0. -1.
<mgrwt>
<rscale>  0 0.26871458E+03</rscale>
<asrwt>0</asrwt>
<pdfrwt beam="1">  1        3 0.20591194E-01 0.26871458E+03</pdfrwt>
<pdfrwt beam="2">  1       -3 0.20749815E-01 0.26871458E+03</pdfrwt>
<totfact> 0.11363962E+03</totfact>
</mgrwt>
</event>
<event>
 9    1  0.8122655E-001  0.2772487E+03  0.7818608E-02  0.1097201E+00
          1   -1    0    0  501    0  0.00000000000E+00  0.00000000000E+00  0.12957804488E+04  0.12957804488E+04  0.00000000000E+00 0. -1.
         -1   -1    0    0    0  501 -0.00000000000E+00 -0.00000000000E+00 -0.14830216905E+02  0.14830216905E+02  0.00000000000E+00 0. -1.
         35    2    1    2    0    0  0.00000000000E+00  0.00000000000E+00  0.12809502319E+04  0.13106106657E+04  0.27724866179E+03 0.  0.
         25    2    3    3    0    0 -0.10005158294E+02  0.26475633981E+02  0.88738105552E+03  0.89653332849E+03  0.12460260439E+03 0.  0.
         25    2    3    3    0    0  0.10005158294E+02 -0.26475633981E+02  0.39356917636E+03  0.41407733719E+03  0.12554792794E+03 0.  0.
          5    1    4    4  502    0  0.91889619140E+00 -0.16457960378E+01 -0.28285164830E+01  0.58003034665E+01  0.47000000000E+01 0.  1.
         -5    1    4    4    0  502 -0.10924054485E+02  0.28121430019E+02  0.89020957200E+03  0.89073302503E+03  0.47000000000E+01 0.  1.
          5    1    5    5  503    0  0.33746401407E+02 -0.68111939564E+02  0.18586448111E+03  0.20086251830E+03  0.47000000000E+01 0.  1.
         -5    1    5    5    0  503 -0.23741243114E+02  0.41636305582E+02  0.20770469525E+03  0.21321481890E+03  0.47000000000E+01 0.  1.
<mgrwt>
<rscale>  0 0.27724866E+03</rscale>
<asrwt>0</asrwt>
<pdfrwt beam="1">  1        1 0.19935075E+00 0.27724866E+03</pdfrwt>
<pdfrwt beam="2">  1       -1 0.22815729E-02 0.27724866E+03</pdfrwt>
<totfact> 0.55523772E+03</totfact>
</mgrwt>
</event>
<event>
 9    1  0.8122655E-001  0.2594341E+03  0.7818608E-02  0.1107484E+00
         -1   -1    0    0    0  501 -0.00000000000E+00  0.00000000000E+00  0.17195581722E+04  0.17195581722E+04  0.00000000000E+00 0.  1.
          1   -1    0    0  501    0  0.00000000000E+00 -0.00000000000E+00 -0.97853684726E+01  0.97853684726E+01  0.00000000000E+00 0.  1.
         35    2    1    2    0    0  0.35527136788E-14 -0.88817841970E-15  0.17097728038E+04  0.17293435407E+04  0.25943407891E+03 0.  0.
         25    2    3    3    0    0 -0.28903105386E+02  0.67506566527E+01  0.94152933788E+03  0.95041473806E+03  0.12621299204E+03 0.  0.
         25    2    3    3    0    0  0.28903105386E+02 -0.67506566527E+01  0.76824346589E+03  0.77892880266E+03  0.12510433991E+03 0.  0.
          5    1    4    4  502    0 -0.43481086290E+02  0.18895288085E+02  0.12685863204E+03  0.13550955428E+03  0.47000000000E+01 0. -1.
         -5    1    4    4    0  502  0.14577980903E+02 -0.12144631432E+02  0.81467070584E+03  0.81490518378E+03  0.47000000000E+01 0. -1.
          5    1    5    5  503    0  0.66861645799E+02 -0.81333444250E+01  0.24045806547E+03  0.24975748681E+03  0.47000000000E+01 0. -1.
         -5    1    5    5    0  503 -0.37958540413E+02  0.13826877723E+01  0.52778540043E+03  0.52917131585E+03  0.47000000000E+01 0. -1.
<mgrwt>
<rscale>  0 0.25943408E+03</rscale>
<asrwt>0</asrwt>
<pdfrwt beam="1">  1        1 0.15054427E-02 0.25943408E+03</pdfrwt>
<pdfrwt beam="2">  1       -1 0.26454717E+00 0.25943408E+03</pdfrwt>
<totfact> 0.58198490E+02</totfact>
</mgrwt>
</event>
<event>
 9    1  0.8122655E-001  0.2733179E+03  0.7818608E-02  0.1099396E+00
          2   -1    0    0  501    0  0.00000000000E+00  0.00000000000E+00  0.29959569841E+03  0.29959569841E+03  0.00000000000E+00 0.  1.
         -2   -1    0    0    0  501 -0.00000000000E+00 -0.00000000000E+00 -0.62336247374E+02  0.62336247374E+02  0.00000000000E+00 0.  1.
         35    2    1    2    0    0  0.00000000000E+00 -0.71054273576E-14  0.23725945104E+03  0.36193194579E+03  0.27331792161E+03 0.  0.
         25    2    3    3    0    0 -0.22210669102E+02  0.21363268940E+02  0.58374603084E+02  0.14139540196E+03  0.12504144244E+03 0.  0.
         25    2    3    3    0    0  0.22210669102E+02 -0.21363268940E+02  0.17888484796E+03  0.22053654383E+03  0.12524725648E+03 0.  0.
          5    1    4    4  502    0  0.32581533534E+02  0.51929199000E+02  0.10589565211E+02  0.62389317416E+02  0.47000000000E+01 0.  1.
         -5    1    4    4    0  502 -0.54792202636E+02 -0.30565930060E+02  0.47785037873E+02  0.79006084542E+02  0.47000000000E+01 0.  1.
          5    1    5    5  503    0 -0.14825897274E+02 -0.63088678844E+02  0.13346175852E+03  0.14843894239E+03  0.47000000000E+01 0. -1.
         -5    1    5    5    0  503  0.37036566376E+02  0.41725409904E+02  0.45423089432E+02  0.72097601445E+02  0.47000000000E+01 0. -1.
<mgrwt>
<rscale>  0 0.27331792E+03</rscale>
<asrwt>0</asrwt>
<pdfrwt beam="1">  1        2 0.46091645E-01 0.27331792E+03</pdfrwt>
<pdfrwt beam="2">  1       -2 0.95901921E-02 0.27331792E+03</pdfrwt>
<totfact> 0.77076310E+03</totfact>
</mgrwt>
</event>
<event>
 9    1  0.8122655E-001  0.2757997E+03  0.7818608E-02  0.1098005E+00
          1   -1    0    0  501    0  0.00000000000E+00  0.00000000000E+00  0.10067776762E+04  0.10067776762E+04  0.00000000000E+00 0.  1.
         -1   -1    0    0    0  501 -0.00000000000E+00 -0.00000000000E+00 -0.18888354184E+02  0.18888354184E+02  0.00000000000E+00 0.  1.
         35    2    1    2    0    0 -0.14210854715E-13  0.35527136788E-14  0.98788932198E+03  0.10256660304E+04  0.27579973410E+03 0.  0.
         25    2    3    3    0    0  0.53307273152E+02  0.25410113098E+01  0.56225021201E+03  0.57857061892E+03  0.12558080293E+03 0.  0.
         25    2    3    3    0    0 -0.53307273152E+02 -0.25410113098E+01  0.42563910997E+03  0.44709541143E+03  0.12600608269E+03 0.  0.
          5    1    4    4  502    0  0.75207275922E+02  0.36916942536E+02  0.47241615811E+03  0.47981049535E+03  0.47000000000E+01 0.  1.
         -5    1    4    4    0  502 -0.21900002771E+02 -0.34375931226E+02  0.89834053899E+02  0.98760123577E+02  0.47000000000E+01 0.  1.
          5    1    5    5  503    0  0.32527113888E+02  0.30294109127E+02  0.14821634159E+03  0.15480930237E+03  0.47000000000E+01 0.  1.
         -5    1    5    5    0  503 -0.85834387040E+02 -0.32835120436E+02  0.27742276838E+03  0.29228610906E+03  0.47000000000E+01 0.  1.
<mgrwt>
<rscale>  0 0.27579973E+03</rscale>
<asrwt>0</asrwt>
<pdfrwt beam="1">  1        1 0.15488883E+00 0.27579973E+03</pdfrwt>
<pdfrwt beam="2">  1       -1 0.29059014E-02 0.27579973E+03</pdfrwt>
<totfact> 0.62459542E+03</totfact>
</mgrwt>
</event>
<event>
 9    1  0.8122655E-001  0.2788808E+03  0.7818608E-02  0.1096302E+00
         -1   -1    0    0    0  501 -0.00000000000E+00  0.00000000000E+00  0.14283242951E+02  0.14283242951E+02  0.00000000000E+00 0. -1.
          1   -1    0    0  501    0  0.00000000000E+00 -0.00000000000E+00 -0.13612895512E+04  0.13612895512E+04  0.00000000000E+00 0. -1.
         35    2    1    2    0    0  0.17763568394E-14  0.71054273576E-14 -0.13470063083E+04  0.13755727942E+04  0.27888083037E+03 0.  0.
         25    2    3    3    0    0  0.15516411821E+01 -0.43051156821E+02 -0.42401145606E+03  0.44314650086E+03  0.12139726793E+03 0.  0.
         25    2    3    3    0    0 -0.15516411821E+01  0.43051156821E+02 -0.92299485223E+03  0.93242629333E+03  0.12507392037E+03 0.  0.
          5    1    4    4  502    0  0.20488767360E+02 -0.64167016029E+02 -0.11931106508E+03  0.13709272696E+03  0.47000000000E+01 0. -1.
         -5    1    4    4    0  502 -0.18937126178E+02  0.21115859208E+02 -0.30470039098E+03  0.30605377390E+03  0.47000000000E+01 0. -1.
          5    1    5    5  503    0  0.14027629685E+02  0.72633667099E+02 -0.83325090490E+03  0.83654144219E+03  0.47000000000E+01 0.  1.
         -5    1    5    5    0  503 -0.15579270867E+02 -0.29582510279E+02 -0.89743947332E+02  0.95884851138E+02  0.47000000000E+01 0.  1.
<mgrwt>
<rscale>  0 0.27888083E+03</rscale>
<asrwt>0</asrwt>
<pdfrwt beam="1">  1        1 0.20942922E+00 0.27888083E+03</pdfrwt>
<pdfrwt beam="2">  1       -1 0.21974214E-02 0.27888083E+03</pdfrwt>
<totfact> 0.52950589E+03</totfact>
</mgrwt>
</event>
<event>
 9    1  0.8122655E-001  0.2738860E+03  0.7818608E-02  0.1099076E+00
         -2   -1    0    0    0  501 -0.00000000000E+00  0.00000000000E+00  0.20380354342E+02  0.20380354342E+02  0.00000000000E+00 0. -1.
          2   -1    0    0  501    0  0.00000000000E+00 -0.00000000000E+00 -0.92016979561E+03  0.92016979561E+03  0.00000000000E+00 0. -1.
         35    2    1    2    0    0  0.00000000000E+00 -0.71054273576E-14 -0.89978944127E+03  0.94055014995E+03  0.27388600906E+03 0.  0.
         25    2    3    3    0    0 -0.40211382890E+02  0.29295816906E+02 -0.36281792575E+03  0.38686025511E+03  0.12469486573E+03 0.  0.
         25    2    3    3    0    0  0.40211382890E+02 -0.29295816906E+02 -0.53697151552E+03  0.55368989484E+03  0.12553442144E+03 0.  0.
          5    1    4    4  502    0 -0.14227002054E+02  0.77349530835E+02 -0.23211866292E+03  0.24512552128E+03  0.47000000000E+01 0. -1.
         -5    1    4    4    0  502 -0.25984380836E+02 -0.48053713929E+02 -0.13069926283E+03  0.14173473383E+03  0.47000000000E+01 0. -1.
          5    1    5    5  503    0  0.44824648854E+01  0.48281839103E+02 -0.22424177096E+03  0.22947263523E+03  0.47000000000E+01 0.  1.
         -5    1    5    5    0  503  0.35728918005E+02 -0.77577656010E+02 -0.31272974456E+03  0.32421725960E+03  0.47000000000E+01 0.  1.
<mgrwt>
<rscale>  0 0.27388601E+03</rscale>
<asrwt>0</asrwt>
<pdfrwt beam="1">  1        2 0.14156458E+00 0.27388601E+03</pdfrwt>
<pdfrwt beam="2">  1       -2 0.31354392E-02 0.27388601E+03</pdfrwt>
<totfact> 0.11652708E+04</totfact>
</mgrwt>
</event>
<event>
 9    1  0.8122655E-001  0.2724377E+03  0.7818608E-02  0.1099892E+00
          2   -1    0    0  501    0  0.00000000000E+00  0.00000000000E+00  0.16923671598E+03  0.16923671598E+03  0.00000000000E+00 0. -1.
         -2   -1    0    0    0  501 -0.00000000000E+00 -0.00000000000E+00 -0.10964272971E+03  0.10964272971E+03  0.00000000000E+00 0. -1.
         35    2    1    2    0    0  0.00000000000E+00  0.00000000000E+00  0.59593986266E+02  0.27887944569E+03  0.27243770302E+03 0.  0.
         25    2    3    3    0    0  0.47021215861E+02 -0.24605499152E+02  0.19782710939E+02  0.13792889528E+03  0.12576406153E+03 0.  0.
         25    2    3    3    0    0 -0.47021215861E+02  0.24605499152E+02  0.39811275327E+02  0.14095055041E+03  0.12436114622E+03 0.  0.
          5    1    4    4  502    0 -0.14375812720E+02 -0.26475577257E+02  0.57933407052E+02  0.65467471580E+02  0.47000000000E+01 0. -1.
         -5    1    4    4    0  502  0.61397028581E+02  0.18700781048E+01 -0.38150696113E+02  0.72461423700E+02  0.47000000000E+01 0. -1.
          5    1    5    5  503    0 -0.30273975300E+02  0.31471970645E+02 -0.39739662401E+02  0.59231151301E+02  0.47000000000E+01 0. -1.
         -5    1    5    5    0  503 -0.16747240561E+02 -0.68664714924E+01  0.79550937728E+02  0.81719399108E+02  0.47000000000E+01 0. -1.
<mgrwt>
<rscale>  0 0.27243770E+03</rscale>
<asrwt>0</asrwt>
<pdfrwt beam="1">  1        2 0.26036418E-01 0.27243770E+03</pdfrwt>
<pdfrwt beam="2">  1       -2 0.16868112E-01 0.27243770E+03</pdfrwt>
<totfact> 0.57310572E+03</totfact>
</mgrwt>
</event>
<event>
 9    1  0.8122655E-001  0.2710471E+03  0.7818608E-02  0.1100682E+00
          2   -1    0    0  501    0  0.00000000000E+00  0.00000000000E+00  0.92708908159E+03  0.92708908159E+03  0.00000000000E+00 0.  1.
         -2   -1    0    0    0  501 -0.00000000000E+00 -0.00000000000E+00 -0.19811078155E+02  0.19811078155E+02  0.00000000000E+00 0.  1.
         35    2    1    2    0    0  0.17763568394E-14  0.14210854715E-13  0.90727800344E+03  0.94690015975E+03  0.27104711216E+03 0.  0.
         25    2    3    3    0    0  0.10112674792E+02  0.49607836582E+02  0.44738382640E+03  0.46744916776E+03  0.12567112906E+03 0.  0.
         25    2    3    3    0    0 -0.10112674792E+02 -0.49607836582E+02  0.45989417704E+03  0.47945099198E+03  0.12572746716E+03 0.  0.
          5    1    4    4  502    0  0.44827890332E+02 -0.25360498587E+02  0.14500508749E+03  0.15395213555E+03  0.47000000000E+01 0. -1.
         -5    1    4    4    0  502 -0.34715215540E+02  0.74968335169E+02  0.30237873890E+03  0.31349703222E+03  0.47000000000E+01 0. -1.
          5    1    5    5  503    0 -0.11289663971E+02 -0.80847269088E+02  0.42315696791E+03  0.43098450891E+03  0.47000000000E+01 0. -1.
         -5    1    5    5    0  503  0.11769891794E+01  0.31239432506E+02  0.36737209134E+02  0.48466483076E+02  0.47000000000E+01 0. -1.
<mgrwt>
<rscale>  0 0.27104711E+03</rscale>
<asrwt>0</asrwt>
<pdfrwt beam="1">  1        2 0.14262906E+00 0.27104711E+03</pdfrwt>
<pdfrwt beam="2">  1       -2 0.30478589E-02 0.27104711E+03</pdfrwt>
<totfact> 0.12027998E+04</totfact>
</mgrwt>
</event>
<event>
 9    1  0.8122655E-001  0.2756755E+03  0.7818608E-02  0.1098075E+00
          1   -1    0    0  501    0  0.00000000000E+00  0.00000000000E+00  0.62599593811E+03  0.62599593811E+03  0.00000000000E+00 0.  1.
         -1   -1    0    0    0  501 -0.00000000000E+00 -0.00000000000E+00 -0.30350426747E+02  0.30350426747E+02  0.00000000000E+00 0.  1.
         35    2    1    2    0    0  0.00000000000E+00  0.00000000000E+00  0.59564551136E+03  0.65634636486E+03  0.27567548940E+03 0.  0.
         25    2    3    3    0    0 -0.18892192617E+02 -0.30103111114E+02  0.40837166572E+03  0.42869393625E+03  0.12549088163E+03 0.  0.
         25    2    3    3    0    0  0.18892192617E+02  0.30103111114E+02  0.18727384565E+03  0.22765242861E+03  0.12446293725E+03 0.  0.
          5    1    4    4  502    0  0.11255814536E+01  0.67999975657E+01 -0.71761694309E+01  0.11004285902E+02  0.47000000000E+01 0.  1.
         -5    1    4    4    0  502 -0.20017774070E+02 -0.36903108680E+02  0.41554783515E+03  0.41768965034E+03  0.47000000000E+01 0.  1.
          5    1    5    5  503    0  0.47044556733E+02  0.54725155971E+02  0.17271346505E+03  0.18724332838E+03  0.47000000000E+01 0.  1.
         -5    1    5    5    0  503 -0.28152364117E+02 -0.24622044857E+02  0.14560380598E+02  0.40409100230E+02  0.47000000000E+01 0.  1.
<mgrwt>
<rscale>  0 0.27567549E+03</rscale>
<asrwt>0</asrwt>
<pdfrwt beam="1">  1        1 0.96307058E-01 0.27567549E+03</pdfrwt>
<pdfrwt beam="2">  1       -1 0.46692969E-02 0.27567549E+03</pdfrwt>
<totfact> 0.64409419E+03</totfact>
</mgrwt>
</event>
<event>
 9    1  0.8122655E-001  0.2768173E+03  0.7818608E-02  0.1097440E+00
          2   -1    0    0  501    0  0.00000000000E+00  0.00000000000E+00  0.16396110556E+04  0.16396110556E+04  0.00000000000E+00 0.  1.
         -2   -1    0    0    0  501 -0.00000000000E+00 -0.00000000000E+00 -0.11683839758E+02  0.11683839758E+02  0.00000000000E+00 0.  1.
         35    2    1    2    0    0  0.35527136788E-14 -0.88817841970E-15  0.16279272159E+04  0.16512948954E+04  0.27681728876E+03 0.  0.
         25    2    3    3    0    0 -0.28419198780E+02  0.59503954459E+01  0.45983479242E+03  0.47616706994E+03  0.12018312743E+03 0.  0.
         25    2    3    3    0    0  0.28419198780E+02 -0.59503954459E+01  0.11680924234E+04  0.11751278254E+04  0.12506973387E+03 0.  0.
          5    1    4    4  502    0 -0.50505268478E+02  0.42493627798E+02  0.37794815482E+03  0.38369700061E+03  0.47000000000E+01 0. -1.
         -5    1    4    4    0  502  0.22086069698E+02 -0.36543232352E+02  0.81886637596E+02  0.92470069332E+02  0.47000000000E+01 0. -1.
          5    1    5    5  503    0 -0.35602774900E+02 -0.41747895773E+01  0.12670034823E+03  0.13175756028E+03  0.47000000000E+01 0.  1.
         -5    1    5    5    0  503  0.64021973680E+02 -0.17756058686E+01  0.10413920752E+04  0.10433702651E+04  0.47000000000E+01 0.  1.
<mgrwt>
<rscale>  0 0.27681729E+03</rscale>
<asrwt>0</asrwt>
<pdfrwt beam="1">  1        2 0.25224767E+00 0.27681729E+03</pdfrwt>
<pdfrwt beam="2">  1       -2 0.17975151E-02 0.27681729E+03</pdfrwt>
<totfact> 0.10402814E+04</totfact>
</mgrwt>
</event>
<event>
 9    1  0.8122655E-001  0.2775889E+03  0.7818608E-02  0.1097013E+00
          2   -1    0    0  501    0  0.00000000000E+00  0.00000000000E+00  0.92413260842E+03  0.92413260842E+03  0.00000000000E+00 0. -1.
         -2   -1    0    0    0  501 -0.00000000000E+00 -0.00000000000E+00 -0.20845385564E+02  0.20845385564E+02  0.00000000000E+00 0. -1.
         35    2    1    2    0    0  0.00000000000E+00 -0.35527136788E-14  0.90328722285E+03  0.94497799398E+03  0.27758890853E+03 0.  0.
         25    2    3    3    0    0 -0.56985812100E+02  0.10781492712E+01  0.51461445024E+03  0.53263143052E+03  0.12497865098E+03 0.  0.
         25    2    3    3    0    0  0.56985812100E+02 -0.10781492712E+01  0.38867277262E+03  0.41234656346E+03  0.12535796360E+03 0.  0.
          5    1    4    4  502    0 -0.77923847849E+02  0.23797560923E+02  0.47604508785E+03  0.48299012996E+03  0.47000000000E+01 0.  1.
         -5    1    4    4    0  502  0.20938035749E+02 -0.22719411652E+02  0.38569362387E+02  0.49641300565E+02  0.47000000000E+01 0.  1.
          5    1    5    5  503    0  0.29752815815E+02 -0.38282407868E+02  0.34579357576E+03  0.34920776027E+03  0.47000000000E+01 0. -1.
         -5    1    5    5    0  503  0.27232996285E+02  0.37204258597E+02  0.42879196860E+02  0.63138803186E+02  0.47000000000E+01 0. -1.
<mgrwt>
<rscale>  0 0.27758891E+03</rscale>
<asrwt>0</asrwt>
<pdfrwt beam="1">  1        2 0.14217422E+00 0.27758891E+03</pdfrwt>
<pdfrwt beam="2">  1       -2 0.32069831E-02 0.27758891E+03</pdfrwt>
<totfact> 0.11206734E+04</totfact>
</mgrwt>
</event>
<event>
 9    1  0.8122655E-001  0.2809517E+03  0.7818608E-02  0.1095170E+00
          1   -1    0    0  501    0  0.00000000000E+00  0.00000000000E+00  0.26920977056E+02  0.26920977056E+02  0.00000000000E+00 0. -1.
         -1   -1    0    0    0  501 -0.00000000000E+00 -0.00000000000E+00 -0.73301446152E+03  0.73301446152E+03  0.00000000000E+00 0. -1.
         35    2    1    2    0    0  0.14210854715E-13  0.14210854715E-13 -0.70609348446E+03  0.75993543857E+03  0.28095170759E+03 0.  0.
         25    2    3    3    0    0  0.48264596820E+02  0.37041069800E+02 -0.30314499613E+03  0.33380461928E+03  0.12580589422E+03 0.  0.
         25    2    3    3    0    0 -0.48264596820E+02 -0.37041069800E+02 -0.40294848833E+03  0.42613081929E+03  0.12457318628E+03 0.  0.
          5    1    4    4  502    0 -0.26765648448E+02  0.55498727920E+02 -0.14926838202E+03  0.16155385668E+03  0.47000000000E+01 0. -1.
         -5    1    4    4    0  502  0.75030245268E+02 -0.18457658120E+02 -0.15387661411E+03  0.17225076260E+03  0.47000000000E+01 0. -1.
          5    1    5    5  503    0 -0.50129017457E+01 -0.41690281074E+02 -0.33022724999E+02  0.53626477474E+02  0.47000000000E+01 0. -1.
         -5    1    5    5    0  503 -0.43251695074E+02  0.46492112736E+01 -0.36992576333E+03  0.37250434181E+03  0.47000000000E+01 0. -1.
<mgrwt>
<rscale>  0 0.28095171E+03</rscale>
<asrwt>0</asrwt>
<pdfrwt beam="1">  1        1 0.41416891E-02 0.28095171E+03</pdfrwt>
<pdfrwt beam="2">  1       -1 0.11277145E+00 0.28095171E+03</pdfrwt>
<totfact> 0.16581546E+03</totfact>
</mgrwt>
</event>
<event>
 9    1  0.8122655E-001  0.2821924E+03  0.7818608E-02  0.1094497E+00
          2   -1    0    0  501    0  0.00000000000E+00  0.00000000000E+00  0.36500194534E+03  0.36500194534E+03  0.00000000000E+00 0. -1.
         -2   -1    0    0    0  501 -0.00000000000E+00 -0.00000000000E+00 -0.54542558418E+02  0.54542558418E+02  0.00000000000E+00 0. -1.
         35    2    1    2    0    0 -0.71054273576E-14  0.00000000000E+00  0.31045938693E+03  0.41954450376E+03  0.28219241610E+03 0.  0.
         25    2    3    3    0    0  0.20253934780E+02  0.21105656717E+02  0.24286936380E+03  0.27458194943E+03  0.12471587093E+03 0.  0.
         25    2    3    3    0    0 -0.20253934780E+02 -0.21105656717E+02  0.67590023126E+02  0.14496255433E+03  0.12486016303E+03 0.  0.
          5    1    4    4  502    0  0.12058205467E+01  0.55721831883E+02  0.22337938432E+03  0.23027552169E+03  0.47000000000E+01 0.  1.
         -5    1    4    4    0  502  0.19048114233E+02 -0.34616175167E+02  0.19489979484E+02  0.44306427742E+02  0.47000000000E+01 0.  1.
          5    1    5    5  503    0  0.40935157801E+02  0.26317490461E+02  0.14577478125E+02  0.51018529152E+02  0.47000000000E+01 0. -1.
         -5    1    5    5    0  503 -0.61189092581E+02 -0.47423147178E+02  0.53012545000E+02  0.93944025177E+02  0.47000000000E+01 0. -1.
<mgrwt>
<rscale>  0 0.28219242E+03</rscale>
<asrwt>0</asrwt>
<pdfrwt beam="1">  1        2 0.56154144E-01 0.28219242E+03</pdfrwt>
<pdfrwt beam="2">  1       -2 0.83911631E-02 0.28219242E+03</pdfrwt>
<totfact> 0.76986922E+03</totfact>
</mgrwt>
</event>
<event>
 9    1  0.8122655E-001  0.2744634E+03  0.7818608E-02  0.1098752E+00
          3   -1    0    0  501    0  0.00000000000E+00  0.00000000000E+00  0.29506192112E+03  0.29506192112E+03  0.00000000000E+00 0. -1.
         -3   -1    0    0    0  501 -0.00000000000E+00 -0.00000000000E+00 -0.63825705372E+02  0.63825705372E+02  0.00000000000E+00 0. -1.
         35    2    1    2    0    0  0.14210854715E-13  0.35527136788E-14  0.23123621575E+03  0.35888762650E+03  0.27446336910E+03 0.  0.
         25    2    3    3    0    0  0.54930324210E+02 -0.55587668631E+01  0.98020555445E+02  0.16803488201E+03  0.12481767454E+03 0.  0.
         25    2    3    3    0    0 -0.54930324210E+02  0.55587668631E+01  0.13321566031E+03  0.19085274448E+03  0.12502046840E+03 0.  0.
          5    1    4    4  502    0  0.38799119072E+02 -0.31018956853E+02 -0.14090693118E+02  0.51847709280E+02  0.47000000000E+01 0.  1.
         -5    1    4    4    0  502  0.16131205137E+02  0.25460189990E+02  0.11211124856E+03  0.11618717273E+03  0.47000000000E+01 0.  1.
          5    1    5    5  503    0 -0.84844536420E-02  0.47523020529E+02  0.10629140831E+03  0.11652635339E+03  0.47000000000E+01 0.  1.
         -5    1    5    5    0  503 -0.54921839756E+02 -0.41964253666E+02  0.26924251993E+02  0.74326391096E+02  0.47000000000E+01 0.  1.
<mgrwt>
<rscale>  0 0.27446337E+03</rscale>
<asrwt>0</asrwt>
<pdfrwt beam="1">  1        3 0.45394141E-01 0.27446337E+03</pdfrwt>
<pdfrwt beam="2">  1       -3 0.98193395E-02 0.27446337E+03</pdfrwt>
<totfact> 0.93712980E+02</totfact>
</mgrwt>
</event>
<event>
 9    1  0.8122655E-001  0.2752195E+03  0.7818608E-02  0.1098329E+00
          2   -1    0    0  501    0  0.00000000000E+00  0.00000000000E+00  0.12068949404E+04  0.12068949404E+04  0.00000000000E+00 0. -1.
         -2   -1    0    0    0  501 -0.00000000000E+00 -0.00000000000E+00 -0.15690221664E+02  0.15690221664E+02  0.00000000000E+00 0. -1.
         35    2    1    2    0    0  0.00000000000E+00  0.00000000000E+00  0.11912047188E+04  0.12225851621E+04  0.27521954248E+03 0.  0.
         25    2    3    3    0    0 -0.17289173667E+02 -0.53588350021E+02  0.57609450955E+03  0.59213232930E+03  0.12476050932E+03 0.  0.
         25    2    3    3    0    0  0.17289173667E+02  0.53588350021E+02  0.61511020921E+03  0.63045283279E+03  0.12625204200E+03 0.  0.
          5    1    4    4  502    0 -0.18573240537E+02  0.55266106431E+01  0.88850236019E+01  0.21829849602E+02  0.47000000000E+01 0.  1.
         -5    1    4    4    0  502  0.12840668703E+01 -0.59114960664E+02  0.56720948594E+03  0.57030247970E+03  0.47000000000E+01 0.  1.
          5    1    5    5  503    0  0.44994582117E+02 -0.99801903292E+01  0.94725958276E+02  0.10544768272E+03  0.47000000000E+01 0. -1.
         -5    1    5    5    0  503 -0.27705408450E+02  0.63568540350E+02  0.52038425094E+03  0.52500515007E+03  0.47000000000E+01 0. -1.
<mgrwt>
<rscale>  0 0.27521954E+03</rscale>
<asrwt>0</asrwt>
<pdfrwt beam="1">  1        2 0.18567607E+00 0.27521954E+03</pdfrwt>
<pdfrwt beam="2">  1       -2 0.24138812E-02 0.27521954E+03</pdfrwt>
<totfact> 0.11576852E+04</totfact>
</mgrwt>
</event>
<event>
 9    1  0.8122655E-001  0.2758385E+03  0.7818608E-02  0.1097984E+00
          2   -1    0    0  501    0  0.00000000000E+00  0.00000000000E+00  0.57132555424E+03  0.57132555424E+03  0.00000000000E+00 0. -1.
         -2   -1    0    0    0  501 -0.00000000000E+00 -0.00000000000E+00 -0.33294023044E+02  0.33294023044E+02  0.00000000000E+00 0. -1.
         35    2    1    2    0    0  0.00000000000E+00  0.71054273576E-14  0.53803153120E+03  0.60461957729E+03  0.27583854820E+03 0.  0.
         25    2    3    3    0    0 -0.15983277868E+02 -0.42451571372E+02  0.18427185361E+03  0.22692873349E+03  0.12443043424E+03 0.  0.
         25    2    3    3    0    0  0.15983277868E+02  0.42451571372E+02  0.35375967759E+03  0.37769084380E+03  0.12428540913E+03 0.  0.
          5    1    4    4  502    0 -0.76169573638E+01  0.44268330550E+02  0.65052206742E+02  0.79193325042E+02  0.47000000000E+01 0.  1.
         -5    1    4    4    0  502 -0.83663205045E+01 -0.86719901922E+02  0.11921964687E+03  0.14773540844E+03  0.47000000000E+01 0.  1.
          5    1    5    5  503    0  0.99403983625E+01 -0.47021234207E+01 -0.69499804515E+01  0.13831620026E+02  0.47000000000E+01 0. -1.
         -5    1    5    5    0  503  0.60428795058E+01  0.47153694793E+02  0.36070965804E+03  0.36385922378E+03  0.47000000000E+01 0. -1.
<mgrwt>
<rscale>  0 0.27583855E+03</rscale>
<asrwt>0</asrwt>
<pdfrwt beam="1">  1        2 0.87896232E-01 0.27583855E+03</pdfrwt>
<pdfrwt beam="2">  1       -2 0.51221578E-02 0.27583855E+03</pdfrwt>
<totfact> 0.10033145E+04</totfact>
</mgrwt>
</event>
<event>
 9    1  0.8122655E-001  0.2759583E+03  0.7818608E-02  0.1097917E+00
         -1   -1    0    0    0  501 -0.00000000000E+00  0.00000000000E+00  0.21183194468E+02  0.21183194468E+02  0.00000000000E+00 0. -1.
          1   -1    0    0  501    0  0.00000000000E+00 -0.00000000000E+00 -0.89874272538E+03  0.89874272538E+03  0.00000000000E+00 0. -1.
         35    2    1    2    0    0  0.00000000000E+00  0.00000000000E+00 -0.87755953091E+03  0.91992591984E+03  0.27595827169E+03 0.  0.
         25    2    3    3    0    0  0.49434918034E+02 -0.17256544868E+02 -0.52783334066E+03  0.54490265021E+03  0.12477685373E+03 0.  0.
         25    2    3    3    0    0 -0.49434918034E+02  0.17256544868E+02 -0.34972619025E+03  0.37502326964E+03  0.12486971276E+03 0.  0.
          5    1    4    4  502    0  0.89131147277E+02 -0.15234925601E+02 -0.42535376221E+03  0.43488432646E+03  0.47000000000E+01 0. -1.
         -5    1    4    4    0  502 -0.39696229243E+02 -0.20216192669E+01 -0.10247957845E+03  0.11001832375E+03  0.47000000000E+01 0. -1.
          5    1    5    5  503    0 -0.48111465851E+02 -0.22309142802E+02 -0.32222060128E+03  0.32658937045E+03  0.47000000000E+01 0.  1.
         -5    1    5    5    0  503 -0.13234521825E+01  0.39565687669E+02 -0.27505588961E+02  0.48433899188E+02  0.47000000000E+01 0.  1.
<mgrwt>
<rscale>  0 0.27595827E+03</rscale>
<asrwt>0</asrwt>
<pdfrwt beam="1">  1        1 0.13826811E+00 0.27595827E+03</pdfrwt>
<pdfrwt beam="2">  1       -1 0.32589530E-02 0.27595827E+03</pdfrwt>
<totfact> 0.63790904E+03</totfact>
</mgrwt>
</event>
<event>
 9    1  0.8122655E-001  0.2733286E+03  0.7818608E-02  0.1099390E+00
         -2   -1    0    0    0  501 -0.00000000000E+00  0.00000000000E+00  0.62010443413E+03  0.62010443413E+03  0.00000000000E+00 0.  1.
          2   -1    0    0  501    0  0.00000000000E+00 -0.00000000000E+00 -0.30119323999E+02  0.30119323999E+02  0.00000000000E+00 0.  1.
         35    2    1    2    0    0 -0.71054273576E-14  0.00000000000E+00  0.58998511013E+03  0.65022375813E+03  0.27332856686E+03 0.  0.
         25    2    3    3    0    0 -0.53476399224E+02  0.82167682855E+01  0.26812332076E+03  0.30053336047E+03  0.12451082310E+03 0.  0.
         25    2    3    3    0    0  0.53476399224E+02 -0.82167682855E+01  0.32186178937E+03  0.34969039765E+03  0.12554330806E+03 0.  0.
          5    1    4    4  502    0 -0.51393379161E+02  0.30699022551E+02  0.42099514391E+02  0.73335997431E+02  0.47000000000E+01 0.  1.
         -5    1    4    4    0  502 -0.20830200629E+01 -0.22482254265E+02  0.22602380637E+03  0.22719736304E+03  0.47000000000E+01 0.  1.
          5    1    5    5  503    0 -0.36417567386E+02 -0.68783378777E+01  0.44600326168E+02  0.58179290479E+02  0.47000000000E+01 0.  1.
         -5    1    5    5    0  503  0.89893966610E+02 -0.13384304078E+01  0.27726146320E+03  0.29151110718E+03  0.47000000000E+01 0.  1.
<mgrwt>
<rscale>  0 0.27332857E+03</rscale>
<asrwt>0</asrwt>
<pdfrwt beam="1">  1        2 0.46337426E-02 0.27332857E+03</pdfrwt>
<pdfrwt beam="2">  1       -2 0.95400673E-01 0.27332857E+03</pdfrwt>
<totfact> 0.16621888E+03</totfact>
</mgrwt>
</event>
<event>
 9    1  0.8122655E-001  0.2730430E+03  0.7818608E-02  0.1099551E+00
         -1   -1    0    0    0  501 -0.00000000000E+00  0.00000000000E+00  0.10248657353E+02  0.10248657353E+02  0.00000000000E+00 0.  1.
          1   -1    0    0  501    0  0.00000000000E+00 -0.00000000000E+00 -0.18185909579E+04  0.18185909579E+04  0.00000000000E+00 0.  1.
         35    2    1    2    0    0  0.71054273576E-14 -0.35527136788E-14 -0.18083423005E+04  0.18288396152E+04  0.27304296799E+03 0.  0.
         25    2    3    3    0    0  0.24261716564E+02 -0.61710662784E+01 -0.13150439934E+04  0.13212565929E+04  0.12550524641E+03 0.  0.
         25    2    3    3    0    0 -0.24261716564E+02  0.61710662784E+01 -0.49329830718E+03  0.50758302234E+03  0.11692130580E+03 0.  0.
          5    1    4    4  502    0 -0.25896149505E+02  0.47374856992E+02 -0.51654253617E+03  0.51937777129E+03  0.47000000000E+01 0.  1.
         -5    1    4    4    0  502  0.50157866070E+02 -0.53545923270E+02 -0.79850145718E+03  0.80187882161E+03  0.47000000000E+01 0.  1.
          5    1    5    5  503    0 -0.33917420781E+02  0.30230415532E+02 -0.70746533913E+02  0.84210637786E+02  0.47000000000E+01 0.  1.
         -5    1    5    5    0  503  0.96557042169E+01 -0.24059349254E+02 -0.42255177327E+03  0.42337238455E+03  0.47000000000E+01 0.  1.
<mgrwt>
<rscale>  0 0.27304297E+03</rscale>
<asrwt>0</asrwt>
<pdfrwt beam="1">  1        1 0.27978319E+00 0.27304297E+03</pdfrwt>
<pdfrwt beam="2">  1       -1 0.15767167E-02 0.27304297E+03</pdfrwt>
<totfact> 0.42948643E+03</totfact>
</mgrwt>
</event>
<event>
 9    1  0.8122655E-001  0.2681595E+03  0.7818608E-02  0.1102338E+00
         -2   -1    0    0    0  501 -0.00000000000E+00  0.00000000000E+00  0.91028195542E+02  0.91028195542E+02  0.00000000000E+00 0.  1.
          2   -1    0    0  501    0  0.00000000000E+00 -0.00000000000E+00 -0.19749236477E+03  0.19749236477E+03  0.00000000000E+00 0.  1.
         35    2    1    2    0    0  0.00000000000E+00 -0.71054273576E-14 -0.10646416922E+03  0.28852056031E+03  0.26815945702E+03 0.  0.
         25    2    3    3    0    0 -0.40924727657E+02  0.19548332215E+02 -0.46322458497E+02  0.14087331344E+03  0.12507017891E+03 0.  0.
         25    2    3    3    0    0  0.40924727657E+02 -0.19548332215E+02 -0.60141710727E+02  0.14764724686E+03  0.12698706041E+03 0.  0.
          5    1    4    4  502    0  0.26942923221E+02  0.49017325745E+02 -0.59251664123E+01  0.56443041483E+02  0.47000000000E+01 0. -1.
         -5    1    4    4    0  502 -0.67867650878E+02 -0.29468993530E+02 -0.40397292084E+02  0.84430271959E+02  0.47000000000E+01 0. -1.
          5    1    5    5  503    0  0.18731873404E+02 -0.14851723111E+02  0.38918050572E+02  0.45914719000E+02  0.47000000000E+01 0. -1.
         -5    1    5    5    0  503  0.22192854253E+02 -0.46966091036E+01 -0.99059761299E+02  0.10173252786E+03  0.47000000000E+01 0. -1.
<mgrwt>
<rscale>  0 0.26815946E+03</rscale>
<asrwt>0</asrwt>
<pdfrwt beam="1">  1        2 0.30383440E-01 0.26815946E+03</pdfrwt>
<pdfrwt beam="2">  1       -2 0.14004338E-01 0.26815946E+03</pdfrwt>
<totfact> 0.65734741E+03</totfact>
</mgrwt>
</event>
<event>
 9    1  0.8122655E-001  0.2705066E+03  0.7818608E-02  0.1100990E+00
         -2   -1    0    0    0  501 -0.00000000000E+00  0.00000000000E+00  0.17128926895E+02  0.17128926895E+02  0.00000000000E+00 0.  1.
          2   -1    0    0  501    0  0.00000000000E+00 -0.00000000000E+00 -0.10679860960E+04  0.10679860960E+04  0.00000000000E+00 0.  1.
         35    2    1    2    0    0  0.35527136788E-14 -0.71054273576E-14 -0.10508571691E+04  0.10851150229E+04  0.27050660445E+03 0.  0.
         25    2    3    3    0    0 -0.11004328770E+02  0.19859578320E+02 -0.71171003227E+03  0.72287073213E+03  0.12448062995E+03 0.  0.
         25    2    3    3    0    0  0.11004328770E+02 -0.19859578320E+02 -0.33914713682E+03  0.36224429075E+03  0.12523836339E+03 0.  0.
          5    1    4    4  502    0 -0.50107197976E+02  0.36665641713E+02 -0.60020809837E+03  0.60342932637E+03  0.47000000000E+01 0. -1.
         -5    1    4    4    0  502  0.39102869206E+02 -0.16806063393E+02 -0.11150193389E+03  0.11944140575E+03  0.47000000000E+01 0. -1.
          5    1    5    5  503    0  0.32449563416E+02  0.44133721509E+02 -0.20154680946E+03  0.20891138299E+03  0.47000000000E+01 0. -1.
         -5    1    5    5    0  503 -0.21445234646E+02 -0.63993299829E+02 -0.13760032736E+03  0.15333290776E+03  0.47000000000E+01 0. -1.
<mgrwt>
<rscale>  0 0.27050660E+03</rscale>
<asrwt>0</asrwt>
<pdfrwt beam="1">  1        2 0.16430554E+00 0.27050660E+03</pdfrwt>
<pdfrwt beam="2">  1       -2 0.26352198E-02 0.27050660E+03</pdfrwt>
<totfact> 0.12232824E+04</totfact>
</mgrwt>
</event>
<event>
 9    1  0.8122655E-001  0.2790734E+03  0.7818608E-02  0.1096196E+00
         -2   -1    0    0    0  501 -0.00000000000E+00  0.00000000000E+00  0.30158026806E+02  0.30158026806E+02  0.00000000000E+00 0.  1.
          2   -1    0    0  501    0  0.00000000000E+00 -0.00000000000E+00 -0.64561559942E+03  0.64561559942E+03  0.00000000000E+00 0.  1.
         35    2    1    2    0    0  0.00000000000E+00 -0.35527136788E-14 -0.61545757261E+03  0.67577362622E+03  0.27907341367E+03 0.  0.
         25    2    3    3    0    0 -0.34137340066E+02  0.31111839122E+02 -0.21783403814E+03  0.25522720004E+03  0.12472349797E+03 0.  0.
         25    2    3    3    0    0  0.34137340066E+02 -0.31111839122E+02 -0.39762353447E+03  0.42054642619E+03  0.12892446196E+03 0.  0.
          5    1    4    4  502    0 -0.69725512346E+02  0.51070597843E+02 -0.11092100435E+03  0.14069616996E+03  0.47000000000E+01 0. -1.
         -5    1    4    4    0  502  0.35588172280E+02 -0.19958758721E+02 -0.10691303379E+03  0.11453103007E+03  0.47000000000E+01 0. -1.
          5    1    5    5  503    0  0.67123034798E+02  0.24845776885E+02 -0.21617881229E+03  0.22776782765E+03  0.47000000000E+01 0.  1.
         -5    1    5    5    0  503 -0.32985694732E+02 -0.55957616007E+02 -0.18144472219E+03  0.19277859854E+03  0.47000000000E+01 0.  1.
<mgrwt>
<rscale>  0 0.27907341E+03</rscale>
<asrwt>0</asrwt>
<pdfrwt beam="1">  1        2 0.99325477E-01 0.27907341E+03</pdfrwt>
<pdfrwt beam="2">  1       -2 0.46396964E-02 0.27907341E+03</pdfrwt>
<totfact> 0.10114710E+04</totfact>
</mgrwt>
</event>
<event>
 9    1  0.8122655E-001  0.2710329E+03  0.7818608E-02  0.1100690E+00
         -2   -1    0    0    0  501 -0.00000000000E+00  0.00000000000E+00  0.12473555450E+03  0.12473555450E+03  0.00000000000E+00 0. -1.
          2   -1    0    0  501    0  0.00000000000E+00 -0.00000000000E+00 -0.14722918404E+03  0.14722918404E+03  0.00000000000E+00 0. -1.
         35    2    1    2    0    0 -0.35527136788E-14 -0.71054273576E-14 -0.22493629544E+02  0.27196473855E+03  0.27103294199E+03 0.  0.
         25    2    3    3    0    0 -0.19461105556E+02  0.48441402500E+02 -0.20042434087E+02  0.13628812589E+03  0.12428777087E+03 0.  0.
         25    2    3    3    0    0  0.19461105556E+02 -0.48441402500E+02 -0.24511954575E+01  0.13567661266E+03  0.12520715138E+03 0.  0.
          5    1    4    4  502    0 -0.14238864536E+02 -0.40359219576E+02 -0.19360682723E+02  0.47207392467E+02  0.47000000000E+01 0.  1.
         -5    1    4    4    0  502 -0.52222410207E+01  0.88800622075E+02 -0.68175136356E+00  0.89080733423E+02  0.47000000000E+01 0.  1.
          5    1    5    5  503    0  0.62474364952E+02  0.94700137943E+01 -0.87710487907E+00  0.63368657477E+02  0.47000000000E+01 0. -1.
         -5    1    5    5    0  503 -0.43013259396E+02 -0.57911416294E+02 -0.15740905784E+01  0.72307955179E+02  0.47000000000E+01 0. -1.
<mgrwt>
<rscale>  0 0.27103294E+03</rscale>
<asrwt>0</asrwt>
<pdfrwt beam="1">  1        2 0.22650644E-01 0.27103294E+03</pdfrwt>
<pdfrwt beam="2">  1       -2 0.19190085E-01 0.27103294E+03</pdfrwt>
<totfact> 0.53884980E+03</totfact>
</mgrwt>
</event>
<event>
 9    1  0.8122655E-001  0.2726802E+03  0.7818608E-02  0.1099755E+00
          4   -1    0    0  501    0  0.00000000000E+00  0.00000000000E+00  0.24308345960E+03  0.24308345960E+03  0.00000000000E+00 0.  1.
         -4   -1    0    0    0  501 -0.00000000000E+00 -0.00000000000E+00 -0.76470105488E+02  0.76470105488E+02  0.00000000000E+00 0.  1.
         35    2    1    2    0    0  0.71054273576E-14  0.00000000000E+00  0.16661335411E+03  0.31955356509E+03  0.27268016281E+03 0.  0.
         25    2    3    3    0    0 -0.26294927749E+02  0.39401696163E+02  0.11134956218E+03  0.17546357088E+03  0.12706227930E+03 0.  0.
         25    2    3    3    0    0  0.26294927749E+02 -0.39401696163E+02  0.55263791934E+02  0.14408999421E+03  0.12435402224E+03 0.  0.
          5    1    4    4  502    0 -0.62473935140E+02  0.63462266694E+01  0.11326877480E+02  0.63981679552E+02  0.47000000000E+01 0.  1.
         -5    1    4    4    0  502  0.36179007391E+02  0.33055469493E+02  0.10002268470E+03  0.11148189132E+03  0.47000000000E+01 0.  1.
          5    1    5    5  503    0 -0.31955664471E+02 -0.71091603291E+01  0.68459924467E+02  0.76029967187E+02  0.47000000000E+01 0. -1.
         -5    1    5    5    0  503  0.58250592220E+02 -0.32292535833E+02 -0.13196132534E+02  0.68060027023E+02  0.47000000000E+01 0. -1.
<mgrwt>
<rscale>  0 0.27268016E+03</rscale>
<asrwt>0</asrwt>
<pdfrwt beam="1">  1        4 0.37397455E-01 0.27268016E+03</pdfrwt>
<pdfrwt beam="2">  1       -4 0.11764632E-01 0.27268016E+03</pdfrwt>
<totfact> 0.74791327E+02</totfact>
</mgrwt>
</event>
<event>
 9    1  0.8122655E-001  0.2780002E+03  0.7818608E-02  0.1096786E+00
         -2   -1    0    0    0  501 -0.00000000000E+00  0.00000000000E+00  0.20041853411E+03  0.20041853411E+03  0.00000000000E+00 0.  1.
          2   -1    0    0  501    0  0.00000000000E+00 -0.00000000000E+00 -0.96403414692E+02  0.96403414692E+02  0.00000000000E+00 0.  1.
         35    2    1    2    0    0  0.35527136788E-14  0.00000000000E+00  0.10401511942E+03  0.29682194881E+03  0.27800022342E+03 0.  0.
         25    2    3    3    0    0  0.27988588630E+02 -0.43822006979E+01  0.10935155191E+03  0.16838726806E+03  0.12487571967E+03 0.  0.
         25    2    3    3    0    0 -0.27988588630E+02  0.43822006979E+01 -0.53364324865E+01  0.12843468075E+03  0.12515760037E+03 0.  0.
          5    1    4    4  502    0 -0.20657935961E+02  0.11431382856E+02 -0.18657127472E+02  0.30456612380E+02  0.47000000000E+01 0. -1.
         -5    1    4    4    0  502  0.48646524591E+02 -0.15813583554E+02  0.12800867938E+03  0.13793065568E+03  0.47000000000E+01 0. -1.
          5    1    5    5  503    0  0.35133412463E+00  0.29844730764E+02 -0.56737615962E+02  0.64281244971E+02  0.47000000000E+01 0. -1.
         -5    1    5    5    0  503 -0.28339922755E+02 -0.25462530066E+02  0.51401183475E+02  0.64153435775E+02  0.47000000000E+01 0. -1.
<mgrwt>
<rscale>  0 0.27800022E+03</rscale>
<asrwt>0</asrwt>
<pdfrwt beam="1">  1        2 0.14831295E-01 0.27800022E+03</pdfrwt>
<pdfrwt beam="2">  1       -2 0.30833621E-01 0.27800022E+03</pdfrwt>
<totfact> 0.38228182E+03</totfact>
</mgrwt>
</event>
<event>
 9    1  0.8122655E-001  0.2743303E+03  0.7818608E-02  0.1098827E+00
         -2   -1    0    0    0  501 -0.00000000000E+00  0.00000000000E+00  0.12080707856E+02  0.12080707856E+02  0.00000000000E+00 0.  1.
          2   -1    0    0  501    0  0.00000000000E+00 -0.00000000000E+00 -0.15573818684E+04  0.15573818684E+04  0.00000000000E+00 0.  1.
         35    2    1    2    0    0  0.00000000000E+00  0.53290705182E-14 -0.15453011605E+04  0.15694625762E+04  0.27433027811E+03 0.  0.
         25    2    3    3    0    0 -0.50445433244E+02  0.11771076823E+02 -0.64861022541E+03  0.66263935393E+03  0.12534906818E+03 0.  0.
         25    2    3    3    0    0  0.50445433244E+02 -0.11771076823E+02 -0.89669093509E+03  0.90682322228E+03  0.12486161701E+03 0.  0.
          5    1    4    4  502    0 -0.69199845516E+02 -0.32226208667E+02 -0.51502201161E+03  0.52066967416E+03  0.47000000000E+01 0.  1.
         -5    1    4    4    0  502  0.18754412272E+02  0.43997285490E+02 -0.13358821380E+03  0.14196967977E+03  0.47000000000E+01 0.  1.
          5    1    5    5  503    0 -0.35447887352E+02 -0.22732353594E+02 -0.18077440912E+03  0.18567387972E+03  0.47000000000E+01 0. -1.
         -5    1    5    5    0  503  0.85893320595E+02  0.10961276771E+02 -0.71591652597E+03  0.72114934256E+03  0.47000000000E+01 0. -1.
<mgrwt>
<rscale>  0 0.27433028E+03</rscale>
<asrwt>0</asrwt>
<pdfrwt beam="1">  1        2 0.23959714E+00 0.27433028E+03</pdfrwt>
<pdfrwt beam="2">  1       -2 0.18585710E-02 0.27433028E+03</pdfrwt>
<totfact> 0.10948839E+04</totfact>
</mgrwt>
</event>
<event>
 9    1  0.8122655E-001  0.2763350E+03  0.7818608E-02  0.1097708E+00
          2   -1    0    0  501    0  0.00000000000E+00  0.00000000000E+00  0.14928224064E+04  0.14928224064E+04  0.00000000000E+00 0.  1.
         -2   -1    0    0    0  501 -0.00000000000E+00 -0.00000000000E+00 -0.12788028276E+02  0.12788028276E+02  0.00000000000E+00 0.  1.
         35    2    1    2    0    0  0.00000000000E+00  0.71054273576E-14  0.14800343782E+04  0.15056104347E+04  0.27633497893E+03 0.  0.
         25    2    3    3    0    0 -0.77317007990E+01 -0.17670732964E+00  0.10822340511E+04  0.10887310122E+04  0.11851103399E+03 0.  0.
         25    2    3    3    0    0  0.77317007990E+01  0.17670732964E+00  0.39780032708E+03  0.41687942252E+03  0.12443288259E+03 0.  0.
          5    1    4    4  502    0 -0.47275688779E+02 -0.28888827743E+02  0.82385725017E+03  0.82573144167E+03  0.47000000000E+01 0. -1.
         -5    1    4    4    0  502  0.39543987980E+02  0.28712120413E+02  0.25837680092E+03  0.26299957053E+03  0.47000000000E+01 0. -1.
          5    1    5    5  503    0  0.16769314770E+02  0.60355673815E+02  0.22558916826E+03  0.23417211644E+03  0.47000000000E+01 0. -1.
         -5    1    5    5    0  503 -0.90376139710E+01 -0.60178966485E+02  0.17221115882E+03  0.18270730608E+03  0.47000000000E+01 0. -1.
<mgrwt>
<rscale>  0 0.27633498E+03</rscale>
<asrwt>0</asrwt>
<pdfrwt beam="1">  1        2 0.22966485E+00 0.27633498E+03</pdfrwt>
<pdfrwt beam="2">  1       -2 0.19673901E-02 0.27633498E+03</pdfrwt>
<totfact> 0.10903720E+04</totfact>
</mgrwt>
</event>
<event>
 9    1  0.8122655E-001  0.2734561E+03  0.7818608E-02  0.1099318E+00
         -1   -1    0    0    0  501 -0.00000000000E+00  0.00000000000E+00  0.68551833609E+01  0.68551833609E+01  0.00000000000E+00 0. -1.
          1   -1    0    0  501    0  0.00000000000E+00 -0.00000000000E+00 -0.27270684423E+04  0.27270684423E+04  0.00000000000E+00 0. -1.
         35    2    1    2    0    0  0.71054273576E-14  0.00000000000E+00 -0.27202132589E+04  0.27339236257E+04  0.27345606016E+03 0.  0.
         25    2    3    3    0    0 -0.60250908385E+01 -0.49880290437E+02 -0.11441125697E+04  0.11519248437E+04  0.12414881490E+03 0.  0.
         25    2    3    3    0    0  0.60250908385E+01  0.49880290437E+02 -0.15761006892E+04  0.15819987819E+04  0.12689530521E+03 0.  0.
          5    1    4    4  502    0 -0.58602571726E+02 -0.24265335143E+02 -0.35643474839E+03  0.36206475631E+03  0.47000000000E+01 0.  1.
         -5    1    4    4    0  502  0.52577480887E+02 -0.25614955295E+02 -0.78767782135E+03  0.78986008741E+03  0.47000000000E+01 0.  1.
          5    1    5    5  503    0  0.62257668486E+02  0.18374722176E+02 -0.54452362626E+03  0.54839923163E+03  0.47000000000E+01 0.  1.
         -5    1    5    5    0  503 -0.56232577647E+02  0.31505568262E+02 -0.10315770629E+04  0.10335995503E+04  0.47000000000E+01 0.  1.
<mgrwt>
<rscale>  0 0.27345606E+03</rscale>
<asrwt>0</asrwt>
<pdfrwt beam="1">  1        1 0.41954992E+00 0.27345606E+03</pdfrwt>
<pdfrwt beam="2">  1       -1 0.10546413E-02 0.27345606E+03</pdfrwt>
<totfact> 0.19437639E+03</totfact>
</mgrwt>
</event>
<event>
 9    1  0.8122655E-001  0.2653202E+03  0.7818608E-02  0.1103988E+00
          1   -1    0    0  501    0  0.00000000000E+00  0.00000000000E+00  0.68518032510E+03  0.68518032510E+03  0.00000000000E+00 0.  1.
         -1   -1    0    0    0  501 -0.00000000000E+00 -0.00000000000E+00 -0.25684772385E+02  0.25684772385E+02  0.00000000000E+00 0.  1.
         35    2    1    2    0    0  0.35527136788E-14  0.71054273576E-14  0.65949555272E+03  0.71086509749E+03  0.26532018915E+03 0.  0.
         25    2    3    3    0    0  0.10464237664E+02 -0.26858297721E+02  0.24415671857E+03  0.27555934082E+03  0.12445713583E+03 0.  0.
         25    2    3    3    0    0 -0.10464237664E+02  0.26858297721E+02  0.41533883415E+03  0.43530575667E+03  0.12709793947E+03 0.  0.
          5    1    4    4  502    0  0.39721278593E+02 -0.52186681536E+02  0.22019347305E+03  0.22980096883E+03  0.47000000000E+01 0.  1.
         -5    1    4    4    0  502 -0.29257040929E+02  0.25328383815E+02  0.23963245526E+02  0.45758371985E+02  0.47000000000E+01 0.  1.
          5    1    5    5  503    0 -0.64904487379E+02 -0.33823183919E+01  0.25604853828E+03  0.26421009919E+03  0.47000000000E+01 0.  1.
         -5    1    5    5    0  503  0.54440249715E+02  0.30240616113E+02  0.15929029587E+03  0.17109565748E+03  0.47000000000E+01 0.  1.
<mgrwt>
<rscale>  0 0.26532019E+03</rscale>
<asrwt>0</asrwt>
<pdfrwt beam="1">  1        1 0.10541234E+00 0.26532019E+03</pdfrwt>
<pdfrwt beam="2">  1       -1 0.39515040E-02 0.26532019E+03</pdfrwt>
<totfact> 0.72529867E+03</totfact>
</mgrwt>
</event>
<event>
 9    1  0.8122655E-001  0.2721875E+03  0.7818608E-02  0.1100034E+00
          2   -1    0    0  501    0  0.00000000000E+00  0.00000000000E+00  0.16992481695E+03  0.16992481695E+03  0.00000000000E+00 0. -1.
         -2   -1    0    0    0  501 -0.00000000000E+00 -0.00000000000E+00 -0.10899823263E+03  0.10899823263E+03  0.00000000000E+00 0. -1.
         35    2    1    2    0    0 -0.35527136788E-14 -0.14210854715E-13  0.60926584316E+02  0.27892304957E+03  0.27218747015E+03 0.  0.
         25    2    3    3    0    0  0.14100494663E+02  0.39752548799E+02 -0.57501477187E+01  0.13150484287E+03  0.12442415527E+03 0.  0.
         25    2    3    3    0    0 -0.14100494663E+02 -0.39752548799E+02  0.66676732035E+02  0.14741820670E+03  0.12452811725E+03 0.  0.
          5    1    4    4  502    0  0.31977347384E+02 -0.17449357311E+02  0.41224273713E+02  0.55213780521E+02  0.47000000000E+01 0. -1.
         -5    1    4    4    0  502 -0.17876852721E+02  0.57201906109E+02 -0.46974421431E+02  0.76291062350E+02  0.47000000000E+01 0. -1.
          5    1    5    5  503    0  0.32667438380E+02  0.30427964000E+02  0.36038867800E+02  0.57566592011E+02  0.47000000000E+01 0.  1.
         -5    1    5    5    0  503 -0.46767933042E+02 -0.70180512799E+02  0.30637864235E+02  0.89851614692E+02  0.47000000000E+01 0.  1.
<mgrwt>
<rscale>  0 0.27218747E+03</rscale>
<asrwt>0</asrwt>
<pdfrwt beam="1">  1        2 0.26142280E-01 0.27218747E+03</pdfrwt>
<pdfrwt beam="2">  1       -2 0.16768959E-01 0.27218747E+03</pdfrwt>
<totfact> 0.57616072E+03</totfact>
</mgrwt>
</event>
<event>
 9    1  0.8122655E-001  0.2773350E+03  0.7818608E-02  0.1097153E+00
          2   -1    0    0  501    0  0.00000000000E+00  0.00000000000E+00  0.34134624101E+03  0.34134624101E+03  0.00000000000E+00 0.  1.
         -2   -1    0    0    0  501 -0.00000000000E+00 -0.00000000000E+00 -0.56331882367E+02  0.56331882367E+02  0.00000000000E+00 0.  1.
         35    2    1    2    0    0 -0.71054273576E-14 -0.71054273576E-14  0.28501435864E+03  0.39767812337E+03  0.27733500533E+03 0.  0.
         25    2    3    3    0    0  0.38083577876E+02 -0.47485494914E+02  0.15964378992E+03  0.21154483969E+03  0.12473912139E+03 0.  0.
         25    2    3    3    0    0 -0.38083577876E+02  0.47485494914E+02  0.12537056871E+03  0.18613328368E+03  0.12337985518E+03 0.  0.
          5    1    4    4  502    0  0.50865292931E+02 -0.38815905772E+02  0.17674407827E+03  0.18802795475E+03  0.47000000000E+01 0. -1.
         -5    1    4    4    0  502 -0.12781715055E+02 -0.86695891420E+01 -0.17100288343E+02  0.23516884936E+02  0.47000000000E+01 0. -1.
          5    1    5    5  503    0  0.64286624923E+01  0.35093464614E+02  0.13412793618E+03  0.13887142335E+03  0.47000000000E+01 0. -1.
         -5    1    5    5    0  503 -0.44512240368E+02  0.12392030299E+02 -0.87573674623E+01  0.47261860336E+02  0.47000000000E+01 0. -1.
<mgrwt>
<rscale>  0 0.27733501E+03</rscale>
<asrwt>0</asrwt>
<pdfrwt beam="1">  1        2 0.52514805E-01 0.27733501E+03</pdfrwt>
<pdfrwt beam="2">  1       -2 0.86664436E-02 0.27733501E+03</pdfrwt>
<totfact> 0.78627018E+03</totfact>
</mgrwt>
</event>
<event>
 9    1  0.8122655E-001  0.2762470E+03  0.7818608E-02  0.1097757E+00
         -4   -1    0    0    0  501 -0.00000000000E+00  0.00000000000E+00  0.88925288813E+03  0.88925288813E+03  0.00000000000E+00 0. -1.
          4   -1    0    0  501    0  0.00000000000E+00 -0.00000000000E+00 -0.21454086022E+02  0.21454086022E+02  0.00000000000E+00 0. -1.
         35    2    1    2    0    0  0.35527136788E-14  0.71054273576E-14  0.86779880211E+03  0.91070697415E+03  0.27624704855E+03 0.  0.
         25    2    3    3    0    0 -0.24186515259E+02  0.44469715358E+02  0.54518353573E+03  0.56119866381E+03  0.12311096429E+03 0.  0.
         25    2    3    3    0    0  0.24186515259E+02 -0.44469715358E+02  0.32261526638E+03  0.34950831034E+03  0.12455081610E+03 0.  0.
          5    1    4    4  502    0 -0.27086794086E+02 -0.28509228611E+02  0.35850587192E+03  0.36068687352E+03  0.47000000000E+01 0. -1.
         -5    1    4    4    0  502  0.29002788275E+01  0.72978943969E+02  0.18667766381E+03  0.20051179029E+03  0.47000000000E+01 0. -1.
          5    1    5    5  503    0  0.57261093009E+01 -0.33075818964E+02  0.89477435617E+01  0.35056386618E+02  0.47000000000E+01 0.  1.
         -5    1    5    5    0  503  0.18460405958E+02 -0.11393896394E+02  0.31366752281E+03  0.31445192372E+03  0.47000000000E+01 0.  1.
<mgrwt>
<rscale>  0 0.27624705E+03</rscale>
<asrwt>0</asrwt>
<pdfrwt beam="1">  1        4 0.33006293E-02 0.27624705E+03</pdfrwt>
<pdfrwt beam="2">  1       -4 0.13680811E+00 0.27624705E+03</pdfrwt>
<totfact> 0.34760627E+02</totfact>
</mgrwt>
</event>
<event>
 9    1  0.8122655E-001  0.2714738E+03  0.7818608E-02  0.1100439E+00
         -2   -1    0    0    0  501 -0.00000000000E+00  0.00000000000E+00  0.50453072144E+02  0.50453072144E+02  0.00000000000E+00 0.  1.
          2   -1    0    0  501    0  0.00000000000E+00 -0.00000000000E+00 -0.36518093126E+03  0.36518093126E+03  0.00000000000E+00 0.  1.
         35    2    1    2    0    0 -0.71054273576E-14 -0.35527136788E-14 -0.31472785911E+03  0.41563400340E+03  0.27147375468E+03 0.  0.
         25    2    3    3    0    0  0.36638508995E+02  0.22967677469E+02 -0.21278896106E+03  0.25017849125E+03  0.12425876624E+03 0.  0.
         25    2    3    3    0    0 -0.36638508995E+02 -0.22967677469E+02 -0.10193889806E+03  0.16545551215E+03  0.12293938756E+03 0.  0.
          5    1    4    4  502    0  0.43649496178E+02 -0.34349602584E+01 -0.95520967805E+01  0.45060071255E+02  0.47000000000E+01 0.  1.
         -5    1    4    4    0  502 -0.70109871835E+01  0.26402637728E+02 -0.20323686428E+03  0.20511841999E+03  0.47000000000E+01 0.  1.
          5    1    5    5  503    0  0.23254529818E+02  0.36217266799E+02 -0.19371271040E+02  0.47432053647E+02  0.47000000000E+01 0.  1.
         -5    1    5    5    0  503 -0.59893038813E+02 -0.59184944269E+02 -0.82567627019E+02  0.11802345851E+03  0.47000000000E+01 0.  1.
<mgrwt>
<rscale>  0 0.27147375E+03</rscale>
<asrwt>0</asrwt>
<pdfrwt beam="1">  1        2 0.56181683E-01 0.27147375E+03</pdfrwt>
<pdfrwt beam="2">  1       -2 0.77620109E-02 0.27147375E+03</pdfrwt>
<totfact> 0.86789913E+03</totfact>
</mgrwt>
</event>
<event>
 9    1  0.8122655E-001  0.2741562E+03  0.7818608E-02  0.1098924E+00
         -1   -1    0    0    0  501 -0.00000000000E+00  0.00000000000E+00  0.82315265977E+03  0.82315265977E+03  0.00000000000E+00 0. -1.
          1   -1    0    0  501    0  0.00000000000E+00 -0.00000000000E+00 -0.22827361395E+02  0.22827361395E+02  0.00000000000E+00 0. -1.
         35    2    1    2    0    0  0.71054273576E-14 -0.35527136788E-14  0.80032529838E+03  0.84598002117E+03  0.27415618357E+03 0.  0.
         25    2    3    3    0    0  0.41830411989E+02  0.22254072038E+02  0.30351219474E+03  0.33145336730E+03  0.12448556242E+03 0.  0.
         25    2    3    3    0    0 -0.41830411989E+02 -0.22254072038E+02  0.49681310364E+03  0.51452665387E+03  0.12517743608E+03 0.  0.
          5    1    4    4  502    0  0.70266091959E+02  0.24135378351E+02  0.29029795721E+03  0.29969123131E+03  0.47000000000E+01 0.  1.
         -5    1    4    4    0  502 -0.28435679970E+02 -0.18813063130E+01  0.13214237528E+02  0.31762135984E+02  0.47000000000E+01 0.  1.
          5    1    5    5  503    0 -0.62467152549E+02 -0.54222630346E+02  0.42618176735E+03  0.43416037084E+03  0.47000000000E+01 0.  1.
         -5    1    5    5    0  503  0.20636740560E+02  0.31968558307E+02  0.70631336289E+02  0.80366283025E+02  0.47000000000E+01 0.  1.
<mgrwt>
<rscale>  0 0.27415618E+03</rscale>
<asrwt>0</asrwt>
<pdfrwt beam="1">  1        1 0.35119024E-02 0.27415618E+03</pdfrwt>
<pdfrwt beam="2">  1       -1 0.12663885E+00 0.27415618E+03</pdfrwt>
<totfact> 0.15839110E+03</totfact>
</mgrwt>
</event>
<event>
 9    1  0.8122655E-001  0.2746028E+03  0.7818608E-02  0.1098674E+00
          1   -1    0    0  501    0  0.00000000000E+00  0.00000000000E+00  0.25566318239E+03  0.25566318239E+03  0.00000000000E+00 0. -1.
         -1   -1    0    0    0  501 -0.00000000000E+00 -0.00000000000E+00 -0.73736361810E+02  0.73736361810E+02  0.00000000000E+00 0. -1.
         35    2    1    2    0    0 -0.35527136788E-14  0.00000000000E+00  0.18192682058E+03  0.32939954420E+03  0.27460278890E+03 0.  0.
         25    2    3    3    0    0  0.30305028142E+02 -0.11081619192E+02  0.55495291443E+02  0.14289732894E+03  0.12766644912E+03 0.  0.
         25    2    3    3    0    0 -0.30305028142E+02  0.11081619192E+02  0.12643152913E+03  0.18650221526E+03  0.13325519773E+03 0.  0.
          5    1    4    4  502    0  0.28147778072E+02 -0.32979307362E+02  0.90972863024E+02  0.10088649033E+03  0.47000000000E+01 0.  1.
         -5    1    4    4    0  502  0.21572500694E+01  0.21897688171E+02 -0.35477571581E+02  0.42010838606E+02  0.47000000000E+01 0.  1.
          5    1    5    5  503    0 -0.18855294665E+02 -0.20795594612E+02  0.14487883639E+03  0.14764804816E+03  0.47000000000E+01 0.  1.
         -5    1    5    5    0  503 -0.11449733477E+02  0.31877213803E+02 -0.18447307250E+02  0.38854167104E+02  0.47000000000E+01 0.  1.
<mgrwt>
<rscale>  0 0.27460279E+03</rscale>
<asrwt>0</asrwt>
<pdfrwt beam="1">  1        1 0.39332797E-01 0.27460279E+03</pdfrwt>
<pdfrwt beam="2">  1       -1 0.11344056E-01 0.27460279E+03</pdfrwt>
<totfact> 0.53346954E+03</totfact>
</mgrwt>
</event>
<event>
 9    1  0.8122655E-001  0.2751030E+03  0.7818608E-02  0.1098394E+00
         -2   -1    0    0    0  501 -0.00000000000E+00  0.00000000000E+00  0.86668003869E+01  0.86668003869E+01  0.00000000000E+00 0.  1.
          2   -1    0    0  501    0  0.00000000000E+00 -0.00000000000E+00 -0.21830903628E+04  0.21830903628E+04  0.00000000000E+00 0.  1.
         35    2    1    2    0    0  0.71054273576E-14 -0.35527136788E-14 -0.21744235624E+04  0.21917571632E+04  0.27510295092E+03 0.  0.
         25    2    3    3    0    0  0.44134432445E+02  0.30166457515E+02 -0.12522359225E+04  0.12595815164E+04  0.12487164431E+03 0.  0.
         25    2    3    3    0    0 -0.44134432445E+02 -0.30166457515E+02 -0.92218763990E+03  0.93217564678E+03  0.12515402503E+03 0.  0.
          5    1    4    4  502    0  0.81673513614E+02  0.11655917274E+02 -0.55983861988E+03  0.56590440319E+03  0.47000000000E+01 0.  1.
         -5    1    4    4    0  502 -0.37539081169E+02  0.18510540241E+02 -0.69239730260E+03  0.69367711319E+03  0.47000000000E+01 0.  1.
          5    1    5    5  503    0 -0.31862477266E+02  0.33686680885E+02 -0.14607176272E+03  0.15332664410E+03  0.47000000000E+01 0. -1.
         -5    1    5    5    0  503 -0.12271955179E+02 -0.63853138400E+02 -0.77611587718E+03  0.77884900268E+03  0.47000000000E+01 0. -1.
<mgrwt>
<rscale>  0 0.27510295E+03</rscale>
<asrwt>0</asrwt>
<pdfrwt beam="1">  1        2 0.33586025E+00 0.27510295E+03</pdfrwt>
<pdfrwt beam="2">  1       -2 0.13333531E-02 0.27510295E+03</pdfrwt>
<totfact> 0.83324924E+03</totfact>
</mgrwt>
</event>
<event>
 9    1  0.8122655E-001  0.2780202E+03  0.7818608E-02  0.1096775E+00
         -2   -1    0    0    0  501 -0.00000000000E+00  0.00000000000E+00  0.18794634880E+02  0.18794634880E+02  0.00000000000E+00 0. -1.
          2   -1    0    0  501    0  0.00000000000E+00 -0.00000000000E+00 -0.10281556201E+04  0.10281556201E+04  0.00000000000E+00 0. -1.
         35    2    1    2    0    0  0.00000000000E+00 -0.35527136788E-14 -0.10093609852E+04  0.10469502550E+04  0.27802021134E+03 0.  0.
         25    2    3    3    0    0  0.20749190545E+02  0.21641420519E+02 -0.30435469029E+03  0.33033088269E+03  0.12485124975E+03 0.  0.
         25    2    3    3    0    0 -0.20749190545E+02 -0.21641420519E+02 -0.70500629491E+03  0.71661937227E+03  0.12494226213E+03 0.  0.
          5    1    4    4  502    0 -0.22819280853E+02  0.24764903035E+02 -0.14164444439E+02  0.36833971917E+02  0.47000000000E+01 0.  1.
         -5    1    4    4    0  502  0.43568471398E+02 -0.31234825156E+01 -0.29019024585E+03  0.29349691077E+03  0.47000000000E+01 0.  1.
          5    1    5    5  503    0  0.31661640308E+02 -0.18604569298E+01 -0.51267158073E+02  0.60467613347E+02  0.47000000000E+01 0.  1.
         -5    1    5    5    0  503 -0.52410830853E+02 -0.19780963589E+02 -0.65373913683E+03  0.65615175892E+03  0.47000000000E+01 0.  1.
<mgrwt>
<rscale>  0 0.27802021E+03</rscale>
<asrwt>0</asrwt>
<pdfrwt beam="1">  1        2 0.15817779E+00 0.27802021E+03</pdfrwt>
<pdfrwt beam="2">  1       -2 0.28914823E-02 0.27802021E+03</pdfrwt>
<totfact> 0.11270950E+04</totfact>
</mgrwt>
</event>
<event>
 9    1  0.8122655E-001  0.2810188E+03  0.7818608E-02  0.1095134E+00
          2   -1    0    0  501    0  0.00000000000E+00  0.00000000000E+00  0.82172412992E+03  0.82172412992E+03  0.00000000000E+00 0. -1.
         -2   -1    0    0    0  501 -0.00000000000E+00 -0.00000000000E+00 -0.24026171349E+02  0.24026171349E+02  0.00000000000E+00 0. -1.
         35    2    1    2    0    0  0.17763568394E-14  0.35527136788E-14  0.79769795857E+03  0.84575030127E+03  0.28101875203E+03 0.  0.
         25    2    3    3    0    0  0.15566158119E+02  0.79807014283E+01  0.21300688423E+03  0.24792312930E+03  0.12565010322E+03 0.  0.
         25    2    3    3    0    0 -0.15566158119E+02 -0.79807014283E+01  0.58469107435E+03  0.59782717197E+03  0.12340047916E+03 0.  0.
          5    1    4    4  502    0  0.47764293800E+00 -0.19557660862E+02  0.21516065077E+03  0.21609934262E+03  0.47000000000E+01 0. -1.
         -5    1    4    4    0  502  0.15088515181E+02  0.27538362290E+02 -0.21537665461E+01  0.31823786675E+02  0.47000000000E+01 0. -1.
          5    1    5    5  503    0  0.43877584265E+02  0.29555265420E+02  0.29057051657E+03  0.29538461574E+03  0.47000000000E+01 0.  1.
         -5    1    5    5    0  503 -0.59443742384E+02 -0.37535966848E+02  0.29412055777E+03  0.30244255623E+03  0.47000000000E+01 0.  1.
<mgrwt>
<rscale>  0 0.28101875E+03</rscale>
<asrwt>0</asrwt>
<pdfrwt beam="1">  1        2 0.12641908E+00 0.28101875E+03</pdfrwt>
<pdfrwt beam="2">  1       -2 0.36963347E-02 0.28101875E+03</pdfrwt>
<totfact> 0.10586453E+04</totfact>
</mgrwt>
</event>
<event>
 9    1  0.8122655E-001  0.2760615E+03  0.7818608E-02  0.1097860E+00
          3   -1    0    0  501    0  0.00000000000E+00  0.00000000000E+00  0.10070232741E+04  0.10070232741E+04  0.00000000000E+00 0.  1.
         -3   -1    0    0    0  501 -0.00000000000E+00 -0.00000000000E+00 -0.18919611605E+02  0.18919611605E+02  0.00000000000E+00 0.  1.
         35    2    1    2    0    0  0.00000000000E+00 -0.14210854715E-13  0.98810366249E+03  0.10259428857E+04  0.27606150926E+03 0.  0.
         25    2    3    3    0    0 -0.26662448009E+02  0.50974269519E+02  0.40172884269E+03  0.42331349539E+03  0.12041175210E+03 0.  0.
         25    2    3    3    0    0  0.26662448009E+02 -0.50974269519E+02  0.58637481981E+03  0.60262939032E+03  0.12656022473E+03 0.  0.
          5    1    4    4  502    0  0.33142243739E+02 -0.16641835434E+02  0.18050339427E+03  0.18433373091E+03  0.47000000000E+01 0. -1.
         -5    1    4    4    0  502 -0.59804691748E+02  0.67616104954E+02  0.22122544842E+03  0.23897976448E+03  0.47000000000E+01 0. -1.
          5    1    5    5  503    0 -0.36955172932E+02 -0.23399596117E+02  0.78202252328E+02  0.89726853138E+02  0.47000000000E+01 0.  1.
         -5    1    5    5    0  503  0.63617620941E+02 -0.27574673403E+02  0.50817256748E+03  0.51290253718E+03  0.47000000000E+01 0.  1.
<mgrwt>
<rscale>  0 0.27606151E+03</rscale>
<asrwt>0</asrwt>
<pdfrwt beam="1">  1        3 0.15492662E+00 0.27606151E+03</pdfrwt>
<pdfrwt beam="2">  1       -3 0.29107103E-02 0.27606151E+03</pdfrwt>
<totfact> 0.42845949E+02</totfact>
</mgrwt>
</event>
<event>
 9    1  0.8122655E-001  0.2749747E+03  0.7818608E-02  0.1098466E+00
         -2   -1    0    0    0  501 -0.00000000000E+00  0.00000000000E+00  0.15659965219E+02  0.15659965219E+02  0.00000000000E+00 0.  1.
          2   -1    0    0  501    0  0.00000000000E+00 -0.00000000000E+00 -0.12070758319E+04  0.12070758319E+04  0.00000000000E+00 0.  1.
         35    2    1    2    0    0  0.00000000000E+00 -0.71054273576E-14 -0.11914158667E+04  0.12227357971E+04  0.27497465733E+03 0.  0.
         25    2    3    3    0    0  0.42258257122E+02 -0.33468645730E+01 -0.41266337039E+03  0.43294245358E+03  0.12389975404E+03 0.  0.
         25    2    3    3    0    0 -0.42258257122E+02  0.33468645730E+01 -0.77875249629E+03  0.78979334354E+03  0.12458375987E+03 0.  0.
          5    1    4    4  502    0 -0.29676974063E+02 -0.33460392058E+02 -0.85790432103E+02  0.96862835322E+02  0.47000000000E+01 0.  1.
         -5    1    4    4    0  502  0.71935231185E+02  0.30113527485E+02 -0.32687293829E+03  0.33607961826E+03  0.47000000000E+01 0.  1.
          5    1    5    5  503    0 -0.64247805982E+02 -0.43300164112E+02 -0.53496768049E+03  0.54056932391E+03  0.47000000000E+01 0. -1.
         -5    1    5    5    0  503  0.21989548861E+02  0.46647028685E+02 -0.24378481580E+03  0.24922401963E+03  0.47000000000E+01 0. -1.
<mgrwt>
<rscale>  0 0.27497466E+03</rscale>
<asrwt>0</asrwt>
<pdfrwt beam="1">  1        2 0.18570399E+00 0.27497466E+03</pdfrwt>
<pdfrwt beam="2">  1       -2 0.24092252E-02 0.27497466E+03</pdfrwt>
<totfact> 0.11606910E+04</totfact>
</mgrwt>
</event>
<event>
 9    1  0.8122655E-001  0.2751483E+03  0.7818608E-02  0.1098369E+00
          2   -1    0    0  501    0  0.00000000000E+00  0.00000000000E+00  0.19252444477E+02  0.19252444477E+02  0.00000000000E+00 0.  1.
         -2   -1    0    0    0  501 -0.00000000000E+00 -0.00000000000E+00 -0.98307781158E+03  0.98307781158E+03  0.00000000000E+00 0.  1.
         35    2    1    2    0    0  0.14210854715E-13  0.00000000000E+00 -0.96382536710E+03  0.10023302561E+04  0.27514833079E+03 0.  0.
         25    2    3    3    0    0  0.48036008361E+02 -0.63224165220E+01 -0.57453521833E+03  0.59044830638E+03  0.12724407393E+03 0.  0.
         25    2    3    3    0    0 -0.48036008361E+02  0.63224165220E+01 -0.38929014876E+03  0.41188194967E+03  0.12550892196E+03 0.  0.
          5    1    4    4  502    0  0.80288073636E+02  0.50762383627E+01 -0.22105451356E+03  0.23528521188E+03  0.47000000000E+01 0.  1.
         -5    1    4    4    0  502 -0.32252065275E+02 -0.11398654885E+02 -0.35348070478E+03  0.35516309450E+03  0.47000000000E+01 0.  1.
          5    1    5    5  503    0 -0.82793839730E+02  0.67657406852E+01 -0.34749955120E+03  0.35732145643E+03  0.47000000000E+01 0.  1.
         -5    1    5    5    0  503  0.34757831368E+02 -0.44332416320E+00 -0.41790597569E+02  0.54560493243E+02  0.47000000000E+01 0.  1.
<mgrwt>
<rscale>  0 0.27514833E+03</rscale>
<asrwt>0</asrwt>
<pdfrwt beam="1">  1        2 0.29619143E-02 0.27514833E+03</pdfrwt>
<pdfrwt beam="2">  1       -2 0.15124275E+00 0.27514833E+03</pdfrwt>
<totfact> 0.98980995E+02</totfact>
</mgrwt>
</event>
<event>
 9    1  0.8122655E-001  0.2590537E+03  0.7818608E-02  0.1107713E+00
          1   -1    0    0  501    0  0.00000000000E+00  0.00000000000E+00  0.10126928075E+03  0.10126928075E+03  0.00000000000E+00 0. -1.
         -1   -1    0    0    0  501 -0.00000000000E+00 -0.00000000000E+00 -0.16566930464E+03  0.16566930464E+03  0.00000000000E+00 0. -1.
         35    2    1    2    0    0  0.00000000000E+00  0.71054273576E-14 -0.64400023891E+02  0.26693858539E+03  0.25905374981E+03 0.  0.
         25    2    3    3    0    0  0.91827265257E+01  0.29765017288E+02 -0.18638137452E+02  0.12999806455E+03  0.12482723220E+03 0.  0.
         25    2    3    3    0    0 -0.91827265257E+01 -0.29765017288E+02 -0.45761886439E+02  0.13694052084E+03  0.12525285337E+03 0.  0.
          5    1    4    4  502    0  0.27878111653E+02  0.74401917348E+02 -0.16774893647E+02  0.81340773731E+02  0.47000000000E+01 0.  1.
         -5    1    4    4    0  502 -0.18695385127E+02 -0.44636900059E+02 -0.18632438047E+01  0.48657290815E+02  0.47000000000E+01 0.  1.
          5    1    5    5  503    0 -0.76414830296E+01 -0.26699671417E+02 -0.88980397016E+02  0.93332018996E+02  0.47000000000E+01 0.  1.
         -5    1    5    5    0  503 -0.15412434960E+01 -0.30653458715E+01  0.43218510577E+02  0.43608501847E+02  0.47000000000E+01 0.  1.
<mgrwt>
<rscale>  0 0.25905375E+03</rscale>
<asrwt>0</asrwt>
<pdfrwt beam="1">  1        1 0.15579889E-01 0.25905375E+03</pdfrwt>
<pdfrwt beam="2">  1       -1 0.25487585E-01 0.25905375E+03</pdfrwt>
<totfact> 0.47316826E+03</totfact>
</mgrwt>
</event>
<event>
 9    1  0.8122655E-001  0.2760485E+03  0.7818608E-02  0.1097867E+00
          2   -1    0    0  501    0  0.00000000000E+00  0.00000000000E+00  0.86786778575E+02  0.86786778575E+02  0.00000000000E+00 0.  1.
         -2   -1    0    0    0  501 -0.00000000000E+00 -0.00000000000E+00 -0.21951146621E+03  0.21951146621E+03  0.00000000000E+00 0.  1.
         35    2    1    2    0    0  0.00000000000E+00  0.00000000000E+00 -0.13272468764E+03  0.30629824479E+03  0.27604849583E+03 0.  0.
         25    2    3    3    0    0 -0.52692854325E+02  0.33972445621E+00 -0.37656379678E+02  0.14072778398E+03  0.12493860070E+03 0.  0.
         25    2    3    3    0    0  0.52692854325E+02 -0.33972445621E+00 -0.95068307960E+02  0.16557046080E+03  0.12489572452E+03 0.  0.
          5    1    4    4  502    0 -0.77966154977E+02 -0.39990705622E+02 -0.25514047239E+02  0.91383994575E+02  0.47000000000E+01 0.  1.
         -5    1    4    4    0  502  0.25273300652E+02  0.40330430078E+02 -0.12142332439E+02  0.49343789408E+02  0.47000000000E+01 0.  1.
          5    1    5    5  503    0  0.18734446124E+02  0.60807594443E+02 -0.58228096553E+02  0.86377915243E+02  0.47000000000E+01 0. -1.
         -5    1    5    5    0  503  0.33958408201E+02 -0.61147318899E+02 -0.36840211407E+02  0.79192545562E+02  0.47000000000E+01 0. -1.
<mgrwt>
<rscale>  0 0.27604850E+03</rscale>
<asrwt>0</asrwt>
<pdfrwt beam="1">  1        2 0.13351812E-01 0.27604850E+03</pdfrwt>
<pdfrwt beam="2">  1       -2 0.33770995E-01 0.27604850E+03</pdfrwt>
<totfact> 0.36656363E+03</totfact>
</mgrwt>
</event>
<event>
 9    1  0.8122655E-001  0.2738644E+03  0.7818608E-02  0.1099088E+00
          2   -1    0    0  501    0  0.00000000000E+00  0.00000000000E+00  0.17273021401E+04  0.17273021401E+04  0.00000000000E+00 0.  1.
         -2   -1    0    0    0  501 -0.00000000000E+00 -0.00000000000E+00 -0.10855323698E+02  0.10855323698E+02  0.00000000000E+00 0.  1.
         35    2    1    2    0    0  0.71054273576E-14  0.00000000000E+00  0.17164468164E+04  0.17381574638E+04  0.27386437414E+03 0.  0.
         25    2    3    3    0    0 -0.15041379715E+02 -0.41272627450E+02  0.76071976416E+03  0.77326709077E+03  0.13159696501E+03 0.  0.
         25    2    3    3    0    0  0.15041379715E+02  0.41272627450E+02  0.95572705225E+03  0.96489037304E+03  0.12517811591E+03 0.  0.
          5    1    4    4  502    0  0.49264842111E+02 -0.52059993351E+02  0.45510827847E+03  0.46074168761E+03  0.47000000000E+01 0. -1.
         -5    1    4    4    0  502 -0.64306221826E+02  0.10787365901E+02  0.30561148570E+03  0.31252540316E+03  0.47000000000E+01 0. -1.
          5    1    5    5  503    0  0.38141971055E+02  0.66056169541E+02  0.35224723062E+03  0.36044199113E+03  0.47000000000E+01 0.  1.
         -5    1    5    5    0  503 -0.23100591340E+02 -0.24783542091E+02  0.60347982164E+03  0.60444838192E+03  0.47000000000E+01 0.  1.
<mgrwt>
<rscale>  0 0.27386437E+03</rscale>
<asrwt>0</asrwt>
<pdfrwt beam="1">  1        2 0.26573857E+00 0.27386437E+03</pdfrwt>
<pdfrwt beam="2">  1       -2 0.16700512E-02 0.27386437E+03</pdfrwt>
<totfact> 0.10415955E+04</totfact>
</mgrwt>
</event>
<event>
 9    1  0.8122655E-001  0.2774595E+03  0.7818608E-02  0.1097085E+00
         -2   -1    0    0    0  501 -0.00000000000E+00  0.00000000000E+00  0.51946473702E+01  0.51946473702E+01  0.00000000000E+00 0. -1.
          2   -1    0    0  501    0  0.00000000000E+00 -0.00000000000E+00 -0.37049573724E+04  0.37049573724E+04  0.00000000000E+00 0. -1.
         35    2    1    2    0    0  0.71054273576E-14 -0.71054273576E-14 -0.36997627250E+04  0.37101520197E+04  0.27745952549E+03 0.  0.
         25    2    3    3    0    0 -0.41561802782E+02 -0.40446927306E+02 -0.20917168216E+04  0.20962503202E+04  0.12499122280E+03 0.  0.
         25    2    3    3    0    0  0.41561802782E+02  0.40446927306E+02 -0.16080459034E+04  0.16139016995E+04  0.12451397903E+03 0.  0.
          5    1    4    4  502    0 -0.65408053367E+02 -0.70360175022E+02 -0.12738944966E+04  0.12775202723E+04  0.47000000000E+01 0. -1.
         -5    1    4    4    0  502  0.23846250585E+02  0.29913247716E+02 -0.81782232502E+03  0.81873004791E+03  0.47000000000E+01 0. -1.
          5    1    5    5  503    0  0.84731924472E+02  0.37707325346E+02 -0.11807851985E+04  0.11844311362E+04  0.47000000000E+01 0.  1.
         -5    1    5    5    0  503 -0.43170121691E+02  0.27396019605E+01 -0.42726070485E+03  0.42947056329E+03  0.47000000000E+01 0.  1.
<mgrwt>
<rscale>  0 0.27745953E+03</rscale>
<asrwt>0</asrwt>
<pdfrwt beam="1">  1        2 0.56999274E+00 0.27745953E+03</pdfrwt>
<pdfrwt beam="2">  1       -2 0.79917751E-03 0.27745953E+03</pdfrwt>
<totfact> 0.21699322E+03</totfact>
</mgrwt>
</event>
<event>
 9    1  0.8122655E-001  0.2750788E+03  0.7818608E-02  0.1098408E+00
          2   -1    0    0  501    0  0.00000000000E+00  0.00000000000E+00  0.19817307216E+04  0.19817307216E+04  0.00000000000E+00 0. -1.
         -2   -1    0    0    0  501 -0.00000000000E+00 -0.00000000000E+00 -0.95457410218E+01  0.95457410218E+01  0.00000000000E+00 0. -1.
         35    2    1    2    0    0 -0.44408920985E-15  0.71054273576E-14  0.19721849806E+04  0.19912764626E+04  0.27507881230E+03 0.  0.
         25    2    3    3    0    0  0.14227519826E+01 -0.34793081390E+02  0.67168402393E+03  0.68436971497E+03  0.12645116062E+03 0.  0.
         25    2    3    3    0    0 -0.14227519826E+01  0.34793081390E+02  0.13005009567E+04  0.13069067477E+04  0.12445853162E+03 0.  0.
          5    1    4    4  502    0  0.43818382236E+02  0.20831253649E+02  0.14346469944E+03  0.15151964141E+03  0.47000000000E+01 0. -1.
         -5    1    4    4    0  502 -0.42395630253E+02 -0.55624335039E+02  0.52821932450E+03  0.53285007355E+03  0.47000000000E+01 0. -1.
          5    1    5    5  503    0 -0.10795089023E+01  0.76388753495E+02  0.55779589186E+03  0.56302287163E+03  0.47000000000E+01 0. -1.
         -5    1    5    5    0  503 -0.34324308032E+00 -0.41595672105E+02  0.74270506481E+03  0.74388387605E+03  0.47000000000E+01 0. -1.
<mgrwt>
<rscale>  0 0.27507881E+03</rscale>
<asrwt>0</asrwt>
<pdfrwt beam="1">  1        2 0.30488132E+00 0.27507881E+03</pdfrwt>
<pdfrwt beam="2">  1       -2 0.14685771E-02 0.27507881E+03</pdfrwt>
<totfact> 0.92436742E+03</totfact>
</mgrwt>
</event>
<event>
 9    1  0.8122655E-001  0.2707272E+03  0.7818608E-02  0.1100864E+00
          2   -1    0    0  501    0  0.00000000000E+00  0.00000000000E+00  0.11071776725E+04  0.11071776725E+04  0.00000000000E+00 0. -1.
         -2   -1    0    0    0  501 -0.00000000000E+00 -0.00000000000E+00 -0.16549563761E+02  0.16549563761E+02  0.00000000000E+00 0. -1.
         35    2    1    2    0    0  0.53290705182E-14  0.00000000000E+00  0.10906281088E+04  0.11237272363E+04  0.27072722424E+03 0.  0.
         25    2    3    3    0    0  0.25071022329E+01  0.28177585740E+02  0.35939080979E+03  0.38129301422E+03  0.12418674096E+03 0.  0.
         25    2    3    3    0    0 -0.25071022329E+01 -0.28177585740E+02  0.73123729899E+03  0.74243422208E+03  0.12530093689E+03 0.  0.
          5    1    4    4  502    0 -0.34888910016E+02  0.58013424695E+02  0.28311173797E+03  0.29113079477E+03  0.47000000000E+01 0.  1.
         -5    1    4    4    0  502  0.37396012249E+02 -0.29835838955E+02  0.76279071819E+02  0.90162219448E+02  0.47000000000E+01 0.  1.
          5    1    5    5  503    0  0.95605804419E+01 -0.12458533879E+01  0.69661952411E+03  0.69670209431E+03  0.47000000000E+01 0. -1.
         -5    1    5    5    0  503 -0.12067682675E+02 -0.26931732352E+02  0.34617774877E+02  0.45732127767E+02  0.47000000000E+01 0. -1.
<mgrwt>
<rscale>  0 0.27072722E+03</rscale>
<asrwt>0</asrwt>
<pdfrwt beam="1">  1        2 0.17033497E+00 0.27072722E+03</pdfrwt>
<pdfrwt beam="2">  1       -2 0.25460876E-02 0.27072722E+03</pdfrwt>
<totfact> 0.12205361E+04</totfact>
</mgrwt>
</event>
<event>
 9    1  0.8122655E-001  0.2756078E+03  0.7818608E-02  0.1098112E+00
         -1   -1    0    0    0  501 -0.00000000000E+00  0.00000000000E+00  0.10272908413E+02  0.10272908413E+02  0.00000000000E+00 0. -1.
          1   -1    0    0  501    0  0.00000000000E+00 -0.00000000000E+00 -0.18485436889E+04  0.18485436889E+04  0.00000000000E+00 0. -1.
         35    2    1    2    0    0 -0.71054273576E-14  0.00000000000E+00 -0.18382707805E+04  0.18588165973E+04  0.27560783743E+03 0.  0.
         25    2    3    3    0    0  0.45434563349E+02  0.27035183568E+02 -0.10757581300E+04  0.10842893505E+04  0.12503055883E+03 0.  0.
         25    2    3    3    0    0 -0.45434563349E+02 -0.27035183568E+02 -0.76251265051E+03  0.77452724684E+03  0.12518671340E+03 0.  0.
          5    1    4    4  502    0  0.34896020635E+02  0.13222454149E+02 -0.80338213511E+02  0.88706730861E+02  0.47000000000E+01 0. -1.
         -5    1    4    4    0  502  0.10538542714E+02  0.13812729419E+02 -0.99541991648E+03  0.99558261962E+03  0.47000000000E+01 0. -1.
          5    1    5    5  503    0 -0.24809358920E+02 -0.57494243725E+02 -0.69212759949E+03  0.69497035644E+03  0.47000000000E+01 0.  1.
         -5    1    5    5    0  503 -0.20625204429E+02  0.30459060157E+02 -0.70385051018E+02  0.79556890400E+02  0.47000000000E+01 0.  1.
<mgrwt>
<rscale>  0 0.27560784E+03</rscale>
<asrwt>0</asrwt>
<pdfrwt beam="1">  1        1 0.28439151E+00 0.27560784E+03</pdfrwt>
<pdfrwt beam="2">  1       -1 0.15804465E-02 0.27560784E+03</pdfrwt>
<totfact> 0.40925995E+03</totfact>
</mgrwt>
</event>
<event>
 9    1  0.8122655E-001  0.2746889E+03  0.7818608E-02  0.1098626E+00
         -2   -1    0    0    0  501 -0.00000000000E+00  0.00000000000E+00  0.13817233225E+02  0.13817233225E+02  0.00000000000E+00 0.  1.
          2   -1    0    0  501    0  0.00000000000E+00 -0.00000000000E+00 -0.13652155720E+04  0.13652155720E+04  0.00000000000E+00 0.  1.
         35    2    1    2    0    0 -0.17763568394E-14 -0.71054273576E-14 -0.13513983387E+04  0.13790328052E+04  0.27468892923E+03 0.  0.
         25    2    3    3    0    0 -0.13194374939E+02 -0.59596228925E+02 -0.66969597856E+03  0.68397836453E+03  0.12493157095E+03 0.  0.
         25    2    3    3    0    0  0.13194374939E+02  0.59596228925E+02 -0.68170236017E+03  0.69505444065E+03  0.12106512945E+03 0.  0.
          5    1    4    4  502    0 -0.48262243548E+02 -0.11600570546E+02 -0.10603420520E+03  0.11717149851E+03  0.47000000000E+01 0.  1.
         -5    1    4    4    0  502  0.35067868609E+02 -0.47995658379E+02 -0.56366177335E+03  0.56680686602E+03  0.47000000000E+01 0.  1.
          5    1    5    5  503    0  0.22899890299E+02  0.12176234553E+00 -0.54598904734E+03  0.54648929506E+03  0.47000000000E+01 0. -1.
         -5    1    5    5    0  503 -0.97055153608E+01  0.59474466580E+02 -0.13571331283E+03  0.14856514558E+03  0.47000000000E+01 0. -1.
<mgrwt>
<rscale>  0 0.27468893E+03</rscale>
<asrwt>0</asrwt>
<pdfrwt beam="1">  1        2 0.21003317E+00 0.27468893E+03</pdfrwt>
<pdfrwt beam="2">  1       -2 0.21257281E-02 0.27468893E+03</pdfrwt>
<totfact> 0.11403263E+04</totfact>
</mgrwt>
</event>
<event>
 9    1  0.8122655E-001  0.2768212E+03  0.7818608E-02  0.1097438E+00
         -2   -1    0    0    0  501 -0.00000000000E+00  0.00000000000E+00  0.32447266631E+02  0.32447266631E+02  0.00000000000E+00 0.  1.
          2   -1    0    0  501    0  0.00000000000E+00 -0.00000000000E+00 -0.59041935312E+03  0.59041935312E+03  0.00000000000E+00 0.  1.
         35    2    1    2    0    0 -0.44408920985E-15  0.71054273576E-14 -0.55797208649E+03  0.62286661975E+03  0.27682119987E+03 0.  0.
         25    2    3    3    0    0 -0.24158003875E+01 -0.59892808321E+02 -0.26753094709E+03  0.30108149039E+03  0.12443581327E+03 0.  0.
         25    2    3    3    0    0  0.24158003875E+01  0.59892808321E+02 -0.29044113940E+03  0.32178512936E+03  0.12488646621E+03 0.  0.
          5    1    4    4  502    0 -0.43001159074E+01  0.23124695022E+02 -0.17511568805E+03  0.17675077573E+03  0.47000000000E+01 0. -1.
         -5    1    4    4    0  502  0.18843155200E+01 -0.83017503343E+02 -0.92415259036E+02  0.12433071467E+03  0.47000000000E+01 0. -1.
          5    1    5    5  503    0  0.18386918680E+02 -0.34449805310E+02 -0.11980029679E+03  0.12609151032E+03  0.47000000000E+01 0. -1.
         -5    1    5    5    0  503 -0.15971118293E+02  0.94342613631E+02 -0.17064084261E+03  0.19569361904E+03  0.47000000000E+01 0. -1.
<mgrwt>
<rscale>  0 0.27682120E+03</rscale>
<asrwt>0</asrwt>
<pdfrwt beam="1">  1        2 0.90833745E-01 0.27682120E+03</pdfrwt>
<pdfrwt beam="2">  1       -2 0.49918873E-02 0.27682120E+03</pdfrwt>
<totfact> 0.10047361E+04</totfact>
</mgrwt>
</event>
<event>
 9    1  0.8122655E-001  0.2590285E+03  0.7818608E-02  0.1107728E+00
         -2   -1    0    0    0  501 -0.00000000000E+00  0.00000000000E+00  0.94537199048E+01  0.94537199048E+01  0.00000000000E+00 0. -1.
          2   -1    0    0  501    0  0.00000000000E+00 -0.00000000000E+00 -0.17743223281E+04  0.17743223281E+04  0.00000000000E+00 0. -1.
         35    2    1    2    0    0  0.53290705182E-14  0.00000000000E+00 -0.17648686082E+04  0.17837760480E+04  0.25902854137E+03 0.  0.
         25    2    3    3    0    0 -0.21938754564E+01 -0.80314049229E+01 -0.64947113981E+03  0.66132529981E+03  0.12437473280E+03 0.  0.
         25    2    3    3    0    0  0.21938754564E+01  0.80314049229E+01 -0.11153974684E+04  0.11224507482E+04  0.12535889718E+03 0.  0.
          5    1    4    4  502    0 -0.56466046366E+02  0.21523991977E+02 -0.38117181656E+03  0.38596080159E+03  0.47000000000E+01 0. -1.
         -5    1    4    4    0  502  0.54272170910E+02 -0.29555396900E+02 -0.26829932325E+03  0.27536449821E+03  0.47000000000E+01 0. -1.
          5    1    5    5  503    0  0.76607385717E+01  0.27813219625E+02 -0.58999088176E+02  0.65842573666E+02  0.47000000000E+01 0. -1.
         -5    1    5    5    0  503 -0.54668631153E+01 -0.19781814702E+02 -0.10563983802E+04  0.10566081745E+04  0.47000000000E+01 0. -1.
<mgrwt>
<rscale>  0 0.25902854E+03</rscale>
<asrwt>0</asrwt>
<pdfrwt beam="1">  1        2 0.27297276E+00 0.25902854E+03</pdfrwt>
<pdfrwt beam="2">  1       -2 0.14544180E-02 0.25902854E+03</pdfrwt>
<totfact> 0.12033238E+04</totfact>
</mgrwt>
</event>
<event>
 9    1  0.8122655E-001  0.2772311E+03  0.7818608E-02  0.1097211E+00
          1   -1    0    0  501    0  0.00000000000E+00  0.00000000000E+00  0.37892262801E+03  0.37892262801E+03  0.00000000000E+00 0. -1.
         -1   -1    0    0    0  501 -0.00000000000E+00 -0.00000000000E+00 -0.50707620246E+02  0.50707620246E+02  0.00000000000E+00 0. -1.
         35    2    1    2    0    0  0.00000000000E+00 -0.35527136788E-14  0.32821500777E+03  0.42963024826E+03  0.27723105687E+03 0.  0.
         25    2    3    3    0    0  0.20419288617E+02  0.79171755936E+01  0.84229596045E+02  0.15400241245E+03  0.12705309588E+03 0.  0.
         25    2    3    3    0    0 -0.20419288617E+02 -0.79171755936E+01  0.24398541172E+03  0.27562783581E+03  0.12634157560E+03 0.  0.
          5    1    4    4  502    0 -0.28992792928E+02 -0.16259719290E+02  0.92290497566E+02  0.98206855434E+02  0.47000000000E+01 0.  1.
         -5    1    4    4    0  502  0.49412081545E+02  0.24176894884E+02 -0.80609015218E+01  0.55795557011E+02  0.47000000000E+01 0.  1.
          5    1    5    5  503    0 -0.14683341400E+02  0.48794642345E+02  0.19073990238E+03  0.19748498169E+03  0.47000000000E+01 0. -1.
         -5    1    5    5    0  503 -0.57359472173E+01 -0.56711817939E+02  0.53245509345E+02  0.78142854118E+02  0.47000000000E+01 0. -1.
<mgrwt>
<rscale>  0 0.27723106E+03</rscale>
<asrwt>0</asrwt>
<pdfrwt beam="1">  1        1 0.58295787E-01 0.27723106E+03</pdfrwt>
<pdfrwt beam="2">  1       -1 0.78011726E-02 0.27723106E+03</pdfrwt>
<totfact> 0.57834840E+03</totfact>
</mgrwt>
</event>
<event>
 9    1  0.8122655E-001  0.2781209E+03  0.7818608E-02  0.1096720E+00
          1   -1    0    0  501    0  0.00000000000E+00  0.00000000000E+00  0.50004322804E+03  0.50004322804E+03  0.00000000000E+00 0. -1.
         -1   -1    0    0    0  501 -0.00000000000E+00 -0.00000000000E+00 -0.38672283169E+02  0.38672283169E+02  0.00000000000E+00 0. -1.
         35    2    1    2    0    0 -0.35527136788E-14 -0.71054273576E-14  0.46137094487E+03  0.53871551121E+03  0.27812093277E+03 0.  0.
         25    2    3    3    0    0  0.19526517341E+02  0.19942323488E+02  0.33178360979E+03  0.35577865778E+03  0.12537586873E+03 0.  0.
         25    2    3    3    0    0 -0.19526517341E+02 -0.19942323488E+02  0.12958733508E+03  0.18293685343E+03  0.12607154233E+03 0.  0.
          5    1    4    4  502    0  0.22047045397E+02 -0.33338907380E+02  0.32462384175E+02  0.51705428558E+02  0.47000000000E+01 0.  1.
         -5    1    4    4    0  502 -0.25205280565E+01  0.53281230869E+02  0.29932122562E+03  0.30407322922E+03  0.47000000000E+01 0.  1.
          5    1    5    5  503    0 -0.42062924466E+02 -0.63908191089E+02  0.59390372321E+02  0.96968308366E+02  0.47000000000E+01 0.  1.
         -5    1    5    5    0  503  0.22536407125E+02  0.43965867601E+02  0.70196962761E+02  0.85968545066E+02  0.47000000000E+01 0.  1.
<mgrwt>
<rscale>  0 0.27812093E+03</rscale>
<asrwt>0</asrwt>
<pdfrwt beam="1">  1        1 0.76929723E-01 0.27812093E+03</pdfrwt>
<pdfrwt beam="2">  1       -1 0.59495824E-02 0.27812093E+03</pdfrwt>
<totfact> 0.60846415E+03</totfact>
</mgrwt>
</event>
<event>
 9    1  0.8122655E-001  0.2794301E+03  0.7818608E-02  0.1096001E+00
          1   -1    0    0  501    0  0.00000000000E+00  0.00000000000E+00  0.21512308025E+04  0.21512308025E+04  0.00000000000E+00 0.  1.
         -1   -1    0    0    0  501 -0.00000000000E+00 -0.00000000000E+00 -0.90740094103E+01  0.90740094103E+01  0.00000000000E+00 0.  1.
         35    2    1    2    0    0  0.00000000000E+00  0.00000000000E+00  0.21421567931E+04  0.21603048119E+04  0.27943005240E+03 0.  0.
         25    2    3    3    0    0  0.16908111680E+02 -0.40386537078E+02  0.71470431626E+03  0.72646565343E+03  0.12260966243E+03 0.  0.
         25    2    3    3    0    0 -0.16908111680E+02  0.40386537078E+02  0.14274524769E+04  0.14338391585E+04  0.12789527807E+03 0.  0.
          5    1    4    4  502    0 -0.49122153743E+02 -0.19244471838E+02  0.43702421481E+03  0.44022220527E+03  0.47000000000E+01 0.  1.
         -5    1    4    4    0  502  0.66030265423E+02 -0.21142065239E+02  0.27768010145E+03  0.28624344816E+03  0.47000000000E+01 0.  1.
          5    1    5    5  503    0  0.45830556381E+02  0.93000650643E+01  0.25546156607E+03  0.25974917295E+03  0.47000000000E+01 0.  1.
         -5    1    5    5    0  503 -0.62738668061E+02  0.31086472013E+02  0.11719909108E+04  0.11740899856E+04  0.47000000000E+01 0.  1.
<mgrwt>
<rscale>  0 0.27943005E+03</rscale>
<asrwt>0</asrwt>
<pdfrwt beam="1">  1        1 0.33095818E+00 0.27943005E+03</pdfrwt>
<pdfrwt beam="2">  1       -1 0.13960032E-02 0.27943005E+03</pdfrwt>
<totfact> 0.31166953E+03</totfact>
</mgrwt>
</event>
<event>
 9    1  0.8122655E-001  0.2720948E+03  0.7818608E-02  0.1100087E+00
          1   -1    0    0  501    0  0.00000000000E+00  0.00000000000E+00  0.23083245243E+03  0.23083245243E+03  0.00000000000E+00 0.  1.
         -1   -1    0    0    0  501 -0.00000000000E+00 -0.00000000000E+00 -0.80183250545E+02  0.80183250545E+02  0.00000000000E+00 0.  1.
         35    2    1    2    0    0 -0.14210854715E-13  0.00000000000E+00  0.15064920188E+03  0.31101570297E+03  0.27209480970E+03 0.  0.
         25    2    3    3    0    0 -0.35779845646E+02 -0.40827168971E+02  0.40033685170E+02  0.13506786404E+03  0.11701955763E+03 0.  0.
         25    2    3    3    0    0  0.35779845646E+02  0.40827168971E+02  0.11061551671E+03  0.17594783893E+03  0.12559774841E+03 0.  0.
          5    1    4    4  502    0  0.29262731381E+01 -0.56030400884E+02 -0.21822694304E+02  0.60384508646E+02  0.47000000000E+01 0.  1.
         -5    1    4    4    0  502 -0.38706118784E+02  0.15203231914E+02  0.61856379474E+02  0.74683355398E+02  0.47000000000E+01 0.  1.
          5    1    5    5  503    0  0.66986991986E+02  0.67329330264E+02  0.84076846519E+02  0.12693109126E+03  0.47000000000E+01 0.  1.
         -5    1    5    5    0  503 -0.31207146340E+02 -0.26502161293E+02  0.26538670192E+02  0.49016747663E+02  0.47000000000E+01 0.  1.
<mgrwt>
<rscale>  0 0.27209481E+03</rscale>
<asrwt>0</asrwt>
<pdfrwt beam="1">  1        1 0.35512685E-01 0.27209481E+03</pdfrwt>
<pdfrwt beam="2">  1       -1 0.12335885E-01 0.27209481E+03</pdfrwt>
<totfact> 0.53196788E+03</totfact>
</mgrwt>
</event>
<event>
 9    1  0.8122655E-001  0.2757627E+03  0.7818608E-02  0.1098026E+00
         -2   -1    0    0    0  501 -0.00000000000E+00  0.00000000000E+00  0.28050913798E+02  0.28050913798E+02  0.00000000000E+00 0. -1.
          2   -1    0    0  501    0  0.00000000000E+00 -0.00000000000E+00 -0.67774148121E+03  0.67774148121E+03  0.00000000000E+00 0. -1.
         35    2    1    2    0    0  0.71054273576E-14  0.00000000000E+00 -0.64969056742E+03  0.70579239501E+03  0.27576270863E+03 0.  0.
         25    2    3    3    0    0  0.35777356076E+02 -0.13685830917E+02 -0.43971050758E+03  0.45914122896E+03  0.12648326561E+03 0.  0.
         25    2    3    3    0    0 -0.35777356076E+02  0.13685830917E+02 -0.20998005984E+03  0.24665116605E+03  0.12360360436E+03 0.  0.
          5    1    4    4  502    0  0.73747568095E+02 -0.53289457028E+01 -0.15553303970E+03  0.17227802501E+03  0.47000000000E+01 0.  1.
         -5    1    4    4    0  502 -0.37970212019E+02 -0.83568852144E+01 -0.28417746788E+03  0.28686320395E+03  0.47000000000E+01 0.  1.
          5    1    5    5  503    0 -0.52611741308E+02  0.18608630500E+02 -0.21923182555E+03  0.22627187140E+03  0.47000000000E+01 0.  1.
         -5    1    5    5    0  503  0.16834385231E+02 -0.49227995830E+01  0.92517657121E+01  0.20379294655E+02  0.47000000000E+01 0.  1.
<mgrwt>
<rscale>  0 0.27576271E+03</rscale>
<asrwt>0</asrwt>
<pdfrwt beam="1">  1        2 0.10426792E+00 0.27576271E+03</pdfrwt>
<pdfrwt beam="2">  1       -2 0.43155252E-02 0.27576271E+03</pdfrwt>
<totfact> 0.10645497E+04</totfact>
</mgrwt>
</event>
<event>
 9    1  0.8122655E-001  0.2756533E+03  0.7818608E-02  0.1098087E+00
          1   -1    0    0  501    0  0.00000000000E+00  0.00000000000E+00  0.10077693984E+04  0.10077693984E+04  0.00000000000E+00 0.  1.
         -1   -1    0    0    0  501 -0.00000000000E+00 -0.00000000000E+00 -0.18849732384E+02  0.18849732384E+02  0.00000000000E+00 0.  1.
         35    2    1    2    0    0  0.35527136788E-14  0.00000000000E+00  0.98891966601E+03  0.10266191308E+04  0.27565328559E+03 0.  0.
         25    2    3    3    0    0  0.19792559628E+02  0.51231818004E+02  0.57066215009E+03  0.58654743611E+03  0.12396031896E+03 0.  0.
         25    2    3    3    0    0 -0.19792559628E+02 -0.51231818004E+02  0.41825751592E+03  0.44007169466E+03  0.12532877653E+03 0.  0.
          5    1    4    4  502    0 -0.21747409530E+02 -0.32222386659E+02  0.11687562537E+03  0.12326083656E+03  0.47000000000E+01 0. -1.
         -5    1    4    4    0  502  0.41539969158E+02  0.83454204662E+02  0.45378652472E+03  0.46328659955E+03  0.47000000000E+01 0. -1.
          5    1    5    5  503    0  0.37402802055E+02  0.20809298426E+02  0.16708705939E+03  0.17254614431E+03  0.47000000000E+01 0. -1.
         -5    1    5    5    0  503 -0.57195361682E+02 -0.72041116430E+02  0.25117045653E+03  0.26752555035E+03  0.47000000000E+01 0. -1.
<mgrwt>
<rscale>  0 0.27565329E+03</rscale>
<asrwt>0</asrwt>
<pdfrwt beam="1">  1        1 0.15504140E+00 0.27565329E+03</pdfrwt>
<pdfrwt beam="2">  1       -1 0.28999596E-02 0.27565329E+03</pdfrwt>
<totfact> 0.62540943E+03</totfact>
</mgrwt>
</event>
<event>
 9    1  0.8122655E-001  0.2761538E+03  0.7818608E-02  0.1097808E+00
          1   -1    0    0  501    0  0.00000000000E+00  0.00000000000E+00  0.27000072975E+03  0.27000072975E+03  0.00000000000E+00 0. -1.
         -1   -1    0    0    0  501 -0.00000000000E+00 -0.00000000000E+00 -0.70611773629E+02  0.70611773629E+02  0.00000000000E+00 0. -1.
         35    2    1    2    0    0  0.00000000000E+00  0.00000000000E+00  0.19938895612E+03  0.34061250338E+03  0.27615380069E+03 0.  0.
         25    2    3    3    0    0 -0.75903880626E+01 -0.55502208180E+02  0.84240063492E+02  0.16223040265E+03  0.12682352362E+03 0.  0.
         25    2    3    3    0    0  0.75903880626E+01  0.55502208180E+02  0.11514889263E+03  0.17838210073E+03  0.12418855536E+03 0.  0.
          5    1    4    4  502    0  0.34774834690E+02 -0.44720941508E+02 -0.10480354997E+02  0.57802937451E+02  0.47000000000E+01 0. -1.
         -5    1    4    4    0  502 -0.42365222753E+02 -0.10781266673E+02  0.94720418489E+02  0.10442746520E+03  0.47000000000E+01 0. -1.
          5    1    5    5  503    0  0.38455300368E+02 -0.26062669958E+02  0.25404852482E+02  0.53156085460E+02  0.47000000000E+01 0. -1.
         -5    1    5    5    0  503 -0.30864912306E+02  0.81564878139E+02  0.89744040148E+02  0.12522601527E+03  0.47000000000E+01 0. -1.
<mgrwt>
<rscale>  0 0.27615380E+03</rscale>
<asrwt>0</asrwt>
<pdfrwt beam="1">  1        1 0.41538573E-01 0.27615380E+03</pdfrwt>
<pdfrwt beam="2">  1       -1 0.10863350E-01 0.27615380E+03</pdfrwt>
<totfact> 0.53296617E+03</totfact>
</mgrwt>
</event>
<event>
 8    1  0.8122655E-001  0.3789825E+03  0.7818608E-02  0.1051310E+00
         -2   -1    0    0    0  501 -0.00000000000E+00  0.00000000000E+00  0.34926091792E+02  0.34926091792E+02  0.00000000000E+00 0.  1.
          2   -1    0    0  501    0  0.00000000000E+00 -0.00000000000E+00 -0.10280835792E+04  0.10280835792E+04  0.00000000000E+00 0.  1.
         25    2    1    2    0    0  0.13106294036E+03  0.53056049955E+02 -0.47452437327E+03  0.51076345489E+03  0.12535344929E+03 0.  0.
         25    2    1    2    0    0 -0.13106294036E+03 -0.53056049955E+02 -0.51863311418E+03  0.55224621614E+03  0.12650350727E+03 0.  0.
          5    1    3    3  502    0  0.10745912984E+03  0.93075198173E+02 -0.35398258554E+03  0.38149209424E+03  0.47000000000E+01 0. -1.
         -5    1    3    3    0  502  0.23603810523E+02 -0.40019148218E+02 -0.12054178773E+03  0.12927136065E+03  0.47000000000E+01 0. -1.
          5    1    4    4  503    0 -0.93893838361E+02 -0.79887164113E+02 -0.24024538464E+03  0.27007026255E+03  0.47000000000E+01 0. -1.
         -5    1    4    4    0  503 -0.37169101998E+02  0.26831114158E+02 -0.27838772954E+03  0.28217595360E+03  0.47000000000E+01 0. -1.
<mgrwt>
<rscale>  0 0.37898254E+03</rscale>
<asrwt>0</asrwt>
<pdfrwt beam="1">  1        2 0.15816672E+00 0.37898254E+03</pdfrwt>
<pdfrwt beam="2">  1       -2 0.53732444E-02 0.37898254E+03</pdfrwt>
<totfact> 0.44446915E+03</totfact>
</mgrwt>
</event>
<event>
 9    1  0.8122655E-001  0.2719694E+03  0.7818608E-02  0.1100158E+00
         -1   -1    0    0    0  501 -0.00000000000E+00  0.00000000000E+00  0.10603762464E+03  0.10603762464E+03  0.00000000000E+00 0.  1.
          1   -1    0    0  501    0  0.00000000000E+00 -0.00000000000E+00 -0.17438944630E+03  0.17438944630E+03  0.00000000000E+00 0.  1.
         35    2    1    2    0    0  0.71054273576E-14  0.00000000000E+00 -0.68351821655E+02  0.28042707094E+03  0.27196942952E+03 0.  0.
         25    2    3    3    0    0  0.25804716650E+02  0.13161477276E+02 -0.80675474450E+02  0.15183031600E+03  0.12531881261E+03 0.  0.
         25    2    3    3    0    0 -0.25804716650E+02 -0.13161477276E+02  0.12323652795E+02  0.12859675494E+03  0.12468418135E+03 0.  0.
          5    1    4    4  502    0  0.68753420143E+02  0.37379696614E+02 -0.57020160058E+02  0.96941545033E+02  0.47000000000E+01 0. -1.
         -5    1    4    4    0  502 -0.42948703493E+02 -0.24218219338E+02 -0.23655314392E+02  0.54888770970E+02  0.47000000000E+01 0. -1.
          5    1    5    5  503    0  0.49493237221E+01  0.75133063404E+01 -0.52666794594E+02  0.53636059049E+02  0.47000000000E+01 0. -1.
         -5    1    5    5    0  503 -0.30754040373E+02 -0.20674783616E+02  0.64990447389E+02  0.74960695892E+02  0.47000000000E+01 0. -1.
<mgrwt>
<rscale>  0 0.27196943E+03</rscale>
<asrwt>0</asrwt>
<pdfrwt beam="1">  1        1 0.26829145E-01 0.27196943E+03</pdfrwt>
<pdfrwt beam="2">  1       -1 0.16313481E-01 0.27196943E+03</pdfrwt>
<totfact> 0.48710562E+03</totfact>
</mgrwt>
</event>
<event>
 9    1  0.8122655E-001  0.2717654E+03  0.7818608E-02  0.1100273E+00
          2   -1    0    0  501    0  0.00000000000E+00  0.00000000000E+00  0.95183231423E+03  0.95183231423E+03  0.00000000000E+00 0. -1.
         -2   -1    0    0    0  501 -0.00000000000E+00 -0.00000000000E+00 -0.19398494910E+02  0.19398494910E+02  0.00000000000E+00 0. -1.
         35    2    1    2    0    0  0.10658141036E-13  0.00000000000E+00  0.93243381932E+03  0.97123080914E+03  0.27176544521E+03 0.  0.
         25    2    3    3    0    0  0.81858522310E+01  0.49951630718E+02  0.38626568460E+03  0.40882388194E+03  0.12399037767E+03 0.  0.
         25    2    3    3    0    0 -0.81858522310E+01 -0.49951630718E+02  0.54616813472E+03  0.56240692720E+03  0.12425677766E+03 0.  0.
          5    1    4    4  502    0 -0.45900415196E+02  0.59914617938E+02  0.26515991511E+03  0.27573262436E+03  0.47000000000E+01 0. -1.
         -5    1    4    4    0  502  0.54086267427E+02 -0.99629872200E+01  0.12110576949E+03  0.13309125758E+03  0.47000000000E+01 0. -1.
          5    1    5    5  503    0  0.27882086688E+02 -0.25939597869E+01  0.25007674053E+02  0.37836664057E+02  0.47000000000E+01 0.  1.
         -5    1    5    5    0  503 -0.36067938919E+02 -0.47357670931E+02  0.52116046067E+03  0.52457026315E+03  0.47000000000E+01 0.  1.
<mgrwt>
<rscale>  0 0.27176545E+03</rscale>
<asrwt>0</asrwt>
<pdfrwt beam="1">  1        2 0.14643570E+00 0.27176545E+03</pdfrwt>
<pdfrwt beam="2">  1       -2 0.29843846E-02 0.27176545E+03</pdfrwt>
<totfact> 0.11973250E+04</totfact>
</mgrwt>
</event>
<event>
 9    1  0.8122655E-001  0.2726315E+03  0.7818608E-02  0.1099783E+00
          1   -1    0    0  501    0  0.00000000000E+00  0.00000000000E+00  0.15365286574E+03  0.15365286574E+03  0.00000000000E+00 0.  1.
         -1   -1    0    0    0  501 -0.00000000000E+00 -0.00000000000E+00 -0.12093487013E+03  0.12093487013E+03  0.00000000000E+00 0.  1.
         35    2    1    2    0    0  0.00000000000E+00  0.00000000000E+00  0.32717995613E+02  0.27458773587E+03  0.27263154156E+03 0.  0.
         25    2    3    3    0    0 -0.34826644527E+02 -0.45035010312E+02  0.22337460791E+01  0.13570841664E+03  0.12316954738E+03 0.  0.
         25    2    3    3    0    0  0.34826644527E+02  0.45035010312E+02  0.30484249534E+02  0.13887931924E+03  0.12295173248E+03 0.  0.
          5    1    4    4  502    0  0.81005011275E+01  0.33298510613E+02 -0.24456729839E+02  0.42363080176E+02  0.47000000000E+01 0. -1.
         -5    1    4    4    0  502 -0.42927145655E+02 -0.78333520925E+02  0.26690475918E+02  0.93345336463E+02  0.47000000000E+01 0. -1.
          5    1    5    5  503    0 -0.43194551152E+02  0.30790796057E+02 -0.13961176614E+01  0.53271770344E+02  0.47000000000E+01 0. -1.
         -5    1    5    5    0  503  0.78021195679E+02  0.14244214255E+02  0.31880367195E+02  0.85607548893E+02  0.47000000000E+01 0. -1.
<mgrwt>
<rscale>  0 0.27263154E+03</rscale>
<asrwt>0</asrwt>
<pdfrwt beam="1">  1        1 0.23638902E-01 0.27263154E+03</pdfrwt>
<pdfrwt beam="2">  1       -1 0.18605365E-01 0.27263154E+03</pdfrwt>
<totfact> 0.46339042E+03</totfact>
</mgrwt>
</event>
<event>
 9    1  0.8122655E-001  0.2731585E+03  0.7818608E-02  0.1099485E+00
         -1   -1    0    0    0  501 -0.00000000000E+00  0.00000000000E+00  0.30614208772E+03  0.30614208772E+03  0.00000000000E+00 0.  1.
          1   -1    0    0  501    0  0.00000000000E+00 -0.00000000000E+00 -0.60932139263E+02  0.60932139263E+02  0.00000000000E+00 0.  1.
         35    2    1    2    0    0  0.00000000000E+00 -0.53290705182E-14  0.24520994845E+03  0.36707422698E+03  0.27315850580E+03 0.  0.
         25    2    3    3    0    0 -0.10894018602E+02  0.15505827262E+02  0.18333779335E+03  0.22220557383E+03  0.12411067742E+03 0.  0.
         25    2    3    3    0    0  0.10894018602E+02 -0.15505827262E+02  0.61872155103E+02  0.14486865315E+03  0.12961347448E+03 0.  0.
          5    1    4    4  502    0  0.47322495734E+02  0.38118496549E+02  0.70848283195E+02  0.93455912672E+02  0.47000000000E+01 0. -1.
         -5    1    4    4    0  502 -0.58216514336E+02 -0.22612669287E+02  0.11248951015E+03  0.12874966116E+03  0.47000000000E+01 0. -1.
          5    1    5    5  503    0 -0.52965700834E+02  0.48526302055E+01  0.56071987824E+02  0.77427845788E+02  0.47000000000E+01 0. -1.
         -5    1    5    5    0  503  0.63859719437E+02 -0.20358457468E+02  0.58001672794E+01  0.67440807361E+02  0.47000000000E+01 0. -1.
<mgrwt>
<rscale>  0 0.27315851E+03</rscale>
<asrwt>0</asrwt>
<pdfrwt beam="1">  1        1 0.93741755E-02 0.27315851E+03</pdfrwt>
<pdfrwt beam="2">  1       -1 0.47098782E-01 0.27315851E+03</pdfrwt>
<totfact> 0.32006045E+03</totfact>
</mgrwt>
</event>
<event>
 9    1  0.8122655E-001  0.2862456E+03  0.7818608E-02  0.1092326E+00
         -2   -1    0    0    0  501 -0.00000000000E+00  0.00000000000E+00  0.46002731784E+02  0.46002731784E+02  0.00000000000E+00 0. -1.
          2   -1    0    0  501    0  0.00000000000E+00 -0.00000000000E+00 -0.44528077775E+03  0.44528077775E+03  0.00000000000E+00 0. -1.
         35    2    1    2    0    0  0.00000000000E+00  0.35527136788E-14 -0.39927804597E+03  0.49128350954E+03  0.28624557420E+03 0.  0.
         25    2    3    3    0    0 -0.64838263171E+02  0.20632376512E+02 -0.22448873948E+03  0.26571908208E+03  0.12482684445E+03 0.  0.
         25    2    3    3    0    0  0.64838263171E+02 -0.20632376512E+02 -0.17478930648E+03  0.22556442746E+03  0.12529291257E+03 0.  0.
          5    1    4    4  502    0 -0.77007576694E+02 -0.30577686198E+02 -0.96666294302E+02  0.12740339170E+03  0.47000000000E+01 0.  1.
         -5    1    4    4    0  502  0.12169313523E+02  0.51210062710E+02 -0.12782244518E+03  0.13831569038E+03  0.47000000000E+01 0.  1.
          5    1    5    5  503    0  0.88953552454E+02 -0.48207787449E+02 -0.15032655196E+03  0.18126468903E+03  0.47000000000E+01 0.  1.
         -5    1    5    5    0  503 -0.24115289283E+02  0.27575410938E+02 -0.24462754520E+02  0.44299738422E+02  0.47000000000E+01 0.  1.
<mgrwt>
<rscale>  0 0.28624557E+03</rscale>
<asrwt>0</asrwt>
<pdfrwt beam="1">  1        2 0.68504737E-01 0.28624557E+03</pdfrwt>
<pdfrwt beam="2">  1       -2 0.70773431E-02 0.28624557E+03</pdfrwt>
<totfact> 0.80885337E+03</totfact>
</mgrwt>
</event>
<event>
 9    1  0.8122655E-001  0.2749857E+03  0.7818608E-02  0.1098460E+00
          2   -1    0    0  501    0  0.00000000000E+00  0.00000000000E+00  0.35695657248E+03  0.35695657248E+03  0.00000000000E+00 0.  1.
         -2   -1    0    0    0  501 -0.00000000000E+00 -0.00000000000E+00 -0.52959626139E+02  0.52959626139E+02  0.00000000000E+00 0.  1.
         35    2    1    2    0    0  0.00000000000E+00  0.00000000000E+00  0.30399694635E+03  0.40991619862E+03  0.27498572055E+03 0.  0.
         25    2    3    3    0    0  0.40783226426E+02  0.11893269141E+02  0.21053157197E+03  0.24819728658E+03  0.12439304185E+03 0.  0.
         25    2    3    3    0    0 -0.40783226426E+02 -0.11893269141E+02  0.93465374379E+02  0.16171891205E+03  0.12495002560E+03 0.  0.
          5    1    4    4  502    0  0.56745445147E+02  0.23856350670E+02  0.33997426118E+02  0.70477556675E+02  0.47000000000E+01 0. -1.
         -5    1    4    4    0  502 -0.15962218722E+02 -0.11963081529E+02  0.17653414585E+03  0.17771972990E+03  0.47000000000E+01 0. -1.
          5    1    5    5  503    0 -0.29695527243E+02 -0.60930177759E+02  0.16920011307E+02  0.70019195101E+02  0.47000000000E+01 0.  1.
         -5    1    5    5    0  503 -0.11087699183E+02  0.49036908618E+02  0.76545363073E+02  0.91699716945E+02  0.47000000000E+01 0.  1.
<mgrwt>
<rscale>  0 0.27498572E+03</rscale>
<asrwt>0</asrwt>
<pdfrwt beam="1">  1        2 0.54916394E-01 0.27498572E+03</pdfrwt>
<pdfrwt beam="2">  1       -2 0.81476350E-02 0.27498572E+03</pdfrwt>
<totfact> 0.82508922E+03</totfact>
</mgrwt>
</event>
<event>
 9    1  0.8122655E-001  0.2779816E+03  0.7818608E-02  0.1096796E+00
         -1   -1    0    0    0  501 -0.00000000000E+00  0.00000000000E+00  0.11587938651E+02  0.11587938651E+02  0.00000000000E+00 0. -1.
          1   -1    0    0  501    0  0.00000000000E+00 -0.00000000000E+00 -0.16671169837E+04  0.16671169837E+04  0.00000000000E+00 0. -1.
         35    2    1    2    0    0 -0.35527136788E-14 -0.71054273576E-14 -0.16555290450E+04  0.16787049223E+04  0.27798164926E+03 0.  0.
         25    2    3    3    0    0  0.13889230340E+02 -0.48505359534E+02 -0.10431200589E+04  0.10515705571E+04  0.12310767155E+03 0.  0.
         25    2    3    3    0    0 -0.13889230340E+02  0.48505359534E+02 -0.61240898617E+03  0.62713436521E+03  0.12532783035E+03 0.  0.
          5    1    4    4  502    0 -0.29812734789E+02  0.11990253144E+02 -0.68285653838E+03  0.68362834006E+03  0.47000000000E+01 0.  1.
         -5    1    4    4    0  502  0.43701965129E+02 -0.60495612678E+02 -0.36026352047E+03  0.36794221706E+03  0.47000000000E+01 0.  1.
          5    1    5    5  503    0 -0.42832491238E+02 -0.27469966018E+02 -0.29800418030E+03  0.30235377096E+03  0.47000000000E+01 0. -1.
         -5    1    5    5    0  503  0.28943260897E+02  0.75975325553E+02 -0.31440480587E+03  0.32478059425E+03  0.47000000000E+01 0. -1.
<mgrwt>
<rscale>  0 0.27798165E+03</rscale>
<asrwt>0</asrwt>
<pdfrwt beam="1">  1        1 0.25647925E+00 0.27798165E+03</pdfrwt>
<pdfrwt beam="2">  1       -1 0.17827618E-02 0.27798165E+03</pdfrwt>
<totfact> 0.45069233E+03</totfact>
</mgrwt>
</event>
<event>
 9    1  0.8122655E-001  0.2629200E+03  0.7818608E-02  0.1105401E+00
          1   -1    0    0  501    0  0.00000000000E+00  0.00000000000E+00  0.10694364889E+04  0.10694364889E+04  0.00000000000E+00 0. -1.
         -1   -1    0    0    0  501 -0.00000000000E+00 -0.00000000000E+00 -0.16159657051E+02  0.16159657051E+02  0.00000000000E+00 0. -1.
         35    2    1    2    0    0  0.00000000000E+00 -0.71054273576E-14  0.10532768319E+04  0.10855961460E+04  0.26291996423E+03 0.  0.
         25    2    3    3    0    0  0.13043494193E+01 -0.28895390906E+02  0.63303061399E+03  0.64614056714E+03  0.12622689617E+03 0.  0.
         25    2    3    3    0    0 -0.13043494193E+01  0.28895390906E+02  0.42024621787E+03  0.43945557882E+03  0.12521053142E+03 0.  0.
          5    1    4    4  502    0 -0.13108533722E+02 -0.63189138902E+02  0.56298126588E+03  0.56668747707E+03  0.47000000000E+01 0. -1.
         -5    1    4    4    0  502  0.14412883141E+02  0.34293747996E+02  0.70049348104E+02  0.79453090071E+02  0.47000000000E+01 0. -1.
          5    1    5    5  503    0  0.95414496174E+01  0.49893695103E+02  0.61516220573E+02  0.79917178788E+02  0.47000000000E+01 0.  1.
         -5    1    5    5    0  503 -0.10845799037E+02 -0.20998304197E+02  0.35872999730E+03  0.35953840003E+03  0.47000000000E+01 0.  1.
<mgrwt>
<rscale>  0 0.26291996E+03</rscale>
<asrwt>0</asrwt>
<pdfrwt beam="1">  1        1 0.16452864E+00 0.26291996E+03</pdfrwt>
<pdfrwt beam="2">  1       -1 0.24861019E-02 0.26291996E+03</pdfrwt>
<totfact> 0.70574293E+03</totfact>
</mgrwt>
</event>
<event>
 9    1  0.8122655E-001  0.2729364E+03  0.7818608E-02  0.1099611E+00
         -2   -1    0    0    0  501 -0.00000000000E+00  0.00000000000E+00  0.11406636370E+02  0.11406636370E+02  0.00000000000E+00 0. -1.
          2   -1    0    0  501    0  0.00000000000E+00 -0.00000000000E+00 -0.16326956682E+04  0.16326956682E+04  0.00000000000E+00 0. -1.
         35    2    1    2    0    0  0.00000000000E+00 -0.71054273576E-14 -0.16212890318E+04  0.16441023046E+04  0.27293637200E+03 0.  0.
         25    2    3    3    0    0 -0.18132117071E+02 -0.27764385452E+02 -0.10893943692E+04  0.10967180382E+04  0.12210949534E+03 0.  0.
         25    2    3    3    0    0  0.18132117071E+02  0.27764385452E+02 -0.53189466257E+03  0.54738426633E+03  0.12497186959E+03 0.  0.
          5    1    4    4  502    0  0.15967384180E+01  0.39511503112E+02 -0.16828634597E+03  0.17293378123E+03  0.47000000000E+01 0.  1.
         -5    1    4    4    0  502 -0.19728855489E+02 -0.67275888564E+02 -0.92110802327E+03  0.92378425698E+03  0.47000000000E+01 0.  1.
          5    1    5    5  503    0 -0.24165305969E+02  0.64664483331E+02 -0.35697914732E+03  0.36362296275E+03  0.47000000000E+01 0. -1.
         -5    1    5    5    0  503  0.42297423040E+02 -0.36900097879E+02 -0.17491551525E+03  0.18376130358E+03  0.47000000000E+01 0. -1.
<mgrwt>
<rscale>  0 0.27293637E+03</rscale>
<asrwt>0</asrwt>
<pdfrwt beam="1">  1        2 0.25118377E+00 0.27293637E+03</pdfrwt>
<pdfrwt beam="2">  1       -2 0.17548684E-02 0.27293637E+03</pdfrwt>
<totfact> 0.10864203E+04</totfact>
</mgrwt>
</event>
<event>
 9    1  0.8122655E-001  0.2791781E+03  0.7818608E-02  0.1096139E+00
         -1   -1    0    0    0  501 -0.00000000000E+00  0.00000000000E+00  0.10057059059E+04  0.10057059059E+04  0.00000000000E+00 0. -1.
          1   -1    0    0  501    0  0.00000000000E+00 -0.00000000000E+00 -0.19374547151E+02  0.19374547151E+02  0.00000000000E+00 0. -1.
         35    2    1    2    0    0 -0.35527136788E-14 -0.71054273576E-14  0.98633135879E+03  0.10250804531E+04  0.27917805426E+03 0.  0.
         25    2    3    3    0    0  0.29109371679E+01 -0.50925019772E+02  0.37221014640E+03  0.39608786186E+03  0.12547258680E+03 0.  0.
         25    2    3    3    0    0 -0.29109371679E+01  0.50925019772E+02  0.61412121239E+03  0.62899259123E+03  0.12603565019E+03 0.  0.
          5    1    4    4  502    0  0.42151534401E+02 -0.76620689184E+02  0.22179150750E+03  0.23845554022E+03  0.47000000000E+01 0.  1.
         -5    1    4    4    0  502 -0.39240597233E+02  0.25695669412E+02  0.15041863890E+03  0.15763232164E+03  0.47000000000E+01 0.  1.
          5    1    5    5  503    0  0.22905338516E+02 -0.20446691965E+02  0.40986915745E+03  0.41104444769E+03  0.47000000000E+01 0. -1.
         -5    1    5    5    0  503 -0.25816275684E+02  0.71371711737E+02  0.20425205494E+03  0.21794814354E+03  0.47000000000E+01 0. -1.
<mgrwt>
<rscale>  0 0.27917805E+03</rscale>
<asrwt>0</asrwt>
<pdfrwt beam="1">  1        1 0.29807003E-02 0.27917805E+03</pdfrwt>
<pdfrwt beam="2">  1       -1 0.15472395E+00 0.27917805E+03</pdfrwt>
<totfact> 0.11979650E+03</totfact>
</mgrwt>
</event>
<event>
 9    1  0.8122655E-001  0.2833777E+03  0.7818608E-02  0.1093858E+00
          1   -1    0    0  501    0  0.00000000000E+00  0.00000000000E+00  0.26142917783E+03  0.26142917783E+03  0.00000000000E+00 0.  1.
         -1   -1    0    0    0  501 -0.00000000000E+00 -0.00000000000E+00 -0.76792250723E+02  0.76792250723E+02  0.00000000000E+00 0.  1.
         35    2    1    2    0    0  0.00000000000E+00 -0.35527136788E-14  0.18463692710E+03  0.33822142855E+03  0.28337773357E+03 0.  0.
         25    2    3    3    0    0 -0.58065368007E+02  0.29744139112E+02  0.10286504338E+03  0.17460703749E+03  0.12510035819E+03 0.  0.
         25    2    3    3    0    0  0.58065368007E+02 -0.29744139112E+02  0.81771883726E+02  0.16361439106E+03  0.12580432115E+03 0.  0.
          5    1    4    4  502    0 -0.47219538200E+02 -0.43853664940E+02  0.33487975146E+02  0.72776116933E+02  0.47000000000E+01 0.  1.
         -5    1    4    4    0  502 -0.10845829807E+02  0.73597804052E+02  0.69377068231E+02  0.10183092056E+03  0.47000000000E+01 0.  1.
          5    1    5    5  503    0  0.89072190183E+02 -0.16883877029E+02  0.19703144645E+02  0.92893618061E+02  0.47000000000E+01 0. -1.
         -5    1    5    5    0  503 -0.31006822176E+02 -0.12860262083E+02  0.62068739081E+02  0.70720772998E+02  0.47000000000E+01 0. -1.
<mgrwt>
<rscale>  0 0.28337773E+03</rscale>
<asrwt>0</asrwt>
<pdfrwt beam="1">  1        1 0.40219873E-01 0.28337773E+03</pdfrwt>
<pdfrwt beam="2">  1       -1 0.11814193E-01 0.28337773E+03</pdfrwt>
<totfact> 0.48739295E+03</totfact>
</mgrwt>
</event>
<event>
 9    1  0.8122655E-001  0.2769541E+03  0.7818608E-02  0.1097364E+00
         -2   -1    0    0    0  501 -0.00000000000E+00  0.00000000000E+00  0.35711024715E+02  0.35711024715E+02  0.00000000000E+00 0.  1.
          2   -1    0    0  501    0  0.00000000000E+00 -0.00000000000E+00 -0.53697406709E+03  0.53697406709E+03  0.00000000000E+00 0.  1.
         35    2    1    2    0    0 -0.17763568394E-14 -0.71054273576E-14 -0.50126304237E+03  0.57268509180E+03  0.27695410581E+03 0.  0.
         25    2    3    3    0    0 -0.10502252901E+02  0.54475014152E+02 -0.18795140729E+03  0.23135109149E+03  0.12296248025E+03 0.  0.
         25    2    3    3    0    0  0.10502252901E+02 -0.54475014152E+02 -0.31331163508E+03  0.34133400031E+03  0.12355927568E+03 0.  0.
          5    1    4    4  502    0 -0.24819377268E+02  0.81842433926E+02 -0.17965255938E+03  0.19902592186E+03  0.47000000000E+01 0.  1.
         -5    1    4    4    0  502  0.14317124366E+02 -0.27367419773E+02 -0.82988479055E+01  0.32325169632E+02  0.47000000000E+01 0.  1.
          5    1    5    5  503    0  0.13620027503E+01 -0.89414454143E+02 -0.27149098026E+03  0.28587801949E+03  0.47000000000E+01 0. -1.
         -5    1    5    5    0  503  0.91402501510E+01  0.34939439991E+02 -0.41820654822E+02  0.55455980827E+02  0.47000000000E+01 0. -1.
<mgrwt>
<rscale>  0 0.27695411E+03</rscale>
<asrwt>0</asrwt>
<pdfrwt beam="1">  1        2 0.82611395E-01 0.27695411E+03</pdfrwt>
<pdfrwt beam="2">  1       -2 0.54940038E-02 0.27695411E+03</pdfrwt>
<totfact> 0.96789009E+03</totfact>
</mgrwt>
</event>
<event>
 9    1  0.8122655E-001  0.2732492E+03  0.7818608E-02  0.1099434E+00
         -2   -1    0    0    0  501 -0.00000000000E+00  0.00000000000E+00  0.61484565281E+02  0.61484565281E+02  0.00000000000E+00 0.  1.
          2   -1    0    0  501    0  0.00000000000E+00 -0.00000000000E+00 -0.30359293510E+03  0.30359293510E+03  0.00000000000E+00 0.  1.
         35    2    1    2    0    0  0.88817841970E-15  0.00000000000E+00 -0.24210836982E+03  0.36507750038E+03  0.27324918764E+03 0.  0.
         25    2    3    3    0    0  0.50754649229E+01  0.22536218637E+02 -0.18384638327E+03  0.22512917801E+03  0.12786716801E+03 0.  0.
         25    2    3    3    0    0 -0.50754649229E+01 -0.22536218637E+02 -0.58261986549E+02  0.13994832237E+03  0.12512966220E+03 0.  0.
          5    1    4    4  502    0  0.11957593820E+02  0.16186683606E+02  0.15296299566E+02  0.25711078479E+02  0.47000000000E+01 0.  1.
         -5    1    4    4    0  502 -0.68821288972E+01  0.63495350307E+01 -0.19914268283E+03  0.19941809953E+03  0.47000000000E+01 0.  1.
          5    1    5    5  503    0 -0.39509279643E+02  0.47554774227E+01  0.23900078293E+02  0.46657276879E+02  0.47000000000E+01 0.  1.
         -5    1    5    5    0  503  0.34433814720E+02 -0.27291696059E+02 -0.82162064842E+02  0.93291045492E+02  0.47000000000E+01 0.  1.
<mgrwt>
<rscale>  0 0.27324919E+03</rscale>
<asrwt>0</asrwt>
<pdfrwt beam="1">  1        2 0.46706605E-01 0.27324919E+03</pdfrwt>
<pdfrwt beam="2">  1       -2 0.94591639E-02 0.27324919E+03</pdfrwt>
<totfact> 0.77657850E+03</totfact>
</mgrwt>
</event>
<event>
 9    1  0.8122655E-001  0.2735116E+03  0.7818608E-02  0.1099286E+00
         -2   -1    0    0    0  501 -0.00000000000E+00  0.00000000000E+00  0.13754323834E+03  0.13754323834E+03  0.00000000000E+00 0.  1.
          2   -1    0    0  501    0  0.00000000000E+00 -0.00000000000E+00 -0.13597290267E+03  0.13597290267E+03  0.00000000000E+00 0.  1.
         35    2    1    2    0    0  0.00000000000E+00  0.00000000000E+00  0.15703356685E+01  0.27351614101E+03  0.27351163309E+03 0.  0.
         25    2    3    3    0    0  0.18316665238E+02  0.44217576402E+02 -0.27444996520E+02  0.13752883059E+03  0.12597720873E+03 0.  0.
         25    2    3    3    0    0 -0.18316665238E+02 -0.44217576402E+02  0.29015332189E+02  0.13598731042E+03  0.12393532509E+03 0.  0.
          5    1    4    4  502    0  0.23735963171E+02  0.28886981774E+02  0.47536767309E+02  0.60660431171E+02  0.47000000000E+01 0.  1.
         -5    1    4    4    0  502 -0.54192979331E+01  0.15330594628E+02 -0.74981763830E+02  0.76868399416E+02  0.47000000000E+01 0.  1.
          5    1    5    5  503    0  0.16306667369E+02 -0.79275158929E+02  0.56915732233E+01  0.81270795675E+02  0.47000000000E+01 0. -1.
         -5    1    5    5    0  503 -0.34623332607E+02  0.35057582527E+02  0.23323758966E+02  0.54716514744E+02  0.47000000000E+01 0. -1.
<mgrwt>
<rscale>  0 0.27351163E+03</rscale>
<asrwt>0</asrwt>
<pdfrwt beam="1">  1        2 0.20918908E-01 0.27351163E+03</pdfrwt>
<pdfrwt beam="2">  1       -2 0.21160498E-01 0.27351163E+03</pdfrwt>
<totfact> 0.49899887E+03</totfact>
</mgrwt>
</event>
<event>
 9    1  0.8122655E-001  0.2808774E+03  0.7818608E-02  0.1095211E+00
          2   -1    0    0  501    0  0.00000000000E+00  0.00000000000E+00  0.39737599655E+03  0.39737599655E+03  0.00000000000E+00 0. -1.
         -2   -1    0    0    0  501 -0.00000000000E+00 -0.00000000000E+00 -0.49633149067E+02  0.49633149067E+02  0.00000000000E+00 0. -1.
         35    2    1    2    0    0  0.17763568394E-14  0.00000000000E+00  0.34774284748E+03  0.44700914561E+03  0.28087735453E+03 0.  0.
         25    2    3    3    0    0  0.12002617798E+02  0.45403391722E+02  0.10820323620E+03  0.17217418279E+03  0.12542120268E+03 0.  0.
         25    2    3    3    0    0 -0.12002617798E+02 -0.45403391722E+02  0.23953961128E+03  0.27483496282E+03  0.12629133226E+03 0.  0.
          5    1    4    4  502    0  0.21676728015E+02 -0.37340070209E+02  0.12477829783E+02  0.45187914499E+02  0.47000000000E+01 0. -1.
         -5    1    4    4    0  502 -0.96741102173E+01  0.82743461931E+02  0.95725406421E+02  0.12698626829E+03  0.47000000000E+01 0. -1.
          5    1    5    5  503    0  0.96690376745E+01  0.31472915680E+02  0.15034998602E+02  0.36498984834E+02  0.47000000000E+01 0.  1.
         -5    1    5    5    0  503 -0.21671655473E+02 -0.76876307403E+02  0.22450461267E+03  0.23833597799E+03  0.47000000000E+01 0.  1.
<mgrwt>
<rscale>  0 0.28087735E+03</rscale>
<asrwt>0</asrwt>
<pdfrwt beam="1">  1        2 0.61134767E-01 0.28087735E+03</pdfrwt>
<pdfrwt beam="2">  1       -2 0.76358694E-02 0.28087735E+03</pdfrwt>
<totfact> 0.81352357E+03</totfact>
</mgrwt>
</event>
<event>
 9    1  0.8122655E-001  0.2722973E+03  0.7818608E-02  0.1099972E+00
          2   -1    0    0  501    0  0.00000000000E+00  0.00000000000E+00  0.13879492323E+04  0.13879492323E+04  0.00000000000E+00 0.  1.
         -2   -1    0    0    0  501 -0.00000000000E+00 -0.00000000000E+00 -0.13355279184E+02  0.13355279184E+02  0.00000000000E+00 0.  1.
         35    2    1    2    0    0 -0.71054273576E-14  0.00000000000E+00  0.13745939531E+04  0.14013045115E+04  0.27229726029E+03 0.  0.
         25    2    3    3    0    0 -0.13113041548E+02 -0.46936002772E+02  0.67085264557E+03  0.68418665583E+03  0.12527237417E+03 0.  0.
         25    2    3    3    0    0  0.13113041548E+02  0.46936002772E+02  0.70374130756E+03  0.71711785567E+03  0.12896220663E+03 0.  0.
          5    1    4    4  502    0 -0.60562666957E+02 -0.33364119702E+00  0.21256491751E+03  0.22107438138E+03  0.47000000000E+01 0. -1.
         -5    1    4    4    0  502  0.47449625409E+02 -0.46602361575E+02  0.45828772805E+03  0.46311227444E+03  0.47000000000E+01 0. -1.
          5    1    5    5  503    0  0.55310792033E+02  0.24023729608E+02  0.59607384202E+03  0.59913482493E+03  0.47000000000E+01 0.  1.
         -5    1    5    5    0  503 -0.42197750485E+02  0.22912273164E+02  0.10766746554E+03  0.11798303074E+03  0.47000000000E+01 0.  1.
<mgrwt>
<rscale>  0 0.27229726E+03</rscale>
<asrwt>0</asrwt>
<pdfrwt beam="1">  1        2 0.21353054E+00 0.27229726E+03</pdfrwt>
<pdfrwt beam="2">  1       -2 0.20546594E-02 0.27229726E+03</pdfrwt>
<totfact> 0.11649134E+04</totfact>
</mgrwt>
</event>
<event>
 9    1  0.8122655E-001  0.2737648E+03  0.7818608E-02  0.1099144E+00
          4   -1    0    0  501    0  0.00000000000E+00  0.00000000000E+00  0.36516700051E+02  0.36516700051E+02  0.00000000000E+00 0. -1.
         -4   -1    0    0    0  501 -0.00000000000E+00 -0.00000000000E+00 -0.51310202139E+03  0.51310202139E+03  0.00000000000E+00 0. -1.
         35    2    1    2    0    0  0.35527136788E-14  0.00000000000E+00 -0.47658532133E+03  0.54961872144E+03  0.27376480863E+03 0.  0.
         25    2    3    3    0    0  0.57859573925E+01  0.39145344095E+02 -0.16213750949E+03  0.20833977262E+03  0.12470386363E+03 0.  0.
         25    2    3    3    0    0 -0.57859573925E+01 -0.39145344095E+02 -0.31444781185E+03  0.34127894882E+03  0.12660197180E+03 0.  0.
          5    1    4    4  502    0 -0.10296457338E+02  0.79144159732E+02 -0.13584532909E+03  0.15762569108E+03  0.47000000000E+01 0. -1.
         -5    1    4    4    0  502  0.16082414731E+02 -0.39998815637E+02 -0.26292180395E+02  0.50714081534E+02  0.47000000000E+01 0. -1.
          5    1    5    5  503    0  0.45600496503E+02 -0.40951693780E+02 -0.78266766552E+02  0.99519964084E+02  0.47000000000E+01 0.  1.
         -5    1    5    5    0  503 -0.51386453895E+02  0.18063496849E+01 -0.23618104530E+03  0.24175898473E+03  0.47000000000E+01 0.  1.
<mgrwt>
<rscale>  0 0.27376481E+03</rscale>
<asrwt>0</asrwt>
<pdfrwt beam="1">  1        4 0.56179544E-02 0.27376481E+03</pdfrwt>
<pdfrwt beam="2">  1       -4 0.78938764E-01 0.27376481E+03</pdfrwt>
<totfact> 0.54149838E+02</totfact>
</mgrwt>
</event>
<event>
 9    1  0.8122655E-001  0.2733437E+03  0.7818608E-02  0.1099381E+00
          2   -1    0    0  501    0  0.00000000000E+00  0.00000000000E+00  0.37731629197E+04  0.37731629197E+04  0.00000000000E+00 0.  1.
         -2   -1    0    0    0  501 -0.00000000000E+00 -0.00000000000E+00 -0.49505399430E+01  0.49505399430E+01  0.00000000000E+00 0.  1.
         35    2    1    2    0    0  0.00000000000E+00  0.71054273576E-14  0.37682123798E+04  0.37781134596E+04  0.27334369387E+03 0.  0.
         25    2    3    3    0    0 -0.49543123585E+01 -0.41457075774E+02  0.23021971053E+04  0.23060679531E+04  0.12686472328E+03 0.  0.
         25    2    3    3    0    0  0.49543123585E+01  0.41457075774E+02  0.14660152744E+04  0.14720455066E+04  0.12638810959E+03 0.  0.
          5    1    4    4  502    0  0.22065940375E+02 -0.81204139189E+02  0.15937742640E+04  0.15960011004E+04  0.47000000000E+01 0.  1.
         -5    1    4    4    0  502 -0.27020252733E+02  0.39747063414E+02  0.70842284132E+03  0.71006685264E+03  0.47000000000E+01 0.  1.
          5    1    5    5  503    0  0.20709175859E+02 -0.13553433574E+02  0.11828437562E+04  0.11831120011E+04  0.47000000000E+01 0. -1.
         -5    1    5    5    0  503 -0.15754863501E+02  0.55010509348E+02  0.28317151817E+03  0.28893350544E+03  0.47000000000E+01 0. -1.
<mgrwt>
<rscale>  0 0.27334369E+03</rscale>
<asrwt>0</asrwt>
<pdfrwt beam="1">  1        2 0.58048430E+00 0.27334369E+03</pdfrwt>
<pdfrwt beam="2">  1       -2 0.76162455E-03 0.27334369E+03</pdfrwt>
<totfact> 0.20835505E+03</totfact>
</mgrwt>
</event>
<event>
 9    1  0.8122655E-001  0.2715381E+03  0.7818608E-02  0.1100403E+00
         -1   -1    0    0    0  501 -0.00000000000E+00  0.00000000000E+00  0.22825948758E+03  0.22825948758E+03  0.00000000000E+00 0.  1.
          1   -1    0    0  501    0  0.00000000000E+00 -0.00000000000E+00 -0.80755610766E+02  0.80755610766E+02  0.00000000000E+00 0.  1.
         35    2    1    2    0    0  0.00000000000E+00  0.00000000000E+00  0.14750387681E+03  0.30901509834E+03  0.27153809554E+03 0.  0.
         25    2    3    3    0    0  0.39539490287E+02 -0.33514086554E+02  0.80445545245E+02  0.15813584364E+03  0.12589239058E+03 0.  0.
         25    2    3    3    0    0 -0.39539490287E+02  0.33514086554E+02  0.67058331566E+02  0.15087925470E+03  0.12482453436E+03 0.  0.
          5    1    4    4  502    0  0.29980291849E+02 -0.58419713685E+02  0.10343498143E+03  0.12260736614E+03  0.47000000000E+01 0. -1.
         -5    1    4    4    0  502  0.95591984383E+01  0.24905627131E+02 -0.22989436189E+02  0.35528477506E+02  0.47000000000E+01 0. -1.
          5    1    5    5  503    0 -0.90470935090E+01 -0.38733205813E+02  0.59815653382E+02  0.71986898273E+02  0.47000000000E+01 0.  1.
         -5    1    5    5    0  503 -0.30492396778E+02  0.72247292366E+02  0.72426781837E+01  0.78892356428E+02  0.47000000000E+01 0.  1.
<mgrwt>
<rscale>  0 0.27153810E+03</rscale>
<asrwt>0</asrwt>
<pdfrwt beam="1">  1        1 0.12423940E-01 0.27153810E+03</pdfrwt>
<pdfrwt beam="2">  1       -1 0.35116844E-01 0.27153810E+03</pdfrwt>
<totfact> 0.37028140E+03</totfact>
</mgrwt>
</event>
<event>
 9    1  0.8122655E-001  0.2752957E+03  0.7818608E-02  0.1098286E+00
          2   -1    0    0  501    0  0.00000000000E+00  0.00000000000E+00  0.78190269708E+02  0.78190269708E+02  0.00000000000E+00 0. -1.
         -2   -1    0    0    0  501 -0.00000000000E+00 -0.00000000000E+00 -0.24231832744E+03  0.24231832744E+03  0.00000000000E+00 0. -1.
         35    2    1    2    0    0  0.00000000000E+00 -0.71054273576E-14 -0.16412805774E+03  0.32050859715E+03  0.27529573464E+03 0.  0.
         25    2    3    3    0    0 -0.54996346276E+02  0.10822346117E+02 -0.94673500746E+02  0.16688223034E+03  0.12547862678E+03 0.  0.
         25    2    3    3    0    0  0.54996346276E+02 -0.10822346117E+02 -0.69454556991E+02  0.15362636682E+03  0.12504160834E+03 0.  0.
          5    1    4    4  502    0 -0.10829523078E+02  0.64492613283E+02 -0.60806210952E+02  0.89420696869E+02  0.47000000000E+01 0.  1.
         -5    1    4    4    0  502 -0.44166823198E+02 -0.53670267166E+02 -0.33867289794E+02  0.77461533467E+02  0.47000000000E+01 0.  1.
          5    1    5    5  503    0 -0.67072669657E+01  0.43746833842E+02  0.18968545291E+01  0.44547289013E+02  0.47000000000E+01 0. -1.
         -5    1    5    5    0  503  0.61703613241E+02 -0.54569179959E+02 -0.71351411520E+02  0.10907907780E+03  0.47000000000E+01 0. -1.
<mgrwt>
<rscale>  0 0.27529573E+03</rscale>
<asrwt>0</asrwt>
<pdfrwt beam="1">  1        2 0.12029272E-01 0.27529573E+03</pdfrwt>
<pdfrwt beam="2">  1       -2 0.37279743E-01 0.27529573E+03</pdfrwt>
<totfact> 0.34568352E+03</totfact>
</mgrwt>
</event>
<event>
 9    1  0.8122655E-001  0.2729758E+03  0.7818608E-02  0.1099588E+00
         -2   -1    0    0    0  501 -0.00000000000E+00  0.00000000000E+00  0.57734946751E+01  0.57734946751E+01  0.00000000000E+00 0. -1.
          2   -1    0    0  501    0  0.00000000000E+00 -0.00000000000E+00 -0.32266337972E+04  0.32266337972E+04  0.00000000000E+00 0. -1.
         35    2    1    2    0    0  0.00000000000E+00  0.35527136788E-14 -0.32208603025E+04  0.32324072919E+04  0.27297584543E+03 0.  0.
         25    2    3    3    0    0  0.40278336571E+02  0.21666703317E+02 -0.12451365128E+04  0.12522320436E+04  0.12501345981E+03 0.  0.
         25    2    3    3    0    0 -0.40278336571E+02 -0.21666703317E+02 -0.19757237897E+04  0.19801752482E+04  0.12457018136E+03 0.  0.
          5    1    4    4  502    0  0.26176983970E+02 -0.20519442105E+02 -0.10964301626E+04  0.10969446082E+04  0.47000000000E+01 0.  1.
         -5    1    4    4    0  502  0.14101352601E+02  0.42186145422E+02 -0.14870635021E+03  0.15528743543E+03  0.47000000000E+01 0.  1.
          5    1    5    5  503    0 -0.15619048455E+02 -0.21322906556E+01 -0.30183202078E+02  0.34374656737E+02  0.47000000000E+01 0.  1.
         -5    1    5    5    0  503 -0.24659288116E+02 -0.19534412661E+02 -0.19455405876E+04  0.19458005915E+04  0.47000000000E+01 0.  1.
<mgrwt>
<rscale>  0 0.27297585E+03</rscale>
<asrwt>0</asrwt>
<pdfrwt beam="1">  1        2 0.49640648E+00 0.27297585E+03</pdfrwt>
<pdfrwt beam="2">  1       -2 0.88822766E-03 0.27297585E+03</pdfrwt>
<totfact> 0.38458019E+03</totfact>
</mgrwt>
</event>
<event>
 9    1  0.8122655E-001  0.2797832E+03  0.7818608E-02  0.1095807E+00
         -3   -1    0    0    0  501 -0.00000000000E+00  0.00000000000E+00  0.18960399901E+02  0.18960399901E+02  0.00000000000E+00 0.  1.
          3   -1    0    0  501    0  0.00000000000E+00 -0.00000000000E+00 -0.10321330643E+04  0.10321330643E+04  0.00000000000E+00 0.  1.
         35    2    1    2    0    0 -0.71054273576E-14  0.14210854715E-13 -0.10131726644E+04  0.10510934642E+04  0.27978317069E+03 0.  0.
         25    2    3    3    0    0 -0.43448724641E+02  0.45405540208E+02 -0.51379745975E+03  0.53252896315E+03  0.12509920943E+03 0.  0.
         25    2    3    3    0    0  0.43448724641E+02 -0.45405540208E+02 -0.49937520468E+03  0.51856450107E+03  0.12483626064E+03 0.  0.
          5    1    4    4  502    0  0.27972696341E+02 -0.25770004806E+02 -0.11825035035E+03  0.12430527038E+03  0.47000000000E+01 0.  1.
         -5    1    4    4    0  502 -0.71421420982E+02  0.71175545014E+02 -0.39554710940E+03  0.40822369277E+03  0.47000000000E+01 0.  1.
          5    1    5    5  503    0 -0.16821126070E+02  0.15165029349E+02 -0.17124126716E+02  0.28779404324E+02  0.47000000000E+01 0. -1.
         -5    1    5    5    0  503  0.60269850711E+02 -0.60570569557E+02 -0.48225107796E+03  0.48978509675E+03  0.47000000000E+01 0. -1.
<mgrwt>
<rscale>  0 0.27978317E+03</rscale>
<asrwt>0</asrwt>
<pdfrwt beam="1">  1        3 0.15878972E+00 0.27978317E+03</pdfrwt>
<pdfrwt beam="2">  1       -3 0.29169842E-02 0.27978317E+03</pdfrwt>
<totfact> 0.40134711E+02</totfact>
</mgrwt>
</event>
<event>
 9    1  0.8122655E-001  0.2764507E+03  0.7818608E-02  0.1097643E+00
         -1   -1    0    0    0  501 -0.00000000000E+00  0.00000000000E+00  0.11177314441E+03  0.11177314441E+03  0.00000000000E+00 0.  1.
          1   -1    0    0  501    0  0.00000000000E+00 -0.00000000000E+00 -0.17093776560E+03  0.17093776560E+03  0.00000000000E+00 0.  1.
         35    2    1    2    0    0 -0.14210854715E-13  0.00000000000E+00 -0.59164621184E+02  0.28271091001E+03  0.27645073022E+03 0.  0.
         25    2    3    3    0    0 -0.43242723093E+02  0.30717511871E+02 -0.51378792306E+02  0.14488230244E+03  0.12464992028E+03 0.  0.
         25    2    3    3    0    0  0.43242723093E+02 -0.30717511871E+02 -0.77858288782E+01  0.13782860757E+03  0.12697482938E+03 0.  0.
          5    1    4    4  502    0 -0.82095452492E+02  0.34989907041E+02 -0.13737392620E+02  0.90414395262E+02  0.47000000000E+01 0.  1.
         -5    1    4    4    0  502  0.38852729399E+02 -0.42723951698E+01 -0.37641399686E+02  0.54467907180E+02  0.47000000000E+01 0.  1.
          5    1    5    5  503    0 -0.33332887750E+02 -0.40114680145E+02 -0.25928235162E+02  0.58434855587E+02  0.47000000000E+01 0. -1.
         -5    1    5    5    0  503  0.76575610843E+02  0.93971682736E+01  0.18142406283E+02  0.79393751979E+02  0.47000000000E+01 0. -1.
<mgrwt>
<rscale>  0 0.27645073E+03</rscale>
<asrwt>0</asrwt>
<pdfrwt beam="1">  1        1 0.26298118E-01 0.27645073E+03</pdfrwt>
<pdfrwt beam="2">  1       -1 0.17195868E-01 0.27645073E+03</pdfrwt>
<totfact> 0.45946990E+03</totfact>
</mgrwt>
</event>
<event>
 9    1  0.8122655E-001  0.2669209E+03  0.7818608E-02  0.1103055E+00
          2   -1    0    0  501    0  0.00000000000E+00  0.00000000000E+00  0.95040039604E+03  0.95040039604E+03  0.00000000000E+00 0.  1.
         -2   -1    0    0    0  501 -0.00000000000E+00 -0.00000000000E+00 -0.18741244205E+02  0.18741244205E+02  0.00000000000E+00 0.  1.
         35    2    1    2    0    0  0.00000000000E+00  0.00000000000E+00  0.93165915183E+03  0.96914164024E+03  0.26692085655E+03 0.  0.
         25    2    3    3    0    0 -0.25767300566E+02 -0.36033883407E+02  0.51329844337E+03  0.53009260870E+03  0.12474168229E+03 0.  0.
         25    2    3    3    0    0  0.25767300566E+02  0.36033883407E+02  0.41836070847E+03  0.43904903155E+03  0.12560244895E+03 0.  0.
          5    1    4    4  502    0  0.83215482772E+01  0.42365249994E+02  0.23286484314E+03  0.23688011260E+03  0.47000000000E+01 0.  1.
         -5    1    4    4    0  502 -0.34088848843E+02 -0.78399133401E+02  0.28043360023E+03  0.29321249610E+03  0.47000000000E+01 0.  1.
          5    1    5    5  503    0 -0.51028207048E+02  0.13340118331E+02  0.16292148020E+03  0.17131064001E+03  0.47000000000E+01 0.  1.
         -5    1    5    5    0  503  0.76795507614E+02  0.22693765076E+02  0.25543922827E+03  0.26773839153E+03  0.47000000000E+01 0.  1.
<mgrwt>
<rscale>  0 0.26692086E+03</rscale>
<asrwt>0</asrwt>
<pdfrwt beam="1">  1        2 0.14621541E+00 0.26692086E+03</pdfrwt>
<pdfrwt beam="2">  1       -2 0.28832691E-02 0.26692086E+03</pdfrwt>
<totfact> 0.12621036E+04</totfact>
</mgrwt>
</event>
<event>
 9    1  0.8122655E-001  0.2769598E+03  0.7818608E-02  0.1097361E+00
          2   -1    0    0  501    0  0.00000000000E+00  0.00000000000E+00  0.32049793134E+03  0.32049793134E+03  0.00000000000E+00 0. -1.
         -2   -1    0    0    0  501 -0.00000000000E+00 -0.00000000000E+00 -0.59834046622E+02  0.59834046622E+02  0.00000000000E+00 0. -1.
         35    2    1    2    0    0  0.14210854715E-13  0.35527136788E-14  0.26066388472E+03  0.38033197796E+03  0.27695983944E+03 0.  0.
         25    2    3    3    0    0 -0.56977180676E+02  0.10227887406E+02  0.14600269320E+03  0.20085340713E+03  0.12519702847E+03 0.  0.
         25    2    3    3    0    0  0.56977180676E+02 -0.10227887406E+02  0.11466119152E+03  0.17947857083E+03  0.12535692940E+03 0.  0.
          5    1    4    4  502    0  0.72979559038E+01  0.54529901632E+02  0.36116358692E+02  0.65979176242E+02  0.47000000000E+01 0.  1.
         -5    1    4    4    0  502 -0.64275136580E+02 -0.44302014226E+02  0.10988633451E+03  0.13487423089E+03  0.47000000000E+01 0.  1.
          5    1    5    5  503    0  0.81636757496E+02  0.89677603925E+01  0.12189849812E+03  0.14705888190E+03  0.47000000000E+01 0.  1.
         -5    1    5    5    0  503 -0.24659576820E+02 -0.19195647798E+02 -0.72373066061E+01  0.32419688929E+02  0.47000000000E+01 0.  1.
<mgrwt>
<rscale>  0 0.27695984E+03</rscale>
<asrwt>0</asrwt>
<pdfrwt beam="1">  1        2 0.49307373E-01 0.27695984E+03</pdfrwt>
<pdfrwt beam="2">  1       -2 0.92052381E-02 0.27695984E+03</pdfrwt>
<totfact> 0.76519638E+03</totfact>
</mgrwt>
</event>
<event>
 9    1  0.8122655E-001  0.2788849E+03  0.7818608E-02  0.1096300E+00
          2   -1    0    0  501    0  0.00000000000E+00  0.00000000000E+00  0.98679448634E+03  0.98679448634E+03  0.00000000000E+00 0.  1.
         -2   -1    0    0    0  501 -0.00000000000E+00 -0.00000000000E+00 -0.19704403281E+02  0.19704403281E+02  0.00000000000E+00 0.  1.
         35    2    1    2    0    0  0.00000000000E+00  0.71054273576E-14  0.96709008306E+03  0.10064988896E+04  0.27888489751E+03 0.  0.
         25    2    3    3    0    0  0.43427917725E+02  0.36425115951E+02  0.50852878757E+03  0.52794657644E+03  0.13005109256E+03 0.  0.
         25    2    3    3    0    0 -0.43427917725E+02 -0.36425115951E+02  0.45856129548E+03  0.47855231318E+03  0.12458363305E+03 0.  0.
          5    1    4    4  502    0  0.73662797387E+02  0.66023834594E+02  0.36999434596E+03  0.38301861639E+03  0.47000000000E+01 0. -1.
         -5    1    4    4    0  502 -0.30234879662E+02 -0.29598718643E+02  0.13853444161E+03  0.14492796005E+03  0.47000000000E+01 0. -1.
          5    1    5    5  503    0  0.42727844023E+02 -0.73079739150E+01  0.19117776017E+03  0.19608697336E+03  0.47000000000E+01 0. -1.
         -5    1    5    5    0  503 -0.86155761748E+02 -0.29117142036E+02  0.26738353531E+03  0.28246533982E+03  0.47000000000E+01 0. -1.
<mgrwt>
<rscale>  0 0.27888490E+03</rscale>
<asrwt>0</asrwt>
<pdfrwt beam="1">  1        2 0.15181450E+00 0.27888490E+03</pdfrwt>
<pdfrwt beam="2">  1       -2 0.30314474E-02 0.27888490E+03</pdfrwt>
<totfact> 0.11135603E+04</totfact>
</mgrwt>
</event>
<event>
 9    1  0.8122655E-001  0.2755125E+03  0.7818608E-02  0.1098165E+00
         -1   -1    0    0    0  501 -0.00000000000E+00  0.00000000000E+00  0.36938473180E+02  0.36938473180E+02  0.00000000000E+00 0. -1.
          1   -1    0    0  501    0  0.00000000000E+00 -0.00000000000E+00 -0.51374025352E+03  0.51374025352E+03  0.00000000000E+00 0. -1.
         35    2    1    2    0    0  0.00000000000E+00  0.14210854715E-13 -0.47680178034E+03  0.55067872670E+03  0.27551247214E+03 0.  0.
         25    2    3    3    0    0 -0.88783752015E+01 -0.55567128547E+02 -0.29184472912E+03  0.32234318547E+03  0.12476077900E+03 0.  0.
         25    2    3    3    0    0  0.88783752015E+01  0.55567128547E+02 -0.18495705122E+03  0.22833554124E+03  0.12149682002E+03 0.  0.
          5    1    4    4  502    0 -0.22382341005E+02 -0.59461271039E+02 -0.29912367023E+03  0.30583275174E+03  0.47000000000E+01 0. -1.
         -5    1    4    4    0  502  0.13503965804E+02  0.38941424914E+01  0.72789411092E+01  0.16510433727E+02  0.47000000000E+01 0. -1.
          5    1    5    5  503    0 -0.34823462661E+01  0.73464286538E+02 -0.19145842542E+03  0.20515249645E+03  0.47000000000E+01 0.  1.
         -5    1    5    5    0  503  0.12360721468E+02 -0.17897157991E+02  0.65013742040E+01  0.23183044793E+02  0.47000000000E+01 0.  1.
<mgrwt>
<rscale>  0 0.27551247E+03</rscale>
<asrwt>0</asrwt>
<pdfrwt beam="1">  1        1 0.79036961E-01 0.27551247E+03</pdfrwt>
<pdfrwt beam="2">  1       -1 0.56828421E-02 0.27551247E+03</pdfrwt>
<totfact> 0.62876132E+03</totfact>
</mgrwt>
</event>
<event>
 9    1  0.8122655E-001  0.2739338E+03  0.7818608E-02  0.1099049E+00
         -1   -1    0    0    0  501 -0.00000000000E+00  0.00000000000E+00  0.25413493715E+02  0.25413493715E+02  0.00000000000E+00 0.  1.
          1   -1    0    0  501    0  0.00000000000E+00 -0.00000000000E+00 -0.73818784210E+03  0.73818784210E+03  0.00000000000E+00 0.  1.
         35    2    1    2    0    0  0.00000000000E+00  0.00000000000E+00 -0.71277434839E+03  0.76360133582E+03  0.27393380285E+03 0.  0.
         25    2    3    3    0    0 -0.43175919838E+02  0.25837757286E+02 -0.26270176756E+03  0.29517040268E+03  0.12482627202E+03 0.  0.
         25    2    3    3    0    0  0.43175919838E+02 -0.25837757286E+02 -0.45007258083E+03  0.46843093313E+03  0.11970990496E+03 0.  0.
          5    1    4    4  502    0 -0.86835830122E+00 -0.34638550562E+02 -0.17584396032E+02  0.39139292470E+02  0.47000000000E+01 0.  1.
         -5    1    4    4    0  502 -0.42307561537E+02  0.60476307848E+02 -0.24511737152E+03  0.25603111021E+03  0.47000000000E+01 0.  1.
          5    1    5    5  503    0 -0.19155537207E+02  0.36305668881E+02 -0.16115461925E+03  0.16636687623E+03  0.47000000000E+01 0. -1.
         -5    1    5    5    0  503  0.62331457045E+02 -0.62143426167E+02 -0.28891796158E+03  0.30206405691E+03  0.47000000000E+01 0. -1.
<mgrwt>
<rscale>  0 0.27393380E+03</rscale>
<asrwt>0</asrwt>
<pdfrwt beam="1">  1        1 0.11356735E+00 0.27393380E+03</pdfrwt>
<pdfrwt beam="2">  1       -1 0.39097687E-02 0.27393380E+03</pdfrwt>
<totfact> 0.66112527E+03</totfact>
</mgrwt>
</event>
<event>
 9    1  0.8122655E-001  0.2760044E+03  0.7818608E-02  0.1097891E+00
         -2   -1    0    0    0  501 -0.00000000000E+00  0.00000000000E+00  0.14832417063E+02  0.14832417063E+02  0.00000000000E+00 0. -1.
          2   -1    0    0  501    0  0.00000000000E+00 -0.00000000000E+00 -0.12839857942E+04  0.12839857942E+04  0.00000000000E+00 0. -1.
         35    2    1    2    0    0  0.35527136788E-14  0.00000000000E+00 -0.12691533771E+04  0.12988182113E+04  0.27600444056E+03 0.  0.
         25    2    3    3    0    0  0.10300157055E+02 -0.56608218021E+02 -0.67415818119E+03  0.68813119281E+03  0.12539817248E+03 0.  0.
         25    2    3    3    0    0 -0.10300157055E+02  0.56608218021E+02 -0.59499519594E+03  0.61068701845E+03  0.12493505405E+03 0.  0.
          5    1    4    4  502    0 -0.28969090945E+02 -0.79259349619E+02 -0.53669959499E+03  0.54331371968E+03  0.47000000000E+01 0.  1.
         -5    1    4    4    0  502  0.39269247999E+02  0.22651131598E+02 -0.13745858620E+03  0.14481747313E+03  0.47000000000E+01 0.  1.
          5    1    5    5  503    0 -0.67165511545E+02  0.37799641742E+02 -0.31610022967E+03  0.32539432087E+03  0.47000000000E+01 0. -1.
         -5    1    5    5    0  503  0.56865354490E+02  0.18808576279E+02 -0.27889496627E+03  0.28529269758E+03  0.47000000000E+01 0. -1.
<mgrwt>
<rscale>  0 0.27600444E+03</rscale>
<asrwt>0</asrwt>
<pdfrwt beam="1">  1        2 0.19753634E+00 0.27600444E+03</pdfrwt>
<pdfrwt beam="2">  1       -2 0.22819096E-02 0.27600444E+03</pdfrwt>
<totfact> 0.11387364E+04</totfact>
</mgrwt>
</event>
<event>
 9    1  0.8122655E-001  0.2759900E+03  0.7818608E-02  0.1097899E+00
         -1   -1    0    0    0  501 -0.00000000000E+00  0.00000000000E+00  0.14683731272E+03  0.14683731272E+03  0.00000000000E+00 0.  1.
          1   -1    0    0  501    0  0.00000000000E+00 -0.00000000000E+00 -0.12968515321E+03  0.12968515321E+03  0.00000000000E+00 0.  1.
         35    2    1    2    0    0  0.17763568394E-14  0.00000000000E+00  0.17152159514E+02  0.27652246593E+03  0.27598999545E+03 0.  0.
         25    2    3    3    0    0 -0.11280757749E+02 -0.13663192237E+01  0.67719984146E+02  0.14238236049E+03  0.12473018080E+03 0.  0.
         25    2    3    3    0    0  0.11280757749E+02  0.13663192237E+01 -0.50567824632E+02  0.13414010544E+03  0.12372283813E+03 0.  0.
          5    1    4    4  502    0 -0.38382909686E+00  0.43201396620E+02  0.83089556661E+02  0.93768184481E+02  0.47000000000E+01 0.  1.
         -5    1    4    4    0  502 -0.10896928652E+02 -0.44567715844E+02 -0.15369572515E+02  0.48614176007E+02  0.47000000000E+01 0.  1.
          5    1    5    5  503    0  0.19402299966E+01 -0.51583317958E+02 -0.60065875476E+02  0.79338531501E+02  0.47000000000E+01 0. -1.
         -5    1    5    5    0  503  0.93405277520E+01  0.52949637181E+02  0.94980508438E+01  0.54801573939E+02  0.47000000000E+01 0. -1.
<mgrwt>
<rscale>  0 0.27599000E+03</rscale>
<asrwt>0</asrwt>
<pdfrwt beam="1">  1        1 0.19951562E-01 0.27599000E+03</pdfrwt>
<pdfrwt beam="2">  1       -1 0.22590356E-01 0.27599000E+03</pdfrwt>
<totfact> 0.41995431E+03</totfact>
</mgrwt>
</event>
<event>
 9    1  0.8122655E-001  0.2618229E+03  0.7818608E-02  0.1106053E+00
         -2   -1    0    0    0  501 -0.00000000000E+00  0.00000000000E+00  0.11228075616E+03  0.11228075616E+03  0.00000000000E+00 0.  1.
          2   -1    0    0  501    0  0.00000000000E+00 -0.00000000000E+00 -0.15263347586E+03  0.15263347586E+03  0.00000000000E+00 0.  1.
         35    2    1    2    0    0  0.71054273576E-14 -0.35527136788E-14 -0.40352719697E+02  0.26491423202E+03  0.26182285679E+03 0.  0.
         25    2    3    3    0    0 -0.37472816149E+02  0.10672034085E+01 -0.82948909733E+01  0.13136969186E+03  0.12563375283E+03 0.  0.
         25    2    3    3    0    0  0.37472816149E+02 -0.10672034085E+01 -0.32057828723E+02  0.13354454016E+03  0.12410112389E+03 0.  0.
          5    1    4    4  502    0  0.40890799260E+02 -0.15789485570E+02  0.16904299430E+02  0.47214517448E+02  0.47000000000E+01 0. -1.
         -5    1    4    4    0  502 -0.78363615409E+02  0.16856688978E+02 -0.25199190404E+02  0.84155174412E+02  0.47000000000E+01 0. -1.
          5    1    5    5  503    0  0.31747780870E+01 -0.53802568977E+02 -0.43515202231E+02  0.69429521600E+02  0.47000000000E+01 0.  1.
         -5    1    5    5    0  503  0.34298038062E+02  0.52735365569E+02  0.11457373507E+02  0.64115018555E+02  0.47000000000E+01 0.  1.
<mgrwt>
<rscale>  0 0.26182286E+03</rscale>
<asrwt>0</asrwt>
<pdfrwt beam="1">  1        2 0.23482073E-01 0.26182286E+03</pdfrwt>
<pdfrwt beam="2">  1       -2 0.17273963E-01 0.26182286E+03</pdfrwt>
<totfact> 0.61719347E+03</totfact>
</mgrwt>
</event>
<event>
 9    1  0.8122655E-001  0.2720711E+03  0.7818608E-02  0.1100100E+00
          3   -1    0    0  501    0  0.00000000000E+00  0.00000000000E+00  0.51232088690E+02  0.51232088690E+02  0.00000000000E+00 0. -1.
         -3   -1    0    0    0  501 -0.00000000000E+00 -0.00000000000E+00 -0.36121247253E+03  0.36121247253E+03  0.00000000000E+00 0. -1.
         35    2    1    2    0    0  0.00000000000E+00  0.00000000000E+00 -0.30998038383E+03  0.41244456122E+03  0.27207108945E+03 0.  0.
         25    2    3    3    0    0  0.26505970949E+02  0.33562600386E+02 -0.10152792610E+03  0.16516773515E+03  0.12305871084E+03 0.  0.
         25    2    3    3    0    0 -0.26505970949E+02 -0.33562600386E+02 -0.20845245773E+03  0.24727682607E+03  0.12595390799E+03 0.  0.
          5    1    4    4  502    0 -0.35098826332E+02 -0.26405555191E+02 -0.35038175585E+02  0.56382131062E+02  0.47000000000E+01 0. -1.
         -5    1    4    4    0  502  0.61604797281E+02  0.59968155578E+02 -0.66489750520E+02  0.10878560408E+03  0.47000000000E+01 0. -1.
          5    1    5    5  503    0 -0.41118770747E+01 -0.47852684922E+02 -0.13010167360E+02  0.49981410965E+02  0.47000000000E+01 0. -1.
         -5    1    5    5    0  503 -0.22394093874E+02  0.14290084536E+02 -0.19544229037E+03  0.19729541510E+03  0.47000000000E+01 0. -1.
<mgrwt>
<rscale>  0 0.27207109E+03</rscale>
<asrwt>0</asrwt>
<pdfrwt beam="1">  1        3 0.78818596E-02 0.27207109E+03</pdfrwt>
<pdfrwt beam="2">  1       -3 0.55571151E-01 0.27207109E+03</pdfrwt>
<totfact> 0.89480016E+02</totfact>
</mgrwt>
</event>
<event>
 9    1  0.8122655E-001  0.2712673E+03  0.7818608E-02  0.1100556E+00
         -1   -1    0    0    0  501 -0.00000000000E+00  0.00000000000E+00  0.87329331222E+02  0.87329331222E+02  0.00000000000E+00 0.  1.
          1   -1    0    0  501    0  0.00000000000E+00 -0.00000000000E+00 -0.21065643379E+03  0.21065643379E+03  0.00000000000E+00 0.  1.
         35    2    1    2    0    0 -0.71054273576E-14 -0.71054273576E-14 -0.12332710257E+03  0.29798576502E+03  0.27126728871E+03 0.  0.
         25    2    3    3    0    0 -0.43690448998E+02 -0.27660599934E+02 -0.77961199194E+02  0.15631526577E+03  0.12522998687E+03 0.  0.
         25    2    3    3    0    0  0.43690448998E+02  0.27660599934E+02 -0.45365903378E+02  0.14167049925E+03  0.12384870223E+03 0.  0.
          5    1    4    4  502    0 -0.75127934944E+02 -0.40563628743E+02 -0.85791000411E+02  0.12112720725E+03  0.47000000000E+01 0. -1.
         -5    1    4    4    0  502  0.31437485946E+02  0.12903028809E+02  0.78298012166E+01  0.35188058517E+02  0.47000000000E+01 0. -1.
          5    1    5    5  503    0  0.43174584640E+02  0.58764544616E+02 -0.70398093350E+02  0.10146574796E+03  0.47000000000E+01 0.  1.
         -5    1    5    5    0  503  0.51586435780E+00 -0.31103944682E+02  0.25032189972E+02  0.40204751281E+02  0.47000000000E+01 0.  1.
<mgrwt>
<rscale>  0 0.27126729E+03</rscale>
<asrwt>0</asrwt>
<pdfrwt beam="1">  1        1 0.32408682E-01 0.27126729E+03</pdfrwt>
<pdfrwt beam="2">  1       -1 0.13435282E-01 0.27126729E+03</pdfrwt>
<totfact> 0.52191628E+03</totfact>
</mgrwt>
</event>
<event>
 9    1  0.8122655E-001  0.2734812E+03  0.7818608E-02  0.1099304E+00
          3   -1    0    0  501    0  0.00000000000E+00  0.00000000000E+00  0.14325978827E+03  0.14325978827E+03  0.00000000000E+00 0. -1.
         -3   -1    0    0    0  501 -0.00000000000E+00 -0.00000000000E+00 -0.13051807665E+03  0.13051807665E+03  0.00000000000E+00 0. -1.
         35    2    1    2    0    0 -0.71054273576E-14  0.35527136788E-14  0.12741711619E+02  0.27377786492E+03  0.27348120247E+03 0.  0.
         25    2    3    3    0    0  0.52798451512E+02  0.20188599262E+00 -0.79785467112E+01  0.13670228541E+03  0.12584172753E+03 0.  0.
         25    2    3    3    0    0 -0.52798451512E+02 -0.20188599262E+00  0.20720258330E+02  0.13707557951E+03  0.12479049705E+03 0.  0.
          5    1    4    4  502    0  0.86341741127E+01  0.60160829152E+02 -0.11363733190E+02  0.62008860325E+02  0.47000000000E+01 0. -1.
         -5    1    4    4    0  502  0.44164277399E+02 -0.59958943159E+02  0.33851864789E+01  0.74693425082E+02  0.47000000000E+01 0. -1.
          5    1    5    5  503    0 -0.78024514794E+02 -0.25702653099E+02 -0.17847265424E+02  0.84196592379E+02  0.47000000000E+01 0. -1.
         -5    1    5    5    0  503  0.25226063282E+02  0.25500767107E+02  0.38567523755E+02  0.52878987134E+02  0.47000000000E+01 0. -1.
<mgrwt>
<rscale>  0 0.27348120E+03</rscale>
<asrwt>0</asrwt>
<pdfrwt beam="1">  1        3 0.22039968E-01 0.27348120E+03</pdfrwt>
<pdfrwt beam="2">  1       -3 0.20079704E-01 0.27348120E+03</pdfrwt>
<totfact> 0.10687985E+03</totfact>
</mgrwt>
</event>
<event>
 9    1  0.8122655E-001  0.2800351E+03  0.7818608E-02  0.1095670E+00
          3   -1    0    0  501    0  0.00000000000E+00  0.00000000000E+00  0.10579495122E+03  0.10579495122E+03  0.00000000000E+00 0.  1.
         -3   -1    0    0    0  501 -0.00000000000E+00 -0.00000000000E+00 -0.18531054356E+03  0.18531054356E+03  0.00000000000E+00 0.  1.
         35    2    1    2    0    0  0.00000000000E+00 -0.17763568394E-14 -0.79515592340E+02  0.29110549477E+03  0.28003514005E+03 0.  0.
         25    2    3    3    0    0  0.13660113570E+01  0.15815200255E+02 -0.10296261030E+03  0.16281810028E+03  0.12512572921E+03 0.  0.
         25    2    3    3    0    0 -0.13660113570E+01 -0.15815200255E+02  0.23447017961E+02  0.12828739450E+03  0.12512356448E+03 0.  0.
          5    1    4    4  502    0 -0.61250004029E+02  0.86600731568E+00 -0.54118695707E+02  0.81873293492E+02  0.47000000000E+01 0. -1.
         -5    1    4    4    0  502  0.62616015386E+02  0.14949192939E+02 -0.48843914594E+02  0.80944806784E+02  0.47000000000E+01 0. -1.
          5    1    5    5  503    0  0.50782695671E+02  0.20988548174E+02 -0.10038680620E+02  0.56055922459E+02  0.47000000000E+01 0.  1.
         -5    1    5    5    0  503 -0.52148707028E+02 -0.36803748429E+02  0.33485698581E+02  0.72231472037E+02  0.47000000000E+01 0.  1.
<mgrwt>
<rscale>  0 0.28003514E+03</rscale>
<asrwt>0</asrwt>
<pdfrwt beam="1">  1        3 0.16276146E-01 0.28003514E+03</pdfrwt>
<pdfrwt beam="2">  1       -3 0.28509314E-01 0.28003514E+03</pdfrwt>
<totfact> 0.96908939E+02</totfact>
</mgrwt>
</event>
<event>
 9    1  0.8122655E-001  0.2759161E+03  0.7818608E-02  0.1097941E+00
         -1   -1    0    0    0  501 -0.00000000000E+00  0.00000000000E+00  0.34622433542E+02  0.34622433542E+02  0.00000000000E+00 0.  1.
          1   -1    0    0  501    0  0.00000000000E+00 -0.00000000000E+00 -0.54971363758E+03  0.54971363758E+03  0.00000000000E+00 0.  1.
         35    2    1    2    0    0  0.00000000000E+00 -0.35527136788E-14 -0.51509120403E+03  0.58433607112E+03  0.27591610235E+03 0.  0.
         25    2    3    3    0    0  0.21665049705E+02  0.17124932973E+02 -0.36852203730E+03  0.39006302740E+03  0.12481200125E+03 0.  0.
         25    2    3    3    0    0 -0.21665049705E+02 -0.17124932973E+02 -0.14656916673E+03  0.19427304372E+03  0.12448637344E+03 0.  0.
          5    1    4    4  502    0 -0.51345461133E+02  0.48570492474E+01 -0.18507937242E+03  0.19218847885E+03  0.47000000000E+01 0.  1.
         -5    1    4    4    0  502  0.73010510839E+02  0.12267883726E+02 -0.18344266489E+03  0.19787454855E+03  0.47000000000E+01 0.  1.
          5    1    5    5  503    0  0.40176868257E+02  0.23161066525E+02 -0.27542022193E+02  0.54141192562E+02  0.47000000000E+01 0. -1.
         -5    1    5    5    0  503 -0.61841917963E+02 -0.40285999498E+02 -0.11902714454E+03  0.14013185116E+03  0.47000000000E+01 0. -1.
<mgrwt>
<rscale>  0 0.27591610E+03</rscale>
<asrwt>0</asrwt>
<pdfrwt beam="1">  1        1 0.84571327E-01 0.27591610E+03</pdfrwt>
<pdfrwt beam="2">  1       -1 0.53265284E-02 0.27591610E+03</pdfrwt>
<totfact> 0.63270868E+03</totfact>
</mgrwt>
</event>
<event>
 9    1  0.8122655E-001  0.2722469E+03  0.7818608E-02  0.1100000E+00
         -1   -1    0    0    0  501 -0.00000000000E+00  0.00000000000E+00  0.18059774269E+02  0.18059774269E+02  0.00000000000E+00 0. -1.
          1   -1    0    0  501    0  0.00000000000E+00 -0.00000000000E+00 -0.10260147564E+04  0.10260147564E+04  0.00000000000E+00 0. -1.
         35    2    1    2    0    0 -0.35527136788E-14 -0.71054273576E-14 -0.10079549821E+04  0.10440745307E+04  0.27224690923E+03 0.  0.
         25    2    3    3    0    0 -0.89279326121E+01  0.62760909220E+02 -0.45157709734E+03  0.47007136426E+03  0.11413401310E+03 0.  0.
         25    2    3    3    0    0  0.89279326121E+01 -0.62760909220E+02 -0.55637788478E+03  0.57400316640E+03  0.12611361806E+03 0.  0.
          5    1    4    4  502    0  0.67188914240E+01  0.70277861568E+02 -0.44550727457E+03  0.45109083677E+03  0.47000000000E+01 0. -1.
         -5    1    4    4    0  502 -0.15646824036E+02 -0.75169523483E+01 -0.60698227718E+01  0.18980527482E+02  0.47000000000E+01 0. -1.
          5    1    5    5  503    0  0.47758356090E+02  0.18101867656E+02 -0.20835093740E+03  0.21457106353E+03  0.47000000000E+01 0. -1.
         -5    1    5    5    0  503 -0.38830423478E+02 -0.80862776876E+02 -0.34802694738E+03  0.35943210287E+03  0.47000000000E+01 0. -1.
<mgrwt>
<rscale>  0 0.27224691E+03</rscale>
<asrwt>0</asrwt>
<pdfrwt beam="1">  1        1 0.15784843E+00 0.27224691E+03</pdfrwt>
<pdfrwt beam="2">  1       -1 0.27784267E-02 0.27224691E+03</pdfrwt>
<totfact> 0.64547762E+03</totfact>
</mgrwt>
</event>
<event>
 9    1  0.8122655E-001  0.3038062E+03  0.7818608E-02  0.1083353E+00
         -1   -1    0    0    0  501 -0.00000000000E+00  0.00000000000E+00  0.11441318571E+04  0.11441318571E+04  0.00000000000E+00 0.  1.
          1   -1    0    0  501    0  0.00000000000E+00 -0.00000000000E+00 -0.20167738902E+02  0.20167738902E+02  0.00000000000E+00 0.  1.
         35    2    1    2    0    0  0.00000000000E+00  0.14210854715E-13  0.11239641182E+04  0.11642995960E+04  0.30380620510E+03 0.  0.
         25    2    3    3    0    0 -0.33777272212E+02  0.67906797684E+02  0.72096394461E+03  0.73565998348E+03  0.12511740318E+03 0.  0.
         25    2    3    3    0    0  0.33777272212E+02 -0.67906797684E+02  0.40300017362E+03  0.42863961256E+03  0.12478197074E+03 0.  0.
          5    1    4    4  502    0  0.46773063969E+02  0.37304384604E+02  0.29776470709E+03  0.30375195047E+03  0.47000000000E+01 0.  1.
         -5    1    4    4    0  502 -0.80550336181E+02  0.30602413081E+02  0.42319923751E+03  0.43190803301E+03  0.47000000000E+01 0.  1.
          5    1    5    5  503    0  0.19806996564E+02 -0.75645694680E+02  0.10933059430E+03  0.13449853935E+03  0.47000000000E+01 0. -1.
         -5    1    5    5    0  503  0.13970275647E+02  0.77388969962E+01  0.29366957932E+03  0.29414107321E+03  0.47000000000E+01 0. -1.
<mgrwt>
<rscale>  0 0.30380621E+03</rscale>
<asrwt>0</asrwt>
<pdfrwt beam="1">  1        1 0.31027300E-02 0.30380621E+03</pdfrwt>
<pdfrwt beam="2">  1       -1 0.17602024E+00 0.30380621E+03</pdfrwt>
<totfact> 0.79360274E+02</totfact>
</mgrwt>
</event>
<event>
 9    1  0.8122655E-001  0.2751354E+03  0.7818608E-02  0.1098376E+00
          4   -1    0    0  501    0  0.00000000000E+00  0.00000000000E+00  0.21217956031E+03  0.21217956031E+03  0.00000000000E+00 0.  1.
         -4   -1    0    0    0  501 -0.00000000000E+00 -0.00000000000E+00 -0.89192692913E+02  0.89192692913E+02  0.00000000000E+00 0.  1.
         35    2    1    2    0    0 -0.17763568394E-14  0.10658141036E-13  0.12298686740E+03  0.30137225322E+03  0.27513535843E+03 0.  0.
         25    2    3    3    0    0  0.99543612528E+01  0.73658539812E+01  0.12343169516E+03  0.17577652426E+03  0.12453376249E+03 0.  0.
         25    2    3    3    0    0 -0.99543612528E+01 -0.73658539812E+01 -0.44482776732E+00  0.12559572896E+03  0.12498297543E+03 0.  0.
          5    1    4    4  502    0  0.66376564543E+01  0.65797752829E+02  0.61377591145E+02  0.90347669894E+02  0.47000000000E+01 0.  1.
         -5    1    4    4    0  502  0.33167047986E+01 -0.58431898848E+02  0.62054104017E+02  0.85428854371E+02  0.47000000000E+01 0.  1.
          5    1    5    5  503    0  0.49312762313E+02  0.27497089585E+02 -0.12496842027E+01  0.56670011233E+02  0.47000000000E+01 0. -1.
         -5    1    5    5    0  503 -0.59267123566E+02 -0.34862943566E+02  0.80485643537E+00  0.68925717724E+02  0.47000000000E+01 0. -1.
<mgrwt>
<rscale>  0 0.27513536E+03</rscale>
<asrwt>0</asrwt>
<pdfrwt beam="1">  1        4 0.32643009E-01 0.27513536E+03</pdfrwt>
<pdfrwt beam="2">  1       -4 0.13721953E-01 0.27513536E+03</pdfrwt>
<totfact> 0.74728251E+02</totfact>
</mgrwt>
</event>
<event>
 9    1  0.8122655E-001  0.2803761E+03  0.7818608E-02  0.1095484E+00
         -2   -1    0    0    0  501 -0.00000000000E+00  0.00000000000E+00  0.26897512515E+02  0.26897512515E+02  0.00000000000E+00 0.  1.
          2   -1    0    0  501    0  0.00000000000E+00 -0.00000000000E+00 -0.73065080364E+03  0.73065080364E+03  0.00000000000E+00 0.  1.
         35    2    1    2    0    0 -0.71054273576E-14  0.35527136788E-14 -0.70375329113E+03  0.75754831616E+03  0.28037609837E+03 0.  0.
         25    2    3    3    0    0 -0.38932513911E+02  0.17388622971E+02 -0.22593418922E+03  0.26178743151E+03  0.12517306656E+03 0.  0.
         25    2    3    3    0    0  0.38932513911E+02 -0.17388622971E+02 -0.47781910191E+03  0.49576088465E+03  0.12509858411E+03 0.  0.
          5    1    4    4  502    0 -0.66826480266E+02  0.32119908018E+02 -0.21594318103E+03  0.22836596591E+03  0.47000000000E+01 0. -1.
         -5    1    4    4    0  502  0.27893966355E+02 -0.14731285047E+02 -0.99910081926E+01  0.33421465600E+02  0.47000000000E+01 0. -1.
          5    1    5    5  503    0  0.13900726616E+02 -0.17922829431E+02 -0.46782137279E+03  0.46839447569E+03  0.47000000000E+01 0. -1.
         -5    1    5    5    0  503  0.25031787295E+02  0.53420646049E+00 -0.99977291223E+01  0.27366408959E+02  0.47000000000E+01 0. -1.
<mgrwt>
<rscale>  0 0.28037610E+03</rscale>
<asrwt>0</asrwt>
<pdfrwt beam="1">  1        2 0.11240781E+00 0.28037610E+03</pdfrwt>
<pdfrwt beam="2">  1       -2 0.41380791E-02 0.28037610E+03</pdfrwt>
<totfact> 0.10356641E+04</totfact>
</mgrwt>
</event>
<event>
 9    1  0.8122655E-001  0.2700960E+03  0.7818608E-02  0.1101225E+00
         -4   -1    0    0    0  501 -0.00000000000E+00  0.00000000000E+00  0.33573986282E+02  0.33573986282E+02  0.00000000000E+00 0.  1.
          4   -1    0    0  501    0  0.00000000000E+00 -0.00000000000E+00 -0.54321698005E+03  0.54321698005E+03  0.00000000000E+00 0.  1.
         35    2    1    2    0    0  0.00000000000E+00  0.00000000000E+00 -0.50964299377E+03  0.57679096633E+03  0.27009597877E+03 0.  0.
         25    2    3    3    0    0  0.26097570723E+02 -0.35858839985E+02 -0.28625789509E+03  0.31550740247E+03  0.12503758999E+03 0.  0.
         25    2    3    3    0    0 -0.26097570723E+02  0.35858839985E+02 -0.22338509869E+03  0.26128356387E+03  0.12806739956E+03 0.  0.
          5    1    4    4  502    0  0.48848943133E+02 -0.58945115703E+02 -0.26636392322E+03  0.27718689634E+03  0.47000000000E+01 0.  1.
         -5    1    4    4    0  502 -0.22751372410E+02  0.23086275717E+02 -0.19893971865E+02  0.38320506124E+02  0.47000000000E+01 0.  1.
          5    1    5    5  503    0  0.11668951774E+02 -0.21687793114E+02  0.24055510031E+01  0.25187327792E+02  0.47000000000E+01 0.  1.
         -5    1    5    5    0  503 -0.37766522497E+02  0.57546633100E+02 -0.22579064969E+03  0.23609623608E+03  0.47000000000E+01 0.  1.
<mgrwt>
<rscale>  0 0.27009598E+03</rscale>
<asrwt>0</asrwt>
<pdfrwt beam="1">  1        4 0.83571847E-01 0.27009598E+03</pdfrwt>
<pdfrwt beam="2">  1       -4 0.51652284E-02 0.27009598E+03</pdfrwt>
<totfact> 0.54537970E+02</totfact>
</mgrwt>
</event>
<event>
 9    1  0.8122655E-001  0.2751195E+03  0.7818608E-02  0.1098385E+00
         -2   -1    0    0    0  501 -0.00000000000E+00  0.00000000000E+00  0.59422999995E+02  0.59422999995E+02  0.00000000000E+00 0.  1.
          2   -1    0    0  501    0  0.00000000000E+00 -0.00000000000E+00 -0.31844033096E+03  0.31844033096E+03  0.00000000000E+00 0.  1.
         35    2    1    2    0    0  0.10658141036E-13  0.35527136788E-14 -0.25901733097E+03  0.37786333096E+03  0.27511946340E+03 0.  0.
         25    2    3    3    0    0 -0.24753706421E+02  0.14853466156E+02 -0.60031548717E+02  0.14132473764E+03  0.12464157889E+03 0.  0.
         25    2    3    3    0    0  0.24753706421E+02 -0.14853466156E+02 -0.19898578225E+03  0.23653859332E+03  0.12458648865E+03 0.  0.
          5    1    4    4  502    0 -0.64423545267E+02  0.43289984173E+02 -0.45893177896E+02  0.90292246022E+02  0.47000000000E+01 0. -1.
         -5    1    4    4    0  502  0.39669838846E+02 -0.28436518017E+02 -0.14138370821E+02  0.51032491615E+02  0.47000000000E+01 0. -1.
          5    1    5    5  503    0 -0.81152829266E+01 -0.42411314201E+02 -0.18668266040E+03  0.19166920223E+03  0.47000000000E+01 0. -1.
         -5    1    5    5    0  503  0.32868989347E+02  0.27557848045E+02 -0.12303121851E+02  0.44869391091E+02  0.47000000000E+01 0. -1.
<mgrwt>
<rscale>  0 0.27511946E+03</rscale>
<asrwt>0</asrwt>
<pdfrwt beam="1">  1        2 0.48990821E-01 0.27511946E+03</pdfrwt>
<pdfrwt beam="2">  1       -2 0.91419999E-02 0.27511946E+03</pdfrwt>
<totfact> 0.77875208E+03</totfact>
</mgrwt>
</event>
<event>
 9    1  0.8122655E-001  0.2735842E+03  0.7818608E-02  0.1099246E+00
         -2   -1    0    0    0  501 -0.00000000000E+00  0.00000000000E+00  0.18307843632E+02  0.18307843632E+02  0.00000000000E+00 0.  1.
          2   -1    0    0  501    0  0.00000000000E+00 -0.00000000000E+00 -0.10220795858E+04  0.10220795858E+04  0.00000000000E+00 0.  1.
         35    2    1    2    0    0 -0.71054273576E-14  0.35527136788E-14 -0.10037717421E+04  0.10403874294E+04  0.27358416062E+03 0.  0.
         25    2    3    3    0    0  0.44278329403E+02 -0.28231806465E+02 -0.57856246174E+03  0.59416752276E+03  0.12467123817E+03 0.  0.
         25    2    3    3    0    0 -0.44278329403E+02  0.28231806465E+02 -0.42520928039E+03  0.44621990662E+03  0.12470632537E+03 0.  0.
          5    1    4    4  502    0  0.58304414775E+02 -0.22993674603E+02 -0.57454007781E+03  0.57796756386E+03  0.47000000000E+01 0. -1.
         -5    1    4    4    0  502 -0.14026085371E+02 -0.52381318613E+01 -0.40223839211E+01  0.16199958909E+02  0.47000000000E+01 0. -1.
          5    1    5    5  503    0 -0.46035116606E+02  0.40369183272E+02 -0.80440797366E+02  0.10120135770E+03  0.47000000000E+01 0.  1.
         -5    1    5    5    0  503  0.17567872031E+01 -0.12137376807E+02 -0.34476848302E+03  0.34501854892E+03  0.47000000000E+01 0.  1.
<mgrwt>
<rscale>  0 0.27358416E+03</rscale>
<asrwt>0</asrwt>
<pdfrwt beam="1">  1        2 0.15724303E+00 0.27358416E+03</pdfrwt>
<pdfrwt beam="2">  1       -2 0.28165909E-02 0.27358416E+03</pdfrwt>
<totfact> 0.11812941E+04</totfact>
</mgrwt>
</event>
<event>
 9    1  0.8122655E-001  0.2770196E+03  0.7818608E-02  0.1097328E+00
         -2   -1    0    0    0  501 -0.00000000000E+00  0.00000000000E+00  0.24600498661E+02  0.24600498661E+02  0.00000000000E+00 0. -1.
          2   -1    0    0  501    0  0.00000000000E+00 -0.00000000000E+00 -0.77986069014E+03  0.77986069014E+03  0.00000000000E+00 0. -1.
         35    2    1    2    0    0  0.00000000000E+00  0.00000000000E+00 -0.75526019148E+03  0.80446118880E+03  0.27701957955E+03 0.  0.
         25    2    3    3    0    0  0.46653780345E+02  0.16556511413E+01 -0.26639819575E+03  0.29755057103E+03  0.12405251800E+03 0.  0.
         25    2    3    3    0    0 -0.46653780345E+02 -0.16556511413E+01 -0.48886199573E+03  0.50691061777E+03  0.12567023170E+03 0.  0.
          5    1    4    4  502    0  0.86257722219E+02 -0.17274763622E+02 -0.18674995979E+03  0.20648595492E+03  0.47000000000E+01 0.  1.
         -5    1    4    4    0  502 -0.39603941874E+02  0.18930414763E+02 -0.79648235960E+02  0.91064616106E+02  0.47000000000E+01 0.  1.
          5    1    5    5  503    0 -0.33097216243E+02  0.57768640562E+02 -0.33022206540E+03  0.33689960527E+03  0.47000000000E+01 0.  1.
         -5    1    5    5    0  503 -0.13556564101E+02 -0.59424291703E+02 -0.15863993033E+03  0.17001101250E+03  0.47000000000E+01 0.  1.
<mgrwt>
<rscale>  0 0.27701958E+03</rscale>
<asrwt>0</asrwt>
<pdfrwt beam="1">  1        2 0.11997855E+00 0.27701958E+03</pdfrwt>
<pdfrwt beam="2">  1       -2 0.37846926E-02 0.27701958E+03</pdfrwt>
<totfact> 0.10916330E+04</totfact>
</mgrwt>
</event>
<event>
 9    1  0.8122655E-001  0.2701464E+03  0.7818608E-02  0.1101196E+00
          2   -1    0    0  501    0  0.00000000000E+00  0.00000000000E+00  0.15215786654E+03  0.15215786654E+03  0.00000000000E+00 0. -1.
         -2   -1    0    0    0  501 -0.00000000000E+00 -0.00000000000E+00 -0.11990688121E+03  0.11990688121E+03  0.00000000000E+00 0. -1.
         35    2    1    2    0    0 -0.14210854715E-13  0.00000000000E+00  0.32250985326E+02  0.27206474775E+03  0.27014644346E+03 0.  0.
         25    2    3    3    0    0 -0.48996708758E+02 -0.18779096345E+02  0.23038210898E+02  0.13669849020E+03  0.12410635009E+03 0.  0.
         25    2    3    3    0    0  0.48996708758E+02  0.18779096345E+02  0.92127744274E+01  0.13536625755E+03  0.12444202080E+03 0.  0.
          5    1    4    4  502    0  0.15421964268E+02  0.42173575830E+02  0.84437024105E+00  0.45158060645E+02  0.47000000000E+01 0.  1.
         -5    1    4    4    0  502 -0.64418673026E+02 -0.60952672174E+02  0.22193840657E+02  0.91540429553E+02  0.47000000000E+01 0.  1.
          5    1    5    5  503    0  0.20290006903E+02  0.48516713451E+02  0.53110446414E+02  0.74889020440E+02  0.47000000000E+01 0. -1.
         -5    1    5    5    0  503  0.28706701856E+02 -0.29737617106E+02 -0.43897671987E+02  0.60477237110E+02  0.47000000000E+01 0. -1.
<mgrwt>
<rscale>  0 0.27014644E+03</rscale>
<asrwt>0</asrwt>
<pdfrwt beam="1">  1        2 0.23408903E-01 0.27014644E+03</pdfrwt>
<pdfrwt beam="2">  1       -2 0.18447212E-01 0.27014644E+03</pdfrwt>
<totfact> 0.55512357E+03</totfact>
</mgrwt>
</event>
<event>
 9    1  0.8122655E-001  0.3077203E+03  0.7818608E-02  0.1081444E+00
         -1   -1    0    0    0  501 -0.00000000000E+00  0.00000000000E+00  0.95709562344E+02  0.95709562344E+02  0.00000000000E+00 0. -1.
          1   -1    0    0  501    0  0.00000000000E+00 -0.00000000000E+00 -0.24734145696E+03  0.24734145696E+03  0.00000000000E+00 0. -1.
         35    2    1    2    0    0 -0.17763568394E-14  0.14210854715E-13 -0.15163189461E+03  0.34305101930E+03  0.30772027944E+03 0.  0.
         25    2    3    3    0    0 -0.11737183875E+02  0.82547773377E+02 -0.11290222350E+03  0.18773159765E+03  0.12467695982E+03 0.  0.
         25    2    3    3    0    0  0.11737183875E+02 -0.82547773377E+02 -0.38729671117E+02  0.15531942166E+03  0.12518881317E+03 0.  0.
          5    1    4    4  502    0 -0.76333917935E+01  0.10393758909E+03 -0.40383184550E+02  0.11186680782E+03  0.47000000000E+01 0.  1.
         -5    1    4    4    0  502 -0.41037920817E+01 -0.21389815717E+02 -0.72519038946E+02  0.75864789827E+02  0.47000000000E+01 0.  1.
          5    1    5    5  503    0 -0.40434598109E+01 -0.10790411334E+03 -0.54690786441E+02  0.12113141361E+03  0.47000000000E+01 0. -1.
         -5    1    5    5    0  503  0.15780643686E+02  0.25356339962E+02  0.15961115325E+02  0.34188008041E+02  0.47000000000E+01 0. -1.
<mgrwt>
<rscale>  0 0.30772028E+03</rscale>
<asrwt>0</asrwt>
<pdfrwt beam="1">  1        1 0.38052531E-01 0.30772028E+03</pdfrwt>
<pdfrwt beam="2">  1       -1 0.14724548E-01 0.30772028E+03</pdfrwt>
<totfact> 0.37017056E+03</totfact>
</mgrwt>
</event>
<event>
 9    1  0.8122655E-001  0.2660240E+03  0.7818608E-02  0.1103577E+00
         -2   -1    0    0    0  501 -0.00000000000E+00  0.00000000000E+00  0.81271867112E+02  0.81271867112E+02  0.00000000000E+00 0.  1.
          2   -1    0    0  501    0  0.00000000000E+00 -0.00000000000E+00 -0.21769144853E+03  0.21769144853E+03  0.00000000000E+00 0.  1.
         35    2    1    2    0    0 -0.35527136788E-14  0.00000000000E+00 -0.13641958142E+03  0.29896331564E+03  0.26602398746E+03 0.  0.
         25    2    3    3    0    0 -0.13348409574E+02 -0.35826082195E+02 -0.93026416505E+02  0.16050902578E+03  0.12509014744E+03 0.  0.
         25    2    3    3    0    0  0.13348409574E+02  0.35826082195E+02 -0.43393164917E+02  0.13845428987E+03  0.12579719956E+03 0.  0.
          5    1    4    4  502    0  0.54317704161E+02 -0.28000141677E+02 -0.55028106752E+02  0.82368704324E+02  0.47000000000E+01 0. -1.
         -5    1    4    4    0  502 -0.67666113736E+02 -0.78259405178E+01 -0.37998309753E+02  0.78140321456E+02  0.47000000000E+01 0. -1.
          5    1    5    5  503    0 -0.21804823390E+01  0.81968446438E+02 -0.21717178489E+02  0.84954732395E+02  0.47000000000E+01 0.  1.
         -5    1    5    5    0  503  0.15528891913E+02 -0.46142364243E+02 -0.21675986427E+02  0.53499557471E+02  0.47000000000E+01 0.  1.
<mgrwt>
<rscale>  0 0.26602399E+03</rscale>
<asrwt>0</asrwt>
<pdfrwt beam="1">  1        2 0.33490991E-01 0.26602399E+03</pdfrwt>
<pdfrwt beam="2">  1       -2 0.12503364E-01 0.26602399E+03</pdfrwt>
<totfact> 0.71077139E+03</totfact>
</mgrwt>
</event>
<event>
 9    1  0.8122655E-001  0.2744248E+03  0.7818608E-02  0.1098774E+00
          2   -1    0    0  501    0  0.00000000000E+00  0.00000000000E+00  0.63026803553E+03  0.63026803553E+03  0.00000000000E+00 0.  1.
         -2   -1    0    0    0  501 -0.00000000000E+00 -0.00000000000E+00 -0.29871810801E+02  0.29871810801E+02  0.00000000000E+00 0.  1.
         35    2    1    2    0    0  0.71054273576E-14 -0.71054273576E-14  0.60039622472E+03  0.66013984633E+03  0.27442483497E+03 0.  0.
         25    2    3    3    0    0 -0.44347468630E+02  0.19924906657E+02  0.21616835515E+03  0.25443421139E+03  0.12507721726E+03 0.  0.
         25    2    3    3    0    0  0.44347468630E+02 -0.19924906657E+02  0.38422786958E+03  0.40570563494E+03  0.12084000408E+03 0.  0.
          5    1    4    4  502    0 -0.88276132722E+01 -0.48957828113E+02  0.12539180760E+03  0.13498144725E+03  0.47000000000E+01 0. -1.
         -5    1    4    4    0  502 -0.35519855358E+02  0.68882734770E+02  0.90776547553E+02  0.11945276414E+03  0.47000000000E+01 0. -1.
          5    1    5    5  503    0 -0.23339954318E+02 -0.18328719216E+02  0.27818959658E+03  0.27980750001E+03  0.47000000000E+01 0.  1.
         -5    1    5    5    0  503  0.67687422949E+02 -0.15961874408E+01  0.10603827300E+03  0.12589813494E+03  0.47000000000E+01 0.  1.
<mgrwt>
<rscale>  0 0.27442483E+03</rscale>
<asrwt>0</asrwt>
<pdfrwt beam="1">  1        2 0.96964303E-01 0.27442483E+03</pdfrwt>
<pdfrwt beam="2">  1       -2 0.45956637E-02 0.27442483E+03</pdfrwt>
<totfact> 0.10550951E+04</totfact>
</mgrwt>
</event>
<event>
 9    1  0.8122655E-001  0.2765456E+03  0.7818608E-02  0.1097591E+00
          2   -1    0    0  501    0  0.00000000000E+00  0.00000000000E+00  0.49055613634E+02  0.49055613634E+02  0.00000000000E+00 0.  1.
         -2   -1    0    0    0  501 -0.00000000000E+00 -0.00000000000E+00 -0.38974867881E+03  0.38974867881E+03  0.00000000000E+00 0.  1.
         35    2    1    2    0    0  0.00000000000E+00  0.00000000000E+00 -0.34069306517E+03  0.43880429244E+03  0.27654555214E+03 0.  0.
         25    2    3    3    0    0  0.16714228777E+01  0.16000121401E+02 -0.82528059410E+02  0.15198089238E+03  0.12660376582E+03 0.  0.
         25    2    3    3    0    0 -0.16714228777E+01 -0.16000121401E+02 -0.25816500576E+03  0.28682340006E+03  0.12393423693E+03 0.  0.
          5    1    4    4  502    0 -0.24188753230E+02 -0.13109201538E+02  0.25033047909E+02  0.37492538396E+02  0.47000000000E+01 0. -1.
         -5    1    4    4    0  502  0.25860176108E+02  0.29109322939E+02 -0.10756110732E+03  0.11448835398E+03  0.47000000000E+01 0. -1.
          5    1    5    5  503    0  0.34894670042E+02  0.41427230160E+02 -0.14260571624E+03  0.15261826136E+03  0.47000000000E+01 0.  1.
         -5    1    5    5    0  503 -0.36566092920E+02 -0.57427351561E+02 -0.11555928953E+03  0.13420513870E+03  0.47000000000E+01 0.  1.
<mgrwt>
<rscale>  0 0.27654555E+03</rscale>
<asrwt>0</asrwt>
<pdfrwt beam="1">  1        2 0.75470177E-02 0.27654555E+03</pdfrwt>
<pdfrwt beam="2">  1       -2 0.59961334E-01 0.27654555E+03</pdfrwt>
<totfact> 0.24207024E+03</totfact>
</mgrwt>
</event>
<event>
 9    1  0.8122655E-001  0.2728520E+03  0.7818608E-02  0.1099658E+00
          2   -1    0    0  501    0  0.00000000000E+00  0.00000000000E+00  0.46126593371E+03  0.46126593371E+03  0.00000000000E+00 0.  1.
         -2   -1    0    0    0  501 -0.00000000000E+00 -0.00000000000E+00 -0.40349937711E+02  0.40349937711E+02  0.00000000000E+00 0.  1.
         35    2    1    2    0    0  0.00000000000E+00 -0.17763568394E-14  0.42091599600E+03  0.50161587142E+03  0.27285198693E+03 0.  0.
         25    2    3    3    0    0  0.42125609624E+02 -0.14984684391E+02  0.26864310661E+03  0.29941925864E+03  0.12443337962E+03 0.  0.
         25    2    3    3    0    0 -0.42125609624E+02  0.14984684391E+02  0.15227288939E+03  0.20219661278E+03  0.12528898445E+03 0.  0.
          5    1    4    4  502    0 -0.41976098374E+02 -0.10673484841E+01  0.12902416025E+03  0.13576618134E+03  0.47000000000E+01 0. -1.
         -5    1    4    4    0  502  0.84101707998E+02 -0.13917335907E+02  0.13961894636E+03  0.16365307730E+03  0.47000000000E+01 0. -1.
          5    1    5    5  503    0 -0.24344075624E+02 -0.13872927719E+02  0.16367817563E+03  0.16612563716E+03  0.47000000000E+01 0. -1.
         -5    1    5    5    0  503 -0.17781534000E+02  0.28857612109E+02 -0.11405286247E+02  0.36070975623E+02  0.47000000000E+01 0. -1.
<mgrwt>
<rscale>  0 0.27285199E+03</rscale>
<asrwt>0</asrwt>
<pdfrwt beam="1">  1        2 0.70963986E-01 0.27285199E+03</pdfrwt>
<pdfrwt beam="2">  1       -2 0.62076831E-02 0.27285199E+03</pdfrwt>
<totfact> 0.95090410E+03</totfact>
</mgrwt>
</event>
<event>
 9    1  0.8122655E-001  0.2774518E+03  0.7818608E-02  0.1097089E+00
         -2   -1    0    0    0  501 -0.00000000000E+00  0.00000000000E+00  0.36919468423E+02  0.36919468423E+02  0.00000000000E+00 0. -1.
          2   -1    0    0  501    0  0.00000000000E+00 -0.00000000000E+00 -0.52126636064E+03  0.52126636064E+03  0.00000000000E+00 0. -1.
         35    2    1    2    0    0 -0.35527136788E-14 -0.71054273576E-14 -0.48434689222E+03  0.55818582906E+03  0.27745181161E+03 0.  0.
         25    2    3    3    0    0 -0.16089361830E+02 -0.59094837333E+02 -0.22308239714E+03  0.26203184353E+03  0.12306040691E+03 0.  0.
         25    2    3    3    0    0  0.16089361830E+02  0.59094837333E+02 -0.26126449508E+03  0.29615398553E+03  0.12528758675E+03 0.  0.
          5    1    4    4  502    0 -0.67040355735E+02 -0.45642614587E+02 -0.16195847403E+03  0.18119132119E+03  0.47000000000E+01 0.  1.
         -5    1    4    4    0  502  0.50950993905E+02 -0.13452222745E+02 -0.61123923102E+02  0.80840522339E+02  0.47000000000E+01 0.  1.
          5    1    5    5  503    0  0.29659384558E+02  0.81604219621E+02 -0.25401669452E+03  0.26848742773E+03  0.47000000000E+01 0. -1.
         -5    1    5    5    0  503 -0.13570022728E+02 -0.22509382288E+02 -0.72478005599E+01  0.27666557805E+02  0.47000000000E+01 0. -1.
<mgrwt>
<rscale>  0 0.27745181E+03</rscale>
<asrwt>0</asrwt>
<pdfrwt beam="1">  1        2 0.80194824E-01 0.27745181E+03</pdfrwt>
<pdfrwt beam="2">  1       -2 0.56799183E-02 0.27745181E+03</pdfrwt>
<totfact> 0.95135506E+03</totfact>
</mgrwt>
</event>
<event>
 9    1  0.8122655E-001  0.2757565E+03  0.7818608E-02  0.1098029E+00
         -2   -1    0    0    0  501 -0.00000000000E+00  0.00000000000E+00  0.21153010480E+02  0.21153010480E+02  0.00000000000E+00 0.  1.
          2   -1    0    0  501    0  0.00000000000E+00 -0.00000000000E+00 -0.89870951827E+03  0.89870951827E+03  0.00000000000E+00 0.  1.
         35    2    1    2    0    0  0.53290705182E-14  0.00000000000E+00 -0.87755650779E+03  0.91986252875E+03  0.27575650026E+03 0.  0.
         25    2    3    3    0    0  0.65210097426E+01  0.53682896460E+02 -0.52126757763E+03  0.53868651601E+03  0.12465511662E+03 0.  0.
         25    2    3    3    0    0 -0.65210097426E+01 -0.53682896460E+02 -0.35628893016E+03  0.38117601274E+03  0.12421342115E+03 0.  0.
          5    1    4    4  502    0  0.65778091440E+01  0.93269578009E+02 -0.31567828388E+03  0.32926790106E+03  0.47000000000E+01 0. -1.
         -5    1    4    4    0  502 -0.56799401376E-01 -0.39586681549E+02 -0.20558929375E+03  0.20941861495E+03  0.47000000000E+01 0. -1.
          5    1    5    5  503    0  0.40104683354E+02 -0.74073994328E+02 -0.22055330368E+03  0.23613807831E+03  0.47000000000E+01 0. -1.
         -5    1    5    5    0  503 -0.46625693097E+02  0.20391097868E+02 -0.13573562647E+03  0.14503793443E+03  0.47000000000E+01 0. -1.
<mgrwt>
<rscale>  0 0.27575650E+03</rscale>
<asrwt>0</asrwt>
<pdfrwt beam="1">  1        2 0.13826302E+00 0.27575650E+03</pdfrwt>
<pdfrwt beam="2">  1       -2 0.32543089E-02 0.27575650E+03</pdfrwt>
<totfact> 0.11381746E+04</totfact>
</mgrwt>
</event>
<event>
 9    1  0.8122655E-001  0.2745588E+03  0.7818608E-02  0.1098698E+00
          2   -1    0    0  501    0  0.00000000000E+00  0.00000000000E+00  0.96115605179E+02  0.96115605179E+02  0.00000000000E+00 0. -1.
         -2   -1    0    0    0  501 -0.00000000000E+00 -0.00000000000E+00 -0.19607255197E+03  0.19607255197E+03  0.00000000000E+00 0. -1.
         35    2    1    2    0    0  0.00000000000E+00  0.00000000000E+00 -0.99956946790E+02  0.29218815715E+03  0.27455878781E+03 0.  0.
         25    2    3    3    0    0  0.16006607365E+02 -0.41092811802E+02 -0.88728928683E+02  0.15946062588E+03  0.12494013671E+03 0.  0.
         25    2    3    3    0    0 -0.16006607365E+02  0.41092811802E+02 -0.11228018107E+02  0.13272753127E+03  0.12468239051E+03 0.  0.
          5    1    4    4  502    0 -0.44858279971E+02 -0.18281581677E+02 -0.80095719802E+02  0.93722440436E+02  0.47000000000E+01 0.  1.
         -5    1    4    4    0  502  0.60864887336E+02 -0.22811230125E+02 -0.86332088808E+01  0.65738185447E+02  0.47000000000E+01 0.  1.
          5    1    5    5  503    0  0.17824507759E+02  0.77892909361E+02 -0.18059837768E+02  0.82056481437E+02  0.47000000000E+01 0. -1.
         -5    1    5    5    0  503 -0.33831115124E+02 -0.36800097559E+02  0.68318196618E+01  0.50671049829E+02  0.47000000000E+01 0. -1.
<mgrwt>
<rscale>  0 0.27455879E+03</rscale>
<asrwt>0</asrwt>
<pdfrwt beam="1">  1        2 0.14787016E-01 0.27455879E+03</pdfrwt>
<pdfrwt beam="2">  1       -2 0.30165008E-01 0.27455879E+03</pdfrwt>
<totfact> 0.39910990E+03</totfact>
</mgrwt>
</event>
<event>
 9    1  0.8122655E-001  0.2684739E+03  0.7818608E-02  0.1102156E+00
          2   -1    0    0  501    0  0.00000000000E+00  0.00000000000E+00  0.13990919638E+03  0.13990919638E+03  0.00000000000E+00 0. -1.
         -2   -1    0    0    0  501 -0.00000000000E+00 -0.00000000000E+00 -0.12879468429E+03  0.12879468429E+03  0.00000000000E+00 0. -1.
         35    2    1    2    0    0  0.00000000000E+00  0.00000000000E+00  0.11114512095E+02  0.26870388067E+03  0.26847391513E+03 0.  0.
         25    2    3    3    0    0  0.14716457358E+02  0.32452442684E+02 -0.26088531149E+02  0.13334950506E+03  0.12582425795E+03 0.  0.
         25    2    3    3    0    0 -0.14716457358E+02 -0.32452442684E+02  0.37203043245E+02  0.13535437561E+03  0.12516790890E+03 0.  0.
          5    1    4    4  502    0 -0.47600838624E+01  0.15971632575E+02 -0.75543662369E+02  0.77502815237E+02  0.47000000000E+01 0.  1.
         -5    1    4    4    0  502  0.19476541220E+02  0.16480810109E+02  0.49455131220E+02  0.55846689819E+02  0.47000000000E+01 0.  1.
          5    1    5    5  503    0 -0.46313819370E+02 -0.17524999651E+02 -0.30975464413E+02  0.58597481797E+02  0.47000000000E+01 0.  1.
         -5    1    5    5    0  503  0.31597362012E+02 -0.14927443033E+02  0.68178507658E+02  0.76756893815E+02  0.47000000000E+01 0.  1.
<mgrwt>
<rscale>  0 0.26847392E+03</rscale>
<asrwt>0</asrwt>
<pdfrwt beam="1">  1        2 0.21524492E-01 0.26847392E+03</pdfrwt>
<pdfrwt beam="2">  1       -2 0.19814567E-01 0.26847392E+03</pdfrwt>
<totfact> 0.54035695E+03</totfact>
</mgrwt>
</event>
<event>
 9    1  0.8122655E-001  0.2769562E+03  0.7818608E-02  0.1097363E+00
         -1   -1    0    0    0  501 -0.00000000000E+00  0.00000000000E+00  0.24013117489E+02  0.24013117489E+02  0.00000000000E+00 0. -1.
          1   -1    0    0  501    0  0.00000000000E+00 -0.00000000000E+00 -0.79857149237E+03  0.79857149237E+03  0.00000000000E+00 0. -1.
         35    2    1    2    0    0 -0.35527136788E-14 -0.71054273576E-14 -0.77455837488E+03  0.82258460986E+03  0.27695624976E+03 0.  0.
         25    2    3    3    0    0 -0.18029174690E+01 -0.58542658478E+02 -0.39673118831E+03  0.41996658262E+03  0.12468280302E+03 0.  0.
         25    2    3    3    0    0  0.18029174690E+01  0.58542658478E+02 -0.37782718657E+03  0.40261802724E+03  0.12616417705E+03 0.  0.
          5    1    4    4  502    0  0.47008720336E+02 -0.53965249214E+02 -0.12768788584E+03  0.14645256604E+03  0.47000000000E+01 0.  1.
         -5    1    4    4    0  502 -0.48811637805E+02 -0.45774092646E+01 -0.26904330248E+03  0.27351401658E+03  0.47000000000E+01 0.  1.
          5    1    5    5  503    0  0.30364881366E+02 -0.16256330473E+02 -0.30802415162E+02  0.46445377387E+02  0.47000000000E+01 0.  1.
         -5    1    5    5    0  503 -0.28561963897E+02  0.74798988952E+02 -0.34702477141E+03  0.35617264985E+03  0.47000000000E+01 0.  1.
<mgrwt>
<rscale>  0 0.27695625E+03</rscale>
<asrwt>0</asrwt>
<pdfrwt beam="1">  1        1 0.12285714E+00 0.27695625E+03</pdfrwt>
<pdfrwt beam="2">  1       -1 0.36943263E-02 0.27695625E+03</pdfrwt>
<totfact> 0.63869362E+03</totfact>
</mgrwt>
</event>
<event>
 9    1  0.8122655E-001  0.2751217E+03  0.7818608E-02  0.1098384E+00
          2   -1    0    0  501    0  0.00000000000E+00  0.00000000000E+00  0.11199476771E+03  0.11199476771E+03  0.00000000000E+00 0.  1.
         -2   -1    0    0    0  501 -0.00000000000E+00 -0.00000000000E+00 -0.16896315815E+03  0.16896315815E+03  0.00000000000E+00 0.  1.
         35    2    1    2    0    0  0.71054273576E-14 -0.71054273576E-14 -0.56968390441E+02  0.28095792586E+03  0.27512171596E+03 0.  0.
         25    2    3    3    0    0 -0.46041353058E+02 -0.31156624436E+02 -0.23537539788E+02  0.13983087130E+03  0.12612737748E+03 0.  0.
         25    2    3    3    0    0  0.46041353058E+02  0.31156624436E+02 -0.33430850653E+02  0.14112705456E+03  0.12533428228E+03 0.  0.
          5    1    4    4  502    0 -0.27256439817E+02 -0.79302617197E+02 -0.25878303870E+02  0.87883987261E+02  0.47000000000E+01 0. -1.
         -5    1    4    4    0  502 -0.18784913242E+02  0.48145992761E+02  0.23407640822E+01  0.51946884035E+02  0.47000000000E+01 0. -1.
          5    1    5    5  503    0  0.72947266638E+01  0.72570859254E+02 -0.40863495567E+02  0.83735643067E+02  0.47000000000E+01 0.  1.
         -5    1    5    5    0  503  0.38746626395E+02 -0.41414234819E+02  0.74326449140E+01  0.57391411492E+02  0.47000000000E+01 0.  1.
<mgrwt>
<rscale>  0 0.27512172E+03</rscale>
<asrwt>0</asrwt>
<pdfrwt beam="1">  1        2 0.17229964E-01 0.27512172E+03</pdfrwt>
<pdfrwt beam="2">  1       -2 0.25994332E-01 0.27512172E+03</pdfrwt>
<totfact> 0.43556605E+03</totfact>
</mgrwt>
</event>
<event>
 9    1  0.8122655E-001  0.2745396E+03  0.7818608E-02  0.1098709E+00
         -2   -1    0    0    0  501 -0.00000000000E+00  0.00000000000E+00  0.83586948608E+02  0.83586948608E+02  0.00000000000E+00 0.  1.
          2   -1    0    0  501    0  0.00000000000E+00 -0.00000000000E+00 -0.22542994322E+03  0.22542994322E+03  0.00000000000E+00 0.  1.
         35    2    1    2    0    0 -0.71054273576E-14  0.00000000000E+00 -0.14184299461E+03  0.30901689183E+03  0.27453962249E+03 0.  0.
         25    2    3    3    0    0 -0.15294844753E+02 -0.54233653181E+02 -0.84185124933E+02  0.16044086944E+03  0.12441429143E+03 0.  0.
         25    2    3    3    0    0  0.15294844753E+02  0.54233653181E+02 -0.57657869680E+02  0.14857602239E+03  0.12480057324E+03 0.  0.
          5    1    4    4  502    0  0.32756617266E+02 -0.72671463782E+02 -0.71595325713E+02  0.10724792906E+03  0.47000000000E+01 0. -1.
         -5    1    4    4    0  502 -0.48051462019E+02  0.18437810601E+02 -0.12589799220E+02  0.53192940380E+02  0.47000000000E+01 0. -1.
          5    1    5    5  503    0 -0.51753368163E+02  0.21241676543E+02 -0.46456945563E+02  0.72869456767E+02  0.47000000000E+01 0. -1.
         -5    1    5    5    0  503  0.67048212916E+02  0.32991976638E+02 -0.11200924117E+02  0.75706565625E+02  0.47000000000E+01 0. -1.
<mgrwt>
<rscale>  0 0.27453962E+03</rscale>
<asrwt>0</asrwt>
<pdfrwt beam="1">  1        2 0.34681530E-01 0.27453962E+03</pdfrwt>
<pdfrwt beam="2">  1       -2 0.12859531E-01 0.27453962E+03</pdfrwt>
<totfact> 0.65459023E+03</totfact>
</mgrwt>
</event>
<event>
 9    1  0.8122655E-001  0.3194120E+03  0.7818608E-02  0.1075920E+00
          2   -1    0    0  501    0  0.00000000000E+00  0.00000000000E+00  0.14135112801E+04  0.14135112801E+04  0.00000000000E+00 0.  1.
         -2   -1    0    0    0  501 -0.00000000000E+00 -0.00000000000E+00 -0.18044435373E+02  0.18044435373E+02  0.00000000000E+00 0.  1.
         35    2    1    2    0    0 -0.71054273576E-14  0.14210854715E-13  0.13954668448E+04  0.14315557155E+04  0.31941204074E+03 0.  0.
         25    2    3    3    0    0 -0.59754887581E+02 -0.50628718320E+02  0.98083989175E+03  0.99169766682E+03  0.12362627323E+03 0.  0.
         25    2    3    3    0    0  0.59754887581E+02  0.50628718320E+02  0.41462695301E+03  0.43985804868E+03  0.12420015747E+03 0.  0.
          5    1    4    4  502    0 -0.76986427837E+02 -0.63923450298E+02  0.93876247974E+03  0.94409226294E+03  0.47000000000E+01 0.  1.
         -5    1    4    4    0  502  0.17231540256E+02  0.13294731979E+02  0.42077412003E+02  0.47605403883E+02  0.47000000000E+01 0.  1.
          5    1    5    5  503    0  0.69318800881E+00 -0.34625662604E+02  0.17888697969E+03  0.18226919247E+03  0.47000000000E+01 0.  1.
         -5    1    5    5    0  503  0.59061699572E+02  0.85254380923E+02  0.23573997332E+03  0.25758885621E+03  0.47000000000E+01 0.  1.
<mgrwt>
<rscale>  0 0.31941204E+03</rscale>
<asrwt>0</asrwt>
<pdfrwt beam="1">  1        2 0.21746319E+00 0.31941204E+03</pdfrwt>
<pdfrwt beam="2">  1       -2 0.27760681E-02 0.31941204E+03</pdfrwt>
<totfact> 0.72449212E+03</totfact>
</mgrwt>
</event>
<event>
 9    1  0.8122655E-001  0.2812875E+03  0.7818608E-02  0.1094988E+00
         -1   -1    0    0    0  501 -0.00000000000E+00  0.00000000000E+00  0.41178668016E+03  0.41178668016E+03  0.00000000000E+00 0. -1.
          1   -1    0    0  501    0  0.00000000000E+00 -0.00000000000E+00 -0.48036203947E+02  0.48036203947E+02  0.00000000000E+00 0. -1.
         35    2    1    2    0    0  0.00000000000E+00  0.00000000000E+00  0.36375047621E+03  0.45982288410E+03  0.28128753225E+03 0.  0.
         25    2    3    3    0    0  0.55828327681E+02 -0.35777643396E+02  0.19880281096E+03  0.24547137875E+03  0.12781548498E+03 0.  0.
         25    2    3    3    0    0 -0.55828327681E+02  0.35777643396E+02  0.16494766525E+03  0.21435150535E+03  0.11975806293E+03 0.  0.
          5    1    4    4  502    0  0.75424656843E+02 -0.22429371656E+02  0.20573911457E+03  0.22032391799E+03  0.47000000000E+01 0.  1.
         -5    1    4    4    0  502 -0.19596329161E+02 -0.13348271740E+02 -0.69363036104E+01  0.25147460763E+02  0.47000000000E+01 0.  1.
          5    1    5    5  503    0 -0.65879751382E+02  0.29558888578E+02  0.29232632859E+02  0.78041696291E+02  0.47000000000E+01 0.  1.
         -5    1    5    5    0  503  0.10051423700E+02  0.62187548174E+01  0.13571503239E+03  0.13630980906E+03  0.47000000000E+01 0.  1.
<mgrwt>
<rscale>  0 0.28128753E+03</rscale>
<asrwt>0</asrwt>
<pdfrwt beam="1">  1        1 0.73901855E-02 0.28128753E+03</pdfrwt>
<pdfrwt beam="2">  1       -1 0.63351795E-01 0.28128753E+03</pdfrwt>
<totfact> 0.25291421E+03</totfact>
</mgrwt>
</event>
<event>
 9    1  0.8122655E-001  0.2784441E+03  0.7818608E-02  0.1096542E+00
          2   -1    0    0  501    0  0.00000000000E+00  0.00000000000E+00  0.52899120997E+02  0.52899120997E+02  0.00000000000E+00 0. -1.
         -2   -1    0    0    0  501 -0.00000000000E+00 -0.00000000000E+00 -0.36641029847E+03  0.36641029847E+03  0.00000000000E+00 0. -1.
         35    2    1    2    0    0  0.00000000000E+00  0.14210854715E-13 -0.31351117747E+03  0.41930941946E+03  0.27844412519E+03 0.  0.
         25    2    3    3    0    0 -0.34987922972E+02  0.48711474820E+02 -0.14430817056E+03  0.20020704652E+03  0.12514412033E+03 0.  0.
         25    2    3    3    0    0  0.34987922972E+02 -0.48711474820E+02 -0.16920300691E+03  0.21910237294E+03  0.12561540411E+03 0.  0.
          5    1    4    4  502    0 -0.74580483556E+02  0.52462875520E+02 -0.67367565465E+02  0.11346841284E+03  0.47000000000E+01 0. -1.
         -5    1    4    4    0  502  0.39592560584E+02 -0.37514006996E+01 -0.76940605099E+02  0.86738633687E+02  0.47000000000E+01 0. -1.
          5    1    5    5  503    0 -0.18553792199E+02  0.34216648275E+02 -0.61480342639E+02  0.72917383080E+02  0.47000000000E+01 0.  1.
         -5    1    5    5    0  503  0.53541715171E+02 -0.82928123096E+02 -0.10772266427E+03  0.14618498986E+03  0.47000000000E+01 0.  1.
<mgrwt>
<rscale>  0 0.27844413E+03</rscale>
<asrwt>0</asrwt>
<pdfrwt beam="1">  1        2 0.81383260E-02 0.27844413E+03</pdfrwt>
<pdfrwt beam="2">  1       -2 0.56370818E-01 0.27844413E+03</pdfrwt>
<totfact> 0.24973236E+03</totfact>
</mgrwt>
</event>
<event>
 9    1  0.8122655E-001  0.3130125E+03  0.7818608E-02  0.1078911E+00
          2   -1    0    0  501    0  0.00000000000E+00  0.00000000000E+00  0.10890509624E+04  0.10890509624E+04  0.00000000000E+00 0. -1.
         -2   -1    0    0    0  501 -0.00000000000E+00 -0.00000000000E+00 -0.22491336630E+02  0.22491336630E+02  0.00000000000E+00 0. -1.
         35    2    1    2    0    0  0.00000000000E+00  0.00000000000E+00  0.10665596258E+04  0.11115422990E+04  0.31301253523E+03 0.  0.
         25    2    3    3    0    0 -0.87029530871E+02 -0.31242005192E+02  0.58861590124E+03  0.60892608281E+03  0.12558699376E+03 0.  0.
         25    2    3    3    0    0  0.87029530871E+02  0.31242005192E+02  0.47794372452E+03  0.50261621621E+03  0.12507059950E+03 0.  0.
          5    1    4    4  502    0 -0.30774305359E+02 -0.74441403099E+02  0.24203453975E+03  0.25513014090E+03  0.47000000000E+01 0. -1.
         -5    1    4    4    0  502 -0.56255225512E+02  0.43199397907E+02  0.34658136149E+03  0.35379594190E+03  0.47000000000E+01 0. -1.
          5    1    5    5  503    0  0.18923759810E+02  0.65548445704E+02  0.13582256753E+03  0.15206764044E+03  0.47000000000E+01 0.  1.
         -5    1    5    5    0  503  0.68105771061E+02 -0.34306440512E+02  0.34212115699E+03  0.35054857577E+03  0.47000000000E+01 0.  1.
<mgrwt>
<rscale>  0 0.31301254E+03</rscale>
<asrwt>0</asrwt>
<pdfrwt beam="1">  1        2 0.16754626E+00 0.31301254E+03</pdfrwt>
<pdfrwt beam="2">  1       -2 0.34602065E-02 0.31301254E+03</pdfrwt>
<totfact> 0.79478843E+03</totfact>
</mgrwt>
</event>
<event>
 9    1  0.8122655E-001  0.2740419E+03  0.7818608E-02  0.1098988E+00
         -4   -1    0    0    0  501 -0.00000000000E+00  0.00000000000E+00  0.31590760659E+03  0.31590760659E+03  0.00000000000E+00 0.  1.
          4   -1    0    0  501    0  0.00000000000E+00 -0.00000000000E+00 -0.59431116082E+02  0.59431116082E+02  0.00000000000E+00 0.  1.
         35    2    1    2    0    0 -0.71054273576E-14  0.71054273576E-14  0.25647649051E+03  0.37533872267E+03  0.27404190656E+03 0.  0.
         25    2    3    3    0    0 -0.53307487200E+02 -0.21724880467E+02  0.12307783897E+03  0.18461086245E+03  0.12497742783E+03 0.  0.
         25    2    3    3    0    0  0.53307487200E+02  0.21724880467E+02  0.13339865153E+03  0.19072786022E+03  0.12356479195E+03 0.  0.
          5    1    4    4  502    0  0.25366794928E+02 -0.48000860766E+02  0.50428814273E+02  0.74247641230E+02  0.47000000000E+01 0.  1.
         -5    1    4    4    0  502 -0.78674282129E+02  0.26275980298E+02  0.72649024701E+02  0.11036322122E+03  0.47000000000E+01 0.  1.
          5    1    5    5  503    0 -0.64813733378E+01 -0.34871876673E+02  0.91469411302E+02  0.98218120461E+02  0.47000000000E+01 0.  1.
         -5    1    5    5    0  503  0.59788860538E+02  0.56596757141E+02  0.41929240233E+02  0.92509739756E+02  0.47000000000E+01 0.  1.
<mgrwt>
<rscale>  0 0.27404191E+03</rscale>
<asrwt>0</asrwt>
<pdfrwt beam="1">  1        4 0.91432488E-02 0.27404191E+03</pdfrwt>
<pdfrwt beam="2">  1       -4 0.48601169E-01 0.27404191E+03</pdfrwt>
<totfact> 0.67995290E+02</totfact>
</mgrwt>
</event>
<event>
 9    1  0.8122655E-001  0.2695477E+03  0.7818608E-02  0.1101539E+00
          2   -1    0    0  501    0  0.00000000000E+00  0.00000000000E+00  0.90769656727E+03  0.90769656727E+03  0.00000000000E+00 0.  1.
         -2   -1    0    0    0  501 -0.00000000000E+00 -0.00000000000E+00 -0.20011078440E+02  0.20011078440E+02  0.00000000000E+00 0.  1.
         35    2    1    2    0    0  0.35527136788E-14  0.14210854715E-13  0.88768548883E+03  0.92770764571E+03  0.26954767450E+03 0.  0.
         25    2    3    3    0    0 -0.18138555849E+02 -0.39565355472E+02  0.36845154761E+03  0.39177958019E+03  0.12585814218E+03 0.  0.
         25    2    3    3    0    0  0.18138555849E+02  0.39565355472E+02  0.51923394122E+03  0.53592806553E+03  0.12538174165E+03 0.  0.
          5    1    4    4  502    0 -0.23541320565E+01  0.35650626258E+02  0.23468242700E+03  0.23743302347E+03  0.47000000000E+01 0. -1.
         -5    1    4    4    0  502 -0.15784423793E+02 -0.75215981730E+02  0.13376912061E+03  0.15434655672E+03  0.47000000000E+01 0. -1.
          5    1    5    5  503    0 -0.18893123745E+02  0.76992474539E+02  0.28990077208E+03  0.30058166763E+03  0.47000000000E+01 0. -1.
         -5    1    5    5    0  503  0.37031679594E+02 -0.37427119067E+02  0.22933316914E+03  0.23534639790E+03  0.47000000000E+01 0. -1.
<mgrwt>
<rscale>  0 0.26954767E+03</rscale>
<asrwt>0</asrwt>
<pdfrwt beam="1">  1        2 0.13964559E+00 0.26954767E+03</pdfrwt>
<pdfrwt beam="2">  1       -2 0.30786282E-02 0.26954767E+03</pdfrwt>
<totfact> 0.12190150E+04</totfact>
</mgrwt>
</event>
<event>
 9    1  0.8122655E-001  0.2751975E+03  0.7818608E-02  0.1098341E+00
          2   -1    0    0  501    0  0.00000000000E+00  0.00000000000E+00  0.19856241263E+03  0.19856241263E+03  0.00000000000E+00 0.  1.
         -2   -1    0    0    0  501 -0.00000000000E+00 -0.00000000000E+00 -0.95352455432E+02  0.95352455432E+02  0.00000000000E+00 0.  1.
         35    2    1    2    0    0  0.71054273576E-14 -0.71054273576E-14  0.10320995720E+03  0.29391486806E+03  0.27519748255E+03 0.  0.
         25    2    3    3    0    0  0.29642463076E+02 -0.40774601788E+02  0.10149087809E+03  0.16857716013E+03  0.12480631720E+03 0.  0.
         25    2    3    3    0    0 -0.29642463076E+02  0.40774601788E+02  0.17190791084E+01  0.12533770793E+03  0.11474032433E+03 0.  0.
          5    1    4    4  502    0  0.15042465243E+02  0.33260435268E+02 -0.58648558905E+01  0.37269543188E+02  0.47000000000E+01 0.  1.
         -5    1    4    4    0  502  0.14599997832E+02 -0.74035037057E+02  0.10735573398E+03  0.13130761694E+03  0.47000000000E+01 0.  1.
          5    1    5    5  503    0  0.56096232304E+00 -0.34042426145E+02  0.23497631568E+02  0.41634482654E+02  0.47000000000E+01 0.  1.
         -5    1    5    5    0  503 -0.30203425399E+02  0.74817027933E+02 -0.21778552460E+02  0.83703225277E+02  0.47000000000E+01 0.  1.
<mgrwt>
<rscale>  0 0.27519748E+03</rscale>
<asrwt>0</asrwt>
<pdfrwt beam="1">  1        2 0.30548063E-01 0.27519748E+03</pdfrwt>
<pdfrwt beam="2">  1       -2 0.14669609E-01 0.27519748E+03</pdfrwt>
<totfact> 0.60605641E+03</totfact>
</mgrwt>
</event>
<event>
 9    1  0.8122655E-001  0.2759423E+03  0.7818608E-02  0.1097926E+00
          4   -1    0    0  501    0  0.00000000000E+00  0.00000000000E+00  0.13413438853E+03  0.13413438853E+03  0.00000000000E+00 0. -1.
         -4   -1    0    0    0  501 -0.00000000000E+00 -0.00000000000E+00 -0.14191766821E+03  0.14191766821E+03  0.00000000000E+00 0. -1.
         35    2    1    2    0    0  0.71054273576E-14  0.35527136788E-14 -0.77832796788E+01  0.27605205673E+03  0.27594231025E+03 0.  0.
         25    2    3    3    0    0 -0.14017350266E+02  0.24048395704E+02  0.38904015352E+02  0.13930670965E+03  0.13083587237E+03 0.  0.
         25    2    3    3    0    0  0.14017350266E+02 -0.24048395704E+02 -0.46687295031E+02  0.13674534708E+03  0.12547818530E+03 0.  0.
          5    1    4    4  502    0 -0.53132287404E+02 -0.77569439484E+01  0.63269725601E+02  0.83116534587E+02  0.47000000000E+01 0.  1.
         -5    1    4    4    0  502  0.39114937138E+02  0.31805339653E+02 -0.24365710249E+02  0.56190175063E+02  0.47000000000E+01 0.  1.
          5    1    5    5  503    0 -0.39717108373E+02 -0.51752983800E+02 -0.10823905280E+02  0.66295301155E+02  0.47000000000E+01 0. -1.
         -5    1    5    5    0  503  0.53734458639E+02  0.27704588096E+02 -0.35863389751E+02  0.70450045928E+02  0.47000000000E+01 0. -1.
<mgrwt>
<rscale>  0 0.27594231E+03</rscale>
<asrwt>0</asrwt>
<pdfrwt beam="1">  1        4 0.20636060E-01 0.27594231E+03</pdfrwt>
<pdfrwt beam="2">  1       -4 0.21833487E-01 0.27594231E+03</pdfrwt>
<totfact> 0.76920211E+02</totfact>
</mgrwt>
</event>
<event>
 9    1  0.8122655E-001  0.2759222E+03  0.7818608E-02  0.1097937E+00
         -2   -1    0    0    0  501 -0.00000000000E+00  0.00000000000E+00  0.15298823764E+02  0.15298823764E+02  0.00000000000E+00 0. -1.
          2   -1    0    0  501    0  0.00000000000E+00 -0.00000000000E+00 -0.12441000704E+04  0.12441000704E+04  0.00000000000E+00 0. -1.
         35    2    1    2    0    0  0.35527136788E-14  0.00000000000E+00 -0.12288012466E+04  0.12593988941E+04  0.27592221890E+03 0.  0.
         25    2    3    3    0    0  0.15489039161E+02 -0.48588235903E+02 -0.78611154487E+03  0.79757705896E+03  0.12472801208E+03 0.  0.
         25    2    3    3    0    0 -0.15489039161E+02  0.48588235903E+02 -0.44268970172E+03  0.46182183516E+03  0.12126214751E+03 0.  0.
          5    1    4    4  502    0 -0.15444677376E+02  0.29822845010E+02 -0.86823023224E+02  0.93210876540E+02  0.47000000000E+01 0. -1.
         -5    1    4    4    0  502  0.30933716537E+02 -0.78411080913E+02 -0.69928852165E+03  0.70436618242E+03  0.47000000000E+01 0. -1.
          5    1    5    5  503    0 -0.42694986460E+02 -0.17049969979E+02 -0.81596859730E+02  0.93774734673E+02  0.47000000000E+01 0.  1.
         -5    1    5    5    0  503  0.27205947299E+02  0.65638205883E+02 -0.36109284199E+03  0.36804710049E+03  0.47000000000E+01 0.  1.
<mgrwt>
<rscale>  0 0.27592222E+03</rscale>
<asrwt>0</asrwt>
<pdfrwt beam="1">  1        2 0.19140000E+00 0.27592222E+03</pdfrwt>
<pdfrwt beam="2">  1       -2 0.23536653E-02 0.27592222E+03</pdfrwt>
<totfact> 0.11450959E+04</totfact>
</mgrwt>
</event>
<event>
 9    1  0.8122655E-001  0.2726402E+03  0.7818608E-02  0.1099778E+00
          2   -1    0    0  501    0  0.00000000000E+00  0.00000000000E+00  0.15844587468E+04  0.15844587468E+04  0.00000000000E+00 0.  1.
         -2   -1    0    0    0  501 -0.00000000000E+00 -0.00000000000E+00 -0.11728401970E+02  0.11728401970E+02  0.00000000000E+00 0.  1.
         35    2    1    2    0    0  0.17763568394E-14 -0.21316282073E-13  0.15727303448E+04  0.15961871487E+04  0.27264019577E+03 0.  0.
         25    2    3    3    0    0  0.43364761997E+01 -0.48014736541E+02  0.70187464834E+03  0.71537114626E+03  0.12962883544E+03 0.  0.
         25    2    3    3    0    0 -0.43364761997E+01  0.48014736541E+02  0.87085569647E+03  0.88081600249E+03  0.12297546993E+03 0.  0.
          5    1    4    4  502    0  0.19023113633E+02  0.21155728527E+02  0.51020913194E+03  0.51102337717E+03  0.47000000000E+01 0. -1.
         -5    1    4    4    0  502 -0.14686637433E+02 -0.69170465069E+02  0.19166551639E+03  0.20434776909E+03  0.47000000000E+01 0. -1.
          5    1    5    5  503    0 -0.59245206482E+02  0.47720626882E+02  0.55113562407E+03  0.55638100151E+03  0.47000000000E+01 0. -1.
         -5    1    5    5    0  503  0.54908730282E+02  0.29410965951E+00  0.31972007240E+03  0.32443500098E+03  0.47000000000E+01 0. -1.
<mgrwt>
<rscale>  0 0.27264020E+03</rscale>
<asrwt>0</asrwt>
<pdfrwt beam="1">  1        2 0.24376272E+00 0.27264020E+03</pdfrwt>
<pdfrwt beam="2">  1       -2 0.18043708E-02 0.27264020E+03</pdfrwt>
<totfact> 0.11061209E+04</totfact>
</mgrwt>
</event>
<event>
 9    1  0.8122655E-001  0.3244720E+03  0.7818608E-02  0.1073609E+00
         -2   -1    0    0    0  501 -0.00000000000E+00  0.00000000000E+00  0.15186840184E+02  0.15186840184E+02  0.00000000000E+00 0. -1.
          2   -1    0    0  501    0  0.00000000000E+00 -0.00000000000E+00 -0.17331140221E+04  0.17331140221E+04  0.00000000000E+00 0. -1.
         35    2    1    2    0    0  0.00000000000E+00  0.00000000000E+00 -0.17179271819E+04  0.17483008623E+04  0.32447203685E+03 0.  0.
         25    2    3    3    0    0 -0.43892910667E+02  0.24911160538E+02 -0.13513292441E+04  0.13580119483E+04  0.12473400521E+03 0.  0.
         25    2    3    3    0    0  0.43892910667E+02 -0.24911160538E+02 -0.36659793780E+03  0.39028891404E+03  0.12403320077E+03 0.  0.
          5    1    4    4  502    0 -0.27793361515E+02  0.75339877978E+02 -0.73193968622E+03  0.73634663197E+03  0.47000000000E+01 0.  1.
         -5    1    4    4    0  502 -0.16099549152E+02 -0.50428717441E+02 -0.61938955792E+03  0.62166531629E+03  0.47000000000E+01 0.  1.
          5    1    5    5  503    0  0.16719696187E+02 -0.28513348285E+02 -0.36020980043E+03  0.36175371401E+03  0.47000000000E+01 0. -1.
         -5    1    5    5    0  503  0.27173214480E+02  0.36021877479E+01 -0.63881373713E+01  0.28535200031E+02  0.47000000000E+01 0. -1.
<mgrwt>
<rscale>  0 0.32447204E+03</rscale>
<asrwt>0</asrwt>
<pdfrwt beam="1">  1        2 0.26663298E+00 0.32447204E+03</pdfrwt>
<pdfrwt beam="2">  1       -2 0.23364364E-02 0.32447204E+03</pdfrwt>
<totfact> 0.63141132E+03</totfact>
</mgrwt>
</event>
<event>
 9    1  0.8122655E-001  0.2768291E+03  0.7818608E-02  0.1097434E+00
          2   -1    0    0  501    0  0.00000000000E+00  0.00000000000E+00  0.14267541817E+04  0.14267541817E+04  0.00000000000E+00 0.  1.
         -2   -1    0    0    0  501 -0.00000000000E+00 -0.00000000000E+00 -0.13428097008E+02  0.13428097008E+02  0.00000000000E+00 0.  1.
         35    2    1    2    0    0  0.00000000000E+00  0.71054273576E-14  0.14133260847E+04  0.14401822787E+04  0.27682914267E+03 0.  0.
         25    2    3    3    0    0  0.47392890520E+02  0.14735469595E+02  0.50445354009E+03  0.52158082893E+03  0.12292260515E+03 0.  0.
         25    2    3    3    0    0 -0.47392890520E+02 -0.14735469595E+02  0.90887254462E+03  0.91860144980E+03  0.12375823639E+03 0.  0.
          5    1    4    4  502    0 -0.48167944776E+01 -0.91863553600E+01  0.41512014192E+03  0.41527630905E+03  0.47000000000E+01 0.  1.
         -5    1    4    4    0  502  0.52209684997E+02  0.23921824955E+02  0.89333398177E+02  0.10630451988E+03  0.47000000000E+01 0.  1.
          5    1    5    5  503    0 -0.77614052856E+02 -0.35539986773E+02  0.77537636350E+03  0.78007539823E+03  0.47000000000E+01 0. -1.
         -5    1    5    5    0  503  0.30221162336E+02  0.20804517179E+02  0.13349618113E+03  0.13852605157E+03  0.47000000000E+01 0. -1.
<mgrwt>
<rscale>  0 0.27682914E+03</rscale>
<asrwt>0</asrwt>
<pdfrwt beam="1">  1        2 0.21950052E+00 0.27682914E+03</pdfrwt>
<pdfrwt beam="2">  1       -2 0.20658622E-02 0.27682914E+03</pdfrwt>
<totfact> 0.11013763E+04</totfact>
</mgrwt>
</event>
<event>
 9    1  0.8122655E-001  0.2772875E+03  0.7818608E-02  0.1097180E+00
         -3   -1    0    0    0  501 -0.00000000000E+00  0.00000000000E+00  0.75403120766E+02  0.75403120766E+02  0.00000000000E+00 0. -1.
          3   -1    0    0  501    0  0.00000000000E+00 -0.00000000000E+00 -0.25492429901E+03  0.25492429901E+03  0.00000000000E+00 0. -1.
         35    2    1    2    0    0  0.71054273576E-14 -0.35527136788E-14 -0.17952117824E+03  0.33032741977E+03  0.27728748767E+03 0.  0.
         25    2    3    3    0    0 -0.45575220321E+02 -0.27437203901E+01 -0.11750808256E+03  0.18265098083E+03  0.13216884134E+03 0.  0.
         25    2    3    3    0    0  0.45575220321E+02  0.27437203901E+01 -0.62013095681E+02  0.14767643895E+03  0.12600824527E+03 0.  0.
          5    1    4    4  502    0  0.90157866860E+00 -0.59622145310E+02 -0.80439869534E+02  0.10024108771E+03  0.47000000000E+01 0. -1.
         -5    1    4    4    0  502 -0.46476798990E+02  0.56878424920E+02 -0.37068213028E+02  0.82409893113E+02  0.47000000000E+01 0. -1.
          5    1    5    5  503    0 -0.19629826861E+02  0.22874997059E+02 -0.72328837892E+02  0.78499340022E+02  0.47000000000E+01 0.  1.
         -5    1    5    5    0  503  0.65205047182E+02 -0.20131276669E+02  0.10315742212E+02  0.69177098926E+02  0.47000000000E+01 0.  1.
<mgrwt>
<rscale>  0 0.27728749E+03</rscale>
<asrwt>0</asrwt>
<pdfrwt beam="1">  1        3 0.39219123E-01 0.27728749E+03</pdfrwt>
<pdfrwt beam="2">  1       -3 0.11600480E-01 0.27728749E+03</pdfrwt>
<totfact> 0.94493316E+02</totfact>
</mgrwt>
</event>
<event>
 9    1  0.8122655E-001  0.2740356E+03  0.7818608E-02  0.1098992E+00
          1   -1    0    0  501    0  0.00000000000E+00  0.00000000000E+00  0.12743553618E+03  0.12743553618E+03  0.00000000000E+00 0. -1.
         -1   -1    0    0    0  501 -0.00000000000E+00 -0.00000000000E+00 -0.14732058883E+03  0.14732058883E+03  0.00000000000E+00 0. -1.
         35    2    1    2    0    0 -0.71054273576E-14  0.35527136788E-14 -0.19885052647E+02  0.27475612501E+03  0.27403560519E+03 0.  0.
         25    2    3    3    0    0 -0.54281373379E+02  0.67406779859E+01 -0.22536879624E+02  0.13782330631E+03  0.12448071571E+03 0.  0.
         25    2    3    3    0    0  0.54281373379E+02 -0.67406779859E+01  0.26518269773E+01  0.13693281869E+03  0.12550561905E+03 0.  0.
          5    1    4    4  502    0 -0.96245964471E+01  0.56641893794E+02  0.16765614827E+02  0.60034263799E+02  0.47000000000E+01 0.  1.
         -5    1    4    4    0  502 -0.44656776932E+02 -0.49901215808E+02 -0.39302494451E+02  0.77789042514E+02  0.47000000000E+01 0.  1.
          5    1    5    5  503    0  0.30083058024E+02 -0.13389429068E+02 -0.60374988653E+02  0.68931099263E+02  0.47000000000E+01 0.  1.
         -5    1    5    5    0  503  0.24198315355E+02  0.66487510820E+01  0.63026815630E+02  0.68001719430E+02  0.47000000000E+01 0.  1.
<mgrwt>
<rscale>  0 0.27403561E+03</rscale>
<asrwt>0</asrwt>
<pdfrwt beam="1">  1        1 0.19605467E-01 0.27403561E+03</pdfrwt>
<pdfrwt beam="2">  1       -1 0.22664706E-01 0.27403561E+03</pdfrwt>
<totfact> 0.42712911E+03</totfact>
</mgrwt>
</event>
<event>
 9    1  0.8122655E-001  0.2792824E+03  0.7818608E-02  0.1096082E+00
          1   -1    0    0  501    0  0.00000000000E+00  0.00000000000E+00  0.39628495056E+03  0.39628495056E+03  0.00000000000E+00 0.  1.
         -1   -1    0    0    0  501 -0.00000000000E+00 -0.00000000000E+00 -0.49206184966E+02  0.49206184966E+02  0.00000000000E+00 0.  1.
         35    2    1    2    0    0  0.00000000000E+00  0.00000000000E+00  0.34707876560E+03  0.44549113553E+03  0.27928244182E+03 0.  0.
         25    2    3    3    0    0  0.13501631713E+02 -0.32320220697E+02  0.90420512013E+02  0.15793141317E+03  0.12465781784E+03 0.  0.
         25    2    3    3    0    0 -0.13501631713E+02  0.32320220697E+02  0.25665825358E+03  0.28755972236E+03  0.12486089887E+03 0.  0.
          5    1    4    4  502    0  0.46413843590E+02 -0.56279387080E+02  0.91279068688E+02  0.11694260416E+03  0.47000000000E+01 0.  1.
         -5    1    4    4    0  502 -0.32912211877E+02  0.23959166383E+02 -0.85855667531E+00  0.40988809009E+02  0.47000000000E+01 0.  1.
          5    1    5    5  503    0  0.40913598684E+02 -0.11472626307E+02  0.17430890245E+03  0.17947486505E+03  0.47000000000E+01 0.  1.
         -5    1    5    5    0  503 -0.54415230397E+02  0.43792847004E+02  0.82349351134E+02  0.10808485731E+03  0.47000000000E+01 0.  1.
<mgrwt>
<rscale>  0 0.27928244E+03</rscale>
<asrwt>0</asrwt>
<pdfrwt beam="1">  1        1 0.60966913E-01 0.27928244E+03</pdfrwt>
<pdfrwt beam="2">  1       -1 0.75701825E-02 0.27928244E+03</pdfrwt>
<totfact> 0.57188970E+03</totfact>
</mgrwt>
</event>
<event>
 9    1  0.8122655E-001  0.2940121E+03  0.7818608E-02  0.1088273E+00
          2   -1    0    0  501    0  0.00000000000E+00  0.00000000000E+00  0.38975157381E+03  0.38975157381E+03  0.00000000000E+00 0. -1.
         -2   -1    0    0    0  501 -0.00000000000E+00 -0.00000000000E+00 -0.55447567009E+02  0.55447567009E+02  0.00000000000E+00 0. -1.
         35    2    1    2    0    0  0.35527136788E-14 -0.71054273576E-14  0.33430400680E+03  0.44519914082E+03  0.29401208482E+03 0.  0.
         25    2    3    3    0    0  0.19031624060E+02 -0.26026918766E+02  0.61918079721E+02  0.14384620944E+03  0.12577074445E+03 0.  0.
         25    2    3    3    0    0 -0.19031624060E+02  0.26026918766E+02  0.27238592708E+03  0.30135293138E+03  0.12481944065E+03 0.  0.
          5    1    4    4  502    0  0.14583492402E+02  0.27880585605E+02  0.80421490163E+02  0.86485324677E+02  0.47000000000E+01 0.  1.
         -5    1    4    4    0  502  0.44481316577E+01 -0.53907504371E+02 -0.18503410443E+02  0.57360884762E+02  0.47000000000E+01 0.  1.
          5    1    5    5  503    0 -0.57969859261E+02 -0.20097413508E+01  0.22970985233E+03  0.23696676961E+03  0.47000000000E+01 0. -1.
         -5    1    5    5    0  503  0.38938235201E+02  0.28036660117E+02  0.42676074751E+02  0.64386161768E+02  0.47000000000E+01 0. -1.
<mgrwt>
<rscale>  0 0.29401208E+03</rscale>
<asrwt>0</asrwt>
<pdfrwt beam="1">  1        2 0.59961779E-01 0.29401208E+03</pdfrwt>
<pdfrwt beam="2">  1       -2 0.85303952E-02 0.29401208E+03</pdfrwt>
<totfact> 0.69965619E+03</totfact>
</mgrwt>
</event>
<event>
 9    1  0.8122655E-001  0.2751255E+03  0.7818608E-02  0.1098381E+00
          2   -1    0    0  501    0  0.00000000000E+00  0.00000000000E+00  0.84805305697E+03  0.84805305697E+03  0.00000000000E+00 0. -1.
         -2   -1    0    0    0  501 -0.00000000000E+00 -0.00000000000E+00 -0.22314069875E+02  0.22314069875E+02  0.00000000000E+00 0. -1.
         35    2    1    2    0    0  0.00000000000E+00  0.35527136788E-14  0.82573898709E+03  0.87036712684E+03  0.27512553623E+03 0.  0.
         25    2    3    3    0    0  0.52900040855E+02 -0.18452590822E+02  0.46186126014E+03  0.48160417978E+03  0.12445019058E+03 0.  0.
         25    2    3    3    0    0 -0.52900040855E+02  0.18452590822E+02  0.36387772696E+03  0.38876294706E+03  0.12486279031E+03 0.  0.
          5    1    4    4  502    0 -0.21231428366E+02 -0.46003776750E+01  0.32089436037E+03  0.32166320514E+03  0.47000000000E+01 0. -1.
         -5    1    4    4    0  502  0.74131469221E+02 -0.13852213147E+02  0.14096689977E+03  0.15994097464E+03  0.47000000000E+01 0. -1.
          5    1    5    5  503    0  0.29962262245E+02 -0.11142566277E+02  0.20098228568E+03  0.20356292172E+03  0.47000000000E+01 0.  1.
         -5    1    5    5    0  503 -0.82862303100E+02  0.29595157099E+02  0.16289544127E+03  0.18520002534E+03  0.47000000000E+01 0.  1.
<mgrwt>
<rscale>  0 0.27512554E+03</rscale>
<asrwt>0</asrwt>
<pdfrwt beam="1">  1        2 0.13046968E+00 0.27512554E+03</pdfrwt>
<pdfrwt beam="2">  1       -2 0.34329345E-02 0.27512554E+03</pdfrwt>
<totfact> 0.11344366E+04</totfact>
</mgrwt>
</event>
<event>
 9    1  0.8122655E-001  0.2749575E+03  0.7818608E-02  0.1098475E+00
         -2   -1    0    0    0  501 -0.00000000000E+00  0.00000000000E+00  0.76576782677E+02  0.76576782677E+02  0.00000000000E+00 0.  1.
          2   -1    0    0  501    0  0.00000000000E+00 -0.00000000000E+00 -0.24681644619E+03  0.24681644619E+03  0.00000000000E+00 0.  1.
         35    2    1    2    0    0  0.26645352591E-14  0.00000000000E+00 -0.17023966351E+03  0.32339322887E+03  0.27495751934E+03 0.  0.
         25    2    3    3    0    0 -0.51847913773E+00  0.56704755424E+02 -0.96464124531E+02  0.16756309812E+03  0.12472516354E+03 0.  0.
         25    2    3    3    0    0  0.51847913773E+00 -0.56704755424E+02 -0.73775538982E+02  0.15583013075E+03  0.12499800554E+03 0.  0.
          5    1    4    4  502    0 -0.43549487644E+02 -0.14206448012E+02 -0.62913168423E+02  0.77964978037E+02  0.47000000000E+01 0.  1.
         -5    1    4    4    0  502  0.43031008507E+02  0.70911203436E+02 -0.33550956107E+02  0.89598120079E+02  0.47000000000E+01 0.  1.
          5    1    5    5  503    0 -0.46729002896E+01 -0.90673675728E+02 -0.22047373922E+02  0.93550671638E+02  0.47000000000E+01 0. -1.
         -5    1    5    5    0  503  0.51913794273E+01  0.33968920303E+02 -0.51728165060E+02  0.62279459113E+02  0.47000000000E+01 0. -1.
<mgrwt>
<rscale>  0 0.27495752E+03</rscale>
<asrwt>0</asrwt>
<pdfrwt beam="1">  1        2 0.37971761E-01 0.27495752E+03</pdfrwt>
<pdfrwt beam="2">  1       -2 0.11781044E-01 0.27495752E+03</pdfrwt>
<totfact> 0.68376461E+03</totfact>
</mgrwt>
</event>
<event>
 9    1  0.8122655E-001  0.2652541E+03  0.7818608E-02  0.1104027E+00
         -3   -1    0    0    0  501 -0.00000000000E+00  0.00000000000E+00  0.42128929390E+04  0.42128929390E+04  0.00000000000E+00 0. -1.
          3   -1    0    0  501    0  0.00000000000E+00 -0.00000000000E+00 -0.41752621462E+01  0.41752621462E+01  0.00000000000E+00 0. -1.
         35    2    1    2    0    0  0.00000000000E+00 -0.71054273576E-14  0.42087176769E+04  0.42170682012E+04  0.26525408509E+03 0.  0.
         25    2    3    3    0    0 -0.35300073456E+02 -0.18517160982E+02  0.16897389372E+04  0.16947776625E+04  0.12435702258E+03 0.  0.
         25    2    3    3    0    0  0.35300073456E+02  0.18517160982E+02  0.25189787397E+04  0.25222905387E+04  0.12290927531E+03 0.  0.
          5    1    4    4  502    0 -0.41066422547E+02 -0.65880077127E+02  0.12539091129E+04  0.12563187450E+04  0.47000000000E+01 0.  1.
         -5    1    4    4    0  502  0.57663490906E+01  0.47362916146E+02  0.43582982425E+03  0.43845891747E+03  0.47000000000E+01 0.  1.
          5    1    5    5  503    0  0.13208386604E+02  0.69596934604E+02  0.16430017046E+04  0.16445348540E+04  0.47000000000E+01 0.  1.
         -5    1    5    5    0  503  0.22091686852E+02 -0.51079773622E+02  0.87597703512E+03  0.87775568466E+03  0.47000000000E+01 0.  1.
<mgrwt>
<rscale>  0 0.26525409E+03</rscale>
<asrwt>0</asrwt>
<pdfrwt beam="1">  1        3 0.64235139E-03 0.26525409E+03</pdfrwt>
<pdfrwt beam="2">  1       -3 0.64813397E+00 0.26525409E+03</pdfrwt>
<totfact> 0.89297373E+00</totfact>
</mgrwt>
</event>
<event>
 9    1  0.8122655E-001  0.2718487E+03  0.7818608E-02  0.1100226E+00
          1   -1    0    0  501    0  0.00000000000E+00  0.00000000000E+00  0.10136667945E+04  0.10136667945E+04  0.00000000000E+00 0. -1.
         -1   -1    0    0    0  501 -0.00000000000E+00 -0.00000000000E+00 -0.18226331924E+02  0.18226331924E+02  0.00000000000E+00 0. -1.
         35    2    1    2    0    0  0.35527136788E-14  0.71054273576E-14  0.99544046256E+03  0.10318931264E+04  0.27184868921E+03 0.  0.
         25    2    3    3    0    0  0.27515515502E+02  0.33379879636E+02  0.62656396226E+03  0.64039211793E+03  0.12509334894E+03 0.  0.
         25    2    3    3    0    0 -0.27515515502E+02 -0.33379879636E+02  0.36887650030E+03  0.39150100848E+03  0.12382183655E+03 0.  0.
          5    1    4    4  502    0  0.33536563979E+02 -0.17591549781E+02  0.57573865968E+02  0.69072453190E+02  0.47000000000E+01 0. -1.
         -5    1    4    4    0  502 -0.60210484765E+01  0.50971429417E+02  0.56899009629E+03  0.57131966474E+03  0.47000000000E+01 0. -1.
          5    1    5    5  503    0 -0.65630430046E+02 -0.55046582079E+02  0.26835117588E+03  0.28173023115E+03  0.47000000000E+01 0. -1.
         -5    1    5    5    0  503  0.38114914544E+02  0.21666702443E+02  0.10052532442E+03  0.10977077733E+03  0.47000000000E+01 0. -1.
<mgrwt>
<rscale>  0 0.27184869E+03</rscale>
<asrwt>0</asrwt>
<pdfrwt beam="1">  1        1 0.15594869E+00 0.27184869E+03</pdfrwt>
<pdfrwt beam="2">  1       -1 0.28040519E-02 0.27184869E+03</pdfrwt>
<totfact> 0.65037298E+03</totfact>
</mgrwt>
</event>
<event>
 9    1  0.8122655E-001  0.2731738E+03  0.7818608E-02  0.1099477E+00
          2   -1    0    0  501    0  0.00000000000E+00  0.00000000000E+00  0.12586420924E+04  0.12586420924E+04  0.00000000000E+00 0.  1.
         -2   -1    0    0    0  501 -0.00000000000E+00 -0.00000000000E+00 -0.14822308209E+02  0.14822308209E+02  0.00000000000E+00 0.  1.
         35    2    1    2    0    0 -0.71054273576E-14 -0.71054273576E-14  0.12438197842E+04  0.12734644006E+04  0.27317379829E+03 0.  0.
         25    2    3    3    0    0 -0.22555057912E+02  0.21228256078E+02  0.42758496781E+03  0.44663122900E+03  0.12526444238E+03 0.  0.
         25    2    3    3    0    0  0.22555057912E+02 -0.21228256078E+02  0.81623481638E+03  0.82683317161E+03  0.12827489511E+03 0.  0.
          5    1    4    4  502    0 -0.64060324988E+02 -0.17300882556E+02  0.16375729011E+03  0.17675289485E+03  0.47000000000E+01 0.  1.
         -5    1    4    4    0  502  0.41505267075E+02  0.38529138634E+02  0.26382767771E+03  0.26987833415E+03  0.47000000000E+01 0.  1.
          5    1    5    5  503    0 -0.44482620994E+02 -0.39585404587E+02  0.29709316896E+03  0.30303819704E+03  0.47000000000E+01 0. -1.
         -5    1    5    5    0  503  0.67037678906E+02  0.18357148509E+02  0.51914164742E+03  0.52379497457E+03  0.47000000000E+01 0. -1.
<mgrwt>
<rscale>  0 0.27317380E+03</rscale>
<asrwt>0</asrwt>
<pdfrwt beam="1">  1        2 0.19363716E+00 0.27317380E+03</pdfrwt>
<pdfrwt beam="2">  1       -2 0.22803561E-02 0.27317380E+03</pdfrwt>
<totfact> 0.11772603E+04</totfact>
</mgrwt>
</event>
<event>
 9    1  0.8122655E-001  0.2750285E+03  0.7818608E-02  0.1098436E+00
          1   -1    0    0  501    0  0.00000000000E+00  0.00000000000E+00  0.54141330134E+03  0.54141330134E+03  0.00000000000E+00 0. -1.
         -1   -1    0    0    0  501 -0.00000000000E+00 -0.00000000000E+00 -0.34927412489E+02  0.34927412489E+02  0.00000000000E+00 0. -1.
         35    2    1    2    0    0 -0.71054273576E-14  0.00000000000E+00  0.50648588885E+03  0.57634071383E+03  0.27502847637E+03 0.  0.
         25    2    3    3    0    0 -0.54620272597E+02  0.32031334293E+01  0.28071654522E+03  0.31262649442E+03  0.12625336434E+03 0.  0.
         25    2    3    3    0    0  0.54620272597E+02 -0.32031334293E+01  0.22576934363E+03  0.26371421941E+03  0.12481890384E+03 0.  0.
          5    1    4    4  502    0  0.34957886205E+02  0.20767271217E+02  0.51010872617E+02  0.65402847697E+02  0.47000000000E+01 0. -1.
         -5    1    4    4    0  502 -0.89578158802E+02 -0.17564137788E+02  0.22970567261E+03  0.24722364672E+03  0.47000000000E+01 0. -1.
          5    1    5    5  503    0 -0.24010201532E+02  0.38857620417E+02  0.92860839867E+02  0.10359358099E+03  0.47000000000E+01 0. -1.
         -5    1    5    5    0  503  0.78630474129E+02 -0.42060753846E+02  0.13290850376E+03  0.16012063842E+03  0.47000000000E+01 0. -1.
<mgrwt>
<rscale>  0 0.27502848E+03</rscale>
<asrwt>0</asrwt>
<pdfrwt beam="1">  1        1 0.83294348E-01 0.27502848E+03</pdfrwt>
<pdfrwt beam="2">  1       -1 0.53734485E-02 0.27502848E+03</pdfrwt>
<totfact> 0.63737500E+03</totfact>
</mgrwt>
</event>
<event>
 9    1  0.8122655E-001  0.2711807E+03  0.7818608E-02  0.1100606E+00
         -1   -1    0    0    0  501 -0.00000000000E+00  0.00000000000E+00  0.13295086471E+04  0.13295086471E+04  0.00000000000E+00 0. -1.
          1   -1    0    0  501    0  0.00000000000E+00 -0.00000000000E+00 -0.13828225593E+02  0.13828225593E+02  0.00000000000E+00 0. -1.
         35    2    1    2    0    0  0.00000000000E+00  0.00000000000E+00  0.13156804215E+04  0.13433368727E+04  0.27118071834E+03 0.  0.
         25    2    3    3    0    0  0.46914546481E+02 -0.11155405257E+02  0.77070947833E+03  0.78184877942E+03  0.12234784900E+03 0.  0.
         25    2    3    3    0    0 -0.46914546481E+02  0.11155405257E+02  0.54497094318E+03  0.56148809327E+03  0.12629383295E+03 0.  0.
          5    1    4    4  502    0  0.75474581980E+02 -0.44153862138E+02  0.50343214083E+03  0.51099118044E+03  0.47000000000E+01 0. -1.
         -5    1    4    4    0  502 -0.28560035499E+02  0.32998456882E+02  0.26727733750E+03  0.27085759898E+03  0.47000000000E+01 0. -1.
          5    1    5    5  503    0 -0.69807561042E+02 -0.25974152445E+02  0.19527193707E+03  0.20904777345E+03  0.47000000000E+01 0. -1.
         -5    1    5    5    0  503  0.22893014561E+02  0.37129557702E+02  0.34969900610E+03  0.35244031983E+03  0.47000000000E+01 0. -1.
<mgrwt>
<rscale>  0 0.27118072E+03</rscale>
<asrwt>0</asrwt>
<pdfrwt beam="1">  1        1 0.21274204E-02 0.27118072E+03</pdfrwt>
<pdfrwt beam="2">  1       -1 0.20453969E+00 0.27118072E+03</pdfrwt>
<totfact> 0.86295127E+02</totfact>
</mgrwt>
</event>
<event>
 9    1  0.8122655E-001  0.2790227E+03  0.7818608E-02  0.1096224E+00
          2   -1    0    0  501    0  0.00000000000E+00  0.00000000000E+00  0.29286951470E+03  0.29286951470E+03  0.00000000000E+00 0.  1.
         -2   -1    0    0    0  501 -0.00000000000E+00 -0.00000000000E+00 -0.66457654310E+02  0.66457654310E+02  0.00000000000E+00 0.  1.
         35    2    1    2    0    0 -0.71054273576E-14  0.35527136788E-14  0.22641186039E+03  0.35932716901E+03  0.27902273001E+03 0.  0.
         25    2    3    3    0    0 -0.50957361485E+02  0.11904234256E+02  0.15435922716E+03  0.20540258270E+03  0.12500034595E+03 0.  0.
         25    2    3    3    0    0  0.50957361485E+02 -0.11904234256E+02  0.72052633228E+02  0.15392458631E+03  0.12555012080E+03 0.  0.
          5    1    4    4  502    0 -0.25234807241E+02 -0.55853156263E+02  0.56139259079E+02  0.83247083858E+02  0.47000000000E+01 0.  1.
         -5    1    4    4    0  502 -0.25722554244E+02  0.67757390519E+02  0.98219968080E+02  0.12215549884E+03  0.47000000000E+01 0.  1.
          5    1    5    5  503    0  0.49797932436E+02 -0.69114313939E+01 -0.25193211506E+02  0.56430398410E+02  0.47000000000E+01 0.  1.
         -5    1    5    5    0  503  0.11594290495E+01 -0.49928028621E+01  0.97245844734E+02  0.97494187900E+02  0.47000000000E+01 0.  1.
<mgrwt>
<rscale>  0 0.27902273E+03</rscale>
<asrwt>0</asrwt>
<pdfrwt beam="1">  1        2 0.45056848E-01 0.27902273E+03</pdfrwt>
<pdfrwt beam="2">  1       -2 0.10224255E-01 0.27902273E+03</pdfrwt>
<totfact> 0.71401242E+03</totfact>
</mgrwt>
</event>
<event>
 9    1  0.8122655E-001  0.2745697E+03  0.7818608E-02  0.1098692E+00
         -2   -1    0    0    0  501 -0.00000000000E+00  0.00000000000E+00  0.22205482475E+02  0.22205482475E+02  0.00000000000E+00 0. -1.
          2   -1    0    0  501    0  0.00000000000E+00 -0.00000000000E+00 -0.84875994452E+03  0.84875994452E+03  0.00000000000E+00 0. -1.
         35    2    1    2    0    0  0.00000000000E+00  0.35527136788E-14 -0.82655446204E+03  0.87096542699E+03  0.27456965654E+03 0.  0.
         25    2    3    3    0    0  0.36937365008E+02  0.44569378335E+01 -0.54941248918E+03  0.56486647474E+03  0.12584044577E+03 0.  0.
         25    2    3    3    0    0 -0.36937365008E+02 -0.44569378335E+01 -0.27714197286E+03  0.30609895225E+03  0.12451771849E+03 0.  0.
          5    1    4    4  502    0  0.66831826289E+02  0.16391217713E+02 -0.50567978937E+03  0.51036193471E+03  0.47000000000E+01 0. -1.
         -5    1    4    4    0  502 -0.29894461281E+02 -0.11934279880E+02 -0.43732699809E+02  0.54504540032E+02  0.47000000000E+01 0. -1.
          5    1    5    5  503    0 -0.40785328439E+02 -0.48996452660E+02 -0.72846345722E+02  0.96916332340E+02  0.47000000000E+01 0.  1.
         -5    1    5    5    0  503  0.38479634308E+01  0.44539514826E+02 -0.20429562714E+03  0.20918261991E+03  0.47000000000E+01 0.  1.
<mgrwt>
<rscale>  0 0.27456966E+03</rscale>
<asrwt>0</asrwt>
<pdfrwt beam="1">  1        2 0.13057844E+00 0.27456966E+03</pdfrwt>
<pdfrwt beam="2">  1       -2 0.34162284E-02 0.27456966E+03</pdfrwt>
<totfact> 0.11414210E+04</totfact>
</mgrwt>
</event>
<event>
 9    1  0.8122655E-001  0.2739567E+03  0.7818608E-02  0.1099036E+00
          2   -1    0    0  501    0  0.00000000000E+00  0.00000000000E+00  0.27854067943E+03  0.27854067943E+03  0.00000000000E+00 0.  1.
         -2   -1    0    0    0  501 -0.00000000000E+00 -0.00000000000E+00 -0.67362021470E+02  0.67362021470E+02  0.00000000000E+00 0.  1.
         35    2    1    2    0    0 -0.71054273576E-14  0.00000000000E+00  0.21117865796E+03  0.34590270090E+03  0.27395666247E+03 0.  0.
         25    2    3    3    0    0  0.29626588098E+02  0.46699268590E+02  0.88420355846E+02  0.16260697279E+03  0.12475701128E+03 0.  0.
         25    2    3    3    0    0 -0.29626588098E+02 -0.46699268590E+02  0.12275830211E+03  0.18329572810E+03  0.12437510520E+03 0.  0.
          5    1    4    4  502    0  0.76244330088E+02  0.37668717092E+02  0.73810387247E+02  0.11270400784E+03  0.47000000000E+01 0. -1.
         -5    1    4    4    0  502 -0.46617741990E+02  0.90305514983E+01  0.14609968599E+02  0.49902964953E+02  0.47000000000E+01 0. -1.
          5    1    5    5  503    0  0.24863115139E+02 -0.56060013532E+02  0.11050928813E+03  0.12647249651E+03  0.47000000000E+01 0.  1.
         -5    1    5    5    0  503 -0.54489703237E+02  0.93607449423E+01  0.12249013983E+02  0.56823231589E+02  0.47000000000E+01 0.  1.
<mgrwt>
<rscale>  0 0.27395666E+03</rscale>
<asrwt>0</asrwt>
<pdfrwt beam="1">  1        2 0.42852412E-01 0.27395666E+03</pdfrwt>
<pdfrwt beam="2">  1       -2 0.10363388E-01 0.27395666E+03</pdfrwt>
<totfact> 0.73703245E+03</totfact>
</mgrwt>
</event>
<event>
 9    1  0.8122655E-001  0.2714679E+03  0.7818608E-02  0.1100442E+00
          2   -1    0    0  501    0  0.00000000000E+00  0.00000000000E+00  0.26346581236E+04  0.26346581236E+04  0.00000000000E+00 0.  1.
         -2   -1    0    0    0  501 -0.00000000000E+00 -0.00000000000E+00 -0.69928259301E+01  0.69928259301E+01  0.00000000000E+00 0.  1.
         35    2    1    2    0    0 -0.17763568394E-14  0.71054273576E-14  0.26276652977E+04  0.26416509496E+04  0.27146790340E+03 0.  0.
         25    2    3    3    0    0 -0.82236417450E+01  0.43036408584E+02  0.10079322515E+04  0.10165655261E+04  0.12473285244E+03 0.  0.
         25    2    3    3    0    0  0.82236417450E+01 -0.43036408584E+02  0.16197330462E+04  0.16250854235E+04  0.12428890484E+03 0.  0.
          5    1    4    4  502    0 -0.11264971706E+02  0.40369009587E+02  0.10093283978E+04  0.10102091175E+04  0.47000000000E+01 0.  1.
         -5    1    4    4    0  502  0.30413299611E+01  0.26673989977E+01 -0.13961463039E+01  0.63564085652E+01  0.47000000000E+01 0.  1.
          5    1    5    5  503    0  0.41519967640E+01 -0.18337905977E+02  0.15603573186E+04  0.15604776736E+04  0.47000000000E+01 0. -1.
         -5    1    5    5    0  503  0.40716449810E+01 -0.24698502608E+02  0.59375727581E+02  0.64607749920E+02  0.47000000000E+01 0. -1.
<mgrwt>
<rscale>  0 0.27146790E+03</rscale>
<asrwt>0</asrwt>
<pdfrwt beam="1">  1        2 0.40533123E+00 0.27146790E+03</pdfrwt>
<pdfrwt beam="2">  1       -2 0.10758215E-02 0.27146790E+03</pdfrwt>
<totfact> 0.64772213E+03</totfact>
</mgrwt>
</event>
<event>
 9    1  0.8122655E-001  0.2688467E+03  0.7818608E-02  0.1101942E+00
          2   -1    0    0  501    0  0.00000000000E+00  0.00000000000E+00  0.13247802925E+04  0.13247802925E+04  0.00000000000E+00 0. -1.
         -2   -1    0    0    0  501 -0.00000000000E+00 -0.00000000000E+00 -0.13639720187E+02  0.13639720187E+02  0.00000000000E+00 0. -1.
         35    2    1    2    0    0  0.00000000000E+00  0.71054273576E-14  0.13111405723E+04  0.13384200127E+04  0.26884666633E+03 0.  0.
         25    2    3    3    0    0  0.94912746161E+01  0.33722407396E+02  0.82310324873E+03  0.83334611424E+03  0.12545717592E+03 0.  0.
         25    2    3    3    0    0 -0.94912746161E+01 -0.33722407396E+02  0.48803732355E+03  0.50507389841E+03  0.12526742845E+03 0.  0.
          5    1    4    4  502    0 -0.91286658000E+00  0.42229475809E+02  0.81658021419E+03  0.81768545184E+03  0.47000000000E+01 0. -1.
         -5    1    4    4    0  502  0.10404141196E+02 -0.85070684120E+01  0.65230345432E+01  0.15660662395E+02  0.47000000000E+01 0. -1.
          5    1    5    5  503    0  0.15420937362E+02  0.39563479619E+02  0.90934088918E+02  0.10046976041E+03  0.47000000000E+01 0. -1.
         -5    1    5    5    0  503 -0.24912211978E+02 -0.73285887016E+02  0.39710323463E+03  0.40460413801E+03  0.47000000000E+01 0. -1.
<mgrwt>
<rscale>  0 0.26884667E+03</rscale>
<asrwt>0</asrwt>
<pdfrwt beam="1">  1        2 0.20381225E+00 0.26884667E+03</pdfrwt>
<pdfrwt beam="2">  1       -2 0.20984195E-02 0.26884667E+03</pdfrwt>
<totfact> 0.12224640E+04</totfact>
</mgrwt>
</event>
<event>
 9    1  0.8122655E-001  0.2725695E+03  0.7818608E-02  0.1099818E+00
         -2   -1    0    0    0  501 -0.00000000000E+00  0.00000000000E+00  0.17222013950E+02  0.17222013950E+02  0.00000000000E+00 0.  1.
          2   -1    0    0  501    0  0.00000000000E+00 -0.00000000000E+00 -0.10784761054E+04  0.10784761054E+04  0.00000000000E+00 0.  1.
         35    2    1    2    0    0  0.71054273576E-14  0.00000000000E+00 -0.10612540915E+04  0.10956981194E+04  0.27256948128E+03 0.  0.
         25    2    3    3    0    0  0.35019361251E+02 -0.37415721729E+02 -0.48062792747E+03  0.49932986427E+03  0.12530290016E+03 0.  0.
         25    2    3    3    0    0 -0.35019361251E+02  0.37415721729E+02 -0.58062616400E+03  0.59636825510E+03  0.12610337616E+03 0.  0.
          5    1    4    4  502    0  0.45670036499E+02 -0.36989547268E+02 -0.48370179831E+03  0.48728174450E+03  0.47000000000E+01 0. -1.
         -5    1    4    4    0  502 -0.10650675248E+02 -0.42617446062E+00  0.30738708364E+01  0.12048119763E+02  0.47000000000E+01 0. -1.
          5    1    5    5  503    0 -0.11629788938E+02  0.23673506011E+02 -0.56308748551E+03  0.56372448343E+03  0.47000000000E+01 0. -1.
         -5    1    5    5    0  503 -0.23389572313E+02  0.13742215717E+02 -0.17538678482E+02  0.32643771668E+02  0.47000000000E+01 0. -1.
<mgrwt>
<rscale>  0 0.27256948E+03</rscale>
<asrwt>0</asrwt>
<pdfrwt beam="1">  1        2 0.16591946E+00 0.27256948E+03</pdfrwt>
<pdfrwt beam="2">  1       -2 0.26495397E-02 0.27256948E+03</pdfrwt>
<totfact> 0.11965192E+04</totfact>
</mgrwt>
</event>
<event>
 9    1  0.8122655E-001  0.2729757E+03  0.7818608E-02  0.1099589E+00
          2   -1    0    0  501    0  0.00000000000E+00  0.00000000000E+00  0.12364862259E+03  0.12364862259E+03  0.00000000000E+00 0.  1.
         -2   -1    0    0    0  501 -0.00000000000E+00 -0.00000000000E+00 -0.15066023647E+03  0.15066023647E+03  0.00000000000E+00 0.  1.
         35    2    1    2    0    0  0.00000000000E+00  0.10658141036E-13 -0.27011613885E+02  0.27430885906E+03  0.27297568184E+03 0.  0.
         25    2    3    3    0    0  0.51934770818E+02  0.21961876797E+02  0.54110805528E+01  0.13729658148E+03  0.12506609069E+03 0.  0.
         25    2    3    3    0    0 -0.51934770818E+02 -0.21961876797E+02 -0.32422694438E+02  0.13701227758E+03  0.12058850957E+03 0.  0.
          5    1    4    4  502    0  0.73766026240E+01  0.64977742986E+02  0.27880230927E+02  0.71245481445E+02  0.47000000000E+01 0.  1.
         -5    1    4    4    0  502  0.44558168194E+02 -0.43015866189E+02 -0.22469150374E+02  0.66051100031E+02  0.47000000000E+01 0.  1.
          5    1    5    5  503    0 -0.49678702074E+02 -0.34974772115E+02  0.33553047203E+02  0.69563676590E+02  0.47000000000E+01 0.  1.
         -5    1    5    5    0  503 -0.22560687438E+01  0.13012895318E+02 -0.65975741641E+02  0.67448600992E+02  0.47000000000E+01 0.  1.
<mgrwt>
<rscale>  0 0.27297568E+03</rscale>
<asrwt>0</asrwt>
<pdfrwt beam="1">  1        2 0.19022865E-01 0.27297568E+03</pdfrwt>
<pdfrwt beam="2">  1       -2 0.23178498E-01 0.27297568E+03</pdfrwt>
<totfact> 0.47503884E+03</totfact>
</mgrwt>
</event>
<event>
 9    1  0.8122655E-001  0.2680617E+03  0.7818608E-02  0.1102394E+00
         -1   -1    0    0    0  501 -0.00000000000E+00  0.00000000000E+00  0.53435719044E+02  0.53435719044E+02  0.00000000000E+00 0.  1.
          1   -1    0    0  501    0  0.00000000000E+00 -0.00000000000E+00 -0.33618471300E+03  0.33618471300E+03  0.00000000000E+00 0.  1.
         35    2    1    2    0    0 -0.53290705182E-14  0.00000000000E+00 -0.28274899395E+03  0.38962043204E+03  0.26806172327E+03 0.  0.
         25    2    3    3    0    0 -0.14596188287E+02  0.25528567358E+02 -0.83368280605E+02  0.15230442168E+03  0.12402261967E+03 0.  0.
         25    2    3    3    0    0  0.14596188287E+02 -0.25528567358E+02 -0.19938071335E+03  0.23731601036E+03  0.12530548054E+03 0.  0.
          5    1    4    4  502    0 -0.36331972651E+02  0.64608970072E+02 -0.24460459681E+02  0.78196773196E+02  0.47000000000E+01 0. -1.
         -5    1    4    4    0  502  0.21735784364E+02 -0.39080402714E+02 -0.58907820924E+02  0.74107648486E+02  0.47000000000E+01 0. -1.
          5    1    5    5  503    0  0.73119711989E+01  0.39978018678E+02 -0.18798830352E+02  0.45024359216E+02  0.47000000000E+01 0. -1.
         -5    1    5    5    0  503  0.72842170885E+01 -0.65506586036E+02 -0.18058188300E+03  0.19229165114E+03  0.47000000000E+01 0. -1.
<mgrwt>
<rscale>  0 0.26806172E+03</rscale>
<asrwt>0</asrwt>
<pdfrwt beam="1">  1        1 0.51720725E-01 0.26806172E+03</pdfrwt>
<pdfrwt beam="2">  1       -1 0.82208798E-02 0.26806172E+03</pdfrwt>
<totfact> 0.62078928E+03</totfact>
</mgrwt>
</event>
<event>
 9    1  0.8122655E-001  0.2678372E+03  0.7818608E-02  0.1102524E+00
          2   -1    0    0  501    0  0.00000000000E+00  0.00000000000E+00  0.38746330009E+03  0.38746330009E+03  0.00000000000E+00 0. -1.
         -2   -1    0    0    0  501 -0.00000000000E+00 -0.00000000000E+00 -0.46286167753E+02  0.46286167753E+02  0.00000000000E+00 0. -1.
         35    2    1    2    0    0  0.00000000000E+00 -0.71054273576E-14  0.34117713234E+03  0.43374946785E+03  0.26783719911E+03 0.  0.
         25    2    3    3    0    0 -0.89219480828E+01  0.44656218774E+02  0.14836003227E+03  0.19953778243E+03  0.12542267901E+03 0.  0.
         25    2    3    3    0    0  0.89219480828E+01 -0.44656218774E+02  0.19281710007E+03  0.23421168541E+03  0.12491157061E+03 0.  0.
          5    1    4    4  502    0  0.20885697943E+02 -0.25485131505E+02  0.68562975904E+00  0.33290605199E+02  0.47000000000E+01 0.  1.
         -5    1    4    4    0  502 -0.29807646026E+02  0.70141350279E+02  0.14767440251E+03  0.16624717723E+03  0.47000000000E+01 0.  1.
          5    1    5    5  503    0 -0.54457612948E+02 -0.17107507093E+02  0.12391220783E+03  0.13650869444E+03  0.47000000000E+01 0.  1.
         -5    1    5    5    0  503  0.63379561031E+02 -0.27548711681E+02  0.68904892235E+02  0.97702990976E+02  0.47000000000E+01 0.  1.
<mgrwt>
<rscale>  0 0.26783720E+03</rscale>
<asrwt>0</asrwt>
<pdfrwt beam="1">  1        2 0.59609736E-01 0.26783720E+03</pdfrwt>
<pdfrwt beam="2">  1       -2 0.71209491E-02 0.26783720E+03</pdfrwt>
<totfact> 0.93020986E+03</totfact>
</mgrwt>
</event>
<event>
 9    1  0.8122655E-001  0.2787211E+03  0.7818608E-02  0.1096390E+00
          2   -1    0    0  501    0  0.00000000000E+00  0.00000000000E+00  0.34487715301E+04  0.34487715301E+04  0.00000000000E+00 0. -1.
         -2   -1    0    0    0  501 -0.00000000000E+00 -0.00000000000E+00 -0.56313851235E+01  0.56313851235E+01  0.00000000000E+00 0. -1.
         35    2    1    2    0    0 -0.71054273576E-14  0.35527136788E-14  0.34431401450E+04  0.34544029153E+04  0.27872108416E+03 0.  0.
         25    2    3    3    0    0  0.11324695392E+02  0.31027773396E+02  0.10672645803E+04  0.10750617472E+04  0.12495240920E+03 0.  0.
         25    2    3    3    0    0 -0.11324695392E+02 -0.31027773396E+02  0.23758755647E+04  0.23793411680E+04  0.12405129340E+03 0.  0.
          5    1    4    4  502    0 -0.28518900616E+02  0.94067875694E+01  0.92864662807E+03  0.92914394212E+03  0.47000000000E+01 0. -1.
         -5    1    4    4    0  502  0.39843596008E+02  0.21620985827E+02  0.13861795221E+03  0.14591780510E+03  0.47000000000E+01 0. -1.
          5    1    5    5  503    0 -0.16125541814E+02 -0.16260754267E+02  0.23382511005E+04  0.23383679659E+04  0.47000000000E+01 0.  1.
         -5    1    5    5    0  503  0.48008464220E+01 -0.14767019129E+02  0.37624464254E+02  0.40973202105E+02  0.47000000000E+01 0.  1.
<mgrwt>
<rscale>  0 0.27872108E+03</rscale>
<asrwt>0</asrwt>
<pdfrwt beam="1">  1        2 0.53057855E+00 0.27872108E+03</pdfrwt>
<pdfrwt beam="2">  1       -2 0.86636970E-03 0.27872108E+03</pdfrwt>
<totfact> 0.28765496E+03</totfact>
</mgrwt>
</event>
<event>
 9    1  0.8122655E-001  0.2762345E+03  0.7818608E-02  0.1097764E+00
          1   -1    0    0  501    0  0.00000000000E+00  0.00000000000E+00  0.12965165392E+03  0.12965165392E+03  0.00000000000E+00 0.  1.
         -1   -1    0    0    0  501 -0.00000000000E+00 -0.00000000000E+00 -0.14713555700E+03  0.14713555700E+03  0.00000000000E+00 0.  1.
         35    2    1    2    0    0 -0.17763568394E-14  0.71054273576E-14 -0.17483903075E+02  0.27678721092E+03  0.27623445343E+03 0.  0.
         25    2    3    3    0    0 -0.20285468934E+01 -0.50402030863E+02 -0.39961613544E+02  0.14081300040E+03  0.12524731856E+03 0.  0.
         25    2    3    3    0    0  0.20285468934E+01  0.50402030863E+02  0.22477710469E+02  0.13597421052E+03  0.12425481376E+03 0.  0.
          5    1    4    4  502    0 -0.63437964331E+02 -0.26142627394E+02 -0.22366029061E+02  0.72319717515E+02  0.47000000000E+01 0.  1.
         -5    1    4    4    0  502  0.61409417438E+02 -0.24259403469E+02 -0.17595584483E+02  0.68493282883E+02  0.47000000000E+01 0.  1.
          5    1    5    5  503    0 -0.74520308277E+01  0.86590374699E+02 -0.81224454819E+01  0.87415615736E+02  0.47000000000E+01 0.  1.
         -5    1    5    5    0  503  0.94805777211E+01 -0.36188343836E+02  0.30600155951E+02  0.48558594788E+02  0.47000000000E+01 0.  1.
<mgrwt>
<rscale>  0 0.27623445E+03</rscale>
<asrwt>0</asrwt>
<pdfrwt beam="1">  1        1 0.19946408E-01 0.27623445E+03</pdfrwt>
<pdfrwt beam="2">  1       -1 0.22636239E-01 0.27623445E+03</pdfrwt>
<totfact> 0.41870494E+03</totfact>
</mgrwt>
</event>
<event>
 9    1  0.8122655E-001  0.2738472E+03  0.7818608E-02  0.1099098E+00
         -2   -1    0    0    0  501 -0.00000000000E+00  0.00000000000E+00  0.20579025719E+02  0.20579025719E+02  0.00000000000E+00 0.  1.
          2   -1    0    0  501    0  0.00000000000E+00 -0.00000000000E+00 -0.91102849413E+03  0.91102849413E+03  0.00000000000E+00 0.  1.
         35    2    1    2    0    0 -0.71054273576E-14  0.00000000000E+00 -0.89044946841E+03  0.93160751985E+03  0.27384724801E+03 0.  0.
         25    2    3    3    0    0 -0.23214411811E+02 -0.20314307339E+02 -0.59964340855E+03  0.61357357347E+03  0.12628829180E+03 0.  0.
         25    2    3    3    0    0  0.23214411811E+02  0.20314307339E+02 -0.29080605986E+03  0.31803394638E+03  0.12500338635E+03 0.  0.
          5    1    4    4  502    0 -0.37759129100E+02 -0.60770425094E+02 -0.21801612399E+03  0.22950363116E+03  0.47000000000E+01 0.  1.
         -5    1    4    4    0  502  0.14544717289E+02  0.40456117755E+02 -0.38162728456E+03  0.38406994231E+03  0.47000000000E+01 0.  1.
          5    1    5    5  503    0  0.40503818816E+02 -0.45175533507E+02 -0.13694381264E+03  0.14985688502E+03  0.47000000000E+01 0.  1.
         -5    1    5    5    0  503 -0.17289407005E+02  0.65489840846E+02 -0.15386224722E+03  0.16817706136E+03  0.47000000000E+01 0.  1.
<mgrwt>
<rscale>  0 0.27384725E+03</rscale>
<asrwt>0</asrwt>
<pdfrwt beam="1">  1        2 0.14015822E+00 0.27384725E+03</pdfrwt>
<pdfrwt beam="2">  1       -2 0.31660042E-02 0.27384725E+03</pdfrwt>
<totfact> 0.11641137E+04</totfact>
</mgrwt>
</event>
<event>
 9    1  0.8122655E-001  0.2762802E+03  0.7818608E-02  0.1097738E+00
         -1   -1    0    0    0  501 -0.00000000000E+00  0.00000000000E+00  0.61677227310E+02  0.61677227310E+02  0.00000000000E+00 0. -1.
          1   -1    0    0  501    0  0.00000000000E+00 -0.00000000000E+00 -0.30939609202E+03  0.30939609202E+03  0.00000000000E+00 0. -1.
         35    2    1    2    0    0  0.00000000000E+00  0.00000000000E+00 -0.24771886471E+03  0.37107331933E+03  0.27628024248E+03 0.  0.
         25    2    3    3    0    0 -0.37668801319E+02 -0.22541167048E+02 -0.71093658891E+02  0.14979393362E+03  0.12432566674E+03 0.  0.
         25    2    3    3    0    0  0.37668801319E+02  0.22541167048E+02 -0.17662520582E+03  0.22127938571E+03  0.12586127444E+03 0.  0.
          5    1    4    4  502    0  0.40592617507E+02 -0.18071989889E+02 -0.52787078033E+02  0.69158680018E+02  0.47000000000E+01 0.  1.
         -5    1    4    4    0  502 -0.78261418827E+02 -0.44691771586E+01 -0.18306580859E+02  0.80635253605E+02  0.47000000000E+01 0.  1.
          5    1    5    5  503    0  0.82425496924E+02  0.11165448221E+02 -0.87667380637E+02  0.12093919714E+03  0.47000000000E+01 0. -1.
         -5    1    5    5    0  503 -0.44756695604E+02  0.11375718827E+02 -0.88957825182E+02  0.10034018857E+03  0.47000000000E+01 0. -1.
<mgrwt>
<rscale>  0 0.27628024E+03</rscale>
<asrwt>0</asrwt>
<pdfrwt beam="1">  1        1 0.47599399E-01 0.27628024E+03</pdfrwt>
<pdfrwt beam="2">  1       -1 0.94888042E-02 0.27628024E+03</pdfrwt>
<totfact> 0.55368781E+03</totfact>
</mgrwt>
</event>
<event>
 9    1  0.8122655E-001  0.2675285E+03  0.7818608E-02  0.1102703E+00
         -1   -1    0    0    0  501 -0.00000000000E+00  0.00000000000E+00  0.16115178539E+03  0.16115178539E+03  0.00000000000E+00 0.  1.
          1   -1    0    0  501    0  0.00000000000E+00 -0.00000000000E+00 -0.11103117912E+03  0.11103117912E+03  0.00000000000E+00 0.  1.
         35    2    1    2    0    0  0.00000000000E+00  0.35527136788E-14  0.50120606272E+02  0.27218296452E+03  0.26752848633E+03 0.  0.
         25    2    3    3    0    0  0.43672642997E+02 -0.14812447023E+02 -0.55491458230E+00  0.12982994448E+03  0.12136226028E+03 0.  0.
         25    2    3    3    0    0 -0.43672642997E+02  0.14812447023E+02  0.50675520854E+02  0.14235302004E+03  0.12477846596E+03 0.  0.
          5    1    4    4  502    0 -0.24393044127E+02 -0.46788506390E+02 -0.99392668860E+01  0.53898645236E+02  0.47000000000E+01 0.  1.
         -5    1    4    4    0  502  0.68065687124E+02  0.31976059367E+02  0.93843523037E+01  0.75931299241E+02  0.47000000000E+01 0.  1.
          5    1    5    5  503    0 -0.75909959167E+02  0.35036679616E+02  0.59848007169E+02  0.10292601606E+03  0.47000000000E+01 0. -1.
         -5    1    5    5    0  503  0.32237316170E+02 -0.20224232593E+02 -0.91724863143E+01  0.39427003982E+02  0.47000000000E+01 0. -1.
<mgrwt>
<rscale>  0 0.26752849E+03</rscale>
<asrwt>0</asrwt>
<pdfrwt beam="1">  1        1 0.17081720E-01 0.26752849E+03</pdfrwt>
<pdfrwt beam="2">  1       -1 0.24792582E-01 0.26752849E+03</pdfrwt>
<totfact> 0.43987546E+03</totfact>
</mgrwt>
</event>
<event>
 9    1  0.8122655E-001  0.2721656E+03  0.7818608E-02  0.1100047E+00
          1   -1    0    0  501    0  0.00000000000E+00  0.00000000000E+00  0.12095841638E+04  0.12095841638E+04  0.00000000000E+00 0. -1.
         -1   -1    0    0    0  501 -0.00000000000E+00 -0.00000000000E+00 -0.15309832094E+02  0.15309832094E+02  0.00000000000E+00 0. -1.
         35    2    1    2    0    0 -0.71054273576E-14  0.00000000000E+00  0.11942743317E+04  0.12248939959E+04  0.27216561467E+03 0.  0.
         25    2    3    3    0    0 -0.26854861811E+02  0.21057444419E+02  0.77007356718E+03  0.78080444425E+03  0.12440933133E+03 0.  0.
         25    2    3    3    0    0  0.26854861811E+02 -0.21057444419E+02  0.42420076452E+03  0.44408955164E+03  0.12690406490E+03 0.  0.
          5    1    4    4  502    0 -0.83178498072E+01  0.40872002509E+02  0.81437818714E+02  0.91618314388E+02  0.47000000000E+01 0. -1.
         -5    1    4    4    0  502 -0.18537012004E+02 -0.19814558090E+02  0.68863574847E+03  0.68918612986E+03  0.47000000000E+01 0. -1.
          5    1    5    5  503    0  0.65729968676E+02  0.13268549085E+02  0.32680795619E+03  0.33364953680E+03  0.47000000000E+01 0.  1.
         -5    1    5    5    0  503 -0.38875106865E+02 -0.34325993504E+02  0.97392808334E+02  0.11044001484E+03  0.47000000000E+01 0.  1.
<mgrwt>
<rscale>  0 0.27216561E+03</rscale>
<asrwt>0</asrwt>
<pdfrwt beam="1">  1        1 0.18608980E+00 0.27216561E+03</pdfrwt>
<pdfrwt beam="2">  1       -1 0.23553597E-02 0.27216561E+03</pdfrwt>
<totfact> 0.60762594E+03</totfact>
</mgrwt>
</event>
<event>
 9    1  0.8122655E-001  0.2629840E+03  0.7818608E-02  0.1105364E+00
         -2   -1    0    0    0  501 -0.00000000000E+00  0.00000000000E+00  0.64654836867E+02  0.64654836867E+02  0.00000000000E+00 0. -1.
          2   -1    0    0  501    0  0.00000000000E+00 -0.00000000000E+00 -0.26742238174E+03  0.26742238174E+03  0.00000000000E+00 0. -1.
         35    2    1    2    0    0  0.00000000000E+00 -0.35527136788E-14 -0.20276754487E+03  0.33207721861E+03  0.26298403348E+03 0.  0.
         25    2    3    3    0    0  0.31370215467E+02 -0.22045969955E+02 -0.11826040282E+03  0.17625684708E+03  0.12494333939E+03 0.  0.
         25    2    3    3    0    0 -0.31370215467E+02  0.22045969955E+02 -0.84507142050E+02  0.15582037153E+03  0.12517354319E+03 0.  0.
          5    1    4    4  502    0 -0.46040381851E+02 -0.25917881491E+02 -0.48416956894E+02  0.71817442567E+02  0.47000000000E+01 0.  1.
         -5    1    4    4    0  502  0.77410597318E+02  0.38719115364E+01 -0.69843445928E+02  0.10443940451E+03  0.47000000000E+01 0.  1.
          5    1    5    5  503    0 -0.10243416385E+01  0.62303037785E+02 -0.84615444852E+02  0.10518831352E+03  0.47000000000E+01 0.  1.
         -5    1    5    5    0  503 -0.30345873828E+02 -0.40257067830E+02  0.10830280175E+00  0.50632058009E+02  0.47000000000E+01 0.  1.
<mgrwt>
<rscale>  0 0.26298403E+03</rscale>
<asrwt>0</asrwt>
<pdfrwt beam="1">  1        2 0.41141905E-01 0.26298403E+03</pdfrwt>
<pdfrwt beam="2">  1       -2 0.99468980E-02 0.26298403E+03</pdfrwt>
<totfact> 0.82061977E+03</totfact>
</mgrwt>
</event>
<event>
 9    1  0.8122655E-001  0.2855754E+03  0.7818608E-02  0.1092682E+00
         -2   -1    0    0    0  501 -0.00000000000E+00  0.00000000000E+00  0.10835977666E+02  0.10835977666E+02  0.00000000000E+00 0. -1.
          2   -1    0    0  501    0  0.00000000000E+00 -0.00000000000E+00 -0.18815396655E+04  0.18815396655E+04  0.00000000000E+00 0. -1.
         35    2    1    2    0    0 -0.71054273576E-14  0.00000000000E+00 -0.18707036879E+04  0.18923756432E+04  0.28557536163E+03 0.  0.
         25    2    3    3    0    0 -0.61665232034E+02  0.61661640460E+01 -0.11366763528E+04  0.11451759632E+04  0.12471661167E+03 0.  0.
         25    2    3    3    0    0  0.61665232034E+02 -0.61661640460E+01 -0.73402733505E+03  0.74719968000E+03  0.12518231010E+03 0.  0.
          5    1    4    4  502    0  0.23564766431E+02 -0.36603337783E+02 -0.35304830393E+03  0.35575314119E+03  0.47000000000E+01 0.  1.
         -5    1    4    4    0  502 -0.85229998465E+02  0.42769501829E+02 -0.78362804889E+03  0.78942282202E+03  0.47000000000E+01 0.  1.
          5    1    5    5  503    0  0.19622816052E+02 -0.63898143440E+02 -0.30831114531E+03  0.31550892216E+03  0.47000000000E+01 0. -1.
         -5    1    5    5    0  503  0.42042415982E+02  0.57731979394E+02 -0.42571618974E+03  0.43169075783E+03  0.47000000000E+01 0. -1.
<mgrwt>
<rscale>  0 0.28557536E+03</rscale>
<asrwt>0</asrwt>
<pdfrwt beam="1">  1        2 0.28946738E+00 0.28557536E+03</pdfrwt>
<pdfrwt beam="2">  1       -2 0.16670750E-02 0.28557536E+03</pdfrwt>
<totfact> 0.86699577E+03</totfact>
</mgrwt>
</event>
<event>
 9    1  0.8122655E-001  0.2740933E+03  0.7818608E-02  0.1098960E+00
          2   -1    0    0  501    0  0.00000000000E+00  0.00000000000E+00  0.28497806659E+02  0.28497806659E+02  0.00000000000E+00 0. -1.
         -2   -1    0    0    0  501 -0.00000000000E+00 -0.00000000000E+00 -0.65906062937E+03  0.65906062937E+03  0.00000000000E+00 0. -1.
         35    2    1    2    0    0  0.00000000000E+00 -0.35527136788E-14 -0.63056282271E+03  0.68755843603E+03  0.27409328626E+03 0.  0.
         25    2    3    3    0    0  0.16542425965E+02 -0.88860222688E+01 -0.43711053905E+03  0.45477096914E+03  0.12409028072E+03 0.  0.
         25    2    3    3    0    0 -0.16542425965E+02  0.88860222688E+01 -0.19345228366E+03  0.23278746690E+03  0.12811559406E+03 0.  0.
          5    1    4    4  502    0 -0.27031736335E+02 -0.74660294735E+00 -0.16964754356E+02  0.32267089667E+02  0.47000000000E+01 0.  1.
         -5    1    4    4    0  502  0.43574162300E+02 -0.81394193215E+01 -0.42014578470E+03  0.42250387947E+03  0.47000000000E+01 0.  1.
          5    1    5    5  503    0  0.15585252659E+02 -0.43987179310E+02 -0.14967380074E+03  0.15685059347E+03  0.47000000000E+01 0. -1.
         -5    1    5    5    0  503 -0.32127678624E+02  0.52873201579E+02 -0.43778482922E+02  0.75936873427E+02  0.47000000000E+01 0. -1.
<mgrwt>
<rscale>  0 0.27409329E+03</rscale>
<asrwt>0</asrwt>
<pdfrwt beam="1">  1        2 0.43842785E-02 0.27409329E+03</pdfrwt>
<pdfrwt beam="2">  1       -2 0.10139393E+00 0.27409329E+03</pdfrwt>
<totfact> 0.15541986E+03</totfact>
</mgrwt>
</event>
<event>
 9    1  0.8122655E-001  0.2721892E+03  0.7818608E-02  0.1100033E+00
         -2   -1    0    0    0  501 -0.00000000000E+00  0.00000000000E+00  0.61720387672E+02  0.61720387672E+02  0.00000000000E+00 0.  1.
          2   -1    0    0  501    0  0.00000000000E+00 -0.00000000000E+00 -0.30009113738E+03  0.30009113738E+03  0.00000000000E+00 0.  1.
         35    2    1    2    0    0  0.88817841970E-15 -0.71054273576E-14 -0.23837074971E+03  0.36181152506E+03  0.27218920872E+03 0.  0.
         25    2    3    3    0    0 -0.46249829815E+01  0.35805981601E+02 -0.16768948350E+03  0.21247785471E+03  0.12539384786E+03 0.  0.
         25    2    3    3    0    0  0.46249829815E+01 -0.35805981601E+02 -0.70681266213E+02  0.14933367035E+03  0.12649602729E+03 0.  0.
          5    1    4    4  502    0 -0.11290765009E+02 -0.44564759295E+02 -0.38685143738E+02  0.60267151016E+02  0.47000000000E+01 0.  1.
         -5    1    4    4    0  502  0.66657820272E+01  0.80370740897E+02 -0.12900433976E+03  0.15221070370E+03  0.47000000000E+01 0.  1.
          5    1    5    5  503    0 -0.40924773737E+02 -0.11788095750E+02 -0.85421804554E+02  0.95565532490E+02  0.47000000000E+01 0. -1.
         -5    1    5    5    0  503  0.45549756719E+02 -0.24017885851E+02  0.14740538341E+02  0.53768137856E+02  0.47000000000E+01 0. -1.
<mgrwt>
<rscale>  0 0.27218921E+03</rscale>
<asrwt>0</asrwt>
<pdfrwt beam="1">  1        2 0.46167867E-01 0.27218921E+03</pdfrwt>
<pdfrwt beam="2">  1       -2 0.94954443E-02 0.27218921E+03</pdfrwt>
<totfact> 0.78145883E+03</totfact>
</mgrwt>
</event>
<event>
 9    1  0.8122655E-001  0.2763733E+03  0.7818608E-02  0.1097686E+00
         -4   -1    0    0    0  501 -0.00000000000E+00  0.00000000000E+00  0.13464378848E+03  0.13464378848E+03  0.00000000000E+00 0.  1.
          4   -1    0    0  501    0  0.00000000000E+00 -0.00000000000E+00 -0.14182275877E+03  0.14182275877E+03  0.00000000000E+00 0.  1.
         35    2    1    2    0    0 -0.71054273576E-14  0.35527136788E-14 -0.71789702863E+01  0.27646654724E+03  0.27637332384E+03 0.  0.
         25    2    3    3    0    0 -0.36700240333E+02  0.29328353466E+02 -0.40123678398E+02  0.13882905991E+03  0.12432432726E+03 0.  0.
         25    2    3    3    0    0  0.36700240333E+02 -0.29328353466E+02  0.32944708111E+02  0.13763748734E+03  0.12510661122E+03 0.  0.
          5    1    4    4  502    0  0.18230355345E+02  0.22620952049E+02  0.34793506818E+02  0.45571169003E+02  0.47000000000E+01 0. -1.
         -5    1    4    4    0  502 -0.54930595677E+02  0.67074014175E+01 -0.74917185215E+02  0.93257890904E+02  0.47000000000E+01 0. -1.
          5    1    5    5  503    0  0.61339381563E+02 -0.50978344361E+02  0.55740529458E+02  0.97418724835E+02  0.47000000000E+01 0. -1.
         -5    1    5    5    0  503 -0.24639141231E+02  0.21649990895E+02 -0.22795821347E+02  0.40218762502E+02  0.47000000000E+01 0. -1.
<mgrwt>
<rscale>  0 0.27637332E+03</rscale>
<asrwt>0</asrwt>
<pdfrwt beam="1">  1        4 0.21818886E-01 0.27637332E+03</pdfrwt>
<pdfrwt beam="2">  1       -4 0.20714429E-01 0.27637332E+03</pdfrwt>
<totfact> 0.76501229E+02</totfact>
</mgrwt>
</event>
<event>
 9    1  0.8122655E-001  0.2769245E+03  0.7818608E-02  0.1097381E+00
         -2   -1    0    0    0  501 -0.00000000000E+00  0.00000000000E+00  0.10230745997E+03  0.10230745997E+03  0.00000000000E+00 0. -1.
          2   -1    0    0  501    0  0.00000000000E+00 -0.00000000000E+00 -0.18739393457E+03  0.18739393457E+03  0.00000000000E+00 0. -1.
         35    2    1    2    0    0  0.71054273576E-14 -0.35527136788E-14 -0.85086474598E+02  0.28970139454E+03  0.27692452011E+03 0.  0.
         25    2    3    3    0    0 -0.41224122971E+02  0.13597090057E+02 -0.86106645058E+02  0.15738014300E+03  0.12437783530E+03 0.  0.
         25    2    3    3    0    0  0.41224122971E+02 -0.13597090057E+02  0.10201704596E+01  0.13232125154E+03  0.12499425463E+03 0.  0.
          5    1    4    4  502    0 -0.29961136803E+02 -0.49489953510E+02 -0.70379933831E+02  0.91226916549E+02  0.47000000000E+01 0. -1.
         -5    1    4    4    0  502 -0.11262986168E+02  0.63087043567E+02 -0.15726711227E+02  0.66153226448E+02  0.47000000000E+01 0. -1.
          5    1    5    5  503    0  0.88004983320E+01 -0.35656970846E+02 -0.53459880397E+02  0.65030124964E+02  0.47000000000E+01 0.  1.
         -5    1    5    5    0  503  0.32423624639E+02  0.22059880789E+02  0.54480050856E+02  0.67291126580E+02  0.47000000000E+01 0.  1.
<mgrwt>
<rscale>  0 0.27692452E+03</rscale>
<asrwt>0</asrwt>
<pdfrwt beam="1">  1        2 0.28829836E-01 0.27692452E+03</pdfrwt>
<pdfrwt beam="2">  1       -2 0.15739609E-01 0.27692452E+03</pdfrwt>
<totfact> 0.57496643E+03</totfact>
</mgrwt>
</event>
<event>
 9    1  0.8122655E-001  0.2753165E+03  0.7818608E-02  0.1098275E+00
          1   -1    0    0  501    0  0.00000000000E+00  0.00000000000E+00  0.50876745335E+03  0.50876745335E+03  0.00000000000E+00 0. -1.
         -1   -1    0    0    0  501 -0.00000000000E+00 -0.00000000000E+00 -0.37246485032E+02  0.37246485032E+02  0.00000000000E+00 0. -1.
         35    2    1    2    0    0 -0.71054273576E-14  0.71054273576E-14  0.47152096832E+03  0.54601393839E+03  0.27531654027E+03 0.  0.
         25    2    3    3    0    0  0.45072803178E+02  0.26709217480E+02  0.30162695377E+03  0.33132477342E+03  0.12669785460E+03 0.  0.
         25    2    3    3    0    0 -0.45072803178E+02 -0.26709217480E+02  0.16989401456E+03  0.21468916496E+03  0.12034334832E+03 0.  0.
          5    1    4    4  502    0  0.11026473927E+02  0.48837249453E+02  0.28113944629E+03  0.28560136260E+03  0.47000000000E+01 0.  1.
         -5    1    4    4    0  502  0.34046329252E+02 -0.22128031973E+02  0.20487507479E+02  0.45723410822E+02  0.47000000000E+01 0.  1.
          5    1    5    5  503    0 -0.54942505152E+02 -0.66996231629E+02  0.13396945926E+03  0.15961541260E+03  0.47000000000E+01 0. -1.
         -5    1    5    5    0  503  0.98697019741E+01  0.40287014150E+02  0.35924555299E+02  0.55073752365E+02  0.47000000000E+01 0. -1.
<mgrwt>
<rscale>  0 0.27531654E+03</rscale>
<asrwt>0</asrwt>
<pdfrwt beam="1">  1        1 0.78271911E-01 0.27531654E+03</pdfrwt>
<pdfrwt beam="2">  1       -1 0.57302288E-02 0.27531654E+03</pdfrwt>
<totfact> 0.62905140E+03</totfact>
</mgrwt>
</event>
<event>
 9    1  0.8122655E-001  0.2751756E+03  0.7818608E-02  0.1098353E+00
         -1   -1    0    0    0  501 -0.00000000000E+00  0.00000000000E+00  0.20438091906E+03  0.20438091906E+03  0.00000000000E+00 0.  1.
          1   -1    0    0  501    0  0.00000000000E+00 -0.00000000000E+00 -0.92623166176E+02  0.92623166176E+02  0.00000000000E+00 0.  1.
         35    2    1    2    0    0 -0.35527136788E-14  0.00000000000E+00  0.11175775288E+03  0.29700408524E+03  0.27517563722E+03 0.  0.
         25    2    3    3    0    0  0.80637002233E+01 -0.42704656820E+02  0.98351320287E+02  0.16262607817E+03  0.12200634460E+03 0.  0.
         25    2    3    3    0    0 -0.80637002233E+01  0.42704656820E+02  0.13406432596E+02  0.13437800707E+03  0.12644763886E+03 0.  0.
          5    1    4    4  502    0 -0.27705691246E+02  0.30692465105E+02  0.11167099669E+02  0.43086272253E+02  0.47000000000E+01 0.  1.
         -5    1    4    4    0  502  0.35769391469E+02 -0.73397121926E+02  0.87184220618E+02  0.11953980591E+03  0.47000000000E+01 0.  1.
          5    1    5    5  503    0 -0.42605937829E+00 -0.14384054304E+02 -0.47836326904E+02  0.50174562444E+02  0.47000000000E+01 0. -1.
         -5    1    5    5    0  503 -0.76376408450E+01  0.57088711125E+02  0.61242759499E+02  0.84203444625E+02  0.47000000000E+01 0. -1.
<mgrwt>
<rscale>  0 0.27517564E+03</rscale>
<asrwt>0</asrwt>
<pdfrwt beam="1">  1        1 0.14249718E-01 0.27517564E+03</pdfrwt>
<pdfrwt beam="2">  1       -1 0.31443218E-01 0.27517564E+03</pdfrwt>
<totfact> 0.37391102E+03</totfact>
</mgrwt>
</event>
<event>
 9    1  0.8122655E-001  0.2704742E+03  0.7818608E-02  0.1101008E+00
         -3   -1    0    0    0  501 -0.00000000000E+00  0.00000000000E+00  0.86048151113E+02  0.86048151113E+02  0.00000000000E+00 0. -1.
          3   -1    0    0  501    0  0.00000000000E+00 -0.00000000000E+00 -0.21254471594E+03  0.21254471594E+03  0.00000000000E+00 0. -1.
         35    2    1    2    0    0 -0.71054273576E-14 -0.71054273576E-14 -0.12649656482E+03  0.29859286705E+03  0.27047424894E+03 0.  0.
         25    2    3    3    0    0  0.46629775074E+02  0.11285506292E+02 -0.81631255510E+02  0.15681804987E+03  0.12500616111E+03 0.  0.
         25    2    3    3    0    0 -0.46629775074E+02 -0.11285506292E+02 -0.44865309312E+02  0.14177481717E+03  0.12564037659E+03 0.  0.
          5    1    4    4  502    0  0.23656481577E+02  0.66955021082E+02 -0.29543220035E+02  0.77055147905E+02  0.47000000000E+01 0. -1.
         -5    1    4    4    0  502  0.22973293496E+02 -0.55669514790E+02 -0.52088035475E+02  0.79762901970E+02  0.47000000000E+01 0. -1.
          5    1    5    5  503    0  0.13161802781E+02 -0.43328058487E+02 -0.56740268123E+02  0.72746833136E+02  0.47000000000E+01 0.  1.
         -5    1    5    5    0  503 -0.59791577855E+02  0.32042552195E+02  0.11874958810E+02  0.69027984038E+02  0.47000000000E+01 0.  1.
<mgrwt>
<rscale>  0 0.27047425E+03</rscale>
<asrwt>0</asrwt>
<pdfrwt beam="1">  1        3 0.32699187E-01 0.27047425E+03</pdfrwt>
<pdfrwt beam="2">  1       -3 0.13238177E-01 0.27047425E+03</pdfrwt>
<totfact> 0.10665901E+03</totfact>
</mgrwt>
</event>
<event>
 9    1  0.8122655E-001  0.2844330E+03  0.7818608E-02  0.1093292E+00
         -1   -1    0    0    0  501 -0.00000000000E+00  0.00000000000E+00  0.16505549459E+02  0.16505549459E+02  0.00000000000E+00 0. -1.
          1   -1    0    0  501    0  0.00000000000E+00 -0.00000000000E+00 -0.12253776222E+04  0.12253776222E+04  0.00000000000E+00 0. -1.
         35    2    1    2    0    0 -0.35527136788E-14 -0.14210854715E-13 -0.12088720727E+04  0.12418831716E+04  0.28443298647E+03 0.  0.
         25    2    3    3    0    0 -0.20924744765E+02 -0.28532121587E+02 -0.85575310253E+03  0.86556406906E+03  0.12504342546E+03 0.  0.
         25    2    3    3    0    0  0.20924744765E+02  0.28532121587E+02 -0.35311897018E+03  0.37631910257E+03  0.12518439580E+03 0.  0.
          5    1    4    4  502    0 -0.46144273788E+02 -0.47161895870E+02 -0.78787135302E+03  0.79064334396E+03  0.47000000000E+01 0.  1.
         -5    1    4    4    0  502  0.25219529023E+02  0.18629774283E+02 -0.67881749507E+02  0.74920725104E+02  0.47000000000E+01 0.  1.
          5    1    5    5  503    0 -0.16622251221E+02 -0.38266573025E+02 -0.59447830519E+02  0.72778873309E+02  0.47000000000E+01 0. -1.
         -5    1    5    5    0  503  0.37546995986E+02  0.66798694612E+02 -0.29367113966E+03  0.30354022926E+03  0.47000000000E+01 0. -1.
<mgrwt>
<rscale>  0 0.28443299E+03</rscale>
<asrwt>0</asrwt>
<pdfrwt beam="1">  1        1 0.18851961E+00 0.28443299E+03</pdfrwt>
<pdfrwt beam="2">  1       -1 0.25393157E-02 0.28443299E+03</pdfrwt>
<totfact> 0.53080749E+03</totfact>
</mgrwt>
</event>
<event>
 9    1  0.8122655E-001  0.2773422E+03  0.7818608E-02  0.1097149E+00
         -2   -1    0    0    0  501 -0.00000000000E+00  0.00000000000E+00  0.31016676076E+02  0.31016676076E+02  0.00000000000E+00 0. -1.
          2   -1    0    0  501    0  0.00000000000E+00 -0.00000000000E+00 -0.61997859876E+03  0.61997859876E+03  0.00000000000E+00 0. -1.
         35    2    1    2    0    0 -0.35527136788E-14  0.00000000000E+00 -0.58896192268E+03  0.65099527483E+03  0.27734221007E+03 0.  0.
         25    2    3    3    0    0  0.19129803426E+01 -0.58852285087E+02 -0.30153416129E+03  0.33223226277E+03  0.12644435553E+03 0.  0.
         25    2    3    3    0    0 -0.19129803426E+01  0.58852285087E+02 -0.28742776139E+03  0.31876301206E+03  0.12461095011E+03 0.  0.
          5    1    4    4  502    0  0.60877282066E+02 -0.33915207788E+02 -0.11071805004E+03  0.13090783550E+03  0.47000000000E+01 0. -1.
         -5    1    4    4    0  502 -0.58964301724E+02 -0.24937077299E+02 -0.19081611126E+03  0.20132442727E+03  0.47000000000E+01 0. -1.
          5    1    5    5  503    0 -0.27553724568E+02 -0.10111792061E+02 -0.94743258629E+01  0.31197899397E+02  0.47000000000E+01 0.  1.
         -5    1    5    5    0  503  0.25640744225E+02  0.68964077148E+02 -0.27795343553E+03  0.28756511266E+03  0.47000000000E+01 0.  1.
<mgrwt>
<rscale>  0 0.27734221E+03</rscale>
<asrwt>0</asrwt>
<pdfrwt beam="1">  1        2 0.95381321E-01 0.27734221E+03</pdfrwt>
<pdfrwt beam="2">  1       -2 0.47717964E-02 0.27734221E+03</pdfrwt>
<totfact> 0.10165043E+04</totfact>
</mgrwt>
</event>
<event>
 9    1  0.8122655E-001  0.2749450E+03  0.7818608E-02  0.1098482E+00
          1   -1    0    0  501    0  0.00000000000E+00  0.00000000000E+00  0.64430782710E+03  0.64430782710E+03  0.00000000000E+00 0. -1.
         -1   -1    0    0    0  501 -0.00000000000E+00 -0.00000000000E+00 -0.29331759815E+02  0.29331759815E+02  0.00000000000E+00 0. -1.
         35    2    1    2    0    0 -0.17763568394E-14  0.14210854715E-13  0.61497606729E+03  0.67363958692E+03  0.27494495763E+03 0.  0.
         25    2    3    3    0    0  0.14032583542E+02  0.23736473235E+02  0.43135902907E+03  0.45009066838E+03  0.12550165033E+03 0.  0.
         25    2    3    3    0    0 -0.14032583542E+02 -0.23736473235E+02  0.18361703822E+03  0.22354891854E+03  0.12449324759E+03 0.  0.
          5    1    4    4  502    0  0.30620734901E+01 -0.51505280313E+02  0.19445899754E+03  0.20124254500E+03  0.47000000000E+01 0.  1.
         -5    1    4    4    0  502  0.10970510051E+02  0.75241753548E+02  0.23690003153E+03  0.24884812338E+03  0.47000000000E+01 0.  1.
          5    1    5    5  503    0  0.23919048267E+02  0.41443772170E+02  0.99263385312E+02  0.11029513491E+03  0.47000000000E+01 0.  1.
         -5    1    5    5    0  503 -0.37951631809E+02 -0.65180245405E+02  0.84353652903E+02  0.11325378363E+03  0.47000000000E+01 0.  1.
<mgrwt>
<rscale>  0 0.27494496E+03</rscale>
<asrwt>0</asrwt>
<pdfrwt beam="1">  1        1 0.99124270E-01 0.27494496E+03</pdfrwt>
<pdfrwt beam="2">  1       -1 0.45125789E-02 0.27494496E+03</pdfrwt>
<totfact> 0.65069842E+03</totfact>
</mgrwt>
</event>
<event>
 9    1  0.8122655E-001  0.2734514E+03  0.7818608E-02  0.1099320E+00
          1   -1    0    0  501    0  0.00000000000E+00  0.00000000000E+00  0.38724057100E+03  0.38724057100E+03  0.00000000000E+00 0.  1.
         -1   -1    0    0    0  501 -0.00000000000E+00 -0.00000000000E+00 -0.48274703552E+02  0.48274703552E+02  0.00000000000E+00 0.  1.
         35    2    1    2    0    0  0.00000000000E+00 -0.71054273576E-14  0.33896586745E+03  0.43551527455E+03  0.27345144921E+03 0.  0.
         25    2    3    3    0    0 -0.35377953642E+02 -0.38075399836E+02  0.13683382478E+03  0.19234233464E+03  0.12478278092E+03 0.  0.
         25    2    3    3    0    0  0.35377953642E+02  0.38075399836E+02  0.20213204267E+03  0.24317293991E+03  0.12479735717E+03 0.  0.
          5    1    4    4  502    0 -0.20307260785E+02 -0.56057092107E+02  0.15245514062E+03  0.16376642610E+03  0.47000000000E+01 0. -1.
         -5    1    4    4    0  502 -0.15070692857E+02  0.17981692271E+02 -0.15621315842E+02  0.28575908538E+02  0.47000000000E+01 0. -1.
          5    1    5    5  503    0  0.17193960550E+02 -0.15747367507E+02 -0.82730575741E+01  0.25182242641E+02  0.47000000000E+01 0. -1.
         -5    1    5    5    0  503  0.18183993092E+02  0.53822767343E+02  0.21040510024E+03  0.21799069727E+03  0.47000000000E+01 0. -1.
<mgrwt>
<rscale>  0 0.27345145E+03</rscale>
<asrwt>0</asrwt>
<pdfrwt beam="1">  1        1 0.59575470E-01 0.27345145E+03</pdfrwt>
<pdfrwt beam="2">  1       -1 0.74268777E-02 0.27345145E+03</pdfrwt>
<totfact> 0.60603609E+03</totfact>
</mgrwt>
</event>
<event>
 9    1  0.8122655E-001  0.2751037E+03  0.7818608E-02  0.1098394E+00
          2   -1    0    0  501    0  0.00000000000E+00  0.00000000000E+00  0.38305770447E+03  0.38305770447E+03  0.00000000000E+00 0. -1.
         -2   -1    0    0    0  501 -0.00000000000E+00 -0.00000000000E+00 -0.49393382245E+02  0.49393382245E+02  0.00000000000E+00 0. -1.
         35    2    1    2    0    0  0.00000000000E+00  0.00000000000E+00  0.33366432223E+03  0.43245108672E+03  0.27510373039E+03 0.  0.
         25    2    3    3    0    0  0.38043003062E+02  0.39786655169E+02  0.18774121166E+03  0.23191947151E+03  0.12453766780E+03 0.  0.
         25    2    3    3    0    0 -0.38043003062E+02 -0.39786655169E+02  0.14592311057E+03  0.20053161521E+03  0.12605207847E+03 0.  0.
          5    1    4    4  502    0 -0.24685516930E+01 -0.39176005766E+02  0.97745714383E+02  0.10543798109E+03  0.47000000000E+01 0. -1.
         -5    1    4    4    0  502  0.40511554755E+02  0.78962660935E+02  0.89995497274E+02  0.12648149043E+03  0.47000000000E+01 0. -1.
          5    1    5    5  503    0 -0.37857718129E+02  0.35166720330E+02  0.99571410353E+02  0.11227849661E+03  0.47000000000E+01 0. -1.
         -5    1    5    5    0  503 -0.18528493283E+00 -0.74953375500E+02  0.46351700216E+02  0.88253118597E+02  0.47000000000E+01 0. -1.
<mgrwt>
<rscale>  0 0.27510373E+03</rscale>
<asrwt>0</asrwt>
<pdfrwt beam="1">  1        2 0.58931953E-01 0.27510373E+03</pdfrwt>
<pdfrwt beam="2">  1       -2 0.75989821E-02 0.27510373E+03</pdfrwt>
<totfact> 0.85230973E+03</totfact>
</mgrwt>
</event>
<event>
 9    1  0.8122655E-001  0.2813704E+03  0.7818608E-02  0.1094943E+00
         -1   -1    0    0    0  501 -0.00000000000E+00  0.00000000000E+00  0.36694800684E+03  0.36694800684E+03  0.00000000000E+00 0.  1.
          1   -1    0    0  501    0  0.00000000000E+00 -0.00000000000E+00 -0.53937684189E+02  0.53937684189E+02  0.00000000000E+00 0.  1.
         35    2    1    2    0    0  0.00000000000E+00  0.00000000000E+00  0.31301032265E+03  0.42088569103E+03  0.28137040148E+03 0.  0.
         25    2    3    3    0    0 -0.43441970756E+02 -0.22417292635E+02  0.21668680917E+03  0.25526591953E+03  0.12576874243E+03 0.  0.
         25    2    3    3    0    0  0.43441970756E+02  0.22417292635E+02  0.96323513477E+02  0.16561977150E+03  0.12554660342E+03 0.  0.
          5    1    4    4  502    0 -0.52886232545E+02 -0.68998369932E+02  0.13489048054E+03  0.16054675452E+03  0.47000000000E+01 0.  1.
         -5    1    4    4    0  502  0.94442617897E+01  0.46581077297E+02  0.81796328632E+02  0.94719165012E+02  0.47000000000E+01 0.  1.
          5    1    5    5  503    0  0.32363194839E+01  0.38078321198E+02  0.11280294199E+03  0.11919322980E+03  0.47000000000E+01 0.  1.
         -5    1    5    5    0  503  0.40205651272E+02 -0.15661028563E+02 -0.16479428511E+02  0.46426541696E+02  0.47000000000E+01 0.  1.
<mgrwt>
<rscale>  0 0.28137040E+03</rscale>
<asrwt>0</asrwt>
<pdfrwt beam="1">  1        1 0.82981055E-02 0.28137040E+03</pdfrwt>
<pdfrwt beam="2">  1       -1 0.56453538E-01 0.28137040E+03</pdfrwt>
<totfact> 0.26963449E+03</totfact>
</mgrwt>
</event>
<event>
 9    1  0.8122655E-001  0.2747388E+03  0.7818608E-02  0.1098598E+00
          2   -1    0    0  501    0  0.00000000000E+00  0.00000000000E+00  0.49597530013E+03  0.49597530013E+03  0.00000000000E+00 0. -1.
         -2   -1    0    0    0  501 -0.00000000000E+00 -0.00000000000E+00 -0.38046949289E+02  0.38046949289E+02  0.00000000000E+00 0. -1.
         35    2    1    2    0    0 -0.71054273576E-14 -0.35527136788E-14  0.45792835085E+03  0.53402224942E+03  0.27473876387E+03 0.  0.
         25    2    3    3    0    0  0.57100809789E+02  0.55775334793E-01  0.21666014070E+03  0.25649378209E+03  0.12484765954E+03 0.  0.
         25    2    3    3    0    0 -0.57100809789E+02 -0.55775334793E-01  0.24126821015E+03  0.27752846734E+03  0.12470443201E+03 0.  0.
          5    1    4    4  502    0 -0.94731291807E+01 -0.40041222502E+02  0.14457268096E+03  0.15038746542E+03  0.47000000000E+01 0.  1.
         -5    1    4    4    0  502  0.66573938969E+02  0.40096997837E+02  0.72087459739E+02  0.10610631667E+03  0.47000000000E+01 0.  1.
          5    1    5    5  503    0 -0.47111452165E+02 -0.28052359019E+02  0.27258021723E+02  0.61412649510E+02  0.47000000000E+01 0. -1.
         -5    1    5    5    0  503 -0.99893576234E+01  0.27996583684E+02  0.21401018843E+03  0.21611581783E+03  0.47000000000E+01 0. -1.
<mgrwt>
<rscale>  0 0.27473876E+03</rscale>
<asrwt>0</asrwt>
<pdfrwt beam="1">  1        2 0.76303887E-01 0.27473876E+03</pdfrwt>
<pdfrwt beam="2">  1       -2 0.58533772E-02 0.27473876E+03</pdfrwt>
<totfact> 0.96032869E+03</totfact>
</mgrwt>
</event>
<event>
 9    1  0.8122655E-001  0.2764037E+03  0.7818608E-02  0.1097670E+00
          2   -1    0    0  501    0  0.00000000000E+00  0.00000000000E+00  0.69826607460E+03  0.69826607460E+03  0.00000000000E+00 0. -1.
         -2   -1    0    0    0  501 -0.00000000000E+00 -0.00000000000E+00 -0.27353114774E+02  0.27353114774E+02  0.00000000000E+00 0. -1.
         35    2    1    2    0    0  0.00000000000E+00  0.00000000000E+00  0.67091295983E+03  0.72561918938E+03  0.27640370534E+03 0.  0.
         25    2    3    3    0    0  0.79150580226E+00 -0.54963433740E+02  0.28689517231E+03  0.31807519898E+03  0.12586257101E+03 0.  0.
         25    2    3    3    0    0 -0.79150580226E+00  0.54963433740E+02  0.38401778752E+03  0.40754399040E+03  0.12490331240E+03 0.  0.
          5    1    4    4  502    0  0.28143113253E+02 -0.70829017342E+02  0.87501443057E+02  0.11613516719E+03  0.47000000000E+01 0.  1.
         -5    1    4    4    0  502 -0.27351607451E+02  0.15865583602E+02  0.19939372925E+03  0.20194003179E+03  0.47000000000E+01 0.  1.
          5    1    5    5  503    0  0.20736669886E+02  0.62382321906E+02  0.84681860323E+02  0.10730643518E+03  0.47000000000E+01 0.  1.
         -5    1    5    5    0  503 -0.21528175688E+02 -0.74188881661E+01  0.29933592720E+03  0.30023755522E+03  0.47000000000E+01 0.  1.
<mgrwt>
<rscale>  0 0.27640371E+03</rscale>
<asrwt>0</asrwt>
<pdfrwt beam="1">  1        2 0.10742554E+00 0.27640371E+03</pdfrwt>
<pdfrwt beam="2">  1       -2 0.42081720E-02 0.27640371E+03</pdfrwt>
<totfact> 0.10667607E+04</totfact>
</mgrwt>
</event>
<event>
 9    1  0.8122655E-001  0.2805733E+03  0.7818608E-02  0.1095376E+00
         -1   -1    0    0    0  501 -0.00000000000E+00  0.00000000000E+00  0.23163923185E+03  0.23163923185E+03  0.00000000000E+00 0. -1.
          1   -1    0    0  501    0  0.00000000000E+00 -0.00000000000E+00 -0.84961205208E+02  0.84961205208E+02  0.00000000000E+00 0. -1.
         35    2    1    2    0    0  0.00000000000E+00 -0.71054273576E-14  0.14667802665E+03  0.31660043706E+03  0.28057332954E+03 0.  0.
         25    2    3    3    0    0  0.46589795409E+01 -0.53407010705E+02  0.11266775569E+03  0.17650307879E+03  0.12484109407E+03 0.  0.
         25    2    3    3    0    0 -0.46589795409E+01  0.53407010705E+02  0.34010270959E+02  0.14009735827E+03  0.12488617370E+03 0.  0.
          5    1    4    4  502    0  0.89528495762E+01  0.63044910016E+01  0.11576184782E+03  0.11637351732E+03  0.47000000000E+01 0.  1.
         -5    1    4    4    0  502 -0.42938700353E+01 -0.59711501707E+02 -0.30940921371E+01  0.60129561466E+02  0.47000000000E+01 0.  1.
          5    1    5    5  503    0 -0.72028952333E+01  0.54354161309E+02 -0.38642098874E+02  0.67242533837E+02  0.47000000000E+01 0.  1.
         -5    1    5    5    0  503  0.25439156924E+01 -0.94715060372E+00  0.72652369833E+02  0.72854824437E+02  0.47000000000E+01 0.  1.
<mgrwt>
<rscale>  0 0.28057333E+03</rscale>
<asrwt>0</asrwt>
<pdfrwt beam="1">  1        1 0.13070955E-01 0.28057333E+03</pdfrwt>
<pdfrwt beam="2">  1       -1 0.35636805E-01 0.28057333E+03</pdfrwt>
<totfact> 0.33775023E+03</totfact>
</mgrwt>
</event>
<event>
 9    1  0.8122655E-001  0.2768921E+03  0.7818608E-02  0.1097399E+00
         -2   -1    0    0    0  501 -0.00000000000E+00  0.00000000000E+00  0.58607399763E+03  0.58607399763E+03  0.00000000000E+00 0. -1.
          2   -1    0    0  501    0  0.00000000000E+00 -0.00000000000E+00 -0.32704583774E+02  0.32704583774E+02  0.00000000000E+00 0. -1.
         35    2    1    2    0    0  0.00000000000E+00  0.14210854715E-13  0.55336941386E+03  0.61877858141E+03  0.27689208117E+03 0.  0.
         25    2    3    3    0    0  0.63428970603E+00  0.47652580599E+02  0.21684720807E+03  0.25480998263E+03  0.12503697389E+03 0.  0.
         25    2    3    3    0    0 -0.63428970603E+00 -0.47652580599E+02  0.33652220579E+03  0.36396859878E+03  0.13021050321E+03 0.  0.
          5    1    4    4  502    0 -0.83325527781E+01  0.88406031264E+02  0.17031843476E+03  0.19213411207E+03  0.47000000000E+01 0. -1.
         -5    1    4    4    0  502  0.89668424842E+01 -0.40753450665E+02  0.46528773304E+02  0.62675870560E+02  0.47000000000E+01 0. -1.
          5    1    5    5  503    0 -0.97007973954E+01  0.43890201354E+02  0.88023295172E+02  0.98947691928E+02  0.47000000000E+01 0. -1.
         -5    1    5    5    0  503  0.90665076894E+01 -0.91542781953E+02  0.24849891062E+03  0.26502090685E+03  0.47000000000E+01 0. -1.
<mgrwt>
<rscale>  0 0.27689208E+03</rscale>
<asrwt>0</asrwt>
<pdfrwt beam="1">  1        2 0.50314749E-02 0.27689208E+03</pdfrwt>
<pdfrwt beam="2">  1       -2 0.90165223E-01 0.27689208E+03</pdfrwt>
<totfact> 0.16955446E+03</totfact>
</mgrwt>
</event>
<event>
 9    1  0.8122655E-001  0.2746180E+03  0.7818608E-02  0.1098665E+00
         -2   -1    0    0    0  501 -0.00000000000E+00  0.00000000000E+00  0.35285234416E+03  0.35285234416E+03  0.00000000000E+00 0.  1.
          2   -1    0    0  501    0  0.00000000000E+00 -0.00000000000E+00 -0.53432432241E+02  0.53432432241E+02  0.00000000000E+00 0.  1.
         35    2    1    2    0    0  0.00000000000E+00  0.00000000000E+00  0.29941991192E+03  0.40628477641E+03  0.27461798172E+03 0.  0.
         25    2    3    3    0    0  0.19183186243E+02  0.39905274455E+02  0.21159292081E+03  0.24752340754E+03  0.12056470288E+03 0.  0.
         25    2    3    3    0    0 -0.19183186243E+02 -0.39905274455E+02  0.87826991116E+02  0.15876136887E+03  0.12462410005E+03 0.  0.
          5    1    4    4  502    0  0.56789197251E+02  0.39199489996E+01  0.44377526571E+02  0.72331416336E+02  0.47000000000E+01 0.  1.
         -5    1    4    4    0  502 -0.37606011008E+02  0.35985325456E+02  0.16721539424E+03  0.17519199120E+03  0.47000000000E+01 0.  1.
          5    1    5    5  503    0  0.40697516231E+02 -0.39681322472E+02  0.61348919121E+01  0.57363944070E+02  0.47000000000E+01 0. -1.
         -5    1    5    5    0  503 -0.59880702474E+02 -0.22395198364E+00  0.81692099204E+02  0.10139742480E+03  0.47000000000E+01 0. -1.
<mgrwt>
<rscale>  0 0.27461798E+03</rscale>
<asrwt>0</asrwt>
<pdfrwt beam="1">  1        2 0.82203744E-02 0.27461798E+03</pdfrwt>
<pdfrwt beam="2">  1       -2 0.54284975E-01 0.27461798E+03</pdfrwt>
<totfact> 0.26615368E+03</totfact>
</mgrwt>
</event>
<event>
 9    1  0.8122655E-001  0.2750037E+03  0.7818608E-02  0.1098450E+00
         -2   -1    0    0    0  501 -0.00000000000E+00  0.00000000000E+00  0.14906012056E+02  0.14906012056E+02  0.00000000000E+00 0. -1.
          2   -1    0    0  501    0  0.00000000000E+00 -0.00000000000E+00 -0.12683978047E+04  0.12683978047E+04  0.00000000000E+00 0. -1.
         35    2    1    2    0    0  0.71054273576E-14  0.00000000000E+00 -0.12534917926E+04  0.12833038167E+04  0.27500365792E+03 0.  0.
         25    2    3    3    0    0 -0.44574361534E+02 -0.34538097625E+02 -0.59755436394E+03  0.61324236256E+03  0.12575859204E+03 0.  0.
         25    2    3    3    0    0  0.44574361534E+02  0.34538097625E+02 -0.65593742866E+03  0.67006145416E+03  0.12469437893E+03 0.  0.
          5    1    4    4  502    0 -0.32297743787E+02 -0.46519173533E+02 -0.59183822172E+03  0.59456013022E+03  0.47000000000E+01 0. -1.
         -5    1    4    4    0  502 -0.12276617746E+02  0.11981075908E+02 -0.57161422266E+01  0.18682232339E+02  0.47000000000E+01 0. -1.
          5    1    5    5  503    0  0.46480898122E+02  0.16437745992E+02 -0.81854842264E+02  0.95671200398E+02  0.47000000000E+01 0.  1.
         -5    1    5    5    0  503 -0.19065365883E+01  0.18100351633E+02 -0.57408258640E+03  0.57439025376E+03  0.47000000000E+01 0.  1.
<mgrwt>
<rscale>  0 0.27500366E+03</rscale>
<asrwt>0</asrwt>
<pdfrwt beam="1">  1        2 0.19513814E+00 0.27500366E+03</pdfrwt>
<pdfrwt beam="2">  1       -2 0.22932324E-02 0.27500366E+03</pdfrwt>
<totfact> 0.11531618E+04</totfact>
</mgrwt>
</event>
<event>
 9    1  0.8122655E-001  0.2778640E+03  0.7818608E-02  0.1096861E+00
         -1   -1    0    0    0  501 -0.00000000000E+00  0.00000000000E+00  0.25888820478E+02  0.25888820478E+02  0.00000000000E+00 0.  1.
          1   -1    0    0  501    0  0.00000000000E+00 -0.00000000000E+00 -0.74557690101E+03  0.74557690101E+03  0.00000000000E+00 0.  1.
         35    2    1    2    0    0  0.00000000000E+00  0.71054273576E-14 -0.71968808053E+03  0.77146572149E+03  0.27786404260E+03 0.  0.
         25    2    3    3    0    0  0.55826074817E+02 -0.20418770278E+02 -0.33288798688E+03  0.36047726904E+03  0.12488383753E+03 0.  0.
         25    2    3    3    0    0 -0.55826074817E+02  0.20418770278E+02 -0.38680009365E+03  0.41098845245E+03  0.12555364904E+03 0.  0.
          5    1    4    4  502    0 -0.37345617947E+02  0.11051789269E+02 -0.11095595977E+03  0.11768666974E+03  0.47000000000E+01 0.  1.
         -5    1    4    4    0  502  0.93171692764E+02 -0.31470559547E+02 -0.22193202711E+03  0.24279059930E+03  0.47000000000E+01 0.  1.
          5    1    5    5  503    0 -0.56665729552E+02 -0.40024542599E+02 -0.13339045330E+03  0.15042630072E+03  0.47000000000E+01 0.  1.
         -5    1    5    5    0  503  0.83965473477E+00  0.60443312877E+02 -0.25340964035E+03  0.26056215173E+03  0.47000000000E+01 0.  1.
<mgrwt>
<rscale>  0 0.27786404E+03</rscale>
<asrwt>0</asrwt>
<pdfrwt beam="1">  1        1 0.11470412E+00 0.27786404E+03</pdfrwt>
<pdfrwt beam="2">  1       -1 0.39828961E-02 0.27786404E+03</pdfrwt>
<totfact> 0.63391284E+03</totfact>
</mgrwt>
</event>
<event>
 9    1  0.8122655E-001  0.2786023E+03  0.7818608E-02  0.1096455E+00
         -2   -1    0    0    0  501 -0.00000000000E+00  0.00000000000E+00  0.95982691557E+01  0.95982691557E+01  0.00000000000E+00 0.  1.
          2   -1    0    0  501    0  0.00000000000E+00 -0.00000000000E+00 -0.20216990881E+04  0.20216990881E+04  0.00000000000E+00 0.  1.
         35    2    1    2    0    0  0.35527136788E-14 -0.35527136788E-14 -0.20121008189E+04  0.20312973572E+04  0.27860231154E+03 0.  0.
         25    2    3    3    0    0  0.29303945382E+02  0.31393999641E+02 -0.69033835242E+03  0.70294174702E+03  0.12536249221E+03 0.  0.
         25    2    3    3    0    0 -0.29303945382E+02 -0.31393999641E+02 -0.13217624665E+04  0.13283556102E+04  0.12501321891E+03 0.  0.
          5    1    4    4  502    0 -0.15447466349E+02  0.61136957883E+02 -0.53033074649E+03  0.53408720496E+03  0.47000000000E+01 0. -1.
         -5    1    4    4    0  502  0.44751411731E+02 -0.29742958242E+02 -0.16000760593E+03  0.16885454206E+03  0.47000000000E+01 0. -1.
          5    1    5    5  503    0 -0.39284391967E+01  0.18385383607E+02 -0.10800864405E+04  0.10802602760E+04  0.47000000000E+01 0. -1.
         -5    1    5    5    0  503 -0.25375506185E+02 -0.49779383248E+02 -0.24167602597E+03  0.24809533418E+03  0.47000000000E+01 0. -1.
<mgrwt>
<rscale>  0 0.27860231E+03</rscale>
<asrwt>0</asrwt>
<pdfrwt beam="1">  1        2 0.31103054E+00 0.27860231E+03</pdfrwt>
<pdfrwt beam="2">  1       -2 0.14766572E-02 0.27860231E+03</pdfrwt>
<totfact> 0.87371668E+03</totfact>
</mgrwt>
</event>
<event>
 9    1  0.8122655E-001  0.2743433E+03  0.7818608E-02  0.1098819E+00
          1   -1    0    0  501    0  0.00000000000E+00  0.00000000000E+00  0.25942111029E+03  0.25942111029E+03  0.00000000000E+00 0. -1.
         -1   -1    0    0    0  501 -0.00000000000E+00 -0.00000000000E+00 -0.72530942603E+02  0.72530942603E+02  0.00000000000E+00 0. -1.
         35    2    1    2    0    0  0.00000000000E+00  0.00000000000E+00  0.18689016769E+03  0.33195205289E+03  0.27434327154E+03 0.  0.
         25    2    3    3    0    0 -0.48835324521E+02 -0.20804403353E+02  0.51489031042E+02  0.14558997784E+03  0.12540976521E+03 0.  0.
         25    2    3    3    0    0  0.48835324521E+02  0.20804403353E+02  0.13540113664E+03  0.18636207505E+03  0.11653172570E+03 0.  0.
          5    1    4    4  502    0  0.80932508320E+01 -0.49817367875E+02  0.62617732524E+02  0.80562654359E+02  0.47000000000E+01 0.  1.
         -5    1    4    4    0  502 -0.56928575353E+02  0.29012964522E+02 -0.11128701482E+02  0.65027323479E+02  0.47000000000E+01 0.  1.
          5    1    5    5  503    0 -0.57789714268E+01 -0.13460766434E+02  0.11856794852E+03  0.11956185496E+03  0.47000000000E+01 0. -1.
         -5    1    5    5    0  503  0.54614295948E+02  0.34265169786E+02  0.16833188120E+02  0.66800220095E+02  0.47000000000E+01 0. -1.
<mgrwt>
<rscale>  0 0.27434327E+03</rscale>
<asrwt>0</asrwt>
<pdfrwt beam="1">  1        1 0.39910940E-01 0.27434327E+03</pdfrwt>
<pdfrwt beam="2">  1       -1 0.11158607E-01 0.27434327E+03</pdfrwt>
<totfact> 0.53738380E+03</totfact>
</mgrwt>
</event>
<event>
 9    1  0.8122655E-001  0.2787041E+03  0.7818608E-02  0.1096399E+00
         -1   -1    0    0    0  501 -0.00000000000E+00  0.00000000000E+00  0.86152443141E+02  0.86152443141E+02  0.00000000000E+00 0. -1.
          1   -1    0    0  501    0  0.00000000000E+00 -0.00000000000E+00 -0.22540272168E+03  0.22540272168E+03  0.00000000000E+00 0. -1.
         35    2    1    2    0    0  0.14210854715E-13 -0.71054273576E-14 -0.13925027854E+03  0.31155516482E+03  0.27870410950E+03 0.  0.
         25    2    3    3    0    0  0.47787072522E+02  0.70937841548E+01 -0.37328872030E+02  0.14377280000E+03  0.13016622934E+03 0.  0.
         25    2    3    3    0    0 -0.47787072522E+02 -0.70937841548E+01 -0.10192140651E+03  0.16778236482E+03  0.12421361747E+03 0.  0.
          5    1    4    4  502    0  0.59250853154E+02 -0.43326832888E+02  0.91096550936E+01  0.74114464604E+02  0.47000000000E+01 0.  1.
         -5    1    4    4    0  502 -0.11463780633E+02  0.50420617043E+02 -0.46438527124E+02  0.69658335401E+02  0.47000000000E+01 0.  1.
          5    1    5    5  503    0 -0.69014276154E+02  0.34155918084E+02 -0.92079835195E+02  0.12012652955E+03  0.47000000000E+01 0. -1.
         -5    1    5    5    0  503  0.21227203633E+02 -0.41249702238E+02 -0.98415713171E+01  0.47655835265E+02  0.47000000000E+01 0. -1.
<mgrwt>
<rscale>  0 0.27870411E+03</rscale>
<asrwt>0</asrwt>
<pdfrwt beam="1">  1        1 0.34677342E-01 0.27870411E+03</pdfrwt>
<pdfrwt beam="2">  1       -1 0.13254222E-01 0.27870411E+03</pdfrwt>
<totfact> 0.49010929E+03</totfact>
</mgrwt>
</event>
<event>
 9    1  0.8122655E-001  0.2756637E+03  0.7818608E-02  0.1098081E+00
         -1   -1    0    0    0  501 -0.00000000000E+00  0.00000000000E+00  0.13151031349E+03  0.13151031349E+03  0.00000000000E+00 0.  1.
          1   -1    0    0  501    0  0.00000000000E+00 -0.00000000000E+00 -0.14445727558E+03  0.14445727558E+03  0.00000000000E+00 0.  1.
         35    2    1    2    0    0 -0.35527136788E-14  0.00000000000E+00 -0.12946962092E+02  0.27596758907E+03  0.27566371976E+03 0.  0.
         25    2    3    3    0    0  0.27258284905E+02  0.51822804303E+01  0.46500935259E+02  0.13448231787E+03  0.12309868688E+03 0.  0.
         25    2    3    3    0    0 -0.27258284905E+02 -0.51822804303E+01 -0.59447897350E+02  0.14148527121E+03  0.12535613006E+03 0.  0.
          5    1    4    4  502    0  0.68540883955E+02  0.31372207568E+02  0.38319424564E+02  0.84690828783E+02  0.47000000000E+01 0. -1.
         -5    1    4    4    0  502 -0.41282599050E+02 -0.26189927138E+02  0.81815106950E+01  0.49791489083E+02  0.47000000000E+01 0. -1.
          5    1    5    5  503    0  0.21507555113E+02  0.22699132410E+02  0.24752834220E+02  0.40157419501E+02  0.47000000000E+01 0. -1.
         -5    1    5    5    0  503 -0.48765840018E+02 -0.27881412840E+02 -0.84200731570E+02  0.10132785171E+03  0.47000000000E+01 0. -1.
<mgrwt>
<rscale>  0 0.27566372E+03</rscale>
<asrwt>0</asrwt>
<pdfrwt beam="1">  1        1 0.22224196E-01 0.27566372E+03</pdfrwt>
<pdfrwt beam="2">  1       -1 0.20232356E-01 0.27566372E+03</pdfrwt>
<totfact> 0.43786523E+03</totfact>
</mgrwt>
</event>
<event>
 9    1  0.8122655E-001  0.2741711E+03  0.7818608E-02  0.1098916E+00
          1   -1    0    0  501    0  0.00000000000E+00  0.00000000000E+00  0.15230504469E+04  0.15230504469E+04  0.00000000000E+00 0. -1.
         -1   -1    0    0    0  501 -0.00000000000E+00 -0.00000000000E+00 -0.12338689049E+02  0.12338689049E+02  0.00000000000E+00 0. -1.
         35    2    1    2    0    0 -0.14210854715E-13  0.35527136788E-14  0.15107117579E+04  0.15353891360E+04  0.27417108433E+03 0.  0.
         25    2    3    3    0    0 -0.42881280941E+02 -0.38733280383E+01  0.94354097931E+03  0.95285383123E+03  0.12572603994E+03 0.  0.
         25    2    3    3    0    0  0.42881280941E+02  0.38733280383E+01  0.56717077859E+03  0.58253530477E+03  0.12574133089E+03 0.  0.
          5    1    4    4  502    0 -0.77873066093E+02 -0.21505394986E+02  0.79679835416E+03  0.80089724910E+03  0.47000000000E+01 0. -1.
         -5    1    4    4    0  502  0.34991785152E+02  0.17632066948E+02  0.14674262516E+03  0.15195658212E+03  0.47000000000E+01 0. -1.
          5    1    5    5  503    0 -0.44922711284E+01 -0.56000197170E+02  0.24766789220E+03  0.25400330197E+03  0.47000000000E+01 0.  1.
         -5    1    5    5    0  503  0.47373552069E+02  0.59873525208E+02  0.31950288638E+03  0.32853200280E+03  0.47000000000E+01 0.  1.
<mgrwt>
<rscale>  0 0.27417108E+03</rscale>
<asrwt>0</asrwt>
<pdfrwt beam="1">  1        1 0.23431530E+00 0.27417108E+03</pdfrwt>
<pdfrwt beam="2">  1       -1 0.18982611E-02 0.27417108E+03</pdfrwt>
<totfact> 0.51135184E+03</totfact>
</mgrwt>
</event>
<event>
 9    1  0.8122655E-001  0.2681332E+03  0.7818608E-02  0.1102353E+00
          2   -1    0    0  501    0  0.00000000000E+00  0.00000000000E+00  0.15058863298E+04  0.15058863298E+04  0.00000000000E+00 0.  1.
         -2   -1    0    0    0  501 -0.00000000000E+00 -0.00000000000E+00 -0.11935728423E+02  0.11935728423E+02  0.00000000000E+00 0.  1.
         35    2    1    2    0    0  0.00000000000E+00 -0.35527136788E-14  0.14939506014E+04  0.15178220583E+04  0.26813317787E+03 0.  0.
         25    2    3    3    0    0 -0.41599341592E+02 -0.20715497677E+02  0.67327676406E+03  0.68632428217E+03  0.12481899778E+03 0.  0.
         25    2    3    3    0    0  0.41599341592E+02  0.20715497677E+02  0.82067383736E+03  0.83149777609E+03  0.12539285172E+03 0.  0.
          5    1    4    4  502    0 -0.60154012309E+02 -0.86113536850E+01  0.65326678629E+03  0.65610383681E+03  0.47000000000E+01 0.  1.
         -5    1    4    4    0  502  0.18554670717E+02 -0.12104143993E+02  0.20009977767E+02  0.30220445355E+02  0.47000000000E+01 0.  1.
          5    1    5    5  503    0 -0.14829619938E+02 -0.44462736522E+02  0.26439903461E+03  0.26856245469E+03  0.47000000000E+01 0. -1.
         -5    1    5    5    0  503  0.56428961529E+02  0.65178234199E+02  0.55627480275E+03  0.56293532140E+03  0.47000000000E+01 0. -1.
<mgrwt>
<rscale>  0 0.26813318E+03</rscale>
<asrwt>0</asrwt>
<pdfrwt beam="1">  1        2 0.23167467E+00 0.26813318E+03</pdfrwt>
<pdfrwt beam="2">  1       -2 0.18362671E-02 0.26813318E+03</pdfrwt>
<totfact> 0.11866010E+04</totfact>
</mgrwt>
</event>
<event>
 9    1  0.8122655E-001  0.2735159E+03  0.7818608E-02  0.1099284E+00
         -2   -1    0    0    0  501 -0.00000000000E+00  0.00000000000E+00  0.12154192529E+03  0.12154192529E+03  0.00000000000E+00 0. -1.
          2   -1    0    0  501    0  0.00000000000E+00 -0.00000000000E+00 -0.15387886360E+03  0.15387886360E+03  0.00000000000E+00 0. -1.
         35    2    1    2    0    0  0.71054273576E-14  0.35527136788E-14 -0.32336938311E+02  0.27542078890E+03  0.27351587409E+03 0.  0.
         25    2    3    3    0    0  0.50667097459E+02  0.16882599818E+02 -0.92294196032E+01  0.13719928587E+03  0.12604080654E+03 0.  0.
         25    2    3    3    0    0 -0.50667097459E+02 -0.16882599818E+02 -0.23107518708E+02  0.13822150303E+03  0.12537563375E+03 0.  0.
          5    1    4    4  502    0  0.12414238974E+02  0.39841988982E+02  0.48457085772E+02  0.64122356295E+02  0.47000000000E+01 0. -1.
         -5    1    4    4    0  502  0.38252858485E+02 -0.22959389163E+02 -0.57686505375E+02  0.73076929570E+02  0.47000000000E+01 0. -1.
          5    1    5    5  503    0 -0.83271808103E+02 -0.38682997117E+02 -0.32684124421E+02  0.97575151959E+02  0.47000000000E+01 0.  1.
         -5    1    5    5    0  503  0.32604710644E+02  0.21800397299E+02  0.95766057129E+01  0.40646351073E+02  0.47000000000E+01 0.  1.
<mgrwt>
<rscale>  0 0.27351587E+03</rscale>
<asrwt>0</asrwt>
<pdfrwt beam="1">  1        2 0.23673671E-01 0.27351587E+03</pdfrwt>
<pdfrwt beam="2">  1       -2 0.18698758E-01 0.27351587E+03</pdfrwt>
<totfact> 0.53596126E+03</totfact>
</mgrwt>
</event>
<event>
 9    1  0.8122655E-001  0.2765964E+03  0.7818608E-02  0.1097563E+00
         -1   -1    0    0    0  501 -0.00000000000E+00  0.00000000000E+00  0.84572674346E+03  0.84572674346E+03  0.00000000000E+00 0. -1.
          1   -1    0    0  501    0  0.00000000000E+00 -0.00000000000E+00 -0.22615332144E+02  0.22615332144E+02  0.00000000000E+00 0. -1.
         35    2    1    2    0    0 -0.35527136788E-14 -0.35527136788E-14  0.82311141131E+03  0.86834207560E+03  0.27659639337E+03 0.  0.
         25    2    3    3    0    0  0.54413182061E+01  0.18883727134E+02  0.29272006014E+03  0.32303076110E+03  0.13519480725E+03 0.  0.
         25    2    3    3    0    0 -0.54413182061E+01 -0.18883727134E+02  0.53039135117E+03  0.54531131451E+03  0.12515287148E+03 0.  0.
          5    1    4    4  502    0  0.56936456607E+02 -0.26898407768E+02  0.99573999944E+02  0.11790825203E+03  0.47000000000E+01 0. -1.
         -5    1    4    4    0  502 -0.51495138401E+02  0.45782134901E+02  0.19314606020E+03  0.20512250907E+03  0.47000000000E+01 0. -1.
          5    1    5    5  503    0 -0.17813911340E+02  0.50862582856E+02  0.18747951510E+03  0.19512815367E+03  0.47000000000E+01 0.  1.
         -5    1    5    5    0  503  0.12372593134E+02 -0.69746309989E+02  0.34291183607E+03  0.35018316084E+03  0.47000000000E+01 0.  1.
<mgrwt>
<rscale>  0 0.27659639E+03</rscale>
<asrwt>0</asrwt>
<pdfrwt beam="1">  1        1 0.34792825E-02 0.27659639E+03</pdfrwt>
<pdfrwt beam="2">  1       -1 0.13011178E+00 0.27659639E+03</pdfrwt>
<totfact> 0.15021190E+03</totfact>
</mgrwt>
</event>
<event>
 9    1  0.8122655E-001  0.2779927E+03  0.7818608E-02  0.1096790E+00
         -1   -1    0    0    0  501 -0.00000000000E+00  0.00000000000E+00  0.56069203474E+02  0.56069203474E+02  0.00000000000E+00 0.  1.
          1   -1    0    0  501    0  0.00000000000E+00 -0.00000000000E+00 -0.34457395640E+03  0.34457395640E+03  0.00000000000E+00 0.  1.
         35    2    1    2    0    0  0.00000000000E+00  0.71054273576E-14 -0.28850475292E+03  0.40064315987E+03  0.27799271410E+03 0.  0.
         25    2    3    3    0    0 -0.45873930705E+02 -0.14757652877E+02 -0.19382091648E+03  0.23696461574E+03  0.12752833257E+03 0.  0.
         25    2    3    3    0    0  0.45873930705E+02  0.14757652877E+02 -0.94683836440E+02  0.16367854413E+03  0.12451277480E+03 0.  0.
          5    1    4    4  502    0 -0.69396812182E+02 -0.55530551088E+02 -0.12462504019E+03  0.15314388753E+03  0.47000000000E+01 0.  1.
         -5    1    4    4    0  502  0.23522881477E+02  0.40772898211E+02 -0.69195876291E+02  0.83820728207E+02  0.47000000000E+01 0.  1.
          5    1    5    5  503    0 -0.65005704087E+01  0.10226059569E+02 -0.10837523360E+03  0.10915177950E+03  0.47000000000E+01 0. -1.
         -5    1    5    5    0  503  0.52374501114E+02  0.45315933078E+01  0.13691397162E+02  0.54526764631E+02  0.47000000000E+01 0. -1.
<mgrwt>
<rscale>  0 0.27799271E+03</rscale>
<asrwt>0</asrwt>
<pdfrwt beam="1">  1        1 0.53011377E-01 0.27799271E+03</pdfrwt>
<pdfrwt beam="2">  1       -1 0.86260314E-02 0.27799271E+03</pdfrwt>
<totfact> 0.55967123E+03</totfact>
</mgrwt>
</event>
<event>
 9    1  0.8122655E-001  0.2548559E+03  0.7818608E-02  0.1110274E+00
         -1   -1    0    0    0  501 -0.00000000000E+00  0.00000000000E+00  0.18219374485E+03  0.18219374485E+03  0.00000000000E+00 0.  1.
          1   -1    0    0  501    0  0.00000000000E+00 -0.00000000000E+00 -0.89124276198E+02  0.89124276198E+02  0.00000000000E+00 0.  1.
         35    2    1    2    0    0  0.35527136788E-14  0.00000000000E+00  0.93069468656E+02  0.27131802105E+03  0.25485592509E+03 0.  0.
         25    2    3    3    0    0 -0.53969339389E+01 -0.52026950984E+01  0.21363987608E+02  0.12679880331E+03  0.12476105811E+03 0.  0.
         25    2    3    3    0    0  0.53969339389E+01  0.52026950984E+01  0.71705481049E+02  0.14451921775E+03  0.12525148045E+03 0.  0.
          5    1    4    4  502    0  0.23804393747E+02 -0.47458924094E+02 -0.23675020965E+02  0.58323196548E+02  0.47000000000E+01 0. -1.
         -5    1    4    4    0  502 -0.29201327686E+02  0.42256228996E+02  0.45039008573E+02  0.68475606758E+02  0.47000000000E+01 0. -1.
          5    1    5    5  503    0  0.24812270821E+02  0.54065364029E+02  0.69614389616E+02  0.91689506556E+02  0.47000000000E+01 0.  1.
         -5    1    5    5    0  503 -0.19415336882E+02 -0.48862668930E+02  0.20910914328E+01  0.52829711192E+02  0.47000000000E+01 0.  1.
<mgrwt>
<rscale>  0 0.25485593E+03</rscale>
<asrwt>0</asrwt>
<pdfrwt beam="1">  1        1 0.13711427E-01 0.25485593E+03</pdfrwt>
<pdfrwt beam="2">  1       -1 0.28029807E-01 0.25485593E+03</pdfrwt>
<totfact> 0.47691585E+03</totfact>
</mgrwt>
</event>
<event>
 9    1  0.8122655E-001  0.2765647E+03  0.7818608E-02  0.1097580E+00
         -1   -1    0    0    0  501 -0.00000000000E+00  0.00000000000E+00  0.26120318471E+02  0.26120318471E+02  0.00000000000E+00 0.  1.
          1   -1    0    0  501    0  0.00000000000E+00 -0.00000000000E+00 -0.73207412156E+03  0.73207412156E+03  0.00000000000E+00 0.  1.
         35    2    1    2    0    0 -0.35527136788E-14  0.71054273576E-14 -0.70595380309E+03  0.75819444004E+03  0.27656470635E+03 0.  0.
         25    2    3    3    0    0 -0.25463936889E+02  0.15299031510E+02 -0.49466377431E+03  0.51098992596E+03  0.12464342088E+03 0.  0.
         25    2    3    3    0    0  0.25463936889E+02 -0.15299031510E+02 -0.21129002878E+03  0.24720451407E+03  0.12483638520E+03 0.  0.
          5    1    4    4  502    0 -0.41968038749E+02 -0.40126936101E+02 -0.35508642153E+03  0.35983321696E+03  0.47000000000E+01 0.  1.
         -5    1    4    4    0  502  0.16504101860E+02  0.55425967611E+02 -0.13957735279E+03  0.15115670900E+03  0.47000000000E+01 0.  1.
          5    1    5    5  503    0  0.34669956035E+02  0.43001684146E+02 -0.47370934460E+02  0.72919449549E+02  0.47000000000E+01 0.  1.
         -5    1    5    5    0  503 -0.92060191462E+01 -0.58300715656E+02 -0.16391909432E+03  0.17428506452E+03  0.47000000000E+01 0.  1.
<mgrwt>
<rscale>  0 0.27656471E+03</rscale>
<asrwt>0</asrwt>
<pdfrwt beam="1">  1        1 0.11262680E+00 0.27656471E+03</pdfrwt>
<pdfrwt beam="2">  1       -1 0.40185102E-02 0.27656471E+03</pdfrwt>
<totfact> 0.64275904E+03</totfact>
</mgrwt>
</event>
<event>
 9    1  0.8122655E-001  0.2751473E+03  0.7818608E-02  0.1098369E+00
          3   -1    0    0  501    0  0.00000000000E+00  0.00000000000E+00  0.15731391611E+04  0.15731391611E+04  0.00000000000E+00 0. -1.
         -3   -1    0    0    0  501 -0.00000000000E+00 -0.00000000000E+00 -0.12031043988E+02  0.12031043988E+02  0.00000000000E+00 0. -1.
         35    2    1    2    0    0  0.00000000000E+00  0.00000000000E+00  0.15611081171E+04  0.15851702051E+04  0.27514728017E+03 0.  0.
         25    2    3    3    0    0  0.46571396622E+02 -0.32824611714E+02  0.72265461707E+03  0.73560662898E+03  0.12506425118E+03 0.  0.
         25    2    3    3    0    0 -0.46571396622E+02  0.32824611714E+02  0.83845350001E+03  0.84956357607E+03  0.12452970723E+03 0.  0.
          5    1    4    4  502    0 -0.79714029297E+01  0.43103452527E+00  0.56977642988E+03  0.56985173431E+03  0.47000000000E+01 0. -1.
         -5    1    4    4    0  502  0.54542799552E+02 -0.33255646239E+02  0.15287818719E+03  0.16575489467E+03  0.47000000000E+01 0. -1.
          5    1    5    5  503    0 -0.44095362176E+02  0.20168944168E+02  0.10256113992E+03  0.11354322832E+03  0.47000000000E+01 0.  1.
         -5    1    5    5    0  503 -0.24760344462E+01  0.12655667546E+02  0.73589236009E+03  0.73602034775E+03  0.47000000000E+01 0.  1.
<mgrwt>
<rscale>  0 0.27514728E+03</rscale>
<asrwt>0</asrwt>
<pdfrwt beam="1">  1        3 0.24202125E+00 0.27514728E+03</pdfrwt>
<pdfrwt beam="2">  1       -3 0.18509311E-02 0.27514728E+03</pdfrwt>
<totfact> 0.24892214E+02</totfact>
</mgrwt>
</event>
<event>
 9    1  0.8122655E-001  0.2618030E+03  0.7818608E-02  0.1106065E+00
         -1   -1    0    0    0  501 -0.00000000000E+00  0.00000000000E+00  0.75810740066E+01  0.75810740066E+01  0.00000000000E+00 0. -1.
          1   -1    0    0  501    0  0.00000000000E+00 -0.00000000000E+00 -0.22602608560E+04  0.22602608560E+04  0.00000000000E+00 0. -1.
         35    2    1    2    0    0  0.00000000000E+00  0.00000000000E+00 -0.22526797820E+04  0.22678419300E+04  0.26180301620E+03 0.  0.
         25    2    3    3    0    0 -0.25363621621E+02 -0.25927096797E+02 -0.10449384232E+04  0.10529509774E+04  0.12447459495E+03 0.  0.
         25    2    3    3    0    0  0.25363621621E+02  0.25927096797E+02 -0.12077413588E+04  0.12148909526E+04  0.12651209206E+03 0.  0.
          5    1    4    4  502    0 -0.32030931532E+02  0.42262006624E+01 -0.67175636451E+02  0.74689339798E+02  0.47000000000E+01 0. -1.
         -5    1    4    4    0  502  0.66673099113E+01 -0.30153297460E+02 -0.97776278674E+03  0.97826163755E+03  0.47000000000E+01 0. -1.
          5    1    5    5  503    0  0.19606089021E+02  0.45115392980E+02 -0.11761579703E+04  0.11771955906E+04  0.47000000000E+01 0.  1.
         -5    1    5    5    0  503  0.57575325995E+01 -0.19188296183E+02 -0.31583388509E+02  0.37695362072E+02  0.47000000000E+01 0.  1.
<mgrwt>
<rscale>  0 0.26180302E+03</rscale>
<asrwt>0</asrwt>
<pdfrwt beam="1">  1        1 0.34773292E+00 0.26180302E+03</pdfrwt>
<pdfrwt beam="2">  1       -1 0.11663175E-02 0.26180302E+03</pdfrwt>
<totfact> 0.34358394E+03</totfact>
</mgrwt>
</event>
<event>
 9    1  0.8122655E-001  0.2739397E+03  0.7818608E-02  0.1099046E+00
          1   -1    0    0  501    0  0.00000000000E+00  0.00000000000E+00  0.87287485123E+03  0.87287485123E+03  0.00000000000E+00 0.  1.
         -1   -1    0    0    0  501 -0.00000000000E+00 -0.00000000000E+00 -0.21493050559E+02  0.21493050559E+02  0.00000000000E+00 0.  1.
         35    2    1    2    0    0  0.35527136788E-14  0.71054273576E-14  0.85138180067E+03  0.89436790179E+03  0.27393972556E+03 0.  0.
         25    2    3    3    0    0  0.14663637506E+02 -0.51908228986E+02  0.47232790577E+03  0.49194917725E+03  0.12653401096E+03 0.  0.
         25    2    3    3    0    0 -0.14663637506E+02  0.51908228986E+02  0.37905389490E+03  0.40241872454E+03  0.12389305113E+03 0.  0.
          5    1    4    4  502    0  0.25567383135E+02 -0.14207438864E+02  0.43969698910E+03  0.44069385590E+03  0.47000000000E+01 0.  1.
         -5    1    4    4    0  502 -0.10903745628E+02 -0.37700790121E+02  0.32630916661E+02  0.51255321350E+02  0.47000000000E+01 0.  1.
          5    1    5    5  503    0  0.25199087891E+02 -0.28171355392E+02  0.18226071098E+03  0.18619794860E+03  0.47000000000E+01 0. -1.
         -5    1    5    5    0  503 -0.39862725397E+02  0.80079584377E+02  0.19679318392E+03  0.21622077594E+03  0.47000000000E+01 0. -1.
<mgrwt>
<rscale>  0 0.27393973E+03</rscale>
<asrwt>0</asrwt>
<pdfrwt beam="1">  1        1 0.13428841E+00 0.27393973E+03</pdfrwt>
<pdfrwt beam="2">  1       -1 0.33066238E-02 0.27393973E+03</pdfrwt>
<totfact> 0.65439591E+03</totfact>
</mgrwt>
</event>
<event>
 9    1  0.8122655E-001  0.3155426E+03  0.7818608E-02  0.1077719E+00
          1   -1    0    0  501    0  0.00000000000E+00  0.00000000000E+00  0.67279614004E+03  0.67279614004E+03  0.00000000000E+00 0. -1.
         -1   -1    0    0    0  501 -0.00000000000E+00 -0.00000000000E+00 -0.36997512447E+02  0.36997512447E+02  0.00000000000E+00 0. -1.
         35    2    1    2    0    0  0.35527136788E-14  0.71054273576E-14  0.63579862759E+03  0.70979365248E+03  0.31554260293E+03 0.  0.
         25    2    3    3    0    0  0.93390019473E+01  0.63225795225E+02  0.15596772180E+03  0.20971395732E+03  0.12477698310E+03 0.  0.
         25    2    3    3    0    0 -0.93390019473E+01 -0.63225795225E+02  0.47983090579E+03  0.50007969516E+03  0.12552802565E+03 0.  0.
          5    1    4    4  502    0 -0.27644317433E+01  0.91162380782E+02  0.15375003804E+03  0.17882781090E+03  0.47000000000E+01 0. -1.
         -5    1    4    4    0  502  0.12103433691E+02 -0.27936585556E+02  0.22176837576E+01  0.30886146423E+02  0.47000000000E+01 0. -1.
          5    1    5    5  503    0  0.24771795877E+02 -0.21255260442E+01  0.13840762979E+02  0.28841228333E+02  0.47000000000E+01 0. -1.
         -5    1    5    5    0  503 -0.34110797824E+02 -0.61100269181E+02  0.46599014281E+03  0.47123846683E+03  0.47000000000E+01 0. -1.
<mgrwt>
<rscale>  0 0.31554260E+03</rscale>
<asrwt>0</asrwt>
<pdfrwt beam="1">  1        1 0.10350709E+00 0.31554260E+03</pdfrwt>
<pdfrwt beam="2">  1       -1 0.56919255E-02 0.31554260E+03</pdfrwt>
<totfact> 0.43285587E+03</totfact>
</mgrwt>
</event>
<event>
 9    1  0.8122655E-001  0.2779769E+03  0.7818608E-02  0.1096799E+00
         -3   -1    0    0    0  501 -0.00000000000E+00  0.00000000000E+00  0.31655533278E+02  0.31655533278E+02  0.00000000000E+00 0. -1.
          3   -1    0    0  501    0  0.00000000000E+00 -0.00000000000E+00 -0.61024982940E+03  0.61024982940E+03  0.00000000000E+00 0. -1.
         35    2    1    2    0    0 -0.71054273576E-14  0.71054273576E-14 -0.57859429613E+03  0.64190536268E+03  0.27797686078E+03 0.  0.
         25    2    3    3    0    0  0.44265145438E+02 -0.20595103235E+02 -0.35545888935E+03  0.38004940101E+03  0.12531146720E+03 0.  0.
         25    2    3    3    0    0 -0.44265145438E+02  0.20595103235E+02 -0.22313540677E+03  0.26185596167E+03  0.12804520112E+03 0.  0.
          5    1    4    4  502    0 -0.21713354669E+02 -0.55408785901E+02 -0.15314847312E+03  0.16437198102E+03  0.47000000000E+01 0.  1.
         -5    1    4    4    0  502  0.65978500107E+02  0.34813682666E+02 -0.20231041623E+03  0.21567741999E+03  0.47000000000E+01 0.  1.
          5    1    5    5  503    0  0.52220866077E+01  0.48040095863E+02 -0.19001499258E+03  0.19611962779E+03  0.47000000000E+01 0.  1.
         -5    1    5    5    0  503 -0.49487232045E+02 -0.27444992627E+02 -0.33120414193E+02  0.65736333881E+02  0.47000000000E+01 0.  1.
<mgrwt>
<rscale>  0 0.27797686E+03</rscale>
<asrwt>0</asrwt>
<pdfrwt beam="1">  1        3 0.93884586E-01 0.27797686E+03</pdfrwt>
<pdfrwt beam="2">  1       -3 0.48700822E-02 0.27797686E+03</pdfrwt>
<totfact> 0.63215469E+02</totfact>
</mgrwt>
</event>
<event>
 9    1  0.8122655E-001  0.2761483E+03  0.7818608E-02  0.1097811E+00
          2   -1    0    0  501    0  0.00000000000E+00  0.00000000000E+00  0.16331970155E+04  0.16331970155E+04  0.00000000000E+00 0. -1.
         -2   -1    0    0    0  501 -0.00000000000E+00 -0.00000000000E+00 -0.11673102280E+02  0.11673102280E+02  0.00000000000E+00 0. -1.
         35    2    1    2    0    0  0.00000000000E+00  0.00000000000E+00  0.16215239132E+04  0.16448701178E+04  0.27614833554E+03 0.  0.
         25    2    3    3    0    0 -0.50667970442E+02 -0.68234297957E+01  0.64918433190E+03  0.66325496799E+03  0.12590890896E+03 0.  0.
         25    2    3    3    0    0  0.50667970442E+02  0.68234297957E+01  0.97233958133E+03  0.98161514980E+03  0.12454010789E+03 0.  0.
          5    1    4    4  502    0 -0.30051123289E+02 -0.30673815848E+02  0.61500193659E+03  0.61651717332E+03  0.47000000000E+01 0.  1.
         -5    1    4    4    0  502 -0.20616847153E+02  0.23850386052E+02  0.34182395305E+02  0.46737794665E+02  0.47000000000E+01 0.  1.
          5    1    5    5  503    0  0.85625766073E+02  0.30915106295E+02  0.70852093249E+03  0.71436091536E+03  0.47000000000E+01 0. -1.
         -5    1    5    5    0  503 -0.34957795631E+02 -0.24091676499E+02  0.26381864883E+03  0.26725423444E+03  0.47000000000E+01 0. -1.
<mgrwt>
<rscale>  0 0.27614834E+03</rscale>
<asrwt>0</asrwt>
<pdfrwt beam="1">  1        2 0.25126090E+00 0.27614834E+03</pdfrwt>
<pdfrwt beam="2">  1       -2 0.17958632E-02 0.27614834E+03</pdfrwt>
<totfact> 0.10498068E+04</totfact>
</mgrwt>
</event>
<event>
 9    1  0.8122655E-001  0.2716824E+03  0.7818608E-02  0.1100321E+00
          2   -1    0    0  501    0  0.00000000000E+00  0.00000000000E+00  0.22442741735E+04  0.22442741735E+04  0.00000000000E+00 0. -1.
         -2   -1    0    0    0  501 -0.00000000000E+00 -0.00000000000E+00 -0.82221795014E+01  0.82221795014E+01  0.00000000000E+00 0. -1.
         35    2    1    2    0    0  0.35527136788E-14  0.71054273576E-14  0.22360519940E+04  0.22524963530E+04  0.27168235206E+03 0.  0.
         25    2    3    3    0    0 -0.13951497436E+02 -0.38288698936E+02  0.11408545107E+04  0.11498509981E+04  0.13765040658E+03 0.  0.
         25    2    3    3    0    0  0.13951497436E+02  0.38288698936E+02  0.10951974833E+04  0.11026453549E+04  0.12127894533E+03 0.  0.
          5    1    4    4  502    0  0.22006876278E+02 -0.23141636335E+02  0.58753648609E+02  0.67036700103E+02  0.47000000000E+01 0.  1.
         -5    1    4    4    0  502 -0.35958373714E+02 -0.15147062600E+02  0.10821008621E+04  0.10828142980E+04  0.47000000000E+01 0.  1.
          5    1    5    5  503    0  0.17180067970E+02  0.61202446998E+02  0.10473580767E+04  0.10492959188E+04  0.47000000000E+01 0. -1.
         -5    1    5    5    0  503 -0.32285705339E+01 -0.22913748062E+02  0.47839406569E+02  0.53349436162E+02  0.47000000000E+01 0. -1.
<mgrwt>
<rscale>  0 0.27168235E+03</rscale>
<asrwt>0</asrwt>
<pdfrwt beam="1">  1        2 0.34527246E+00 0.27168235E+03</pdfrwt>
<pdfrwt beam="2">  1       -2 0.12649525E-02 0.27168235E+03</pdfrwt>
<totfact> 0.83472598E+03</totfact>
</mgrwt>
</event>
<event>
 9    1  0.8122655E-001  0.2765186E+03  0.7818608E-02  0.1097606E+00
          1   -1    0    0  501    0  0.00000000000E+00  0.00000000000E+00  0.75410068612E+02  0.75410068612E+02  0.00000000000E+00 0. -1.
         -1   -1    0    0    0  501 -0.00000000000E+00 -0.00000000000E+00 -0.25348912362E+03  0.25348912362E+03  0.00000000000E+00 0. -1.
         35    2    1    2    0    0 -0.14210854715E-13 -0.71054273576E-14 -0.17807905501E+03  0.32889919223E+03  0.27651858675E+03 0.  0.
         25    2    3    3    0    0  0.49870743947E+02  0.35002212886E+02 -0.77076766879E+02  0.15875834151E+03  0.12470419799E+03 0.  0.
         25    2    3    3    0    0 -0.49870743947E+02 -0.35002212886E+02 -0.10100228813E+03  0.17014085073E+03  0.12261403211E+03 0.  0.
          5    1    4    4  502    0 -0.21501704307E+02 -0.29661676377E+02 -0.27966897311E+01  0.37041190680E+02  0.47000000000E+01 0.  1.
         -5    1    4    4    0  502  0.71372448254E+02  0.64663889262E+02 -0.74280077148E+02  0.12171715083E+03  0.47000000000E+01 0.  1.
          5    1    5    5  503    0 -0.82304453499E+02 -0.50703796931E+02 -0.90023936820E+02  0.13217903499E+03  0.47000000000E+01 0. -1.
         -5    1    5    5    0  503  0.32433709552E+02  0.15701584045E+02 -0.10978351309E+02  0.37961815740E+02  0.47000000000E+01 0. -1.
<mgrwt>
<rscale>  0 0.27651859E+03</rscale>
<asrwt>0</asrwt>
<pdfrwt beam="1">  1        1 0.11601549E-01 0.27651859E+03</pdfrwt>
<pdfrwt beam="2">  1       -1 0.38998326E-01 0.27651859E+03</pdfrwt>
<totfact> 0.33769475E+03</totfact>
</mgrwt>
</event>
<event>
 9    1  0.8122655E-001  0.2753319E+03  0.7818608E-02  0.1098266E+00
          2   -1    0    0  501    0  0.00000000000E+00  0.00000000000E+00  0.32817013031E+03  0.32817013031E+03  0.00000000000E+00 0. -1.
         -2   -1    0    0    0  501 -0.00000000000E+00 -0.00000000000E+00 -0.57750285975E+02  0.57750285975E+02  0.00000000000E+00 0. -1.
         35    2    1    2    0    0  0.00000000000E+00 -0.71054273576E-14  0.27041984434E+03  0.38592041629E+03  0.27533193693E+03 0.  0.
         25    2    3    3    0    0 -0.14973459411E+02  0.39913204622E+02  0.72033575753E+02  0.15080546776E+03  0.12544395036E+03 0.  0.
         25    2    3    3    0    0  0.14973459411E+02 -0.39913204622E+02  0.19838626858E+03  0.23511494852E+03  0.11876303746E+03 0.  0.
          5    1    4    4  502    0  0.23037356961E+02  0.62095540909E+02  0.16108093020E+00  0.66397981623E+02  0.47000000000E+01 0. -1.
         -5    1    4    4    0  502 -0.38010816373E+02 -0.22182336286E+02  0.71872494823E+02  0.84407486140E+02  0.47000000000E+01 0. -1.
          5    1    5    5  503    0 -0.47650151845E+02 -0.14251609306E+02  0.12778088274E+03  0.13719945092E+03  0.47000000000E+01 0. -1.
         -5    1    5    5    0  503  0.62623611257E+02 -0.25661595316E+02  0.70605385838E+02  0.97915497600E+02  0.47000000000E+01 0. -1.
<mgrwt>
<rscale>  0 0.27533194E+03</rscale>
<asrwt>0</asrwt>
<pdfrwt beam="1">  1        2 0.50487711E-01 0.27533194E+03</pdfrwt>
<pdfrwt beam="2">  1       -2 0.88846596E-02 0.27533194E+03</pdfrwt>
<totfact> 0.78865895E+03</totfact>
</mgrwt>
</event>
<event>
 9    1  0.8122655E-001  0.2769850E+03  0.7818608E-02  0.1097347E+00
         -1   -1    0    0    0  501 -0.00000000000E+00  0.00000000000E+00  0.18966559432E+02  0.18966559432E+02  0.00000000000E+00 0.  1.
          1   -1    0    0  501    0  0.00000000000E+00 -0.00000000000E+00 -0.10112622809E+04  0.10112622809E+04  0.00000000000E+00 0.  1.
         35    2    1    2    0    0 -0.53290705182E-14  0.00000000000E+00 -0.99229572145E+03  0.10302288403E+04  0.27698495375E+03 0.  0.
         25    2    3    3    0    0  0.52179778924E+01  0.39661380509E+02 -0.33070073017E+03  0.35578564928E+03  0.12498081015E+03 0.  0.
         25    2    3    3    0    0 -0.52179778924E+01 -0.39661380509E+02 -0.66159499128E+03  0.67444319103E+03  0.12476150464E+03 0.  0.
          5    1    4    4  502    0 -0.12399245736E+02 -0.17363396403E+02 -0.22954657798E+01  0.21967885484E+02  0.47000000000E+01 0.  1.
         -5    1    4    4    0  502  0.17617223629E+02  0.57024776912E+02 -0.32840526439E+03  0.33381776380E+03  0.47000000000E+01 0.  1.
          5    1    5    5  503    0 -0.63104687958E+02 -0.95086533289E+01 -0.37955711196E+03  0.38491337645E+03  0.47000000000E+01 0.  1.
         -5    1    5    5    0  503  0.57886710066E+02 -0.30152727180E+02 -0.28203787931E+03  0.28952981457E+03  0.47000000000E+01 0.  1.
<mgrwt>
<rscale>  0 0.27698495E+03</rscale>
<asrwt>0</asrwt>
<pdfrwt beam="1">  1        1 0.15557880E+00 0.27698495E+03</pdfrwt>
<pdfrwt beam="2">  1       -1 0.29179324E-02 0.27698495E+03</pdfrwt>
<totfact> 0.61609190E+03</totfact>
</mgrwt>
</event>
<event>
 9    1  0.8122655E-001  0.2735819E+03  0.7818608E-02  0.1099247E+00
          2   -1    0    0  501    0  0.00000000000E+00  0.00000000000E+00  0.65663624004E+02  0.65663624004E+02  0.00000000000E+00 0. -1.
         -2   -1    0    0    0  501 -0.00000000000E+00 -0.00000000000E+00 -0.28496392862E+03  0.28496392862E+03  0.00000000000E+00 0. -1.
         35    2    1    2    0    0  0.00000000000E+00 -0.35527136788E-14 -0.21930030462E+03  0.35062755263E+03  0.27358190191E+03 0.  0.
         25    2    3    3    0    0 -0.38563600944E+02  0.26339926482E+02 -0.14581534790E+03  0.19780017430E+03  0.12522719443E+03 0.  0.
         25    2    3    3    0    0  0.38563600944E+02 -0.26339926482E+02 -0.73484956724E+02  0.15282737833E+03  0.12559946520E+03 0.  0.
          5    1    4    4  502    0 -0.34981435976E+02 -0.27907177555E+02 -0.32086483458E+01  0.45109830927E+02  0.47000000000E+01 0. -1.
         -5    1    4    4    0  502 -0.35821649683E+01  0.54247104037E+02 -0.14260669955E+03  0.15269034337E+03  0.47000000000E+01 0. -1.
          5    1    5    5  503    0  0.55237487181E+00  0.21130608337E+02  0.27408096982E+02  0.34929951430E+02  0.47000000000E+01 0.  1.
         -5    1    5    5    0  503  0.38011226073E+02 -0.47470534819E+02 -0.10089305371E+03  0.11789742690E+03  0.47000000000E+01 0.  1.
<mgrwt>
<rscale>  0 0.27358190E+03</rscale>
<asrwt>0</asrwt>
<pdfrwt beam="1">  1        2 0.10102096E-01 0.27358190E+03</pdfrwt>
<pdfrwt beam="2">  1       -2 0.43840605E-01 0.27358190E+03</pdfrwt>
<totfact> 0.31407718E+03</totfact>
</mgrwt>
</event>
<event>
 9    1  0.8122655E-001  0.2765868E+03  0.7818608E-02  0.1097568E+00
          2   -1    0    0  501    0  0.00000000000E+00  0.00000000000E+00  0.57782342489E+03  0.57782342489E+03  0.00000000000E+00 0. -1.
         -2   -1    0    0    0  501 -0.00000000000E+00 -0.00000000000E+00 -0.33098446408E+02  0.33098446408E+02  0.00000000000E+00 0. -1.
         35    2    1    2    0    0  0.71054273576E-14  0.00000000000E+00  0.54472497848E+03  0.61092187130E+03  0.27658675067E+03 0.  0.
         25    2    3    3    0    0 -0.26858119400E+02  0.53628640695E+02  0.26193758635E+03  0.29602573820E+03  0.12418755515E+03 0.  0.
         25    2    3    3    0    0  0.26858119400E+02 -0.53628640695E+02  0.28278739213E+03  0.31489613310E+03  0.12487383958E+03 0.  0.
          5    1    4    4  502    0 -0.85797818285E+01 -0.33839919608E+02  0.14248519223E+03  0.14677490528E+03  0.47000000000E+01 0.  1.
         -5    1    4    4    0  502 -0.18278337571E+02  0.87468560304E+02  0.11945239412E+03  0.14925083292E+03  0.47000000000E+01 0.  1.
          5    1    5    5  503    0  0.27368982149E+02  0.86858029443E+01  0.23349873417E+03  0.23530459667E+03  0.47000000000E+01 0. -1.
         -5    1    5    5    0  503 -0.51086274905E+00 -0.62314443639E+02  0.49288657964E+02  0.79591536426E+02  0.47000000000E+01 0. -1.
<mgrwt>
<rscale>  0 0.27658675E+03</rscale>
<asrwt>0</asrwt>
<pdfrwt beam="1">  1        2 0.88895904E-01 0.27658675E+03</pdfrwt>
<pdfrwt beam="2">  1       -2 0.50920691E-02 0.27658675E+03</pdfrwt>
<totfact> 0.99937210E+03</totfact>
</mgrwt>
</event>
<event>
 9    1  0.8122655E-001  0.2725902E+03  0.7818608E-02  0.1099806E+00
          2   -1    0    0  501    0  0.00000000000E+00  0.00000000000E+00  0.18791737350E+04  0.18791737350E+04  0.00000000000E+00 0. -1.
         -2   -1    0    0    0  501 -0.00000000000E+00 -0.00000000000E+00 -0.98853816524E+01  0.98853816524E+01  0.00000000000E+00 0. -1.
         35    2    1    2    0    0  0.00000000000E+00  0.17763568394E-14  0.18692883533E+04  0.18890591166E+04  0.27259016535E+03 0.  0.
         25    2    3    3    0    0 -0.29472697566E+02  0.55734316296E+01  0.60672048080E+03  0.62030440543E+03  0.12557113734E+03 0.  0.
         25    2    3    3    0    0  0.29472697566E+02 -0.55734316296E+01  0.12625678725E+04  0.12687547112E+04  0.12149560246E+03 0.  0.
          5    1    4    4  502    0 -0.72939523865E+02 -0.94893315547E+01  0.25120996529E+03  0.26179907986E+03  0.47000000000E+01 0.  1.
         -5    1    4    4    0  502  0.43466826299E+02  0.15062763184E+02  0.35551051551E+03  0.35850532557E+03  0.47000000000E+01 0.  1.
          5    1    5    5  503    0  0.70759608789E+02 -0.29086995468E+02  0.84366559639E+03  0.84714030956E+03  0.47000000000E+01 0. -1.
         -5    1    5    5    0  503 -0.41286911223E+02  0.23513563838E+02  0.41890227611E+03  0.42161440162E+03  0.47000000000E+01 0. -1.
<mgrwt>
<rscale>  0 0.27259017E+03</rscale>
<asrwt>0</asrwt>
<pdfrwt beam="1">  1        2 0.28910337E+00 0.27259017E+03</pdfrwt>
<pdfrwt beam="2">  1       -2 0.15208294E-02 0.27259017E+03</pdfrwt>
<totfact> 0.99414464E+03</totfact>
</mgrwt>
</event>
<event>
 9    1  0.8122655E-001  0.2738140E+03  0.7818608E-02  0.1099116E+00
         -1   -1    0    0    0  501 -0.00000000000E+00  0.00000000000E+00  0.22299441417E+02  0.22299441417E+02  0.00000000000E+00 0.  1.
          1   -1    0    0  501    0  0.00000000000E+00 -0.00000000000E+00 -0.84053820329E+03  0.84053820329E+03  0.00000000000E+00 0.  1.
         35    2    1    2    0    0  0.00000000000E+00  0.35527136788E-14 -0.81823876187E+03  0.86283764471E+03  0.27381404217E+03 0.  0.
         25    2    3    3    0    0  0.37794356698E+02 -0.10344533214E+02 -0.51114192715E+03  0.52878229452E+03  0.12965038582E+03 0.  0.
         25    2    3    3    0    0 -0.37794356698E+02  0.10344533214E+02 -0.30709683473E+03  0.33405535019E+03  0.12549537172E+03 0.  0.
          5    1    4    4  502    0  0.67438155600E+01  0.57333584209E+02 -0.17063100539E+03  0.18019336538E+03  0.47000000000E+01 0.  1.
         -5    1    4    4    0  502  0.31050541138E+02 -0.67678117423E+02 -0.34051092176E+03  0.34858892914E+03  0.47000000000E+01 0.  1.
          5    1    5    5  503    0 -0.70958589906E+02  0.10460200534E+02 -0.28500723019E+03  0.29393153716E+03  0.47000000000E+01 0.  1.
         -5    1    5    5    0  503  0.33164233208E+02 -0.11566732088E+00 -0.22089604534E+02  0.40123813025E+02  0.47000000000E+01 0.  1.
<mgrwt>
<rscale>  0 0.27381404E+03</rscale>
<asrwt>0</asrwt>
<pdfrwt beam="1">  1        1 0.12931353E+00 0.27381404E+03</pdfrwt>
<pdfrwt beam="2">  1       -1 0.34306843E-02 0.27381404E+03</pdfrwt>
<totfact> 0.65797178E+03</totfact>
</mgrwt>
</event>
<event>
 9    1  0.8122655E-001  0.2584849E+03  0.7818608E-02  0.1108057E+00
          4   -1    0    0  501    0  0.00000000000E+00  0.00000000000E+00  0.88408551965E+01  0.88408551965E+01  0.00000000000E+00 0.  1.
         -4   -1    0    0    0  501 -0.00000000000E+00 -0.00000000000E+00 -0.18893659965E+04  0.18893659965E+04  0.00000000000E+00 0.  1.
         35    2    1    2    0    0  0.00000000000E+00  0.00000000000E+00 -0.18805251413E+04  0.18982068517E+04  0.25848490237E+03 0.  0.
         25    2    3    3    0    0 -0.16486367122E+02  0.85282789387E+01 -0.11270352252E+04  0.11341274308E+04  0.12526810689E+03 0.  0.
         25    2    3    3    0    0  0.16486367122E+02 -0.85282789387E+01 -0.75348991610E+03  0.76407942089E+03  0.12540245583E+03 0.  0.
          5    1    4    4  502    0 -0.40612645785E+02 -0.42705780088E+02 -0.80086311021E+03  0.80304232886E+03  0.47000000000E+01 0.  1.
         -5    1    4    4    0  502  0.24126278663E+02  0.51234059027E+02 -0.32617211502E+03  0.33108510197E+03  0.47000000000E+01 0.  1.
          5    1    5    5  503    0 -0.14259156180E+02 -0.20713530767E+02 -0.70344521184E+03  0.70391024283E+03  0.47000000000E+01 0. -1.
         -5    1    5    5    0  503  0.30745523302E+02  0.12185251828E+02 -0.50044704256E+02  0.60169178067E+02  0.47000000000E+01 0. -1.
<mgrwt>
<rscale>  0 0.25848490E+03</rscale>
<asrwt>0</asrwt>
<pdfrwt beam="1">  1        4 0.13601314E-02 0.25848490E+03</pdfrwt>
<pdfrwt beam="2">  1       -4 0.29067173E+00 0.25848490E+03</pdfrwt>
<totfact> 0.14109397E+02</totfact>
</mgrwt>
</event>
<event>
 9    1  0.8122655E-001  0.2665898E+03  0.7818608E-02  0.1103247E+00
          2   -1    0    0  501    0  0.00000000000E+00  0.00000000000E+00  0.30839847726E+03  0.30839847726E+03  0.00000000000E+00 0. -1.
         -2   -1    0    0    0  501 -0.00000000000E+00 -0.00000000000E+00 -0.57612247485E+02  0.57612247485E+02  0.00000000000E+00 0. -1.
         35    2    1    2    0    0  0.00000000000E+00  0.00000000000E+00  0.25078622978E+03  0.36601072475E+03  0.26658979272E+03 0.  0.
         25    2    3    3    0    0 -0.39576433928E+02  0.27731806715E+02  0.11660023895E+03  0.17663153926E+03  0.12356268737E+03 0.  0.
         25    2    3    3    0    0  0.39576433928E+02 -0.27731806715E+02  0.13418599083E+03  0.18937918549E+03  0.12459232937E+03 0.  0.
          5    1    4    4  502    0 -0.77225345325E+02  0.43929839518E+02  0.63108758239E+02  0.10907974206E+03  0.47000000000E+01 0.  1.
         -5    1    4    4    0  502  0.37648911397E+02 -0.16198032803E+02  0.53491480715E+02  0.67551797201E+02  0.47000000000E+01 0.  1.
          5    1    5    5  503    0  0.57795687215E+02  0.74721247409E+01  0.10486701539E+02  0.59398947953E+02  0.47000000000E+01 0.  1.
         -5    1    5    5    0  503 -0.18219253287E+02 -0.35203931456E+02  0.12369928929E+03  0.12998023754E+03  0.47000000000E+01 0.  1.
<mgrwt>
<rscale>  0 0.26658979E+03</rscale>
<asrwt>0</asrwt>
<pdfrwt beam="1">  1        2 0.47445919E-01 0.26658979E+03</pdfrwt>
<pdfrwt beam="2">  1       -2 0.88634229E-02 0.26658979E+03</pdfrwt>
<totfact> 0.84527804E+03</totfact>
</mgrwt>
</event>
<event>
 9    1  0.8122655E-001  0.2734538E+03  0.7818608E-02  0.1099319E+00
          2   -1    0    0  501    0  0.00000000000E+00  0.00000000000E+00  0.17336541892E+04  0.17336541892E+04  0.00000000000E+00 0.  1.
         -2   -1    0    0    0  501 -0.00000000000E+00 -0.00000000000E+00 -0.10783145413E+02  0.10783145413E+02  0.00000000000E+00 0.  1.
         35    2    1    2    0    0  0.17763568394E-14  0.71054273576E-14  0.17228710438E+04  0.17444373346E+04  0.27345380026E+03 0.  0.
         25    2    3    3    0    0 -0.90248865441E+01 -0.38157161246E+02  0.10622614799E+04  0.10708895966E+04  0.12987555210E+03 0.  0.
         25    2    3    3    0    0  0.90248865441E+01  0.38157161246E+02  0.66060956396E+03  0.67354773802E+03  0.12539594039E+03 0.  0.
          5    1    4    4  502    0  0.41522613272E+02 -0.17514068615E+01  0.80743905066E+03  0.80852155530E+03  0.47000000000E+01 0.  1.
         -5    1    4    4    0  502 -0.50547499816E+02 -0.36405754384E+02  0.25482242919E+03  0.26236804132E+03  0.47000000000E+01 0.  1.
          5    1    5    5  503    0 -0.10729141304E+01  0.83572652113E+02  0.38457761554E+03  0.39358299214E+03  0.47000000000E+01 0.  1.
         -5    1    5    5    0  503  0.10097800675E+02 -0.45415490867E+02  0.27603194842E+03  0.27996474588E+03  0.47000000000E+01 0.  1.
<mgrwt>
<rscale>  0 0.27345380E+03</rscale>
<asrwt>0</asrwt>
<pdfrwt beam="1">  1        2 0.26671581E+00 0.27345380E+03</pdfrwt>
<pdfrwt beam="2">  1       -2 0.16589468E-02 0.27345380E+03</pdfrwt>
<totfact> 0.10437439E+04</totfact>
</mgrwt>
</event>
<event>
 9    1  0.8122655E-001  0.2662069E+03  0.7818608E-02  0.1103470E+00
          2   -1    0    0  501    0  0.00000000000E+00  0.00000000000E+00  0.36552616217E+03  0.36552616217E+03  0.00000000000E+00 0.  1.
         -2   -1    0    0    0  501 -0.00000000000E+00 -0.00000000000E+00 -0.48468546894E+02  0.48468546894E+02  0.00000000000E+00 0.  1.
         35    2    1    2    0    0  0.00000000000E+00  0.00000000000E+00  0.31705761527E+03  0.41399470906E+03  0.26620685139E+03 0.  0.
         25    2    3    3    0    0  0.71372257969E+01  0.17272249480E+02  0.22354200500E+03  0.25650411617E+03  0.12439478694E+03 0.  0.
         25    2    3    3    0    0 -0.71372257969E+01 -0.17272249480E+02  0.93515610275E+02  0.15749059289E+03  0.12533493883E+03 0.  0.
          5    1    4    4  502    0 -0.25332858820E+02 -0.44788908820E+02  0.12724288103E+03  0.13733404845E+03  0.47000000000E+01 0.  1.
         -5    1    4    4    0  502  0.32470084616E+02  0.62061158299E+02  0.96299123969E+02  0.11917006773E+03  0.47000000000E+01 0.  1.
          5    1    5    5  503    0 -0.10175682466E+01 -0.59046674077E+02  0.98268299967E+02  0.11474447239E+03  0.47000000000E+01 0.  1.
         -5    1    5    5    0  503 -0.61196575503E+01  0.41774424598E+02 -0.47526896922E+01  0.42746120506E+02  0.47000000000E+01 0.  1.
<mgrwt>
<rscale>  0 0.26620685E+03</rscale>
<asrwt>0</asrwt>
<pdfrwt beam="1">  1        2 0.56234792E-01 0.26620685E+03</pdfrwt>
<pdfrwt beam="2">  1       -2 0.74566997E-02 0.26620685E+03</pdfrwt>
<totfact> 0.92215355E+03</totfact>
</mgrwt>
</event>
<event>
 9    1  0.8122655E-001  0.2871917E+03  0.7818608E-02  0.1091825E+00
         -2   -1    0    0    0  501 -0.00000000000E+00  0.00000000000E+00  0.19942349339E+02  0.19942349339E+02  0.00000000000E+00 0. -1.
          2   -1    0    0  501    0  0.00000000000E+00 -0.00000000000E+00 -0.10339687437E+04  0.10339687437E+04  0.00000000000E+00 0. -1.
         35    2    1    2    0    0 -0.14210854715E-13  0.17763568394E-14 -0.10140263944E+04  0.10539110931E+04  0.28719168437E+03 0.  0.
         25    2    3    3    0    0 -0.35807309565E+02  0.11015542059E+02 -0.28242264795E+03  0.31091143074E+03  0.12449843413E+03 0.  0.
         25    2    3    3    0    0  0.35807309565E+02 -0.11015542059E+02 -0.73160374643E+03  0.74299966232E+03  0.12410056743E+03 0.  0.
          5    1    4    4  502    0  0.46611596314E+02  0.10452748277E+01 -0.10132959980E+03  0.11164009722E+03  0.47000000000E+01 0. -1.
         -5    1    4    4    0  502 -0.82418905879E+02  0.99702672317E+01 -0.18109304815E+03  0.19927133352E+03  0.47000000000E+01 0. -1.
          5    1    5    5  503    0  0.54743785101E+02  0.78478832938E+01 -0.69611163095E+03  0.69832081741E+03  0.47000000000E+01 0. -1.
         -5    1    5    5    0  503 -0.18936475536E+02 -0.18863425353E+02 -0.35492115479E+02  0.44678844915E+02  0.47000000000E+01 0. -1.
<mgrwt>
<rscale>  0 0.28719168E+03</rscale>
<asrwt>0</asrwt>
<pdfrwt beam="1">  1        2 0.15907210E+00 0.28719168E+03</pdfrwt>
<pdfrwt beam="2">  1       -2 0.30680539E-02 0.28719168E+03</pdfrwt>
<totfact> 0.10244941E+04</totfact>
</mgrwt>
</event>
<event>
 9    1  0.8122655E-001  0.2797819E+03  0.7818608E-02  0.1095808E+00
          2   -1    0    0  501    0  0.00000000000E+00  0.00000000000E+00  0.12153795500E+02  0.12153795500E+02  0.00000000000E+00 0.  1.
         -2   -1    0    0    0  501 -0.00000000000E+00 -0.00000000000E+00 -0.16101541125E+04  0.16101541125E+04  0.00000000000E+00 0.  1.
         35    2    1    2    0    0 -0.71054273576E-14  0.00000000000E+00 -0.15980003170E+04  0.16223079080E+04  0.27978194228E+03 0.  0.
         25    2    3    3    0    0 -0.37455151613E+02 -0.46027251026E+02 -0.69218960066E+03  0.70599691565E+03  0.12563361581E+03 0.  0.
         25    2    3    3    0    0  0.37455151613E+02  0.46027251026E+02 -0.90581071634E+03  0.91631099235E+03  0.12494552673E+03 0.  0.
          5    1    4    4  502    0  0.29950733810E+02 -0.27982256843E+01 -0.44665784406E+03  0.44769431109E+03  0.47000000000E+01 0. -1.
         -5    1    4    4    0  502 -0.67405885422E+02 -0.43229025342E+02 -0.24553175660E+03  0.25830260455E+03  0.47000000000E+01 0. -1.
          5    1    5    5  503    0 -0.41280356160E+02 -0.83420258452E+01 -0.29760459823E+03  0.30060646049E+03  0.47000000000E+01 0.  1.
         -5    1    5    5    0  503  0.78735507772E+02  0.54369276872E+02 -0.60820611811E+03  0.61570453187E+03  0.47000000000E+01 0.  1.
<mgrwt>
<rscale>  0 0.27978194E+03</rscale>
<asrwt>0</asrwt>
<pdfrwt beam="1">  1        2 0.18698158E-02 0.27978194E+03</pdfrwt>
<pdfrwt beam="2">  1       -2 0.24771587E+00 0.27978194E+03</pdfrwt>
<totfact> 0.44492313E+02</totfact>
</mgrwt>
</event>
<event>
 9    1  0.8122655E-001  0.2734677E+03  0.7818608E-02  0.1099311E+00
         -2   -1    0    0    0  501 -0.00000000000E+00  0.00000000000E+00  0.20542262987E+02  0.20542262987E+02  0.00000000000E+00 0.  1.
          2   -1    0    0  501    0  0.00000000000E+00 -0.00000000000E+00 -0.91013095876E+03  0.91013095876E+03  0.00000000000E+00 0.  1.
         35    2    1    2    0    0  0.88817841970E-15 -0.71054273576E-14 -0.88958869577E+03  0.93067322174E+03  0.27346772758E+03 0.  0.
         25    2    3    3    0    0 -0.15986985971E+01  0.34488133542E+02 -0.59048624847E+03  0.60460458242E+03  0.12522261878E+03 0.  0.
         25    2    3    3    0    0  0.15986985971E+01 -0.34488133542E+02 -0.29910244730E+03  0.32606863933E+03  0.12516587546E+03 0.  0.
          5    1    4    4  502    0 -0.65871226072E+01  0.79214862351E+02 -0.29011005284E+03  0.30083935474E+03  0.47000000000E+01 0.  1.
         -5    1    4    4    0  502  0.49884240101E+01 -0.44726728809E+02 -0.30037619563E+03  0.30376522767E+03  0.47000000000E+01 0.  1.
          5    1    5    5  503    0  0.29531489425E+02 -0.65094800067E+02 -0.25704788813E+03  0.26684292881E+03  0.47000000000E+01 0. -1.
         -5    1    5    5    0  503 -0.27932790828E+02  0.30606666525E+02 -0.42054559166E+02  0.59225710514E+02  0.47000000000E+01 0. -1.
<mgrwt>
<rscale>  0 0.27346773E+03</rscale>
<asrwt>0</asrwt>
<pdfrwt beam="1">  1        2 0.14002012E+00 0.27346773E+03</pdfrwt>
<pdfrwt beam="2">  1       -2 0.31603487E-02 0.27346773E+03</pdfrwt>
<totfact> 0.11687159E+04</totfact>
</mgrwt>
</event>
<event>
 9    1  0.8122655E-001  0.2774724E+03  0.7818608E-02  0.1097078E+00
          1   -1    0    0  501    0  0.00000000000E+00  0.00000000000E+00  0.98953368916E+03  0.98953368916E+03  0.00000000000E+00 0.  1.
         -1   -1    0    0    0  501 -0.00000000000E+00 -0.00000000000E+00 -0.19451321703E+02  0.19451321703E+02  0.00000000000E+00 0.  1.
         35    2    1    2    0    0  0.00000000000E+00  0.71054273576E-14  0.97008236746E+03  0.10089850109E+04  0.27747243556E+03 0.  0.
         25    2    3    3    0    0 -0.32825640703E+02 -0.38082095589E+02  0.60461280396E+03  0.61935309707E+03  0.12455459627E+03 0.  0.
         25    2    3    3    0    0  0.32825640703E+02  0.38082095589E+02  0.36546956350E+03  0.38963191379E+03  0.12536848770E+03 0.  0.
          5    1    4    4  502    0 -0.40870992726E+02  0.31472904677E+02  0.39320612449E+03  0.39660323764E+03  0.47000000000E+01 0.  1.
         -5    1    4    4    0  502  0.80453520229E+01 -0.69555000266E+02  0.21140667947E+03  0.22274985943E+03  0.47000000000E+01 0.  1.
          5    1    5    5  503    0 -0.79072177240E+01  0.65971104625E+02  0.30108117175E+03  0.30836126981E+03  0.47000000000E+01 0. -1.
         -5    1    5    5    0  503  0.40732858427E+02 -0.27889009036E+02  0.64388391753E+02  0.81270643982E+02  0.47000000000E+01 0. -1.
<mgrwt>
<rscale>  0 0.27747244E+03</rscale>
<asrwt>0</asrwt>
<pdfrwt beam="1">  1        1 0.15223591E+00 0.27747244E+03</pdfrwt>
<pdfrwt beam="2">  1       -1 0.29925118E-02 0.27747244E+03</pdfrwt>
<totfact> 0.61625068E+03</totfact>
</mgrwt>
</event>
<event>
 9    1  0.8122655E-001  0.2526289E+03  0.7818608E-02  0.1111655E+00
          2   -1    0    0  501    0  0.00000000000E+00  0.00000000000E+00  0.19176811873E+03  0.19176811873E+03  0.00000000000E+00 0.  1.
         -2   -1    0    0    0  501 -0.00000000000E+00 -0.00000000000E+00 -0.83201227090E+02  0.83201227090E+02  0.00000000000E+00 0.  1.
         35    2    1    2    0    0  0.35527136788E-14  0.00000000000E+00  0.10856689164E+03  0.27496934583E+03  0.25262891992E+03 0.  0.
         25    2    3    3    0    0  0.19425496004E+02 -0.46681363504E+01  0.39269615748E+02  0.12976441108E+03  0.12205555403E+03 0.  0.
         25    2    3    3    0    0 -0.19425496004E+02  0.46681363504E+01  0.69297275896E+02  0.14520493474E+03  0.12602864450E+03 0.  0.
          5    1    4    4  502    0  0.34921519473E+02 -0.57356526008E+02  0.12417831255E+02  0.68451268294E+02  0.47000000000E+01 0.  1.
         -5    1    4    4    0  502 -0.15496023468E+02  0.52688389658E+02  0.26851784494E+02  0.61313142788E+02  0.47000000000E+01 0.  1.
          5    1    5    5  503    0  0.28399112405E+02 -0.41808472777E+02  0.58556103972E+02  0.77494292007E+02  0.47000000000E+01 0. -1.
         -5    1    5    5    0  503 -0.47824608409E+02  0.46476609127E+02  0.10741171924E+02  0.67710642736E+02  0.47000000000E+01 0. -1.
<mgrwt>
<rscale>  0 0.25262892E+03</rscale>
<asrwt>0</asrwt>
<pdfrwt beam="1">  1        2 0.29502787E-01 0.25262892E+03</pdfrwt>
<pdfrwt beam="2">  1       -2 0.12800189E-01 0.25262892E+03</pdfrwt>
<totfact> 0.78419577E+03</totfact>
</mgrwt>
</event>
<event>
 9    1  0.8122655E-001  0.2743993E+03  0.7818608E-02  0.1098788E+00
          1   -1    0    0  501    0  0.00000000000E+00  0.00000000000E+00  0.40486178701E+03  0.40486178701E+03  0.00000000000E+00 0.  1.
         -1   -1    0    0    0  501 -0.00000000000E+00 -0.00000000000E+00 -0.46494234529E+02  0.46494234529E+02  0.00000000000E+00 0.  1.
         35    2    1    2    0    0  0.14210854715E-13  0.71054273576E-14  0.35836755248E+03  0.45135602154E+03  0.27439926295E+03 0.  0.
         25    2    3    3    0    0  0.37366738613E+02  0.19435159851E+02  0.11965092459E+03  0.17896933518E+03  0.12625244784E+03 0.  0.
         25    2    3    3    0    0 -0.37366738613E+02 -0.19435159851E+02  0.23871662789E+03  0.27238668636E+03  0.12423719202E+03 0.  0.
          5    1    4    4  502    0 -0.31664864749E+02  0.46363728884E+02  0.34807398814E+02  0.66226158184E+02  0.47000000000E+01 0.  1.
         -5    1    4    4    0  502  0.69031603363E+02 -0.26928569034E+02  0.84843525774E+02  0.11274317699E+03  0.47000000000E+01 0.  1.
          5    1    5    5  503    0  0.14292867757E+02 -0.30485423749E+02  0.20868796701E+03  0.21143889118E+03  0.47000000000E+01 0. -1.
         -5    1    5    5    0  503 -0.51659606371E+02  0.11050263898E+02  0.30028660885E+02  0.60947795179E+02  0.47000000000E+01 0. -1.
<mgrwt>
<rscale>  0 0.27439926E+03</rscale>
<asrwt>0</asrwt>
<pdfrwt beam="1">  1        1 0.62286426E-01 0.27439926E+03</pdfrwt>
<pdfrwt beam="2">  1       -1 0.71529594E-02 0.27439926E+03</pdfrwt>
<totfact> 0.60618480E+03</totfact>
</mgrwt>
</event>
<event>
 9    1  0.8122655E-001  0.2728315E+03  0.7818608E-02  0.1099670E+00
          2   -1    0    0  501    0  0.00000000000E+00  0.00000000000E+00  0.54675490953E+03  0.54675490953E+03  0.00000000000E+00 0. -1.
         -2   -1    0    0    0  501 -0.00000000000E+00 -0.00000000000E+00 -0.34035839293E+02  0.34035839293E+02  0.00000000000E+00 0. -1.
         35    2    1    2    0    0  0.71054273576E-14 -0.35527136788E-14  0.51271907024E+03  0.58079074883E+03  0.27283153948E+03 0.  0.
         25    2    3    3    0    0  0.33478364590E+02 -0.23955183803E+02  0.33763262127E+03  0.36217101325E+03  0.12440821584E+03 0.  0.
         25    2    3    3    0    0 -0.33478364590E+02  0.23955183803E+02  0.17508644897E+03  0.21861973557E+03  0.12427659652E+03 0.  0.
          5    1    4    4  502    0  0.50988088527E+02  0.21790757793E+02  0.28393537384E+03  0.28933718879E+03  0.47000000000E+01 0. -1.
         -5    1    4    4    0  502 -0.17509723937E+02 -0.45745941596E+02  0.53697247426E+02  0.72833824464E+02  0.47000000000E+01 0. -1.
          5    1    5    5  503    0 -0.79291404420E+01  0.73817800232E+02  0.10701479299E+03  0.13033109690E+03  0.47000000000E+01 0.  1.
         -5    1    5    5    0  503 -0.25549224148E+02 -0.49862616428E+02  0.68071655979E+02  0.88288638676E+02  0.47000000000E+01 0.  1.
<mgrwt>
<rscale>  0 0.27283154E+03</rscale>
<asrwt>0</asrwt>
<pdfrwt beam="1">  1        2 0.84116133E-01 0.27283154E+03</pdfrwt>
<pdfrwt beam="2">  1       -2 0.52362834E-02 0.27283154E+03</pdfrwt>
<totfact> 0.10197568E+04</totfact>
</mgrwt>
</event>
<event>
 9    1  0.8122655E-001  0.2746521E+03  0.7818608E-02  0.1098646E+00
         -2   -1    0    0    0  501 -0.00000000000E+00  0.00000000000E+00  0.59596955489E+02  0.59596955489E+02  0.00000000000E+00 0. -1.
          2   -1    0    0  501    0  0.00000000000E+00 -0.00000000000E+00 -0.31643310135E+03  0.31643310135E+03  0.00000000000E+00 0. -1.
         35    2    1    2    0    0 -0.71054273576E-14 -0.71054273576E-14 -0.25683614586E+03  0.37603005684E+03  0.27465213967E+03 0.  0.
         25    2    3    3    0    0  0.33575875151E+00  0.43544109179E+02 -0.17704409331E+03  0.22101049891E+03  0.12491928383E+03 0.  0.
         25    2    3    3    0    0 -0.33575875151E+00 -0.43544109179E+02 -0.79792052546E+02  0.15501955793E+03  0.12557105364E+03 0.  0.
          5    1    4    4  502    0 -0.60816304290E+02  0.34757067212E+02 -0.98877954167E+02  0.12126671600E+03  0.47000000000E+01 0.  1.
         -5    1    4    4    0  502  0.61152063042E+02  0.87870419665E+01 -0.78166139144E+02  0.99743782911E+02  0.47000000000E+01 0.  1.
          5    1    5    5  503    0  0.55486215625E+02 -0.43432382852E+02 -0.20693045447E+02  0.73589293613E+02  0.47000000000E+01 0. -1.
         -5    1    5    5    0  503 -0.55821974376E+02 -0.11172632680E+00 -0.59099007099E+02  0.81430264313E+02  0.47000000000E+01 0. -1.
<mgrwt>
<rscale>  0 0.27465214E+03</rscale>
<asrwt>0</asrwt>
<pdfrwt beam="1">  1        2 0.48682016E-01 0.27465214E+03</pdfrwt>
<pdfrwt beam="2">  1       -2 0.91687623E-02 0.27465214E+03</pdfrwt>
<totfact> 0.78040875E+03</totfact>
</mgrwt>
</event>
<event>
 9    1  0.8122655E-001  0.2653642E+03  0.7818608E-02  0.1103963E+00
          1   -1    0    0  501    0  0.00000000000E+00  0.00000000000E+00  0.31467872982E+03  0.31467872982E+03  0.00000000000E+00 0.  1.
         -1   -1    0    0    0  501 -0.00000000000E+00 -0.00000000000E+00 -0.55944467713E+02  0.55944467713E+02  0.00000000000E+00 0.  1.
         35    2    1    2    0    0 -0.35527136788E-14  0.00000000000E+00  0.25873426211E+03  0.37062319754E+03  0.26536415765E+03 0.  0.
         25    2    3    3    0    0 -0.10403924955E+02 -0.16289891161E+02  0.74386842564E+02  0.14644932295E+03  0.12466113924E+03 0.  0.
         25    2    3    3    0    0  0.10403924955E+02  0.16289891161E+02  0.18434741955E+03  0.22417387459E+03  0.12608073899E+03 0.  0.
          5    1    4    4  502    0  0.35011830588E+02  0.37673882251E+02  0.49421707038E+02  0.71482479053E+02  0.47000000000E+01 0. -1.
         -5    1    4    4    0  502 -0.45415755543E+02 -0.53963773411E+02  0.24965135526E+02  0.74966843899E+02  0.47000000000E+01 0. -1.
          5    1    5    5  503    0  0.27285157855E+02  0.67459790877E+02  0.95477780795E+02  0.12013908544E+03  0.47000000000E+01 0.  1.
         -5    1    5    5    0  503 -0.16881232901E+02 -0.51169899716E+02  0.88869638752E+02  0.10403478915E+03  0.47000000000E+01 0.  1.
<mgrwt>
<rscale>  0 0.26536416E+03</rscale>
<asrwt>0</asrwt>
<pdfrwt beam="1">  1        1 0.48412111E-01 0.26536416E+03</pdfrwt>
<pdfrwt beam="2">  1       -1 0.86068414E-02 0.26536416E+03</pdfrwt>
<totfact> 0.62879846E+03</totfact>
</mgrwt>
</event>
<event>
 9    1  0.8122655E-001  0.2771090E+03  0.7818608E-02  0.1097278E+00
         -1   -1    0    0    0  501 -0.00000000000E+00  0.00000000000E+00  0.26197411630E+03  0.26197411630E+03  0.00000000000E+00 0.  1.
          1   -1    0    0  501    0  0.00000000000E+00 -0.00000000000E+00 -0.73279583660E+02  0.73279583660E+02  0.00000000000E+00 0.  1.
         35    2    1    2    0    0 -0.35527136788E-14  0.00000000000E+00  0.18869453264E+03  0.33525369996E+03  0.27710903394E+03 0.  0.
         25    2    3    3    0    0  0.44716008184E-01 -0.53750790629E+02  0.60061363762E+02  0.14884309789E+03  0.12513093494E+03 0.  0.
         25    2    3    3    0    0 -0.44716008184E-01  0.53750790629E+02  0.12863316888E+03  0.18641060208E+03  0.12374680173E+03 0.  0.
          5    1    4    4  502    0 -0.20769562143E+02 -0.81435448228E+01  0.88243169684E+02  0.91140764918E+02  0.47000000000E+01 0.  1.
         -5    1    4    4    0  502  0.20814278151E+02 -0.45607245806E+02 -0.28181805922E+02  0.57702332968E+02  0.47000000000E+01 0.  1.
          5    1    5    5  503    0 -0.52006850177E+02  0.42624517064E+02  0.11165925646E+03  0.13042791677E+03  0.47000000000E+01 0. -1.
         -5    1    5    5    0  503  0.51962134169E+02  0.11126273564E+02  0.16973912418E+02  0.55982685302E+02  0.47000000000E+01 0. -1.
<mgrwt>
<rscale>  0 0.27710903E+03</rscale>
<asrwt>0</asrwt>
<pdfrwt beam="1">  1        1 0.11273782E-01 0.27710903E+03</pdfrwt>
<pdfrwt beam="2">  1       -1 0.40303710E-01 0.27710903E+03</pdfrwt>
<totfact> 0.33098189E+03</totfact>
</mgrwt>
</event>
<event>
 9    1  0.8122655E-001  0.2750573E+03  0.7818608E-02  0.1098420E+00
         -1   -1    0    0    0  501 -0.00000000000E+00  0.00000000000E+00  0.11701137591E+02  0.11701137591E+02  0.00000000000E+00 0.  1.
          1   -1    0    0  501    0  0.00000000000E+00 -0.00000000000E+00 -0.16164352735E+04  0.16164352735E+04  0.00000000000E+00 0.  1.
         35    2    1    2    0    0 -0.53290705182E-14 -0.35527136788E-14 -0.16047341359E+04  0.16281364111E+04  0.27505731433E+03 0.  0.
         25    2    3    3    0    0 -0.41661001233E+01 -0.28786210794E+01 -0.11455229886E+04  0.11523431568E+04  0.12508473505E+03 0.  0.
         25    2    3    3    0    0  0.41661001233E+01  0.28786210794E+01 -0.45921114733E+03  0.47579325423E+03  0.12441342409E+03 0.  0.
          5    1    4    4  502    0 -0.12083744963E+02  0.33330602184E+02 -0.10087215742E+03  0.10702442748E+03  0.47000000000E+01 0. -1.
         -5    1    4    4    0  502  0.79176448400E+01 -0.36209223264E+02 -0.10446508311E+04  0.10453187294E+04  0.47000000000E+01 0. -1.
          5    1    5    5  503    0  0.60864593298E+02 -0.17747963344E+02 -0.21555846551E+03  0.22473769370E+03  0.47000000000E+01 0.  1.
         -5    1    5    5    0  503 -0.56698493175E+02  0.20626584423E+02 -0.24365268182E+03  0.25105556053E+03  0.47000000000E+01 0.  1.
<mgrwt>
<rscale>  0 0.27505731E+03</rscale>
<asrwt>0</asrwt>
<pdfrwt beam="1">  1        1 0.24868223E+00 0.27505731E+03</pdfrwt>
<pdfrwt beam="2">  1       -1 0.18001759E-02 0.27505731E+03</pdfrwt>
<totfact> 0.47960802E+03</totfact>
</mgrwt>
</event>
<event>
 9    1  0.8122655E-001  0.2729029E+03  0.7818608E-02  0.1099630E+00
          2   -1    0    0  501    0  0.00000000000E+00  0.00000000000E+00  0.15955643379E+04  0.15955643379E+04  0.00000000000E+00 0. -1.
         -2   -1    0    0    0  501 -0.00000000000E+00 -0.00000000000E+00 -0.11669225710E+02  0.11669225710E+02  0.00000000000E+00 0. -1.
         35    2    1    2    0    0  0.71054273576E-14  0.00000000000E+00  0.15838951122E+04  0.16072335636E+04  0.27290291602E+03 0.  0.
         25    2    3    3    0    0  0.15564226810E+02 -0.40660480268E+02  0.64152645437E+03  0.65556896179E+03  0.12774565434E+03 0.  0.
         25    2    3    3    0    0 -0.15564226810E+02  0.40660480268E+02  0.94236865783E+03  0.95166460182E+03  0.12534475374E+03 0.  0.
          5    1    4    4  502    0  0.69951835806E+02 -0.18153834792E+02  0.27801663272E+03  0.28729455115E+03  0.47000000000E+01 0. -1.
         -5    1    4    4    0  502 -0.54387608996E+02 -0.22506645476E+02  0.36350982164E+03  0.36827441064E+03  0.47000000000E+01 0. -1.
          5    1    5    5  503    0 -0.71880753161E+01 -0.23055116394E+02  0.71280018543E+03  0.71322464986E+03  0.47000000000E+01 0.  1.
         -5    1    5    5    0  503 -0.83761514934E+01  0.63715596662E+02  0.22956847240E+03  0.23843995196E+03  0.47000000000E+01 0.  1.
<mgrwt>
<rscale>  0 0.27290292E+03</rscale>
<asrwt>0</asrwt>
<pdfrwt beam="1">  1        2 0.24547126E+00 0.27290292E+03</pdfrwt>
<pdfrwt beam="2">  1       -2 0.17952668E-02 0.27290292E+03</pdfrwt>
<totfact> 0.10993752E+04</totfact>
</mgrwt>
</event>
<event>
 9    1  0.8122655E-001  0.2837374E+03  0.7818608E-02  0.1093665E+00
         -1   -1    0    0    0  501 -0.00000000000E+00  0.00000000000E+00  0.29667880125E+02  0.29667880125E+02  0.00000000000E+00 0. -1.
          1   -1    0    0  501    0  0.00000000000E+00 -0.00000000000E+00 -0.67840132945E+03  0.67840132945E+03  0.00000000000E+00 0. -1.
         35    2    1    2    0    0 -0.71054273576E-14  0.71054273576E-14 -0.64873344932E+03  0.70806920957E+03  0.28373740902E+03 0.  0.
         25    2    3    3    0    0 -0.36679353279E+02  0.46251643161E+02 -0.40087230585E+03  0.42417260700E+03  0.12545599019E+03 0.  0.
         25    2    3    3    0    0  0.36679353279E+02 -0.46251643161E+02 -0.24786114347E+03  0.28389660258E+03  0.12521000384E+03 0.  0.
          5    1    4    4  502    0  0.16316290899E+02  0.30453622850E+02 -0.34005633995E+03  0.34183921489E+03  0.47000000000E+01 0.  1.
         -5    1    4    4    0  502 -0.52995644178E+02  0.15798020310E+02 -0.60815965899E+02  0.82333392107E+02  0.47000000000E+01 0.  1.
          5    1    5    5  503    0  0.28045176187E+02 -0.50592600309E+02 -0.29193987465E+02  0.64965544849E+02  0.47000000000E+01 0. -1.
         -5    1    5    5    0  503  0.86341770922E+01  0.43409571486E+01 -0.21866715600E+03  0.21893105773E+03  0.47000000000E+01 0. -1.
<mgrwt>
<rscale>  0 0.28373741E+03</rscale>
<asrwt>0</asrwt>
<pdfrwt beam="1">  1        1 0.10436942E+00 0.28373741E+03</pdfrwt>
<pdfrwt beam="2">  1       -1 0.45642897E-02 0.28373741E+03</pdfrwt>
<totfact> 0.59467030E+03</totfact>
</mgrwt>
</event>
<event>
 9    1  0.8122655E-001  0.2726073E+03  0.7818608E-02  0.1099797E+00
          1   -1    0    0  501    0  0.00000000000E+00  0.00000000000E+00  0.68046775171E+02  0.68046775171E+02  0.00000000000E+00 0. -1.
         -1   -1    0    0    0  501 -0.00000000000E+00 -0.00000000000E+00 -0.27302811102E+03  0.27302811102E+03  0.00000000000E+00 0. -1.
         35    2    1    2    0    0 -0.71054273576E-14 -0.35527136788E-14 -0.20498133585E+03  0.34107488619E+03  0.27260728153E+03 0.  0.
         25    2    3    3    0    0  0.12895568108E+02  0.18997297285E+02 -0.40776663287E+02  0.13339170118E+03  0.12491363695E+03 0.  0.
         25    2    3    3    0    0 -0.12895568108E+02 -0.18997297285E+02 -0.16420467256E+03  0.20768318501E+03  0.12506773310E+03 0.  0.
          5    1    4    4  502    0  0.64608022507E+02  0.33377986097E+02 -0.27598353424E+02  0.77923331806E+02  0.47000000000E+01 0. -1.
         -5    1    4    4    0  502 -0.51712454398E+02 -0.14380688812E+02 -0.13178309863E+02  0.55468369378E+02  0.47000000000E+01 0. -1.
          5    1    5    5  503    0  0.48381967074E+02 -0.26691144896E+02 -0.38383474398E+02  0.67443406355E+02  0.47000000000E+01 0.  1.
         -5    1    5    5    0  503 -0.61277535183E+02  0.76938476112E+01 -0.12582119816E+03  0.14023977865E+03  0.47000000000E+01 0.  1.
<mgrwt>
<rscale>  0 0.27260728E+03</rscale>
<asrwt>0</asrwt>
<pdfrwt beam="1">  1        1 0.10468735E-01 0.27260728E+03</pdfrwt>
<pdfrwt beam="2">  1       -1 0.42004324E-01 0.27260728E+03</pdfrwt>
<totfact> 0.33933701E+03</totfact>
</mgrwt>
</event>
<event>
 9    1  0.8122655E-001  0.2776435E+03  0.7818608E-02  0.1096983E+00
         -1   -1    0    0    0  501 -0.00000000000E+00  0.00000000000E+00  0.12595661049E+02  0.12595661049E+02  0.00000000000E+00 0.  1.
          1   -1    0    0  501    0  0.00000000000E+00 -0.00000000000E+00 -0.15300090450E+04  0.15300090450E+04  0.00000000000E+00 0.  1.
         35    2    1    2    0    0  0.71054273576E-14  0.14210854715E-13 -0.15174133840E+04  0.15426047061E+04  0.27764347882E+03 0.  0.
         25    2    3    3    0    0 -0.19587842943E+02 -0.36905902023E+02 -0.99674602454E+03  0.10054778646E+04  0.12544867306E+03 0.  0.
         25    2    3    3    0    0  0.19587842943E+02  0.36905902023E+02 -0.52066735943E+03  0.53712684147E+03  0.12515995946E+03 0.  0.
          5    1    4    4  502    0 -0.15309637816E+02  0.43719120517E+02 -0.50319502399E+03  0.50534450494E+03  0.47000000000E+01 0.  1.
         -5    1    4    4    0  502 -0.42782051278E+01 -0.80625022540E+02 -0.49355100056E+03  0.50013335966E+03  0.47000000000E+01 0.  1.
          5    1    5    5  503    0  0.54960476525E+02  0.33389550185E+02 -0.13301234429E+03  0.14781708215E+03  0.47000000000E+01 0. -1.
         -5    1    5    5    0  503 -0.35372633582E+02  0.35163518384E+01 -0.38765501514E+03  0.38930975932E+03  0.47000000000E+01 0. -1.
<mgrwt>
<rscale>  0 0.27764348E+03</rscale>
<asrwt>0</asrwt>
<pdfrwt beam="1">  1        1 0.23538592E+00 0.27764348E+03</pdfrwt>
<pdfrwt beam="2">  1       -1 0.19377948E-02 0.27764348E+03</pdfrwt>
<totfact> 0.49099691E+03</totfact>
</mgrwt>
</event>
<event>
 9    1  0.8122655E-001  0.2743577E+03  0.7818608E-02  0.1098811E+00
          2   -1    0    0  501    0  0.00000000000E+00  0.00000000000E+00  0.52010693780E+03  0.52010693780E+03  0.00000000000E+00 0.  1.
         -2   -1    0    0    0  501 -0.00000000000E+00 -0.00000000000E+00 -0.36181101573E+02  0.36181101573E+02  0.00000000000E+00 0.  1.
         35    2    1    2    0    0 -0.14210854715E-13 -0.35527136788E-14  0.48392583623E+03  0.55628803937E+03  0.27435773687E+03 0.  0.
         25    2    3    3    0    0  0.40458749306E+02  0.29779505208E+01  0.33701315514E+03  0.35910172282E+03  0.11717679808E+03 0.  0.
         25    2    3    3    0    0 -0.40458749306E+02 -0.29779505208E+01  0.14691268109E+03  0.19718631656E+03  0.12511326464E+03 0.  0.
          5    1    4    4  502    0  0.17461713266E+01 -0.45831268324E+02  0.23498673633E+03  0.23946692991E+03  0.47000000000E+01 0. -1.
         -5    1    4    4    0  502  0.38712577979E+02  0.48809218845E+02  0.10202641881E+03  0.11963479290E+03  0.47000000000E+01 0. -1.
          5    1    5    5  503    0 -0.79626902280E+02 -0.24480596786E+02  0.73907001543E+02  0.11146334852E+03  0.47000000000E+01 0.  1.
         -5    1    5    5    0  503  0.39168152974E+02  0.21502646266E+02  0.73005679543E+02  0.85722968039E+02  0.47000000000E+01 0.  1.
<mgrwt>
<rscale>  0 0.27435774E+03</rscale>
<asrwt>0</asrwt>
<pdfrwt beam="1">  1        2 0.80016446E-01 0.27435774E+03</pdfrwt>
<pdfrwt beam="2">  1       -2 0.55663237E-02 0.27435774E+03</pdfrwt>
<totfact> 0.98324073E+03</totfact>
</mgrwt>
</event>
<event>
 9    1  0.8122655E-001  0.2748771E+03  0.7818608E-02  0.1098520E+00
         -1   -1    0    0    0  501 -0.00000000000E+00  0.00000000000E+00  0.39376272055E+03  0.39376272055E+03  0.00000000000E+00 0. -1.
          1   -1    0    0  501    0  0.00000000000E+00 -0.00000000000E+00 -0.47971405482E+02  0.47971405482E+02  0.00000000000E+00 0. -1.
         35    2    1    2    0    0 -0.14210854715E-13  0.00000000000E+00  0.34579131507E+03  0.44173412604E+03  0.27487707166E+03 0.  0.
         25    2    3    3    0    0 -0.43396491946E+02 -0.28540856818E+02  0.16983882848E+03  0.21719576044E+03  0.12502373644E+03 0.  0.
         25    2    3    3    0    0  0.43396491946E+02  0.28540856818E+02  0.17595248660E+03  0.22453836560E+03  0.12946182474E+03 0.  0.
          5    1    4    4  502    0 -0.54313914969E+02 -0.60808595393E+02  0.57944322802E+02  0.10013651271E+03  0.47000000000E+01 0. -1.
         -5    1    4    4    0  502  0.10917423023E+02  0.32267738575E+02  0.11189450567E+03  0.11705924773E+03  0.47000000000E+01 0. -1.
          5    1    5    5  503    0  0.44780383723E+02  0.24319655603E+02  0.19647023237E+03  0.20302554180E+03  0.47000000000E+01 0. -1.
         -5    1    5    5    0  503 -0.13838917769E+01  0.42212012153E+01 -0.20517745774E+02  0.21512823799E+02  0.47000000000E+01 0. -1.
<mgrwt>
<rscale>  0 0.27487707E+03</rscale>
<asrwt>0</asrwt>
<pdfrwt beam="1">  1        1 0.73802165E-02 0.27487707E+03</pdfrwt>
<pdfrwt beam="2">  1       -1 0.60578878E-01 0.27487707E+03</pdfrwt>
<totfact> 0.27620477E+03</totfact>
</mgrwt>
</event>
<event>
 9    1  0.8122655E-001  0.2752437E+03  0.7818608E-02  0.1098315E+00
         -2   -1    0    0    0  501 -0.00000000000E+00  0.00000000000E+00  0.15796645301E+02  0.15796645301E+02  0.00000000000E+00 0.  1.
          2   -1    0    0  501    0  0.00000000000E+00 -0.00000000000E+00 -0.11989743192E+04  0.11989743192E+04  0.00000000000E+00 0.  1.
         35    2    1    2    0    0  0.71054273576E-14  0.71054273576E-14 -0.11831776739E+04  0.12147709645E+04  0.27524368872E+03 0.  0.
         25    2    3    3    0    0 -0.17087839194E+01  0.55569984485E+02 -0.54345649808E+03  0.56059917609E+03  0.12583929358E+03 0.  0.
         25    2    3    3    0    0  0.17087839194E+01 -0.55569984485E+02 -0.63972117582E+03  0.65417178841E+03  0.12492638969E+03 0.  0.
          5    1    4    4  502    0  0.45617071363E+02 -0.16968819851E+02 -0.24309842823E+03  0.24796732417E+03  0.47000000000E+01 0.  1.
         -5    1    4    4    0  502 -0.47325855283E+02  0.72538804336E+02 -0.30035806986E+03  0.31263185193E+03  0.47000000000E+01 0.  1.
          5    1    5    5  503    0 -0.94582308557E+01 -0.73426633971E+02 -0.19052085778E+03  0.20445345670E+03  0.47000000000E+01 0. -1.
         -5    1    5    5    0  503  0.11167014775E+02  0.17856649485E+02 -0.44920031804E+03  0.44971833171E+03  0.47000000000E+01 0. -1.
<mgrwt>
<rscale>  0 0.27524369E+03</rscale>
<asrwt>0</asrwt>
<pdfrwt beam="1">  1        2 0.18445761E+00 0.27524369E+03</pdfrwt>
<pdfrwt beam="2">  1       -2 0.24302528E-02 0.27524369E+03</pdfrwt>
<totfact> 0.11581050E+04</totfact>
</mgrwt>
</event>
<event>
 9    1  0.8122655E-001  0.2748097E+03  0.7818608E-02  0.1098558E+00
         -2   -1    0    0    0  501 -0.00000000000E+00  0.00000000000E+00  0.66296902188E+02  0.66296902188E+02  0.00000000000E+00 0. -1.
          2   -1    0    0  501    0  0.00000000000E+00 -0.00000000000E+00 -0.28478094495E+03  0.28478094495E+03  0.00000000000E+00 0. -1.
         35    2    1    2    0    0  0.35527136788E-14  0.71054273576E-14 -0.21848404277E+03  0.35107784714E+03  0.27480971200E+03 0.  0.
         25    2    3    3    0    0  0.43148262000E+01  0.51815620705E+02 -0.13702348697E+03  0.19234353939E+03  0.12456775221E+03 0.  0.
         25    2    3    3    0    0 -0.43148262000E+01 -0.51815620705E+02 -0.81460555795E+02  0.15873430775E+03  0.12592570044E+03 0.  0.
          5    1    4    4  502    0 -0.20501255987E+02 -0.36570668387E+02 -0.33286280075E+02  0.53738084489E+02  0.47000000000E+01 0. -1.
         -5    1    4    4    0  502  0.24816082187E+02  0.88386289092E+02 -0.10373720689E+03  0.13860545490E+03  0.47000000000E+01 0. -1.
          5    1    5    5  503    0 -0.22660591341E+02 -0.83617193822E+02 -0.23368665135E+02  0.89852779661E+02  0.47000000000E+01 0. -1.
         -5    1    5    5    0  503  0.18345765141E+02  0.31801573118E+02 -0.58091890660E+02  0.68881528088E+02  0.47000000000E+01 0. -1.
<mgrwt>
<rscale>  0 0.27480971E+03</rscale>
<asrwt>0</asrwt>
<pdfrwt beam="1">  1        2 0.43812453E-01 0.27480971E+03</pdfrwt>
<pdfrwt beam="2">  1       -2 0.10199524E-01 0.27480971E+03</pdfrwt>
<totfact> 0.73826926E+03</totfact>
</mgrwt>
</event>
<event>
 9    1  0.8122655E-001  0.2672730E+03  0.7818608E-02  0.1102851E+00
         -1   -1    0    0    0  501 -0.00000000000E+00  0.00000000000E+00  0.17780646000E+02  0.17780646000E+02  0.00000000000E+00 0. -1.
          1   -1    0    0  501    0  0.00000000000E+00 -0.00000000000E+00 -0.10043906449E+04  0.10043906449E+04  0.00000000000E+00 0. -1.
         35    2    1    2    0    0  0.00000000000E+00 -0.14210854715E-13 -0.98660999887E+03  0.10221712909E+04  0.26727300276E+03 0.  0.
         25    2    3    3    0    0  0.21592814552E+02  0.39310464455E+02 -0.54632609627E+03  0.56242932437E+03  0.12586889686E+03 0.  0.
         25    2    3    3    0    0 -0.21592814552E+02 -0.39310464455E+02 -0.44028390260E+03  0.45974196649E+03  0.12450380962E+03 0.  0.
          5    1    4    4  502    0 -0.72797419550E+01  0.79245503738E+02 -0.26317855198E+03  0.27498706284E+03  0.47000000000E+01 0. -1.
         -5    1    4    4    0  502  0.28872556507E+02 -0.39935039282E+02 -0.28314754429E+03  0.28744226154E+03  0.47000000000E+01 0. -1.
          5    1    5    5  503    0 -0.12635142524E+02 -0.79686976152E+02 -0.36376006278E+03  0.37263002330E+03  0.47000000000E+01 0.  1.
         -5    1    5    5    0  503 -0.89576720283E+01  0.40376511697E+02 -0.76523839822E+02  0.87111943188E+02  0.47000000000E+01 0.  1.
<mgrwt>
<rscale>  0 0.26727300E+03</rscale>
<asrwt>0</asrwt>
<pdfrwt beam="1">  1        1 0.15452167E+00 0.26727300E+03</pdfrwt>
<pdfrwt beam="2">  1       -1 0.27354834E-02 0.26727300E+03</pdfrwt>
<totfact> 0.68507036E+03</totfact>
</mgrwt>
</event>
<event>
 9    1  0.8122655E-001  0.2728153E+03  0.7818608E-02  0.1099679E+00
         -1   -1    0    0    0  501 -0.00000000000E+00  0.00000000000E+00  0.13471051901E+02  0.13471051901E+02  0.00000000000E+00 0.  1.
          1   -1    0    0  501    0  0.00000000000E+00 -0.00000000000E+00 -0.13812614048E+04  0.13812614048E+04  0.00000000000E+00 0.  1.
         35    2    1    2    0    0 -0.35527136788E-14 -0.71054273576E-14 -0.13677903529E+04  0.13947324567E+04  0.27281527871E+03 0.  0.
         25    2    3    3    0    0  0.24494311214E+02 -0.47444356487E+02 -0.75180400003E+03  0.76396585311E+03  0.12483441840E+03 0.  0.
         25    2    3    3    0    0 -0.24494311214E+02  0.47444356487E+02 -0.61598635289E+03  0.63076660361E+03  0.12480538065E+03 0.  0.
          5    1    4    4  502    0  0.49472016707E+02  0.25819138167E+02 -0.24922786722E+03  0.25544222073E+03  0.47000000000E+01 0. -1.
         -5    1    4    4    0  502 -0.24977705493E+02 -0.73263494654E+02 -0.50257613281E+03  0.50852363238E+03  0.47000000000E+01 0. -1.
          5    1    5    5  503    0  0.19137518081E+02  0.77048375693E+02 -0.29926624332E+03  0.30965314657E+03  0.47000000000E+01 0. -1.
         -5    1    5    5    0  503 -0.43631829296E+02 -0.29604019206E+02 -0.31672010958E+03  0.32111345704E+03  0.47000000000E+01 0. -1.
<mgrwt>
<rscale>  0 0.27281528E+03</rscale>
<asrwt>0</asrwt>
<pdfrwt beam="1">  1        1 0.21250176E+00 0.27281528E+03</pdfrwt>
<pdfrwt beam="2">  1       -1 0.20724694E-02 0.27281528E+03</pdfrwt>
<totfact> 0.55913379E+03</totfact>
</mgrwt>
</event>
