<event>
 4    1  0.1866622E-004  0.2954411E+03  0.7818608E-02  0.1087542E+00
         -2   -1    0    0    0  501 -0.00000000000E+00  0.00000000000E+00  0.23582310962E+03  0.23582310962E+03  0.00000000000E+00 0.  1.
          2   -1    0    0  501    0  0.00000000000E+00 -0.00000000000E+00 -0.92532776275E+02  0.92532776275E+02  0.00000000000E+00 0.  1.
         25    1    1    2    0    0 -0.70041121561E+02  0.34837514239E+02  0.11174771544E+03  0.18167818530E+03  0.12000000000E+03 0.  0.
         25    1    1    2    0    0  0.70041121561E+02 -0.34837514239E+02  0.31542617908E+02  0.14667770060E+03  0.12000000000E+03 0.  0.
<mgrwt>
<rscale>  0 0.29544114E+03</rscale>
<asrwt>0</asrwt>
<pdfrwt beam="1">  1        2 0.14235812E-01 0.29544114E+03</pdfrwt>
<pdfrwt beam="2">  1       -2 0.36280478E-01 0.29544114E+03</pdfrwt>
<totfact> 0.29751043E+03</totfact>
</mgrwt>
</event>
<event>
 4    1  0.1866622E-004  0.3048284E+03  0.7818608E-02  0.1082852E+00
          2   -1    0    0  501    0  0.00000000000E+00  0.00000000000E+00  0.43943814394E+03  0.43943814394E+03  0.00000000000E+00 0.  1.
         -2   -1    0    0    0  501 -0.00000000000E+00 -0.00000000000E+00 -0.52863169154E+02  0.52863169154E+02  0.00000000000E+00 0.  1.
         25    1    1    2    0    0  0.98878220642E+01 -0.81159283013E+02  0.11848100267E+03  0.18740956816E+03  0.12000000000E+03 0.  0.
         25    1    1    2    0    0 -0.98878220642E+01  0.81159283013E+02  0.26809397212E+03  0.30489174494E+03  0.12000000000E+03 0.  0.
<mgrwt>
<rscale>  0 0.30482843E+03</rscale>
<asrwt>0</asrwt>
<pdfrwt beam="1">  1        2 0.67605866E-01 0.30482843E+03</pdfrwt>
<pdfrwt beam="2">  1       -2 0.81327955E-02 0.30482843E+03</pdfrwt>
<totfact> 0.66206676E+03</totfact>
</mgrwt>
</event>
<event>
 4    1  0.1866622E-004  0.2980481E+03  0.7818608E-02  0.1086220E+00
         -1   -1    0    0    0  501 -0.00000000000E+00  0.00000000000E+00  0.25474381421E+03  0.25474381421E+03  0.00000000000E+00 0. -1.
          1   -1    0    0  501    0  0.00000000000E+00 -0.00000000000E+00 -0.87178449102E+02  0.87178449102E+02  0.00000000000E+00 0. -1.
         25    1    1    2    0    0 -0.57917387783E+02 -0.54932529581E+02  0.12725802516E+03  0.19226703197E+03  0.12000000000E+03 0.  0.
         25    1    1    2    0    0  0.57917387783E+02  0.54932529581E+02  0.40307339941E+02  0.14965523134E+03  0.12000000000E+03 0.  0.
<mgrwt>
<rscale>  0 0.29804812E+03</rscale>
<asrwt>0</asrwt>
<pdfrwt beam="1">  1        1 0.13412069E-01 0.29804812E+03</pdfrwt>
<pdfrwt beam="2">  1       -1 0.39191356E-01 0.29804812E+03</pdfrwt>
<totfact> 0.27656628E+03</totfact>
</mgrwt>
</event>
<event>
 4    1  0.1866622E-004  0.2767096E+03  0.7818608E-02  0.1097500E+00
         -4   -1    0    0    0  501 -0.00000000000E+00  0.00000000000E+00  0.40099229979E+03  0.40099229979E+03  0.00000000000E+00 0.  1.
          4   -1    0    0  501    0  0.00000000000E+00 -0.00000000000E+00 -0.47736693638E+02  0.47736693638E+02  0.00000000000E+00 0.  1.
         25    1    1    2    0    0  0.43350305220E+02  0.51391894869E+02  0.20077207659E+03  0.24337173739E+03  0.12000000000E+03 0.  0.
         25    1    1    2    0    0 -0.43350305220E+02 -0.51391894869E+02  0.15248352957E+03  0.20535725604E+03  0.12000000000E+03 0.  0.
<mgrwt>
<rscale>  0 0.27670957E+03</rscale>
<asrwt>0</asrwt>
<pdfrwt beam="1">  1        4 0.73441070E-02 0.27670957E+03</pdfrwt>
<pdfrwt beam="2">  1       -4 0.61691121E-01 0.27670957E+03</pdfrwt>
<totfact> 0.59706366E+02</totfact>
</mgrwt>
</event>
<event>
 4    1  0.1866622E-004  0.4738092E+03  0.7818608E-02  0.1020851E+00
          1   -1    0    0  501    0  0.00000000000E+00  0.00000000000E+00  0.44190744071E+02  0.44190744071E+02  0.00000000000E+00 0.  1.
         -1   -1    0    0    0  501 -0.00000000000E+00 -0.00000000000E+00 -0.12700350237E+04  0.12700350237E+04  0.00000000000E+00 0.  1.
         25    1    1    2    0    0 -0.59745262648E+02 -0.54883292117E+02 -0.92949540489E+02  0.17210836482E+03  0.12000000000E+03 0.  0.
         25    1    1    2    0    0  0.59745262648E+02  0.54883292117E+02 -0.11328947391E+04  0.11421174029E+04  0.12000000000E+03 0.  0.
<mgrwt>
<rscale>  0 0.47380921E+03</rscale>
<asrwt>0</asrwt>
<pdfrwt beam="1">  1        1 0.67985754E-02 0.47380921E+03</pdfrwt>
<pdfrwt beam="2">  1       -1 0.19539002E+00 0.47380921E+03</pdfrwt>
<totfact> 0.19270245E+02</totfact>
</mgrwt>
</event>
<event>
 4    1  0.1866622E-004  0.2443322E+03  0.7818608E-02  0.1116940E+00
         -4   -1    0    0    0  501 -0.00000000000E+00  0.00000000000E+00  0.70164436309E+01  0.70164436309E+01  0.00000000000E+00 0. -1.
          4   -1    0    0  501    0  0.00000000000E+00 -0.00000000000E+00 -0.21270835386E+04  0.21270835386E+04  0.00000000000E+00 0. -1.
         25    1    1    2    0    0  0.12534411566E+01  0.79897618492E+01 -0.87287342592E+03  0.88112055082E+03  0.12000000000E+03 0.  0.
         25    1    1    2    0    0 -0.12534411566E+01 -0.79897618492E+01 -0.12471936690E+04  0.12529794314E+04  0.12000000000E+03 0.  0.
<mgrwt>
<rscale>  0 0.24433225E+03</rscale>
<asrwt>0</asrwt>
<pdfrwt beam="1">  1        4 0.32724327E+00 0.24433225E+03</pdfrwt>
<pdfrwt beam="2">  1       -4 0.10794540E-02 0.24433225E+03</pdfrwt>
<totfact> 0.12108547E+02</totfact>
</mgrwt>
</event>
<event>
 4    1  0.1866622E-004  0.2874191E+03  0.7818608E-02  0.1091704E+00
          2   -1    0    0  501    0  0.00000000000E+00  0.00000000000E+00  0.11115392840E+04  0.11115392840E+04  0.00000000000E+00 0.  1.
         -2   -1    0    0    0  501 -0.00000000000E+00 -0.00000000000E+00 -0.18580031288E+02  0.18580031288E+02  0.00000000000E+00 0.  1.
         25    1    1    2    0    0  0.17309481228E+02  0.27943365362E+02  0.82925220760E+03  0.83853424117E+03  0.12000000000E+03 0.  0.
         25    1    1    2    0    0 -0.17309481228E+02 -0.27943365362E+02  0.26370704515E+03  0.29158507416E+03  0.12000000000E+03 0.  0.
<mgrwt>
<rscale>  0 0.28741910E+03</rscale>
<asrwt>0</asrwt>
<pdfrwt beam="1">  1        2 0.17100599E+00 0.28741910E+03</pdfrwt>
<pdfrwt beam="2">  1       -2 0.28584672E-02 0.28741910E+03</pdfrwt>
<totfact> 0.10236459E+04</totfact>
</mgrwt>
</event>
<event>
 4    1  0.1866622E-004  0.4782810E+03  0.7818608E-02  0.1019609E+00
         -2   -1    0    0    0  501 -0.00000000000E+00  0.00000000000E+00  0.15115581494E+03  0.15115581494E+03  0.00000000000E+00 0. -1.
          2   -1    0    0  501    0  0.00000000000E+00 -0.00000000000E+00 -0.37833923093E+03  0.37833923093E+03  0.00000000000E+00 0. -1.
         25    1    1    2    0    0  0.23969205381E+02 -0.13224786111E+03  0.60484540250E+02  0.19005893608E+03  0.12000000000E+03 0.  0.
         25    1    1    2    0    0 -0.23969205381E+02  0.13224786111E+03 -0.28766795624E+03  0.33943610978E+03  0.12000000000E+03 0.  0.
<mgrwt>
<rscale>  0 0.47828098E+03</rscale>
<asrwt>0</asrwt>
<pdfrwt beam="1">  1        2 0.58206035E-01 0.47828098E+03</pdfrwt>
<pdfrwt beam="2">  1       -2 0.23254741E-01 0.47828098E+03</pdfrwt>
<totfact> 0.13799665E+03</totfact>
</mgrwt>
</event>
<event>
 4    1  0.1866622E-004  0.2819290E+03  0.7818608E-02  0.1094640E+00
         -2   -1    0    0    0  501 -0.00000000000E+00  0.00000000000E+00  0.36723111402E+02  0.36723111402E+02  0.00000000000E+00 0. -1.
          2   -1    0    0  501    0  0.00000000000E+00 -0.00000000000E+00 -0.54110307449E+03  0.54110307449E+03  0.00000000000E+00 0. -1.
         25    1    1    2    0    0  0.34673848037E+02  0.66116214047E+01 -0.38541040315E+03  0.40520015811E+03  0.12000000000E+03 0.  0.
         25    1    1    2    0    0 -0.34673848037E+02 -0.66116214047E+01 -0.11896955993E+03  0.17262602777E+03  0.12000000000E+03 0.  0.
<mgrwt>
<rscale>  0 0.28192899E+03</rscale>
<asrwt>0</asrwt>
<pdfrwt beam="1">  1        2 0.83246624E-01 0.28192899E+03</pdfrwt>
<pdfrwt beam="2">  1       -2 0.56497096E-02 0.28192899E+03</pdfrwt>
<totfact> 0.91998986E+03</totfact>
</mgrwt>
</event>
<event>
 4    1  0.1866622E-004  0.2640969E+03  0.7818608E-02  0.1104706E+00
          1   -1    0    0  501    0  0.00000000000E+00  0.00000000000E+00  0.63185880510E+03  0.63185880510E+03  0.00000000000E+00 0.  1.
         -1   -1    0    0    0  501 -0.00000000000E+00 -0.00000000000E+00 -0.27596018026E+02  0.27596018026E+02  0.00000000000E+00 0.  1.
         25    1    1    2    0    0 -0.17559940754E+02  0.28151655828E+02  0.41199794564E+03  0.43039885508E+03  0.12000000000E+03 0.  0.
         25    1    1    2    0    0  0.17559940754E+02 -0.28151655828E+02  0.19226484144E+03  0.22905596805E+03  0.12000000000E+03 0.  0.
<mgrwt>
<rscale>  0 0.26409685E+03</rscale>
<asrwt>0</asrwt>
<pdfrwt beam="1">  1        1 0.97209036E-01 0.26409685E+03</pdfrwt>
<pdfrwt beam="2">  1       -1 0.42455417E-02 0.26409685E+03</pdfrwt>
<totfact> 0.73169213E+03</totfact>
</mgrwt>
</event>
<event>
 4    1  0.1866622E-004  0.2599936E+03  0.7818608E-02  0.1107147E+00
          1   -1    0    0  501    0  0.00000000000E+00  0.00000000000E+00  0.29492485800E+03  0.29492485800E+03  0.00000000000E+00 0.  1.
         -1   -1    0    0    0  501 -0.00000000000E+00 -0.00000000000E+00 -0.57299912079E+02  0.57299912079E+02  0.00000000000E+00 0.  1.
         25    1    1    2    0    0  0.31057757078E+02  0.39014917651E+02  0.12358693355E+03  0.17933342750E+03  0.12000000000E+03 0.  0.
         25    1    1    2    0    0 -0.31057757078E+02 -0.39014917651E+02  0.11403801237E+03  0.17289134258E+03  0.12000000000E+03 0.  0.
<mgrwt>
<rscale>  0 0.25999360E+03</rscale>
<asrwt>0</asrwt>
<pdfrwt beam="1">  1        1 0.45373054E-01 0.25999360E+03</pdfrwt>
<pdfrwt beam="2">  1       -1 0.88153712E-02 0.25999360E+03</pdfrwt>
<totfact> 0.65712320E+03</totfact>
</mgrwt>
</event>
<event>
 4    1  0.1866622E-004  0.3121527E+03  0.7818608E-02  0.1079319E+00
          2   -1    0    0  501    0  0.00000000000E+00  0.00000000000E+00  0.26836509249E+03  0.26836509249E+03  0.00000000000E+00 0.  1.
         -2   -1    0    0    0  501 -0.00000000000E+00 -0.00000000000E+00 -0.90771241040E+02  0.90771241040E+02  0.00000000000E+00 0.  1.
         25    1    1    2    0    0 -0.41490351564E+01  0.15601006902E+02 -0.24511120919E+02  0.12353704286E+03  0.12000000000E+03 0.  0.
         25    1    1    2    0    0  0.41490351564E+01 -0.15601006902E+02  0.20210497237E+03  0.23559929067E+03  0.12000000000E+03 0.  0.
<mgrwt>
<rscale>  0 0.31215274E+03</rscale>
<asrwt>0</asrwt>
<pdfrwt beam="1">  1        2 0.41286937E-01 0.31215274E+03</pdfrwt>
<pdfrwt beam="2">  1       -2 0.13964806E-01 0.31215274E+03</pdfrwt>
<totfact> 0.47545779E+03</totfact>
</mgrwt>
</event>
<event>
 4    1  0.1866622E-004  0.2498846E+03  0.7818608E-02  0.1113378E+00
         -1   -1    0    0    0  501 -0.00000000000E+00  0.00000000000E+00  0.12862451156E+03  0.12862451156E+03  0.00000000000E+00 0. -1.
          1   -1    0    0  501    0  0.00000000000E+00 -0.00000000000E+00 -0.12136548246E+03  0.12136548246E+03  0.00000000000E+00 0. -1.
         25    1    1    2    0    0 -0.29524850127E+02 -0.12774049151E+02 -0.96306155293E+01  0.12460995892E+03  0.12000000000E+03 0.  0.
         25    1    1    2    0    0  0.29524850127E+02  0.12774049151E+02  0.16889644627E+02  0.12538003510E+03  0.12000000000E+03 0.  0.
<mgrwt>
<rscale>  0 0.24988458E+03</rscale>
<asrwt>0</asrwt>
<pdfrwt beam="1">  1        1 0.18671613E-01 0.24988458E+03</pdfrwt>
<pdfrwt beam="2">  1       -1 0.19788386E-01 0.24988458E+03</pdfrwt>
<totfact> 0.56596937E+03</totfact>
</mgrwt>
</event>
<event>
 4    1  0.1866622E-004  0.2473967E+03  0.7818608E-02  0.1114961E+00
          2   -1    0    0  501    0  0.00000000000E+00  0.00000000000E+00  0.13192875112E+03  0.13192875112E+03  0.00000000000E+00 0.  1.
         -2   -1    0    0    0  501 -0.00000000000E+00 -0.00000000000E+00 -0.11598139136E+03  0.11598139136E+03  0.00000000000E+00 0.  1.
         25    1    1    2    0    0  0.24460826360E+02  0.16565123153E+02  0.13327500290E+02  0.12429946740E+03  0.12000000000E+03 0.  0.
         25    1    1    2    0    0 -0.24460826360E+02 -0.16565123153E+02  0.26198594753E+01  0.12361067508E+03  0.12000000000E+03 0.  0.
<mgrwt>
<rscale>  0 0.24739669E+03</rscale>
<asrwt>0</asrwt>
<pdfrwt beam="1">  1        2 0.20296731E-01 0.24739669E+03</pdfrwt>
<pdfrwt beam="2">  1       -2 0.17843291E-01 0.24739669E+03</pdfrwt>
<totfact> 0.68772677E+03</totfact>
</mgrwt>
</event>
<event>
 4    1  0.1866622E-004  0.2589030E+03  0.7818608E-02  0.1107804E+00
          1   -1    0    0  501    0  0.00000000000E+00  0.00000000000E+00  0.48044800707E+02  0.48044800707E+02  0.00000000000E+00 0. -1.
         -1   -1    0    0    0  501 -0.00000000000E+00 -0.00000000000E+00 -0.34879299674E+03  0.34879299674E+03  0.00000000000E+00 0. -1.
         25    1    1    2    0    0  0.19071218590E+01  0.46078354959E+02 -0.12708623110E+03  0.18076991466E+03  0.12000000000E+03 0.  0.
         25    1    1    2    0    0 -0.19071218590E+01 -0.46078354959E+02 -0.17366196492E+03  0.21606788278E+03  0.12000000000E+03 0.  0.
<mgrwt>
<rscale>  0 0.25890299E+03</rscale>
<asrwt>0</asrwt>
<pdfrwt beam="1">  1        1 0.73915078E-02 0.25890299E+03</pdfrwt>
<pdfrwt beam="2">  1       -1 0.53660461E-01 0.25890299E+03</pdfrwt>
<totfact> 0.34648998E+03</totfact>
</mgrwt>
</event>
<event>
 4    1  0.1866622E-004  0.2580072E+03  0.7818608E-02  0.1108347E+00
         -2   -1    0    0    0  501 -0.00000000000E+00  0.00000000000E+00  0.11766604713E+02  0.11766604713E+02  0.00000000000E+00 0.  1.
          2   -1    0    0  501    0  0.00000000000E+00 -0.00000000000E+00 -0.14143353958E+04  0.14143353958E+04  0.00000000000E+00 0.  1.
         25    1    1    2    0    0  0.17101962574E+02 -0.13655368062E+02 -0.46920188339E+03  0.48479826070E+03  0.12000000000E+03 0.  0.
         25    1    1    2    0    0 -0.17101962574E+02  0.13655368062E+02 -0.93336690769E+03  0.94130373980E+03  0.12000000000E+03 0.  0.
<mgrwt>
<rscale>  0 0.25800717E+03</rscale>
<asrwt>0</asrwt>
<pdfrwt beam="1">  1        2 0.21758996E+00 0.25800717E+03</pdfrwt>
<pdfrwt beam="2">  1       -2 0.18102477E-02 0.25800717E+03</pdfrwt>
<totfact> 0.13556487E+04</totfact>
</mgrwt>
</event>
<event>
 4    1  0.1866622E-004  0.2539895E+03  0.7818608E-02  0.1110809E+00
         -1   -1    0    0    0  501 -0.00000000000E+00  0.00000000000E+00  0.29312465938E+02  0.29312465938E+02  0.00000000000E+00 0.  1.
          1   -1    0    0  501    0  0.00000000000E+00 -0.00000000000E+00 -0.55019831605E+03  0.55019831605E+03  0.00000000000E+00 0.  1.
         25    1    1    2    0    0 -0.16816862138E+02  0.34306728397E+02 -0.29778865370E+03  0.32332312126E+03  0.12000000000E+03 0.  0.
         25    1    1    2    0    0  0.16816862138E+02 -0.34306728397E+02 -0.22309719641E+03  0.25618766073E+03  0.12000000000E+03 0.  0.
<mgrwt>
<rscale>  0 0.25398952E+03</rscale>
<asrwt>0</asrwt>
<pdfrwt beam="1">  1        1 0.84645899E-01 0.25398952E+03</pdfrwt>
<pdfrwt beam="2">  1       -1 0.45096099E-02 0.25398952E+03</pdfrwt>
<totfact> 0.80846732E+03</totfact>
</mgrwt>
</event>
<event>
 4    1  0.1866622E-004  0.4357917E+03  0.7818608E-02  0.1032046E+00
          1   -1    0    0  501    0  0.00000000000E+00  0.00000000000E+00  0.14678207307E+04  0.14678207307E+04  0.00000000000E+00 0. -1.
         -1   -1    0    0    0  501 -0.00000000000E+00 -0.00000000000E+00 -0.32346315684E+02  0.32346315684E+02  0.00000000000E+00 0. -1.
         25    1    1    2    0    0  0.42967834953E+02 -0.17598521475E+03  0.66206376334E+03  0.69681091939E+03  0.12000000000E+03 0.  0.
         25    1    1    2    0    0 -0.42967834953E+02  0.17598521475E+03  0.77341065164E+03  0.80335612696E+03  0.12000000000E+03 0.  0.
<mgrwt>
<rscale>  0 0.43579166E+03</rscale>
<asrwt>0</asrwt>
<pdfrwt beam="1">  1        1 0.22581852E+00 0.43579166E+03</pdfrwt>
<pdfrwt beam="2">  1       -1 0.49763574E-02 0.43579166E+03</pdfrwt>
<totfact> 0.13240744E+03</totfact>
</mgrwt>
</event>
<event>
 4    1  0.1866622E-004  0.2569669E+03  0.7818608E-02  0.1108979E+00
         -2   -1    0    0    0  501 -0.00000000000E+00  0.00000000000E+00  0.11761089715E+03  0.11761089715E+03  0.00000000000E+00 0. -1.
          2   -1    0    0  501    0  0.00000000000E+00 -0.00000000000E+00 -0.14036116064E+03  0.14036116064E+03  0.00000000000E+00 0. -1.
         25    1    1    2    0    0 -0.10738380527E+02 -0.43095654623E+02 -0.23059115785E+02  0.13001642621E+03  0.12000000000E+03 0.  0.
         25    1    1    2    0    0  0.10738380527E+02  0.43095654623E+02  0.30885230105E+00  0.12795563158E+03  0.12000000000E+03 0.  0.
<mgrwt>
<rscale>  0 0.25696694E+03</rscale>
<asrwt>0</asrwt>
<pdfrwt beam="1">  1        2 0.21594025E-01 0.25696694E+03</pdfrwt>
<pdfrwt beam="2">  1       -2 0.18093984E-01 0.25696694E+03</pdfrwt>
<totfact> 0.62705458E+03</totfact>
</mgrwt>
</event>
<event>
 4    1  0.1866622E-004  0.2452156E+03  0.7818608E-02  0.1116366E+00
          2   -1    0    0  501    0  0.00000000000E+00  0.00000000000E+00  0.29200179245E+03  0.29200179245E+03  0.00000000000E+00 0.  1.
         -2   -1    0    0    0  501 -0.00000000000E+00 -0.00000000000E+00 -0.51481432534E+02  0.51481432534E+02  0.00000000000E+00 0.  1.
         25    1    1    2    0    0  0.19932522953E+02 -0.15112716668E+01  0.14164526863E+03  0.18671628622E+03  0.12000000000E+03 0.  0.
         25    1    1    2    0    0 -0.19932522953E+02  0.15112716668E+01  0.98875091283E+02  0.15676693876E+03  0.12000000000E+03 0.  0.
<mgrwt>
<rscale>  0 0.24521558E+03</rscale>
<asrwt>0</asrwt>
<pdfrwt beam="1">  1        2 0.44923352E-01 0.24521558E+03</pdfrwt>
<pdfrwt beam="2">  1       -2 0.79202205E-02 0.24521558E+03</pdfrwt>
<totfact> 0.10650004E+04</totfact>
</mgrwt>
</event>
<event>
 4    1  0.1866622E-004  0.3086296E+03  0.7818608E-02  0.1081005E+00
          2   -1    0    0  501    0  0.00000000000E+00  0.00000000000E+00  0.33059977305E+04  0.33059977305E+04  0.00000000000E+00 0. -1.
         -2   -1    0    0    0  501 -0.00000000000E+00 -0.00000000000E+00 -0.72029879685E+01  0.72029879685E+01  0.00000000000E+00 0. -1.
         25    1    1    2    0    0  0.26766214931E+02  0.88880578878E+02  0.19524409213E+04  0.19583262595E+04  0.12000000000E+03 0.  0.
         25    1    1    2    0    0 -0.26766214931E+02 -0.88880578878E+02  0.13463538213E+04  0.13548744590E+04  0.12000000000E+03 0.  0.
<mgrwt>
<rscale>  0 0.30862963E+03</rscale>
<asrwt>0</asrwt>
<pdfrwt beam="1">  1        2 0.50861383E+00 0.30862963E+03</pdfrwt>
<pdfrwt beam="2">  1       -2 0.11081546E-02 0.30862963E+03</pdfrwt>
<totfact> 0.24758281E+03</totfact>
</mgrwt>
</event>
<event>
 4    1  0.1866622E-004  0.2511769E+03  0.7818608E-02  0.1112563E+00
         -2   -1    0    0    0  501 -0.00000000000E+00  0.00000000000E+00  0.89975983503E+02  0.89975983503E+02  0.00000000000E+00 0. -1.
          2   -1    0    0  501    0  0.00000000000E+00 -0.00000000000E+00 -0.17529637886E+03  0.17529637886E+03  0.00000000000E+00 0. -1.
         25    1    1    2    0    0 -0.28501364068E+02 -0.13636946322E+02 -0.22231215147E+02  0.12606554242E+03  0.12000000000E+03 0.  0.
         25    1    1    2    0    0  0.28501364068E+02  0.13636946322E+02 -0.63089180209E+02  0.13920681994E+03  0.12000000000E+03 0.  0.
<mgrwt>
<rscale>  0 0.25117694E+03</rscale>
<asrwt>0</asrwt>
<pdfrwt beam="1">  1        2 0.26968674E-01 0.25117694E+03</pdfrwt>
<pdfrwt beam="2">  1       -2 0.13842459E-01 0.25117694E+03</pdfrwt>
<totfact> 0.76188518E+03</totfact>
</mgrwt>
</event>
<event>
 4    1  0.1866622E-004  0.2800507E+03  0.7818608E-02  0.1095661E+00
         -4   -1    0    0    0  501 -0.00000000000E+00  0.00000000000E+00  0.14781008621E+03  0.14781008621E+03  0.00000000000E+00 0.  1.
          4   -1    0    0  501    0  0.00000000000E+00 -0.00000000000E+00 -0.13265064719E+03  0.13265064719E+03  0.00000000000E+00 0.  1.
         25    1    1    2    0    0 -0.14264257008E+02  0.70651564733E+02  0.11047587074E+02  0.14041781157E+03  0.12000000000E+03 0.  0.
         25    1    1    2    0    0  0.14264257008E+02 -0.70651564733E+02  0.41118519414E+01  0.14004292183E+03  0.12000000000E+03 0.  0.
<mgrwt>
<rscale>  0 0.28005074E+03</rscale>
<asrwt>0</asrwt>
<pdfrwt beam="1">  1        4 0.20407792E-01 0.28005074E+03</pdfrwt>
<pdfrwt beam="2">  1       -4 0.22740013E-01 0.28005074E+03</pdfrwt>
<totfact> 0.72989218E+02</totfact>
</mgrwt>
</event>
<event>
 4    1  0.1866622E-004  0.3417522E+03  0.7818608E-02  0.1066052E+00
         -1   -1    0    0    0  501 -0.00000000000E+00  0.00000000000E+00  0.40383747236E+02  0.40383747236E+02  0.00000000000E+00 0.  1.
          1   -1    0    0  501    0  0.00000000000E+00 -0.00000000000E+00 -0.72302952076E+03  0.72302952076E+03  0.00000000000E+00 0.  1.
         25    1    1    2    0    0  0.58786361404E+01 -0.78157801139E+02 -0.13350018326E+03  0.19587112899E+03  0.12000000000E+03 0.  0.
         25    1    1    2    0    0 -0.58786361404E+01  0.78157801139E+02 -0.54914559026E+03  0.56754213901E+03  0.12000000000E+03 0.  0.
<mgrwt>
<rscale>  0 0.34175220E+03</rscale>
<asrwt>0</asrwt>
<pdfrwt beam="1">  1        1 0.11123531E+00 0.34175220E+03</pdfrwt>
<pdfrwt beam="2">  1       -1 0.62128843E-02 0.34175220E+03</pdfrwt>
<totfact> 0.34144575E+03</totfact>
</mgrwt>
</event>
<event>
 4    1  0.1866622E-004  0.3408874E+03  0.7818608E-02  0.1066419E+00
          2   -1    0    0  501    0  0.00000000000E+00  0.00000000000E+00  0.27101974113E+03  0.27101974113E+03  0.00000000000E+00 0. -1.
         -2   -1    0    0    0  501 -0.00000000000E+00 -0.00000000000E+00 -0.10719167645E+03  0.10719167645E+03  0.00000000000E+00 0. -1.
         25    1    1    2    0    0 -0.59904601961E+02 -0.10483683904E+03  0.91311113237E+02  0.19317619822E+03  0.12000000000E+03 0.  0.
         25    1    1    2    0    0  0.59904601961E+02  0.10483683904E+03  0.72516951449E+02  0.18503521936E+03  0.12000000000E+03 0.  0.
<mgrwt>
<rscale>  0 0.34088743E+03</rscale>
<asrwt>0</asrwt>
<pdfrwt beam="1">  1        2 0.41695345E-01 0.34088743E+03</pdfrwt>
<pdfrwt beam="2">  1       -2 0.16491027E-01 0.34088743E+03</pdfrwt>
<totfact> 0.35766705E+03</totfact>
</mgrwt>
</event>
<event>
 4    1  0.1866622E-004  0.2891417E+03  0.7818608E-02  0.1090798E+00
          2   -1    0    0  501    0  0.00000000000E+00  0.00000000000E+00  0.20915709701E+02  0.20915709701E+02  0.00000000000E+00 0.  1.
         -2   -1    0    0    0  501 -0.00000000000E+00 -0.00000000000E+00 -0.99928379141E+03  0.99928379141E+03  0.00000000000E+00 0.  1.
         25    1    1    2    0    0 -0.51730502534E+02 -0.55102358538E+02 -0.39011184397E+03  0.41508982837E+03  0.12000000000E+03 0.  0.
         25    1    1    2    0    0  0.51730502534E+02  0.55102358538E+02 -0.58825623774E+03  0.60510967274E+03  0.12000000000E+03 0.  0.
<mgrwt>
<rscale>  0 0.28914169E+03</rscale>
<asrwt>0</asrwt>
<pdfrwt beam="1">  1        2 0.32178013E-02 0.28914169E+03</pdfrwt>
<pdfrwt beam="2">  1       -2 0.15373598E+00 0.28914169E+03</pdfrwt>
<totfact> 0.84830561E+02</totfact>
</mgrwt>
</event>
<event>
 4    1  0.1866622E-004  0.2447058E+03  0.7818608E-02  0.1116697E+00
         -2   -1    0    0    0  501 -0.00000000000E+00  0.00000000000E+00  0.64597506121E+01  0.64597506121E+01  0.00000000000E+00 0. -1.
          2   -1    0    0  501    0  0.00000000000E+00 -0.00000000000E+00 -0.23174622136E+04  0.23174622136E+04  0.00000000000E+00 0. -1.
         25    1    1    2    0    0  0.75784660131E+01  0.59574824802E+01 -0.13629804077E+04  0.13682867084E+04  0.12000000000E+03 0.  0.
         25    1    1    2    0    0 -0.75784660131E+01 -0.59574824802E+01 -0.94802205529E+03  0.95563525576E+03  0.12000000000E+03 0.  0.
<mgrwt>
<rscale>  0 0.24470577E+03</rscale>
<asrwt>0</asrwt>
<pdfrwt beam="1">  1        2 0.35653253E+00 0.24470577E+03</pdfrwt>
<pdfrwt beam="2">  1       -2 0.99380813E-03 0.24470577E+03</pdfrwt>
<totfact> 0.10822645E+04</totfact>
</mgrwt>
</event>
<event>
 4    1  0.1866622E-004  0.2539399E+03  0.7818608E-02  0.1110840E+00
         -2   -1    0    0    0  501 -0.00000000000E+00  0.00000000000E+00  0.11851417121E+02  0.11851417121E+02  0.00000000000E+00 0.  1.
          2   -1    0    0  501    0  0.00000000000E+00 -0.00000000000E+00 -0.13602901757E+04  0.13602901757E+04  0.00000000000E+00 0.  1.
         25    1    1    2    0    0  0.13750624329E+02  0.32511084326E+02 -0.55641559833E+03  0.57030199749E+03  0.12000000000E+03 0.  0.
         25    1    1    2    0    0 -0.13750624329E+02 -0.32511084326E+02 -0.79202316029E+03  0.80183959538E+03  0.12000000000E+03 0.  0.
<mgrwt>
<rscale>  0 0.25393988E+03</rscale>
<asrwt>0</asrwt>
<pdfrwt beam="1">  1        2 0.20927545E+00 0.25393988E+03</pdfrwt>
<pdfrwt beam="2">  1       -2 0.18232946E-02 0.25393988E+03</pdfrwt>
<totfact> 0.14345137E+04</totfact>
</mgrwt>
</event>
<event>
 4    1  0.1866622E-004  0.2794172E+03  0.7818608E-02  0.1096008E+00
          1   -1    0    0  501    0  0.00000000000E+00  0.00000000000E+00  0.32811694200E+02  0.32811694200E+02  0.00000000000E+00 0.  1.
         -1   -1    0    0    0  501 -0.00000000000E+00 -0.00000000000E+00 -0.59486387914E+03  0.59486387914E+03  0.00000000000E+00 0.  1.
         25    1    1    2    0    0 -0.20761932974E+02 -0.39185619232E+01 -0.12748056161E+03  0.17634541836E+03  0.12000000000E+03 0.  0.
         25    1    1    2    0    0  0.20761932974E+02  0.39185619232E+01 -0.43457162333E+03  0.45133015498E+03  0.12000000000E+03 0.  0.
<mgrwt>
<rscale>  0 0.27941719E+03</rscale>
<asrwt>0</asrwt>
<pdfrwt beam="1">  1        1 0.50479537E-02 0.27941719E+03</pdfrwt>
<pdfrwt beam="2">  1       -1 0.91517506E-01 0.27941719E+03</pdfrwt>
<totfact> 0.20111061E+03</totfact>
</mgrwt>
</event>
<event>
 4    1  0.1866622E-004  0.3126659E+03  0.7818608E-02  0.1079075E+00
          2   -1    0    0  501    0  0.00000000000E+00  0.00000000000E+00  0.13202385467E+04  0.13202385467E+04  0.00000000000E+00 0. -1.
         -2   -1    0    0    0  501 -0.00000000000E+00 -0.00000000000E+00 -0.18511795784E+02  0.18511795784E+02  0.00000000000E+00 0. -1.
         25    1    1    2    0    0  0.82001625496E+02  0.10020912672E+02  0.40807385162E+03  0.43330007345E+03  0.12000000000E+03 0.  0.
         25    1    1    2    0    0 -0.82001625496E+02 -0.10020912672E+02  0.89365289925E+03  0.90545026899E+03  0.12000000000E+03 0.  0.
<mgrwt>
<rscale>  0 0.31266587E+03</rscale>
<asrwt>0</asrwt>
<pdfrwt beam="1">  1        2 0.20311355E+00 0.31266587E+03</pdfrwt>
<pdfrwt beam="2">  1       -2 0.28479696E-02 0.31266587E+03</pdfrwt>
<totfact> 0.78453323E+03</totfact>
</mgrwt>
</event>
<event>
 4    1  0.1866622E-004  0.3004404E+03  0.7818608E-02  0.1085021E+00
          2   -1    0    0  501    0  0.00000000000E+00  0.00000000000E+00  0.19115757013E+03  0.19115757013E+03  0.00000000000E+00 0.  1.
         -2   -1    0    0    0  501 -0.00000000000E+00 -0.00000000000E+00 -0.11804977386E+03  0.11804977386E+03  0.00000000000E+00 0.  1.
         25    1    1    2    0    0 -0.83787640138E+02  0.33823387518E+02  0.35205026812E+02  0.15428475004E+03  0.12000000000E+03 0.  0.
         25    1    1    2    0    0  0.83787640138E+02 -0.33823387518E+02  0.37902769452E+02  0.15492259395E+03  0.12000000000E+03 0.  0.
<mgrwt>
<rscale>  0 0.30044040E+03</rscale>
<asrwt>0</asrwt>
<pdfrwt beam="1">  1        2 0.29408857E-01 0.30044040E+03</pdfrwt>
<pdfrwt beam="2">  1       -2 0.18161504E-01 0.30044040E+03</pdfrwt>
<totfact> 0.44362402E+03</totfact>
</mgrwt>
</event>
<event>
 4    1  0.1866622E-004  0.3853019E+03  0.7818608E-02  0.1048991E+00
          2   -1    0    0  501    0  0.00000000000E+00  0.00000000000E+00  0.45895891336E+03  0.45895891336E+03  0.00000000000E+00 0.  1.
         -2   -1    0    0    0  501 -0.00000000000E+00 -0.00000000000E+00 -0.80866456590E+02  0.80866456590E+02  0.00000000000E+00 0.  1.
         25    1    1    2    0    0  0.17395919229E+02 -0.10944012763E+02 -0.20136883710E+02  0.12340131080E+03  0.12000000000E+03 0.  0.
         25    1    1    2    0    0 -0.17395919229E+02  0.10944012763E+02  0.39822934048E+03  0.41642405916E+03  0.12000000000E+03 0.  0.
<mgrwt>
<rscale>  0 0.38530186E+03</rscale>
<asrwt>0</asrwt>
<pdfrwt beam="1">  1        2 0.70609062E-01 0.38530186E+03</pdfrwt>
<pdfrwt beam="2">  1       -2 0.12440994E-01 0.38530186E+03</pdfrwt>
<totfact> 0.32127034E+03</totfact>
</mgrwt>
</event>
<event>
 4    1  0.1866622E-004  0.3032613E+03  0.7818608E-02  0.1083622E+00
          1   -1    0    0  501    0  0.00000000000E+00  0.00000000000E+00  0.73679564929E+03  0.73679564929E+03  0.00000000000E+00 0.  1.
         -1   -1    0    0    0  501 -0.00000000000E+00 -0.00000000000E+00 -0.31205198231E+02  0.31205198231E+02  0.00000000000E+00 0.  1.
         25    1    1    2    0    0  0.65612697318E+02  0.32821835851E+02  0.49626722081E+03  0.51581339011E+03  0.12000000000E+03 0.  0.
         25    1    1    2    0    0 -0.65612697318E+02 -0.32821835851E+02  0.20932323025E+03  0.25218745742E+03  0.12000000000E+03 0.  0.
<mgrwt>
<rscale>  0 0.30326130E+03</rscale>
<asrwt>0</asrwt>
<pdfrwt beam="1">  1        1 0.11335316E+00 0.30326130E+03</pdfrwt>
<pdfrwt beam="2">  1       -1 0.48008003E-02 0.30326130E+03</pdfrwt>
<totfact> 0.48906885E+03</totfact>
</mgrwt>
</event>
<event>
 4    1  0.1866622E-004  0.2504839E+03  0.7818608E-02  0.1112999E+00
          3   -1    0    0  501    0  0.00000000000E+00  0.00000000000E+00  0.14426499802E+03  0.14426499802E+03  0.00000000000E+00 0. -1.
         -3   -1    0    0    0  501 -0.00000000000E+00 -0.00000000000E+00 -0.10872734747E+03  0.10872734747E+03  0.00000000000E+00 0. -1.
         25    1    1    2    0    0  0.15781819278E+02  0.43738287436E+01 -0.14446582239E+02  0.12197089791E+03  0.12000000000E+03 0.  0.
         25    1    1    2    0    0 -0.15781819278E+02 -0.43738287436E+01  0.49984232793E+02  0.13102144758E+03  0.12000000000E+03 0.  0.
<mgrwt>
<rscale>  0 0.25048394E+03</rscale>
<asrwt>0</asrwt>
<pdfrwt beam="1">  1        3 0.22194615E-01 0.25048394E+03</pdfrwt>
<pdfrwt beam="2">  1       -3 0.16727284E-01 0.25048394E+03</pdfrwt>
<totfact> 0.14416031E+03</totfact>
</mgrwt>
</event>
<event>
 4    1  0.1866622E-004  0.8654527E+03  0.7818608E-02  0.9469828E-01
         -2   -1    0    0    0  501 -0.00000000000E+00  0.00000000000E+00  0.89890206305E+02  0.89890206305E+02  0.00000000000E+00 0.  1.
          2   -1    0    0  501    0  0.00000000000E+00 -0.00000000000E+00 -0.20831200270E+04  0.20831200270E+04  0.00000000000E+00 0.  1.
         25    1    1    2    0    0 -0.32707484397E+03  0.21003933904E+03 -0.13669748877E+04  0.14262239730E+04  0.12000000000E+03 0.  0.
         25    1    1    2    0    0  0.32707484397E+03 -0.21003933904E+03 -0.62625493295E+03  0.74678626028E+03  0.12000000000E+03 0.  0.
<mgrwt>
<rscale>  0 0.86545269E+03</rscale>
<asrwt>0</asrwt>
<pdfrwt beam="1">  1        2 0.32047996E+00 0.86545269E+03</pdfrwt>
<pdfrwt beam="2">  1       -2 0.13829264E-01 0.86545269E+03</pdfrwt>
<totfact> 0.24519970E+02</totfact>
</mgrwt>
</event>
<event>
 4    1  0.1866622E-004  0.2865116E+03  0.7818608E-02  0.1092185E+00
          2   -1    0    0  501    0  0.00000000000E+00  0.00000000000E+00  0.20623228320E+04  0.20623228320E+04  0.00000000000E+00 0.  1.
         -2   -1    0    0    0  501 -0.00000000000E+00 -0.00000000000E+00 -0.99510211492E+01  0.99510211492E+01  0.00000000000E+00 0.  1.
         25    1    1    2    0    0 -0.27395932820E+02  0.70656349725E+02  0.88531170232E+03  0.89661567416E+03  0.12000000000E+03 0.  0.
         25    1    1    2    0    0  0.27395932820E+02 -0.70656349725E+02  0.11670601085E+04  0.11756581790E+04  0.12000000000E+03 0.  0.
<mgrwt>
<rscale>  0 0.28651156E+03</rscale>
<asrwt>0</asrwt>
<pdfrwt beam="1">  1        2 0.31728010E+00 0.28651156E+03</pdfrwt>
<pdfrwt beam="2">  1       -2 0.15309280E-02 0.28651156E+03</pdfrwt>
<totfact> 0.78899082E+03</totfact>
</mgrwt>
</event>
<event>
 4    1  0.1866622E-004  0.2651108E+03  0.7818608E-02  0.1104111E+00
         -2   -1    0    0    0  501 -0.00000000000E+00  0.00000000000E+00  0.15311548328E+02  0.15311548328E+02  0.00000000000E+00 0.  1.
          2   -1    0    0  501    0  0.00000000000E+00 -0.00000000000E+00 -0.11475608785E+04  0.11475608785E+04  0.00000000000E+00 0.  1.
         25    1    1    2    0    0  0.98162520721E+01 -0.55407958430E+02 -0.55678553268E+03  0.57234301784E+03  0.12000000000E+03 0.  0.
         25    1    1    2    0    0 -0.98162520721E+01  0.55407958430E+02 -0.57546379746E+03  0.59052940896E+03  0.12000000000E+03 0.  0.
<mgrwt>
<rscale>  0 0.26511080E+03</rscale>
<asrwt>0</asrwt>
<pdfrwt beam="1">  1        2 0.17654785E+00 0.26511080E+03</pdfrwt>
<pdfrwt beam="2">  1       -2 0.23556226E-02 0.26511080E+03</pdfrwt>
<totfact> 0.12963225E+04</totfact>
</mgrwt>
</event>
<event>
 4    1  0.1866622E-004  0.2645866E+03  0.7818608E-02  0.1104418E+00
         -1   -1    0    0    0  501 -0.00000000000E+00  0.00000000000E+00  0.35951468450E+03  0.35951468450E+03  0.00000000000E+00 0.  1.
          1   -1    0    0  501    0  0.00000000000E+00 -0.00000000000E+00 -0.48680960135E+02  0.48680960135E+02  0.00000000000E+00 0.  1.
         25    1    1    2    0    0 -0.47071175167E+02 -0.28737012398E+02  0.16736794548E+03  0.21319835972E+03  0.12000000000E+03 0.  0.
         25    1    1    2    0    0  0.47071175167E+02  0.28737012398E+02  0.14346577889E+03  0.19499728492E+03  0.12000000000E+03 0.  0.
<mgrwt>
<rscale>  0 0.26458662E+03</rscale>
<asrwt>0</asrwt>
<pdfrwt beam="1">  1        1 0.74893787E-02 0.26458662E+03</pdfrwt>
<pdfrwt beam="2">  1       -1 0.55309950E-01 0.26458662E+03</pdfrwt>
<totfact> 0.32171235E+03</totfact>
</mgrwt>
</event>
<event>
 4    1  0.1866622E-004  0.2602529E+03  0.7818608E-02  0.1106991E+00
          2   -1    0    0  501    0  0.00000000000E+00  0.00000000000E+00  0.23871939742E+04  0.23871939742E+04  0.00000000000E+00 0.  1.
         -2   -1    0    0    0  501 -0.00000000000E+00 -0.00000000000E+00 -0.70932217459E+01  0.70932217459E+01  0.00000000000E+00 0.  1.
         25    1    1    2    0    0  0.37063415288E+02 -0.34043158769E+02  0.11853341842E+04  0.11924553499E+04  0.12000000000E+03 0.  0.
         25    1    1    2    0    0 -0.37063415288E+02  0.34043158769E+02  0.11947665683E+04  0.12018318460E+04  0.12000000000E+03 0.  0.
<mgrwt>
<rscale>  0 0.26025292E+03</rscale>
<asrwt>0</asrwt>
<pdfrwt beam="1">  1        2 0.36725997E+00 0.26025292E+03</pdfrwt>
<pdfrwt beam="2">  1       -2 0.10912668E-02 0.26025292E+03</pdfrwt>
<totfact> 0.86722399E+03</totfact>
</mgrwt>
</event>
<event>
 4    1  0.1866622E-004  0.2433010E+03  0.7818608E-02  0.1117613E+00
          4   -1    0    0  501    0  0.00000000000E+00  0.00000000000E+00  0.34452330884E+02  0.34452330884E+02  0.00000000000E+00 0. -1.
         -4   -1    0    0    0  501 -0.00000000000E+00 -0.00000000000E+00 -0.42954546939E+03  0.42954546939E+03  0.00000000000E+00 0. -1.
         25    1    1    2    0    0 -0.12568909185E+02  0.73497006967E+01 -0.17147812056E+03  0.20980167161E+03  0.12000000000E+03 0.  0.
         25    1    1    2    0    0  0.12568909185E+02 -0.73497006967E+01 -0.22361501795E+03  0.25419612867E+03  0.12000000000E+03 0.  0.
<mgrwt>
<rscale>  0 0.24330099E+03</rscale>
<asrwt>0</asrwt>
<pdfrwt beam="1">  1        4 0.53003587E-02 0.24330099E+03</pdfrwt>
<pdfrwt beam="2">  1       -4 0.66083917E-01 0.24330099E+03</pdfrwt>
<totfact> 0.86443664E+02</totfact>
</mgrwt>
</event>
<event>
 4    1  0.1866622E-004  0.2760840E+03  0.7818608E-02  0.1097847E+00
         -2   -1    0    0    0  501 -0.00000000000E+00  0.00000000000E+00  0.21542463891E+02  0.21542463891E+02  0.00000000000E+00 0.  1.
          2   -1    0    0  501    0  0.00000000000E+00 -0.00000000000E+00 -0.88455959435E+03  0.88455959435E+03  0.00000000000E+00 0.  1.
         25    1    1    2    0    0 -0.50815824660E+02 -0.44220293101E+02 -0.46714650672E+03  0.48699439535E+03  0.12000000000E+03 0.  0.
         25    1    1    2    0    0  0.50815824660E+02  0.44220293101E+02 -0.39587062374E+03  0.41910766289E+03  0.12000000000E+03 0.  0.
<mgrwt>
<rscale>  0 0.27608400E+03</rscale>
<asrwt>0</asrwt>
<pdfrwt beam="1">  1        2 0.13608609E+00 0.27608400E+03</pdfrwt>
<pdfrwt beam="2">  1       -2 0.33142253E-02 0.27608400E+03</pdfrwt>
<totfact> 0.11313181E+04</totfact>
</mgrwt>
</event>
<event>
 4    1  0.1866622E-004  0.2496458E+03  0.7818608E-02  0.1113529E+00
          2   -1    0    0  501    0  0.00000000000E+00  0.00000000000E+00  0.63678524882E+03  0.63678524882E+03  0.00000000000E+00 0. -1.
         -2   -1    0    0    0  501 -0.00000000000E+00 -0.00000000000E+00 -0.24467841417E+02  0.24467841417E+02  0.00000000000E+00 0. -1.
         25    1    1    2    0    0 -0.26083062899E+01 -0.10387717440E+02  0.39264209269E+03  0.41070977696E+03  0.12000000000E+03 0.  0.
         25    1    1    2    0    0  0.26083062899E+01  0.10387717440E+02  0.21967531471E+03  0.25054331328E+03  0.12000000000E+03 0.  0.
<mgrwt>
<rscale>  0 0.24964583E+03</rscale>
<asrwt>0</asrwt>
<pdfrwt beam="1">  1        2 0.97966948E-01 0.24964583E+03</pdfrwt>
<pdfrwt beam="2">  1       -2 0.37642838E-02 0.24964583E+03</pdfrwt>
<totfact> 0.14021322E+04</totfact>
</mgrwt>
</event>
<event>
 4    1  0.1866622E-004  0.2775349E+03  0.7818608E-02  0.1097043E+00
          2   -1    0    0  501    0  0.00000000000E+00  0.00000000000E+00  0.35913404824E+03  0.35913404824E+03  0.00000000000E+00 0. -1.
         -2   -1    0    0    0  501 -0.00000000000E+00 -0.00000000000E+00 -0.53618995587E+02  0.53618995587E+02  0.00000000000E+00 0. -1.
         25    1    1    2    0    0 -0.13631389366E+02 -0.55915651960E+02  0.21119626249E+03  0.24963220185E+03  0.12000000000E+03 0.  0.
         25    1    1    2    0    0  0.13631389366E+02  0.55915651960E+02  0.94318790165E+02  0.16312084198E+03  0.12000000000E+03 0.  0.
<mgrwt>
<rscale>  0 0.27753491E+03</rscale>
<asrwt>0</asrwt>
<pdfrwt beam="1">  1        2 0.55251391E-01 0.27753491E+03</pdfrwt>
<pdfrwt beam="2">  1       -2 0.82490765E-02 0.27753491E+03</pdfrwt>
<totfact> 0.80424682E+03</totfact>
</mgrwt>
</event>
<event>
 4    1  0.1866622E-004  0.2843301E+03  0.7818608E-02  0.1093347E+00
          1   -1    0    0  501    0  0.00000000000E+00  0.00000000000E+00  0.60574064921E+02  0.60574064921E+02  0.00000000000E+00 0.  1.
         -1   -1    0    0    0  501 -0.00000000000E+00 -0.00000000000E+00 -0.33365611540E+03  0.33365611540E+03  0.00000000000E+00 0.  1.
         25    1    1    2    0    0 -0.11564271654E+02  0.41407183810E+02 -0.49260333483E+02  0.13665601964E+03  0.12000000000E+03 0.  0.
         25    1    1    2    0    0  0.11564271654E+02 -0.41407183810E+02 -0.22382171700E+03  0.25757416068E+03  0.12000000000E+03 0.  0.
<mgrwt>
<rscale>  0 0.28433014E+03</rscale>
<asrwt>0</asrwt>
<pdfrwt beam="1">  1        1 0.93190867E-02 0.28433014E+03</pdfrwt>
<pdfrwt beam="2">  1       -1 0.51331711E-01 0.28433014E+03</pdfrwt>
<totfact> 0.27555872E+03</totfact>
</mgrwt>
</event>
<event>
 4    1  0.1866622E-004  0.3196883E+03  0.7818608E-02  0.1075793E+00
         -1   -1    0    0    0  501 -0.00000000000E+00  0.00000000000E+00  0.11848580284E+02  0.11848580284E+02  0.00000000000E+00 0. -1.
          1   -1    0    0  501    0  0.00000000000E+00 -0.00000000000E+00 -0.21563899811E+04  0.21563899811E+04  0.00000000000E+00 0. -1.
         25    1    1    2    0    0 -0.25900972371E+02  0.13056526594E+02 -0.38364238830E+03  0.40301714028E+03  0.12000000000E+03 0.  0.
         25    1    1    2    0    0  0.25900972371E+02 -0.13056526594E+02 -0.17608990125E+04  0.17652214211E+04  0.12000000000E+03 0.  0.
<mgrwt>
<rscale>  0 0.31968835E+03</rscale>
<asrwt>0</asrwt>
<pdfrwt beam="1">  1        1 0.33175234E+00 0.31968835E+03</pdfrwt>
<pdfrwt beam="2">  1       -1 0.18228583E-02 0.31968835E+03</pdfrwt>
<totfact> 0.20910223E+03</totfact>
</mgrwt>
</event>
<event>
 4    1  0.1866622E-004  0.3102724E+03  0.7818608E-02  0.1080215E+00
         -2   -1    0    0    0  501 -0.00000000000E+00  0.00000000000E+00  0.23096826983E+03  0.23096826983E+03  0.00000000000E+00 0.  1.
          2   -1    0    0  501    0  0.00000000000E+00 -0.00000000000E+00 -0.10420148764E+03  0.10420148764E+03  0.00000000000E+00 0.  1.
         25    1    1    2    0    0 -0.83112517604E+02 -0.39592667928E+02  0.26088109204E+02  0.15347918223E+03  0.12000000000E+03 0.  0.
         25    1    1    2    0    0  0.83112517604E+02  0.39592667928E+02  0.10067867298E+03  0.18169057524E+03  0.12000000000E+03 0.  0.
<mgrwt>
<rscale>  0 0.31027238E+03</rscale>
<asrwt>0</asrwt>
<pdfrwt beam="1">  1        2 0.16030998E-01 0.31027238E+03</pdfrwt>
<pdfrwt beam="2">  1       -2 0.35533580E-01 0.31027238E+03</pdfrwt>
<totfact> 0.26896523E+03</totfact>
</mgrwt>
</event>
<event>
 4    1  0.1866622E-004  0.2944688E+03  0.7818608E-02  0.1088039E+00
         -1   -1    0    0    0  501 -0.00000000000E+00  0.00000000000E+00  0.10476094142E+02  0.10476094142E+02  0.00000000000E+00 0. -1.
          1   -1    0    0  501    0  0.00000000000E+00 -0.00000000000E+00 -0.20692798563E+04  0.20692798563E+04  0.00000000000E+00 0. -1.
         25    1    1    2    0    0 -0.78105464070E+02  0.13140777027E+02 -0.80552011406E+03  0.81825167137E+03  0.12000000000E+03 0.  0.
         25    1    1    2    0    0  0.78105464070E+02 -0.13140777027E+02 -0.12532836481E+04  0.12615042791E+04  0.12000000000E+03 0.  0.
<mgrwt>
<rscale>  0 0.29446881E+03</rscale>
<asrwt>0</asrwt>
<pdfrwt beam="1">  1        1 0.31835088E+00 0.29446881E+03</pdfrwt>
<pdfrwt beam="2">  1       -1 0.16117061E-02 0.29446881E+03</pdfrwt>
<totfact> 0.28574234E+03</totfact>
</mgrwt>
</event>
<event>
 4    1  0.1866622E-004  0.4216280E+03  0.7818608E-02  0.1036538E+00
          2   -1    0    0  501    0  0.00000000000E+00  0.00000000000E+00  0.79769014297E+03  0.79769014297E+03  0.00000000000E+00 0.  1.
         -2   -1    0    0    0  501 -0.00000000000E+00 -0.00000000000E+00 -0.55714032917E+02  0.55714032917E+02  0.00000000000E+00 0.  1.
         25    1    1    2    0    0  0.33792056859E+02 -0.11952052424E+02  0.27743989635E+02  0.12827503118E+03  0.12000000000E+03 0.  0.
         25    1    1    2    0    0 -0.33792056859E+02  0.11952052424E+02  0.71423212041E+03  0.72512914470E+03  0.12000000000E+03 0.  0.
<mgrwt>
<rscale>  0 0.42162796E+03</rscale>
<asrwt>0</asrwt>
<pdfrwt beam="1">  1        2 0.12272155E+00 0.42162796E+03</pdfrwt>
<pdfrwt beam="2">  1       -2 0.85713903E-02 0.42162796E+03</pdfrwt>
<totfact> 0.30344247E+03</totfact>
</mgrwt>
</event>
<event>
 4    1  0.1866622E-004  0.2543566E+03  0.7818608E-02  0.1110582E+00
          1   -1    0    0  501    0  0.00000000000E+00  0.00000000000E+00  0.55302435567E+02  0.55302435567E+02  0.00000000000E+00 0. -1.
         -1   -1    0    0    0  501 -0.00000000000E+00 -0.00000000000E+00 -0.29247019769E+03  0.29247019769E+03  0.00000000000E+00 0. -1.
         25    1    1    2    0    0 -0.31386582638E+02  0.93082911543E+01 -0.82343576968E+02  0.14917180203E+03  0.12000000000E+03 0.  0.
         25    1    1    2    0    0  0.31386582638E+02 -0.93082911543E+01 -0.15482418516E+03  0.19860083123E+03  0.12000000000E+03 0.  0.
<mgrwt>
<rscale>  0 0.25435655E+03</rscale>
<asrwt>0</asrwt>
<pdfrwt beam="1">  1        1 0.85080672E-02 0.25435655E+03</pdfrwt>
<pdfrwt beam="2">  1       -1 0.44995414E-01 0.25435655E+03</pdfrwt>
<totfact> 0.39559271E+03</totfact>
</mgrwt>
</event>
<event>
 4    1  0.1866622E-004  0.2972582E+03  0.7818608E-02  0.1086619E+00
          2   -1    0    0  501    0  0.00000000000E+00  0.00000000000E+00  0.11045059510E+04  0.11045059510E+04  0.00000000000E+00 0. -1.
         -2   -1    0    0    0  501 -0.00000000000E+00 -0.00000000000E+00 -0.20000438426E+02  0.20000438426E+02  0.00000000000E+00 0. -1.
         25    1    1    2    0    0 -0.12645530688E+02  0.43547366389E+02  0.25829814541E+03  0.28839940099E+03  0.12000000000E+03 0.  0.
         25    1    1    2    0    0  0.12645530688E+02 -0.43547366389E+02  0.82620736718E+03  0.83610698846E+03  0.12000000000E+03 0.  0.
<mgrwt>
<rscale>  0 0.29725816E+03</rscale>
<asrwt>0</asrwt>
<pdfrwt beam="1">  1        2 0.16992395E+00 0.29725816E+03</pdfrwt>
<pdfrwt beam="2">  1       -2 0.30769914E-02 0.29725816E+03</pdfrwt>
<totfact> 0.92672646E+03</totfact>
</mgrwt>
</event>
<event>
 4    1  0.1866622E-004  0.2923365E+03  0.7818608E-02  0.1089136E+00
          1   -1    0    0  501    0  0.00000000000E+00  0.00000000000E+00  0.15650659688E+04  0.15650659688E+04  0.00000000000E+00 0.  1.
         -1   -1    0    0    0  501 -0.00000000000E+00 -0.00000000000E+00 -0.13651283029E+02  0.13651283029E+02  0.00000000000E+00 0.  1.
         25    1    1    2    0    0 -0.40022739854E+02  0.18714335535E+02  0.11580696051E+04  0.11651082595E+04  0.12000000000E+03 0.  0.
         25    1    1    2    0    0  0.40022739854E+02 -0.18714335535E+02  0.39334508063E+03  0.41360899230E+03  0.12000000000E+03 0.  0.
<mgrwt>
<rscale>  0 0.29233651E+03</rscale>
<asrwt>0</asrwt>
<pdfrwt beam="1">  1        1 0.24077924E+00 0.29233651E+03</pdfrwt>
<pdfrwt beam="2">  1       -1 0.21001986E-02 0.29233651E+03</pdfrwt>
<totfact> 0.41386704E+03</totfact>
</mgrwt>
</event>
<event>
 4    1  0.1866622E-004  0.3739945E+03  0.7818608E-02  0.1053176E+00
         -2   -1    0    0    0  501 -0.00000000000E+00  0.00000000000E+00  0.42018828559E+02  0.42018828559E+02  0.00000000000E+00 0.  1.
          2   -1    0    0  501    0  0.00000000000E+00 -0.00000000000E+00 -0.83219761770E+03  0.83219761770E+03  0.00000000000E+00 0.  1.
         25    1    1    2    0    0 -0.23485857489E+02 -0.77677868371E+02 -0.11868388992E+03  0.18727333623E+03  0.12000000000E+03 0.  0.
         25    1    1    2    0    0  0.23485857489E+02  0.77677868371E+02 -0.67149489922E+03  0.68694311003E+03  0.12000000000E+03 0.  0.
<mgrwt>
<rscale>  0 0.37399449E+03</rscale>
<asrwt>0</asrwt>
<pdfrwt beam="1">  1        2 0.12803039E+00 0.37399449E+03</pdfrwt>
<pdfrwt beam="2">  1       -2 0.64644357E-02 0.37399449E+03</pdfrwt>
<totfact> 0.44670669E+03</totfact>
</mgrwt>
</event>
<event>
 4    1  0.1866622E-004  0.2573994E+03  0.7818608E-02  0.1108716E+00
          2   -1    0    0  501    0  0.00000000000E+00  0.00000000000E+00  0.32586466042E+02  0.32586466042E+02  0.00000000000E+00 0. -1.
         -2   -1    0    0    0  501 -0.00000000000E+00 -0.00000000000E+00 -0.50829739502E+03  0.50829739502E+03  0.00000000000E+00 0. -1.
         25    1    1    2    0    0  0.46019655519E+02  0.67265816345E+01 -0.23942825549E+03  0.27182521061E+03  0.12000000000E+03 0.  0.
         25    1    1    2    0    0 -0.46019655519E+02 -0.67265816345E+01 -0.23628267349E+03  0.26905865046E+03  0.12000000000E+03 0.  0.
<mgrwt>
<rscale>  0 0.25739942E+03</rscale>
<asrwt>0</asrwt>
<pdfrwt beam="1">  1        2 0.50133025E-02 0.25739942E+03</pdfrwt>
<pdfrwt beam="2">  1       -2 0.78199599E-01 0.25739942E+03</pdfrwt>
<totfact> 0.23345397E+03</totfact>
</mgrwt>
</event>
<event>
 4    1  0.1866622E-004  0.2870032E+03  0.7818608E-02  0.1091924E+00
          1   -1    0    0  501    0  0.00000000000E+00  0.00000000000E+00  0.18873204945E+04  0.18873204945E+04  0.00000000000E+00 0.  1.
         -1   -1    0    0    0  501 -0.00000000000E+00 -0.00000000000E+00 -0.10911081347E+02  0.10911081347E+02  0.00000000000E+00 0.  1.
         25    1    1    2    0    0  0.67279227540E+02 -0.29840548065E+02  0.11224195725E+04  0.11312129108E+04  0.12000000000E+03 0.  0.
         25    1    1    2    0    0 -0.67279227540E+02  0.29840548065E+02  0.75398984068E+03  0.76701866510E+03  0.12000000000E+03 0.  0.
<mgrwt>
<rscale>  0 0.28700319E+03</rscale>
<asrwt>0</asrwt>
<pdfrwt beam="1">  1        1 0.29035674E+00 0.28700319E+03</pdfrwt>
<pdfrwt beam="2">  1       -1 0.16786294E-02 0.28700319E+03</pdfrwt>
<totfact> 0.35367672E+03</totfact>
</mgrwt>
</event>
<event>
 4    1  0.1866622E-004  0.3658988E+03  0.7818608E-02  0.1056272E+00
         -2   -1    0    0    0  501 -0.00000000000E+00  0.00000000000E+00  0.31663665662E+02  0.31663665662E+02  0.00000000000E+00 0.  1.
          2   -1    0    0  501    0  0.00000000000E+00 -0.00000000000E+00 -0.10570627307E+04  0.10570627307E+04  0.00000000000E+00 0.  1.
         25    1    1    2    0    0 -0.54324904413E+02 -0.82665849176E+02 -0.22597571336E+03  0.27431708093E+03  0.12000000000E+03 0.  0.
         25    1    1    2    0    0  0.54324904413E+02  0.82665849176E+02 -0.79942335166E+03  0.81440931542E+03  0.12000000000E+03 0.  0.
<mgrwt>
<rscale>  0 0.36589879E+03</rscale>
<asrwt>0</asrwt>
<pdfrwt beam="1">  1        2 0.16262504E+00 0.36589879E+03</pdfrwt>
<pdfrwt beam="2">  1       -2 0.48713331E-02 0.36589879E+03</pdfrwt>
<totfact> 0.49589363E+03</totfact>
</mgrwt>
</event>
<event>
 4    1  0.1866622E-004  0.2877653E+03  0.7818608E-02  0.1091522E+00
          2   -1    0    0  501    0  0.00000000000E+00  0.00000000000E+00  0.14558758307E+04  0.14558758307E+04  0.00000000000E+00 0. -1.
         -2   -1    0    0    0  501 -0.00000000000E+00 -0.00000000000E+00 -0.14219771276E+02  0.14219771276E+02  0.00000000000E+00 0. -1.
         25    1    1    2    0    0  0.32733606034E+02  0.72146128248E+02  0.74671061371E+03  0.76042967683E+03  0.12000000000E+03 0.  0.
         25    1    1    2    0    0 -0.32733606034E+02 -0.72146128248E+02  0.69494544571E+03  0.70966592514E+03  0.12000000000E+03 0.  0.
<mgrwt>
<rscale>  0 0.28776533E+03</rscale>
<asrwt>0</asrwt>
<pdfrwt beam="1">  1        2 0.22398078E+00 0.28776533E+03</pdfrwt>
<pdfrwt beam="2">  1       -2 0.21876583E-02 0.28776533E+03</pdfrwt>
<totfact> 0.97691398E+03</totfact>
</mgrwt>
</event>
<event>
 4    1  0.1866622E-004  0.2946784E+03  0.7818608E-02  0.1087931E+00
          1   -1    0    0  501    0  0.00000000000E+00  0.00000000000E+00  0.17330494247E+04  0.17330494247E+04  0.00000000000E+00 0. -1.
         -1   -1    0    0    0  501 -0.00000000000E+00 -0.00000000000E+00 -0.12526385734E+02  0.12526385734E+02  0.00000000000E+00 0. -1.
         25    1    1    2    0    0  0.83659284263E+02 -0.15297202051E+02  0.80863199294E+03  0.82189937354E+03  0.12000000000E+03 0.  0.
         25    1    1    2    0    0 -0.83659284263E+02  0.15297202051E+02  0.91189104606E+03  0.92367643692E+03  0.12000000000E+03 0.  0.
<mgrwt>
<rscale>  0 0.29467844E+03</rscale>
<asrwt>0</asrwt>
<pdfrwt beam="1">  1        1 0.26662280E+00 0.29467844E+03</pdfrwt>
<pdfrwt beam="2">  1       -1 0.19271376E-02 0.29467844E+03</pdfrwt>
<totfact> 0.36423633E+03</totfact>
</mgrwt>
</event>
<event>
 4    1  0.1866622E-004  0.2931929E+03  0.7818608E-02  0.1088694E+00
          1   -1    0    0  501    0  0.00000000000E+00  0.00000000000E+00  0.10192939191E+03  0.10192939191E+03  0.00000000000E+00 0.  1.
         -1   -1    0    0    0  501 -0.00000000000E+00 -0.00000000000E+00 -0.21083734189E+03  0.21083734189E+03  0.00000000000E+00 0.  1.
         25    1    1    2    0    0  0.48674605051E+02 -0.46042120674E+02 -0.44694675251E-01  0.13743760785E+03  0.12000000000E+03 0.  0.
         25    1    1    2    0    0 -0.48674605051E+02  0.46042120674E+02 -0.10886325531E+03  0.17532912596E+03  0.12000000000E+03 0.  0.
<mgrwt>
<rscale>  0 0.29319292E+03</rscale>
<asrwt>0</asrwt>
<pdfrwt beam="1">  1        1 0.15681445E-01 0.29319292E+03</pdfrwt>
<pdfrwt beam="2">  1       -1 0.32436514E-01 0.29319292E+03</pdfrwt>
<totfact> 0.31307626E+03</totfact>
</mgrwt>
</event>
<event>
 4    1  0.1866622E-004  0.2561787E+03  0.7818608E-02  0.1109461E+00
          2   -1    0    0  501    0  0.00000000000E+00  0.00000000000E+00  0.82664491999E+02  0.82664491999E+02  0.00000000000E+00 0.  1.
         -2   -1    0    0    0  501 -0.00000000000E+00 -0.00000000000E+00 -0.19847562644E+03  0.19847562644E+03  0.00000000000E+00 0.  1.
         25    1    1    2    0    0  0.14693011686E+02  0.41319881100E+02 -0.67943950126E+02  0.14470520905E+03  0.12000000000E+03 0.  0.
         25    1    1    2    0    0 -0.14693011686E+02 -0.41319881100E+02 -0.47867184316E+02  0.13643490939E+03  0.12000000000E+03 0.  0.
<mgrwt>
<rscale>  0 0.25617874E+03</rscale>
<asrwt>0</asrwt>
<pdfrwt beam="1">  1        2 0.12717614E-01 0.25617874E+03</pdfrwt>
<pdfrwt beam="2">  1       -2 0.30534711E-01 0.25617874E+03</pdfrwt>
<totfact> 0.46645800E+03</totfact>
</mgrwt>
</event>
<event>
 4    1  0.1866622E-004  0.3001981E+03  0.7818608E-02  0.1085142E+00
         -3   -1    0    0    0  501 -0.00000000000E+00  0.00000000000E+00  0.18933630560E+03  0.18933630560E+03  0.00000000000E+00 0.  1.
          3   -1    0    0  501    0  0.00000000000E+00 -0.00000000000E+00 -0.11899313298E+03  0.11899313298E+03  0.00000000000E+00 0.  1.
         25    1    1    2    0    0 -0.19970936642E+01  0.87699462556E+02  0.56581751381E+02  0.15904929646E+03  0.12000000000E+03 0.  0.
         25    1    1    2    0    0  0.19970936642E+01 -0.87699462556E+02  0.13761421238E+02  0.14928014212E+03  0.12000000000E+03 0.  0.
<mgrwt>
<rscale>  0 0.30019807E+03</rscale>
<asrwt>0</asrwt>
<pdfrwt beam="1">  1        3 0.18306636E-01 0.30019807E+03</pdfrwt>
<pdfrwt beam="2">  1       -3 0.29128662E-01 0.30019807E+03</pdfrwt>
<totfact> 0.76285772E+02</totfact>
</mgrwt>
</event>
<event>
 4    1  0.1866622E-004  0.2777312E+03  0.7818608E-02  0.1096935E+00
          2   -1    0    0  501    0  0.00000000000E+00  0.00000000000E+00  0.75260881588E+03  0.75260881588E+03  0.00000000000E+00 0. -1.
         -2   -1    0    0    0  501 -0.00000000000E+00 -0.00000000000E+00 -0.25622412154E+02  0.25622412154E+02  0.00000000000E+00 0. -1.
         25    1    1    2    0    0  0.43075155573E+02 -0.17954518258E+02  0.50925154186E+03  0.52527608611E+03  0.12000000000E+03 0.  0.
         25    1    1    2    0    0 -0.43075155573E+02  0.17954518258E+02  0.21773486187E+03  0.25295514192E+03  0.12000000000E+03 0.  0.
<mgrwt>
<rscale>  0 0.27773119E+03</rscale>
<asrwt>0</asrwt>
<pdfrwt beam="1">  1        2 0.11578595E+00 0.27773119E+03</pdfrwt>
<pdfrwt beam="2">  1       -2 0.39419101E-02 0.27773119E+03</pdfrwt>
<totfact> 0.10737576E+04</totfact>
</mgrwt>
</event>
<event>
 4    1  0.1866622E-004  0.2519228E+03  0.7818608E-02  0.1112096E+00
         -2   -1    0    0    0  501 -0.00000000000E+00  0.00000000000E+00  0.69296605952E+02  0.69296605952E+02  0.00000000000E+00 0. -1.
          2   -1    0    0  501    0  0.00000000000E+00 -0.00000000000E+00 -0.22896171911E+03  0.22896171911E+03  0.00000000000E+00 0. -1.
         25    1    1    2    0    0  0.88914316255E+01  0.37231419073E+02 -0.78628725829E+02  0.14848472194E+03  0.12000000000E+03 0.  0.
         25    1    1    2    0    0 -0.88914316255E+01 -0.37231419073E+02 -0.81036387330E+02  0.14977360313E+03  0.12000000000E+03 0.  0.
<mgrwt>
<rscale>  0 0.25192277E+03</rscale>
<asrwt>0</asrwt>
<pdfrwt beam="1">  1        2 0.35224880E-01 0.25192277E+03</pdfrwt>
<pdfrwt beam="2">  1       -2 0.10661016E-01 0.25192277E+03</pdfrwt>
<totfact> 0.86739411E+03</totfact>
</mgrwt>
</event>
<event>
 4    1  0.1866622E-004  0.2472446E+03  0.7818608E-02  0.1115059E+00
         -2   -1    0    0    0  501 -0.00000000000E+00  0.00000000000E+00  0.12669829699E+03  0.12669829699E+03  0.00000000000E+00 0. -1.
          2   -1    0    0  501    0  0.00000000000E+00 -0.00000000000E+00 -0.12062102881E+03  0.12062102881E+03  0.00000000000E+00 0. -1.
         25    1    1    2    0    0  0.27368115716E+02 -0.76312736472E+01  0.11714709649E+02  0.12387285626E+03  0.12000000000E+03 0.  0.
         25    1    1    2    0    0 -0.27368115716E+02  0.76312736472E+01 -0.56374414737E+01  0.12344646954E+03  0.12000000000E+03 0.  0.
<mgrwt>
<rscale>  0 0.24724465E+03</rscale>
<asrwt>0</asrwt>
<pdfrwt beam="1">  1        2 0.18557081E-01 0.24724465E+03</pdfrwt>
<pdfrwt beam="2">  1       -2 0.19492046E-01 0.24724465E+03</pdfrwt>
<totfact> 0.65628185E+03</totfact>
</mgrwt>
</event>
<event>
 4    1  0.1866622E-004  0.2996045E+03  0.7818608E-02  0.1085439E+00
          1   -1    0    0  501    0  0.00000000000E+00  0.00000000000E+00  0.23963938547E+03  0.23963938547E+03  0.00000000000E+00 0.  1.
         -1   -1    0    0    0  501 -0.00000000000E+00 -0.00000000000E+00 -0.93643656515E+02  0.93643656515E+02  0.00000000000E+00 0.  1.
         25    1    1    2    0    0  0.24184512501E+02 -0.86308382289E+02  0.70122590386E+02  0.16538199775E+03  0.12000000000E+03 0.  0.
         25    1    1    2    0    0 -0.24184512501E+02  0.86308382289E+02  0.75873138569E+02  0.16790104423E+03  0.12000000000E+03 0.  0.
<mgrwt>
<rscale>  0 0.29960446E+03</rscale>
<asrwt>0</asrwt>
<pdfrwt beam="1">  1        1 0.36867598E-01 0.29960446E+03</pdfrwt>
<pdfrwt beam="2">  1       -1 0.14406716E-01 0.29960446E+03</pdfrwt>
<totfact> 0.39854437E+03</totfact>
</mgrwt>
</event>
<event>
 4    1  0.1866622E-004  0.3339280E+03  0.7818608E-02  0.1069412E+00
          1   -1    0    0  501    0  0.00000000000E+00  0.00000000000E+00  0.68484408329E+02  0.68484408329E+02  0.00000000000E+00 0. -1.
         -1   -1    0    0    0  501 -0.00000000000E+00 -0.00000000000E+00 -0.40705591015E+03  0.40705591015E+03  0.00000000000E+00 0. -1.
         25    1    1    2    0    0 -0.70702786219E+02  0.28300222371E+02 -0.44508390734E+02  0.14893214365E+03  0.12000000000E+03 0.  0.
         25    1    1    2    0    0  0.70702786219E+02 -0.28300222371E+02 -0.29406311108E+03  0.32660817483E+03  0.12000000000E+03 0.  0.
<mgrwt>
<rscale>  0 0.33392804E+03</rscale>
<asrwt>0</asrwt>
<pdfrwt beam="1">  1        1 0.10536063E-01 0.33392804E+03</pdfrwt>
<pdfrwt beam="2">  1       -1 0.62623987E-01 0.33392804E+03</pdfrwt>
<totfact> 0.16029307E+03</totfact>
</mgrwt>
</event>
<event>
 4    1  0.1866622E-004  0.3156366E+03  0.7818608E-02  0.1077675E+00
         -2   -1    0    0    0  501 -0.00000000000E+00  0.00000000000E+00  0.12415361940E+03  0.12415361940E+03  0.00000000000E+00 0. -1.
          2   -1    0    0  501    0  0.00000000000E+00 -0.00000000000E+00 -0.20061130183E+03  0.20061130183E+03  0.00000000000E+00 0. -1.
         25    1    1    2    0    0  0.53757519754E+02 -0.56115206729E+02  0.30546085738E+02  0.14619114443E+03  0.12000000000E+03 0.  0.
         25    1    1    2    0    0 -0.53757519754E+02  0.56115206729E+02 -0.10700376818E+03  0.17857377680E+03  0.12000000000E+03 0.  0.
<mgrwt>
<rscale>  0 0.31563662E+03</rscale>
<asrwt>0</asrwt>
<pdfrwt beam="1">  1        2 0.30863277E-01 0.31563662E+03</pdfrwt>
<pdfrwt beam="2">  1       -2 0.19100557E-01 0.31563662E+03</pdfrwt>
<totfact> 0.38664128E+03</totfact>
</mgrwt>
</event>
<event>
 4    1  0.1866622E-004  0.2504983E+03  0.7818608E-02  0.1112990E+00
         -2   -1    0    0    0  501 -0.00000000000E+00  0.00000000000E+00  0.16527510683E+02  0.16527510683E+02  0.00000000000E+00 0.  1.
          2   -1    0    0  501    0  0.00000000000E+00 -0.00000000000E+00 -0.94916595223E+03  0.94916595223E+03  0.00000000000E+00 0.  1.
         25    1    1    2    0    0 -0.57906116965E+01 -0.15318853765E+02 -0.34324872016E+03  0.36398884922E+03  0.12000000000E+03 0.  0.
         25    1    1    2    0    0  0.57906116965E+01  0.15318853765E+02 -0.58938972139E+03  0.60170461369E+03  0.12000000000E+03 0.  0.
<mgrwt>
<rscale>  0 0.25049831E+03</rscale>
<asrwt>0</asrwt>
<pdfrwt beam="1">  1        2 0.14602559E+00 0.25049831E+03</pdfrwt>
<pdfrwt beam="2">  1       -2 0.25426929E-02 0.25049831E+03</pdfrwt>
<totfact> 0.15194633E+04</totfact>
</mgrwt>
</event>
<event>
 4    1  0.1866622E-004  0.3023842E+03  0.7818608E-02  0.1084055E+00
         -2   -1    0    0    0  501 -0.00000000000E+00  0.00000000000E+00  0.12448624011E+02  0.12448624011E+02  0.00000000000E+00 0. -1.
          2   -1    0    0  501    0  0.00000000000E+00 -0.00000000000E+00 -0.18362710298E+04  0.18362710298E+04  0.00000000000E+00 0. -1.
         25    1    1    2    0    0  0.23993711738E-01 -0.44719332522E+02 -0.42054835573E+03  0.43961430685E+03  0.12000000000E+03 0.  0.
         25    1    1    2    0    0 -0.23993711738E-01  0.44719332522E+02 -0.14032740501E+04  0.14091053470E+04  0.12000000000E+03 0.  0.
<mgrwt>
<rscale>  0 0.30238418E+03</rscale>
<asrwt>0</asrwt>
<pdfrwt beam="1">  1        2 0.28250297E+00 0.30238418E+03</pdfrwt>
<pdfrwt beam="2">  1       -2 0.19151748E-02 0.30238418E+03</pdfrwt>
<totfact> 0.74718030E+03</totfact>
</mgrwt>
</event>
<event>
 4    1  0.1866622E-004  0.2905247E+03  0.7818608E-02  0.1090076E+00
          2   -1    0    0  501    0  0.00000000000E+00  0.00000000000E+00  0.13072632083E+03  0.13072632083E+03  0.00000000000E+00 0.  1.
         -2   -1    0    0    0  501 -0.00000000000E+00 -0.00000000000E+00 -0.16141469274E+03  0.16141469274E+03  0.00000000000E+00 0.  1.
         25    1    1    2    0    0  0.22252393200E+02 -0.39462410247E+02 -0.83904872136E+02  0.15327256243E+03  0.12000000000E+03 0.  0.
         25    1    1    2    0    0 -0.22252393200E+02  0.39462410247E+02  0.53216500224E+02  0.13886845114E+03  0.12000000000E+03 0.  0.
<mgrwt>
<rscale>  0 0.29052469E+03</rscale>
<asrwt>0</asrwt>
<pdfrwt beam="1">  1        2 0.20111741E-01 0.29052469E+03</pdfrwt>
<pdfrwt beam="2">  1       -2 0.24833030E-01 0.29052469E+03</pdfrwt>
<totfact> 0.39559665E+03</totfact>
</mgrwt>
</event>
<event>
 4    1  0.1866622E-004  0.3641145E+03  0.7818608E-02  0.1056966E+00
          2   -1    0    0  501    0  0.00000000000E+00  0.00000000000E+00  0.57172587932E+03  0.57172587932E+03  0.00000000000E+00 0.  1.
         -2   -1    0    0    0  501 -0.00000000000E+00 -0.00000000000E+00 -0.57973316557E+02  0.57973316557E+02  0.00000000000E+00 0.  1.
         25    1    1    2    0    0  0.32367967455E+02  0.93645203155E+02  0.42028145919E+03  0.44816694917E+03  0.12000000000E+03 0.  0.
         25    1    1    2    0    0 -0.32367967455E+02 -0.93645203155E+02  0.93471103577E+02  0.18153224671E+03  0.12000000000E+03 0.  0.
<mgrwt>
<rscale>  0 0.36411452E+03</rscale>
<asrwt>0</asrwt>
<pdfrwt beam="1">  1        2 0.87957824E-01 0.36411452E+03</pdfrwt>
<pdfrwt beam="2">  1       -2 0.89189722E-02 0.36411452E+03</pdfrwt>
<totfact> 0.42709317E+03</totfact>
</mgrwt>
</event>
<event>
 4    1  0.1866622E-004  0.3159309E+03  0.7818608E-02  0.1077537E+00
         -1   -1    0    0    0  501 -0.00000000000E+00  0.00000000000E+00  0.10710632866E+03  0.10710632866E+03  0.00000000000E+00 0. -1.
          1   -1    0    0  501    0  0.00000000000E+00 -0.00000000000E+00 -0.23297487049E+03  0.23297487049E+03  0.00000000000E+00 0. -1.
         25    1    1    2    0    0 -0.33164236571E+02  0.46758144429E+02 -0.15469669678E+03  0.20400308491E+03  0.12000000000E+03 0.  0.
         25    1    1    2    0    0  0.33164236571E+02 -0.46758144429E+02  0.28828154954E+02  0.13607811424E+03  0.12000000000E+03 0.  0.
<mgrwt>
<rscale>  0 0.31593090E+03</rscale>
<asrwt>0</asrwt>
<pdfrwt beam="1">  1        1 0.35842287E-01 0.31593090E+03</pdfrwt>
<pdfrwt beam="2">  1       -1 0.16477897E-01 0.31593090E+03</pdfrwt>
<totfact> 0.33374550E+03</totfact>
</mgrwt>
</event>
<event>
 4    1  0.1866622E-004  0.2557876E+03  0.7818608E-02  0.1109701E+00
         -1   -1    0    0    0  501 -0.00000000000E+00  0.00000000000E+00  0.31445725069E+02  0.31445725069E+02  0.00000000000E+00 0. -1.
          1   -1    0    0  501    0  0.00000000000E+00 -0.00000000000E+00 -0.52016043078E+03  0.52016043078E+03  0.00000000000E+00 0. -1.
         25    1    1    2    0    0  0.29999626002E+02 -0.10921966809E+02 -0.17832633097E+03  0.21730059189E+03  0.12000000000E+03 0.  0.
         25    1    1    2    0    0 -0.29999626002E+02  0.10921966809E+02 -0.31038837474E+03  0.33430556396E+03  0.12000000000E+03 0.  0.
<mgrwt>
<rscale>  0 0.25578758E+03</rscale>
<asrwt>0</asrwt>
<pdfrwt beam="1">  1        1 0.80024678E-01 0.25578758E+03</pdfrwt>
<pdfrwt beam="2">  1       -1 0.48378041E-02 0.25578758E+03</pdfrwt>
<totfact> 0.78532545E+03</totfact>
</mgrwt>
</event>
<event>
 4    1  0.1866622E-004  0.2501389E+03  0.7818608E-02  0.1113217E+00
          2   -1    0    0  501    0  0.00000000000E+00  0.00000000000E+00  0.18847335817E+04  0.18847335817E+04  0.00000000000E+00 0.  1.
         -2   -1    0    0    0  501 -0.00000000000E+00 -0.00000000000E+00 -0.82995118498E+01  0.82995118498E+01  0.00000000000E+00 0.  1.
         25    1    1    2    0    0  0.13188155110E+01 -0.10237582530E+02  0.68316313966E+03  0.69369908661E+03  0.12000000000E+03 0.  0.
         25    1    1    2    0    0 -0.13188155110E+01  0.10237582530E+02  0.11932709302E+04  0.11993340070E+04  0.12000000000E+03 0.  0.
<mgrwt>
<rscale>  0 0.25013891E+03</rscale>
<asrwt>0</asrwt>
<pdfrwt beam="1">  1        2 0.28995867E+00 0.25013891E+03</pdfrwt>
<pdfrwt beam="2">  1       -2 0.12768495E-02 0.25013891E+03</pdfrwt>
<totfact> 0.12725734E+04</totfact>
</mgrwt>
</event>
<event>
 4    1  0.1866622E-004  0.3642570E+03  0.7818608E-02  0.1056911E+00
          1   -1    0    0  501    0  0.00000000000E+00  0.00000000000E+00  0.49428340844E+02  0.49428340844E+02  0.00000000000E+00 0.  1.
         -1   -1    0    0    0  501 -0.00000000000E+00 -0.00000000000E+00 -0.67108862671E+03  0.67108862671E+03  0.00000000000E+00 0.  1.
         25    1    1    2    0    0  0.71636125925E+02 -0.24309501901E+02 -0.53677896508E+03  0.55520657756E+03  0.12000000000E+03 0.  0.
         25    1    1    2    0    0 -0.71636125925E+02  0.24309501901E+02 -0.84881320790E+02  0.16531038999E+03  0.12000000000E+03 0.  0.
<mgrwt>
<rscale>  0 0.36425704E+03</rscale>
<asrwt>0</asrwt>
<pdfrwt beam="1">  1        1 0.76043604E-02 0.36425704E+03</pdfrwt>
<pdfrwt beam="2">  1       -1 0.10324440E+00 0.36425704E+03</pdfrwt>
<totfact> 0.87660905E+02</totfact>
</mgrwt>
</event>
<event>
 4    1  0.1866622E-004  0.2552713E+03  0.7818608E-02  0.1110018E+00
         -1   -1    0    0    0  501 -0.00000000000E+00  0.00000000000E+00  0.65451279419E+02  0.65451279419E+02  0.00000000000E+00 0.  1.
          1   -1    0    0  501    0  0.00000000000E+00 -0.00000000000E+00 -0.24890045110E+03  0.24890045110E+03  0.00000000000E+00 0.  1.
         25    1    1    2    0    0  0.21884499816E+02 -0.33590675500E+02 -0.70987009633E+02  0.14507384447E+03  0.12000000000E+03 0.  0.
         25    1    1    2    0    0 -0.21884499816E+02  0.33590675500E+02 -0.11246216205E+03  0.16927788605E+03  0.12000000000E+03 0.  0.
<mgrwt>
<rscale>  0 0.25527125E+03</rscale>
<asrwt>0</asrwt>
<pdfrwt beam="1">  1        1 0.38292377E-01 0.25527125E+03</pdfrwt>
<pdfrwt beam="2">  1       -1 0.10069428E-01 0.25527125E+03</pdfrwt>
<totfact> 0.66194525E+03</totfact>
</mgrwt>
</event>
<event>
 4    1  0.1866622E-004  0.4710560E+03  0.7818608E-02  0.1021623E+00
          4   -1    0    0  501    0  0.00000000000E+00  0.00000000000E+00  0.36720467842E+03  0.36720467842E+03  0.00000000000E+00 0.  1.
         -4   -1    0    0    0  501 -0.00000000000E+00 -0.00000000000E+00 -0.15106954748E+03  0.15106954748E+03  0.00000000000E+00 0.  1.
         25    1    1    2    0    0 -0.11455850083E+03  0.26072311241E+01 -0.75850139851E+02  0.18243818537E+03  0.12000000000E+03 0.  0.
         25    1    1    2    0    0  0.11455850083E+03 -0.26072311241E+01  0.29198527078E+03  0.33583604053E+03  0.12000000000E+03 0.  0.
<mgrwt>
<rscale>  0 0.47105602E+03</rscale>
<asrwt>0</asrwt>
<pdfrwt beam="1">  1        4 0.56493027E-01 0.47105602E+03</pdfrwt>
<pdfrwt beam="2">  1       -4 0.23241469E-01 0.47105602E+03</pdfrwt>
<totfact> 0.10097530E+02</totfact>
</mgrwt>
</event>
<event>
 4    1  0.1866622E-004  0.3160643E+03  0.7818608E-02  0.1077475E+00
          2   -1    0    0  501    0  0.00000000000E+00  0.00000000000E+00  0.52563916618E+03  0.52563916618E+03  0.00000000000E+00 0.  1.
         -2   -1    0    0    0  501 -0.00000000000E+00 -0.00000000000E+00 -0.47511984625E+02  0.47511984625E+02  0.00000000000E+00 0.  1.
         25    1    1    2    0    0  0.23476034746E+01  0.66843733067E+02  0.97425936582E+02  0.16842033432E+03  0.12000000000E+03 0.  0.
         25    1    1    2    0    0 -0.23476034746E+01 -0.66843733067E+02  0.38070124498E+03  0.40473081649E+03  0.12000000000E+03 0.  0.
<mgrwt>
<rscale>  0 0.31606430E+03</rscale>
<asrwt>0</asrwt>
<pdfrwt beam="1">  1        2 0.80867560E-01 0.31606430E+03</pdfrwt>
<pdfrwt beam="2">  1       -2 0.73095365E-02 0.31606430E+03</pdfrwt>
<totfact> 0.64105911E+03</totfact>
</mgrwt>
</event>
<event>
 4    1  0.1866622E-004  0.2877915E+03  0.7818608E-02  0.1091508E+00
          1   -1    0    0  501    0  0.00000000000E+00  0.00000000000E+00  0.55530156039E+02  0.55530156039E+02  0.00000000000E+00 0.  1.
         -1   -1    0    0    0  501 -0.00000000000E+00 -0.00000000000E+00 -0.37287819025E+03  0.37287819025E+03  0.00000000000E+00 0.  1.
         25    1    1    2    0    0 -0.66237899089E+01  0.75381853305E+02 -0.19451470022E+03  0.24075353995E+03  0.12000000000E+03 0.  0.
         25    1    1    2    0    0  0.66237899089E+01 -0.75381853305E+02 -0.12283333400E+03  0.18765480634E+03  0.12000000000E+03 0.  0.
<mgrwt>
<rscale>  0 0.28779148E+03</rscale>
<asrwt>0</asrwt>
<pdfrwt beam="1">  1        1 0.85431009E-02 0.28779148E+03</pdfrwt>
<pdfrwt beam="2">  1       -1 0.57365876E-01 0.28779148E+03</pdfrwt>
<totfact> 0.25152722E+03</totfact>
</mgrwt>
</event>
<event>
 4    1  0.1866622E-004  0.3217225E+03  0.7818608E-02  0.1074859E+00
          1   -1    0    0  501    0  0.00000000000E+00  0.00000000000E+00  0.57217497627E+02  0.57217497627E+02  0.00000000000E+00 0. -1.
         -1   -1    0    0    0  501 -0.00000000000E+00 -0.00000000000E+00 -0.45224525371E+03  0.45224525371E+03  0.00000000000E+00 0. -1.
         25    1    1    2    0    0 -0.10703438253E+03 -0.34667031358E+01 -0.19304483490E+03  0.25126616437E+03  0.12000000000E+03 0.  0.
         25    1    1    2    0    0  0.10703438253E+03  0.34667031358E+01 -0.20198292118E+03  0.25819658697E+03  0.12000000000E+03 0.  0.
<mgrwt>
<rscale>  0 0.32172250E+03</rscale>
<asrwt>0</asrwt>
<pdfrwt beam="1">  1        1 0.88026919E-02 0.32172250E+03</pdfrwt>
<pdfrwt beam="2">  1       -1 0.69576193E-01 0.32172250E+03</pdfrwt>
<totfact> 0.16595325E+03</totfact>
</mgrwt>
</event>
<event>
 4    1  0.1866622E-004  0.2607164E+03  0.7818608E-02  0.1106714E+00
          2   -1    0    0  501    0  0.00000000000E+00  0.00000000000E+00  0.14690017059E+03  0.14690017059E+03  0.00000000000E+00 0.  1.
         -2   -1    0    0    0  501 -0.00000000000E+00 -0.00000000000E+00 -0.11567898223E+03  0.11567898223E+03  0.00000000000E+00 0.  1.
         25    1    1    2    0    0  0.87813121806E+01  0.28708631170E+02  0.57037985860E+02  0.13621537644E+03  0.12000000000E+03 0.  0.
         25    1    1    2    0    0 -0.87813121806E+01 -0.28708631170E+02 -0.25816797503E+02  0.12636377638E+03  0.12000000000E+03 0.  0.
<mgrwt>
<rscale>  0 0.26071641E+03</rscale>
<asrwt>0</asrwt>
<pdfrwt beam="1">  1        2 0.22600026E-01 0.26071641E+03</pdfrwt>
<pdfrwt beam="2">  1       -2 0.17796766E-01 0.26071641E+03</pdfrwt>
<totfact> 0.61279050E+03</totfact>
</mgrwt>
</event>
<event>
 4    1  0.1866622E-004  0.3319587E+03  0.7818608E-02  0.1070273E+00
          1   -1    0    0  501    0  0.00000000000E+00  0.00000000000E+00  0.94338154606E+03  0.94338154606E+03  0.00000000000E+00 0.  1.
         -1   -1    0    0    0  501 -0.00000000000E+00 -0.00000000000E+00 -0.29202555495E+02  0.29202555495E+02  0.00000000000E+00 0.  1.
         25    1    1    2    0    0 -0.37714771627E+02  0.15161425677E+02  0.77123658144E+03  0.78157414068E+03  0.12000000000E+03 0.  0.
         25    1    1    2    0    0  0.37714771627E+02 -0.15161425677E+02  0.14294240913E+03  0.19100996088E+03  0.12000000000E+03 0.  0.
<mgrwt>
<rscale>  0 0.33195874E+03</rscale>
<asrwt>0</asrwt>
<pdfrwt beam="1">  1        1 0.14513560E+00 0.33195874E+03</pdfrwt>
<pdfrwt beam="2">  1       -1 0.44927016E-02 0.33195874E+03</pdfrwt>
<totfact> 0.36602020E+03</totfact>
</mgrwt>
</event>
<event>
 4    1  0.1866622E-004  0.3218625E+03  0.7818608E-02  0.1074795E+00
         -2   -1    0    0    0  501 -0.00000000000E+00  0.00000000000E+00  0.42988557405E+02  0.42988557405E+02  0.00000000000E+00 0.  1.
          2   -1    0    0  501    0  0.00000000000E+00 -0.00000000000E+00 -0.60245971468E+03  0.60245971468E+03  0.00000000000E+00 0.  1.
         25    1    1    2    0    0  0.36830861118E+02 -0.70719310335E+01 -0.48119479760E+03  0.49734792427E+03  0.12000000000E+03 0.  0.
         25    1    1    2    0    0 -0.36830861118E+02  0.70719310335E+01 -0.78276359678E+02  0.14810034782E+03  0.12000000000E+03 0.  0.
<mgrwt>
<rscale>  0 0.32186254E+03</rscale>
<asrwt>0</asrwt>
<pdfrwt beam="1">  1        2 0.92686111E-01 0.32186254E+03</pdfrwt>
<pdfrwt beam="2">  1       -2 0.66136242E-02 0.32186254E+03</pdfrwt>
<totfact> 0.64035691E+03</totfact>
</mgrwt>
</event>
<event>
 4    1  0.1866622E-004  0.2895665E+03  0.7818608E-02  0.1090576E+00
          3   -1    0    0  501    0  0.00000000000E+00  0.00000000000E+00  0.46462518294E+03  0.46462518294E+03  0.00000000000E+00 0. -1.
         -3   -1    0    0    0  501 -0.00000000000E+00 -0.00000000000E+00 -0.45116352659E+02  0.45116352659E+02  0.00000000000E+00 0. -1.
         25    1    1    2    0    0 -0.47778013151E+02  0.61845528858E+02  0.24728708974E+03  0.28575953656E+03  0.12000000000E+03 0.  0.
         25    1    1    2    0    0  0.47778013151E+02 -0.61845528858E+02  0.17222174054E+03  0.22398199904E+03  0.12000000000E+03 0.  0.
<mgrwt>
<rscale>  0 0.28956653E+03</rscale>
<asrwt>0</asrwt>
<pdfrwt beam="1">  1        3 0.71480794E-01 0.28956653E+03</pdfrwt>
<pdfrwt beam="2">  1       -3 0.69409777E-02 0.28956653E+03</pdfrwt>
<totfact> 0.65383674E+02</totfact>
</mgrwt>
</event>
<event>
 4    1  0.1866622E-004  0.3704273E+03  0.7818608E-02  0.1054530E+00
          2   -1    0    0  501    0  0.00000000000E+00  0.00000000000E+00  0.13731981961E+04  0.13731981961E+04  0.00000000000E+00 0.  1.
         -2   -1    0    0    0  501 -0.00000000000E+00 -0.00000000000E+00 -0.24981162833E+02  0.24981162833E+02  0.00000000000E+00 0.  1.
         25    1    1    2    0    0  0.86093926847E+01 -0.12573183178E+03  0.91346903078E+03  0.92989692190E+03  0.12000000000E+03 0.  0.
         25    1    1    2    0    0 -0.86093926847E+01  0.12573183178E+03  0.43474800247E+03  0.46828243701E+03  0.12000000000E+03 0.  0.
<mgrwt>
<rscale>  0 0.37042725E+03</rscale>
<asrwt>0</asrwt>
<pdfrwt beam="1">  1        2 0.21126120E+00 0.37042725E+03</pdfrwt>
<pdfrwt beam="2">  1       -2 0.38432569E-02 0.37042725E+03</pdfrwt>
<totfact> 0.46815225E+03</totfact>
</mgrwt>
</event>
<event>
 4    1  0.1866622E-004  0.2831202E+03  0.7818608E-02  0.1093997E+00
         -2   -1    0    0    0  501 -0.00000000000E+00  0.00000000000E+00  0.39498164156E+02  0.39498164156E+02  0.00000000000E+00 0. -1.
          2   -1    0    0  501    0  0.00000000000E+00 -0.00000000000E+00 -0.50734677977E+03  0.50734677977E+03  0.00000000000E+00 0. -1.
         25    1    1    2    0    0  0.89285244374E+01  0.49141529341E+02 -0.12561145322E+03  0.18075631561E+03  0.12000000000E+03 0.  0.
         25    1    1    2    0    0 -0.89285244374E+01 -0.49141529341E+02 -0.34223716239E+03  0.36608862831E+03  0.12000000000E+03 0.  0.
<mgrwt>
<rscale>  0 0.28312023E+03</rscale>
<asrwt>0</asrwt>
<pdfrwt beam="1">  1        2 0.78053351E-01 0.28312023E+03</pdfrwt>
<pdfrwt beam="2">  1       -2 0.60766406E-02 0.28312023E+03</pdfrwt>
<totfact> 0.88498491E+03</totfact>
</mgrwt>
</event>
<event>
 4    1  0.1866622E-004  0.2583510E+03  0.7818608E-02  0.1108138E+00
         -2   -1    0    0    0  501 -0.00000000000E+00  0.00000000000E+00  0.26158047344E+02  0.26158047344E+02  0.00000000000E+00 0. -1.
          2   -1    0    0  501    0  0.00000000000E+00 -0.00000000000E+00 -0.63790351392E+03  0.63790351392E+03  0.00000000000E+00 0. -1.
         25    1    1    2    0    0 -0.10160276895E+02  0.29997025409E+00 -0.18577799694E+03  0.22139734722E+03  0.12000000000E+03 0.  0.
         25    1    1    2    0    0  0.10160276895E+02 -0.29997025409E+00 -0.42596746963E+03  0.44266421404E+03  0.12000000000E+03 0.  0.
<mgrwt>
<rscale>  0 0.25835100E+03</rscale>
<asrwt>0</asrwt>
<pdfrwt beam="1">  1        2 0.98139006E-01 0.25835100E+03</pdfrwt>
<pdfrwt beam="2">  1       -2 0.40243148E-02 0.25835100E+03</pdfrwt>
<totfact> 0.12677457E+04</totfact>
</mgrwt>
</event>
<event>
 4    1  0.1866622E-004  0.3074039E+03  0.7818608E-02  0.1081597E+00
          1   -1    0    0  501    0  0.00000000000E+00  0.00000000000E+00  0.12892880060E+03  0.12892880060E+03  0.00000000000E+00 0.  1.
         -1   -1    0    0    0  501 -0.00000000000E+00 -0.00000000000E+00 -0.18323511436E+03  0.18323511436E+03  0.00000000000E+00 0.  1.
         25    1    1    2    0    0  0.31881746051E+02 -0.38114039825E+02 -0.11061560667E+03  0.17060169461E+03  0.12000000000E+03 0.  0.
         25    1    1    2    0    0 -0.31881746051E+02  0.38114039825E+02  0.56309292919E+02  0.14156222036E+03  0.12000000000E+03 0.  0.
<mgrwt>
<rscale>  0 0.30740386E+03</rscale>
<asrwt>0</asrwt>
<pdfrwt beam="1">  1        1 0.19835200E-01 0.30740386E+03</pdfrwt>
<pdfrwt beam="2">  1       -1 0.28190017E-01 0.30740386E+03</pdfrwt>
<totfact> 0.29322713E+03</totfact>
</mgrwt>
</event>
<event>
 4    1  0.1866622E-004  0.4141670E+03  0.7818608E-02  0.1038982E+00
         -2   -1    0    0    0  501 -0.00000000000E+00  0.00000000000E+00  0.29984529855E+02  0.29984529855E+02  0.00000000000E+00 0.  1.
          2   -1    0    0  501    0  0.00000000000E+00 -0.00000000000E+00 -0.14301900980E+04  0.14301900980E+04  0.00000000000E+00 0.  1.
         25    1    1    2    0    0  0.10023115627E+03  0.12744860655E+03 -0.86524649053E+03  0.88844860367E+03  0.12000000000E+03 0.  0.
         25    1    1    2    0    0 -0.10023115627E+03 -0.12744860655E+03 -0.53495907762E+03  0.57172602418E+03  0.12000000000E+03 0.  0.
<mgrwt>
<rscale>  0 0.41416701E+03</rscale>
<asrwt>0</asrwt>
<pdfrwt beam="1">  1        2 0.22002922E+00 0.41416701E+03</pdfrwt>
<pdfrwt beam="2">  1       -2 0.46130051E-02 0.41416701E+03</pdfrwt>
<totfact> 0.32976515E+03</totfact>
</mgrwt>
</event>
<event>
 4    1  0.1866622E-004  0.3036598E+03  0.7818608E-02  0.1083425E+00
         -2   -1    0    0    0  501 -0.00000000000E+00  0.00000000000E+00  0.14026784996E+02  0.14026784996E+02  0.00000000000E+00 0.  1.
          2   -1    0    0  501    0  0.00000000000E+00 -0.00000000000E+00 -0.16434495758E+04  0.16434495758E+04  0.00000000000E+00 0.  1.
         25    1    1    2    0    0  0.50695736710E+02  0.36748840432E+02 -0.11901788559E+04  0.11978506769E+04  0.12000000000E+03 0.  0.
         25    1    1    2    0    0 -0.50695736710E+02 -0.36748840432E+02 -0.43924393489E+03  0.45962568394E+03  0.12000000000E+03 0.  0.
<mgrwt>
<rscale>  0 0.30365977E+03</rscale>
<asrwt>0</asrwt>
<pdfrwt beam="1">  1        2 0.25283841E+00 0.30365977E+03</pdfrwt>
<pdfrwt beam="2">  1       -2 0.21579668E-02 0.30365977E+03</pdfrwt>
<totfact> 0.79203341E+03</totfact>
</mgrwt>
</event>
<event>
 4    1  0.1866622E-004  0.2836440E+03  0.7818608E-02  0.1093715E+00
         -2   -1    0    0    0  501 -0.00000000000E+00  0.00000000000E+00  0.20529996896E+02  0.20529996896E+02  0.00000000000E+00 0. -1.
          2   -1    0    0  501    0  0.00000000000E+00 -0.00000000000E+00 -0.97971196925E+03  0.97971196925E+03  0.00000000000E+00 0. -1.
         25    1    1    2    0    0 -0.25653435822E+01  0.18297117516E+02 -0.22112451895E+03  0.25226458011E+03  0.12000000000E+03 0.  0.
         25    1    1    2    0    0  0.25653435822E+01 -0.18297117516E+02 -0.73805745341E+03  0.74797738604E+03  0.12000000000E+03 0.  0.
<mgrwt>
<rscale>  0 0.28364403E+03</rscale>
<asrwt>0</asrwt>
<pdfrwt beam="1">  1        2 0.15072491E+00 0.28364403E+03</pdfrwt>
<pdfrwt beam="2">  1       -2 0.31584612E-02 0.28364403E+03</pdfrwt>
<totfact> 0.10586045E+04</totfact>
</mgrwt>
</event>
<event>
 4    1  0.1866622E-004  0.2924933E+03  0.7818608E-02  0.1089054E+00
          2   -1    0    0  501    0  0.00000000000E+00  0.00000000000E+00  0.25716190360E+03  0.25716190360E+03  0.00000000000E+00 0.  1.
         -2   -1    0    0    0  501 -0.00000000000E+00 -0.00000000000E+00 -0.83169726843E+02  0.83169726843E+02  0.00000000000E+00 0.  1.
         25    1    1    2    0    0  0.60572173363E+02  0.31841624775E+02  0.14286129718E+03  0.19872651430E+03  0.12000000000E+03 0.  0.
         25    1    1    2    0    0 -0.60572173363E+02 -0.31841624775E+02  0.31130879576E+02  0.14160511614E+03  0.12000000000E+03 0.  0.
<mgrwt>
<rscale>  0 0.29249332E+03</rscale>
<asrwt>0</asrwt>
<pdfrwt beam="1">  1        2 0.39563370E-01 0.29249332E+03</pdfrwt>
<pdfrwt beam="2">  1       -2 0.12795343E-01 0.29249332E+03</pdfrwt>
<totfact> 0.57337875E+03</totfact>
</mgrwt>
</event>
<event>
 4    1  0.1866622E-004  0.3202202E+03  0.7818608E-02  0.1075548E+00
         -2   -1    0    0    0  501 -0.00000000000E+00  0.00000000000E+00  0.39199865296E+02  0.39199865296E+02  0.00000000000E+00 0.  1.
          2   -1    0    0  501    0  0.00000000000E+00 -0.00000000000E+00 -0.65396267069E+03  0.65396267069E+03  0.00000000000E+00 0.  1.
         25    1    1    2    0    0  0.97598735686E+02  0.40628479412E+02 -0.32401708389E+03  0.36133538050E+03  0.12000000000E+03 0.  0.
         25    1    1    2    0    0 -0.97598735686E+02 -0.40628479412E+02 -0.29074572150E+03  0.33182715548E+03  0.12000000000E+03 0.  0.
<mgrwt>
<rscale>  0 0.32022023E+03</rscale>
<asrwt>0</asrwt>
<pdfrwt beam="1">  1        2 0.10060964E+00 0.32022023E+03</pdfrwt>
<pdfrwt beam="2">  1       -2 0.60307484E-02 0.32022023E+03</pdfrwt>
<totfact> 0.67011434E+03</totfact>
</mgrwt>
</event>
<event>
 4    1  0.1866622E-004  0.2565753E+03  0.7818608E-02  0.1109218E+00
         -1   -1    0    0    0  501 -0.00000000000E+00  0.00000000000E+00  0.18380382486E+02  0.18380382486E+02  0.00000000000E+00 0. -1.
          1   -1    0    0  501    0  0.00000000000E+00 -0.00000000000E+00 -0.89539619521E+03  0.89539619521E+03  0.00000000000E+00 0. -1.
         25    1    1    2    0    0 -0.21984097818E+02 -0.71610278972E+01 -0.29951406229E+03  0.32348609612E+03  0.12000000000E+03 0.  0.
         25    1    1    2    0    0  0.21984097818E+02  0.71610278972E+01 -0.57750175043E+03  0.59029048157E+03  0.12000000000E+03 0.  0.
<mgrwt>
<rscale>  0 0.25657533E+03</rscale>
<asrwt>0</asrwt>
<pdfrwt beam="1">  1        1 0.13775325E+00 0.25657533E+03</pdfrwt>
<pdfrwt beam="2">  1       -1 0.28277515E-02 0.25657533E+03</pdfrwt>
<totfact> 0.78972340E+03</totfact>
</mgrwt>
</event>
<event>
 4    1  0.1866622E-004  0.2550556E+03  0.7818608E-02  0.1110151E+00
          2   -1    0    0  501    0  0.00000000000E+00  0.00000000000E+00  0.43735809807E+03  0.43735809807E+03  0.00000000000E+00 0. -1.
         -2   -1    0    0    0  501 -0.00000000000E+00 -0.00000000000E+00 -0.37185417639E+02  0.37185417639E+02  0.00000000000E+00 0. -1.
         25    1    1    2    0    0  0.57601617029E+00  0.17046015030E+02  0.12630800059E+03  0.17505601800E+03  0.12000000000E+03 0.  0.
         25    1    1    2    0    0 -0.57601617029E+00 -0.17046015030E+02  0.27386467984E+03  0.29948749771E+03  0.12000000000E+03 0.  0.
<mgrwt>
<rscale>  0 0.25505563E+03</rscale>
<asrwt>0</asrwt>
<pdfrwt beam="1">  1        2 0.67285858E-01 0.25505563E+03</pdfrwt>
<pdfrwt beam="2">  1       -2 0.57208338E-02 0.25505563E+03</pdfrwt>
<totfact> 0.11393886E+04</totfact>
</mgrwt>
</event>
<event>
 4    1  0.1866622E-004  0.3046515E+03  0.7818608E-02  0.1082938E+00
         -2   -1    0    0    0  501 -0.00000000000E+00  0.00000000000E+00  0.92007905818E+01  0.92007905818E+01  0.00000000000E+00 0. -1.
          2   -1    0    0  501    0  0.00000000000E+00 -0.00000000000E+00 -0.25218630027E+04  0.25218630027E+04  0.00000000000E+00 0. -1.
         25    1    1    2    0    0 -0.54078249497E+02 -0.64880027024E+02 -0.91689224528E+03  0.92856085661E+03  0.12000000000E+03 0.  0.
         25    1    1    2    0    0  0.54078249497E+02  0.64880027024E+02 -0.15957699668E+04  0.16025029366E+04  0.12000000000E+03 0.  0.
<mgrwt>
<rscale>  0 0.30465150E+03</rscale>
<asrwt>0</asrwt>
<pdfrwt beam="1">  1        2 0.38797933E+00 0.30465150E+03</pdfrwt>
<pdfrwt beam="2">  1       -2 0.14155048E-02 0.30465150E+03</pdfrwt>
<totfact> 0.50063272E+03</totfact>
</mgrwt>
</event>
<event>
 4    1  0.1866622E-004  0.2788308E+03  0.7818608E-02  0.1096329E+00
          2   -1    0    0  501    0  0.00000000000E+00  0.00000000000E+00  0.60150839977E+03  0.60150839977E+03  0.00000000000E+00 0.  1.
         -2   -1    0    0    0  501 -0.00000000000E+00 -0.00000000000E+00 -0.32313184667E+02  0.32313184667E+02  0.00000000000E+00 0.  1.
         25    1    1    2    0    0 -0.20065224591E+02 -0.47039593431E+02  0.39645172690E+03  0.41735992662E+03  0.12000000000E+03 0.  0.
         25    1    1    2    0    0  0.20065224591E+02  0.47039593431E+02  0.17274348821E+03  0.21646165782E+03  0.12000000000E+03 0.  0.
<mgrwt>
<rscale>  0 0.27883079E+03</rscale>
<asrwt>0</asrwt>
<pdfrwt beam="1">  1        2 0.92539745E-01 0.27883079E+03</pdfrwt>
<pdfrwt beam="2">  1       -2 0.49712597E-02 0.27883079E+03</pdfrwt>
<totfact> 0.98975396E+03</totfact>
</mgrwt>
</event>
<event>
 4    1  0.1866622E-004  0.2435837E+03  0.7818608E-02  0.1117428E+00
          2   -1    0    0  501    0  0.00000000000E+00  0.00000000000E+00  0.98527327148E+02  0.98527327148E+02  0.00000000000E+00 0. -1.
         -2   -1    0    0    0  501 -0.00000000000E+00 -0.00000000000E+00 -0.15054963003E+03  0.15054963003E+03  0.00000000000E+00 0. -1.
         25    1    1    2    0    0  0.14974117066E+02 -0.11656083258E+02 -0.17264644483E+02  0.12271168000E+03  0.12000000000E+03 0.  0.
         25    1    1    2    0    0 -0.14974117066E+02  0.11656083258E+02 -0.34757658394E+02  0.12636527718E+03  0.12000000000E+03 0.  0.
<mgrwt>
<rscale>  0 0.24358368E+03</rscale>
<asrwt>0</asrwt>
<pdfrwt beam="1">  1        2 0.15158050E-01 0.24358368E+03</pdfrwt>
<pdfrwt beam="2">  1       -2 0.23161482E-01 0.24358368E+03</pdfrwt>
<totfact> 0.61720910E+03</totfact>
</mgrwt>
</event>
<event>
 4    1  0.1866622E-004  0.2700735E+03  0.7818608E-02  0.1101238E+00
          2   -1    0    0  501    0  0.00000000000E+00  0.00000000000E+00  0.34568328688E+02  0.34568328688E+02  0.00000000000E+00 0. -1.
         -2   -1    0    0    0  501 -0.00000000000E+00 -0.00000000000E+00 -0.52750385351E+03  0.52750385351E+03  0.00000000000E+00 0. -1.
         25    1    1    2    0    0  0.86809944118E+01  0.61262666515E+02 -0.24118114202E+03  0.27639974175E+03  0.12000000000E+03 0.  0.
         25    1    1    2    0    0 -0.86809944118E+01 -0.61262666515E+02 -0.25175438280E+03  0.28567244044E+03  0.12000000000E+03 0.  0.
<mgrwt>
<rscale>  0 0.27007352E+03</rscale>
<asrwt>0</asrwt>
<pdfrwt beam="1">  1        2 0.53182044E-02 0.27007352E+03</pdfrwt>
<pdfrwt beam="2">  1       -2 0.81154440E-01 0.27007352E+03</pdfrwt>
<totfact> 0.19933380E+03</totfact>
</mgrwt>
</event>
<event>
 4    1  0.1866622E-004  0.3341621E+03  0.7818608E-02  0.1069310E+00
          1   -1    0    0  501    0  0.00000000000E+00  0.00000000000E+00  0.34472560083E+03  0.34472560083E+03  0.00000000000E+00 0.  1.
         -1   -1    0    0    0  501 -0.00000000000E+00 -0.00000000000E+00 -0.80980580029E+02  0.80980580029E+02  0.00000000000E+00 0.  1.
         25    1    1    2    0    0 -0.60878200049E+02 -0.37975885224E+02  0.24840774480E+03  0.28505215448E+03  0.12000000000E+03 0.  0.
         25    1    1    2    0    0  0.60878200049E+02  0.37975885224E+02  0.15337275999E+02  0.14065402637E+03  0.12000000000E+03 0.  0.
<mgrwt>
<rscale>  0 0.33416211E+03</rscale>
<asrwt>0</asrwt>
<pdfrwt beam="1">  1        1 0.53034707E-01 0.33416211E+03</pdfrwt>
<pdfrwt beam="2">  1       -1 0.12458551E-01 0.33416211E+03</pdfrwt>
<totfact> 0.31741763E+03</totfact>
</mgrwt>
</event>
<event>
 4    1  0.1866622E-004  0.4840874E+03  0.7818608E-02  0.1018018E+00
          3   -1    0    0  501    0  0.00000000000E+00  0.00000000000E+00  0.81541281742E+03  0.81541281742E+03  0.00000000000E+00 0.  1.
         -3   -1    0    0    0  501 -0.00000000000E+00 -0.00000000000E+00 -0.71847235793E+02  0.71847235793E+02  0.00000000000E+00 0.  1.
         25    1    1    2    0    0 -0.13225609626E+03 -0.16336935495E+03  0.37541896871E+03  0.44667731440E+03  0.12000000000E+03 0.  0.
         25    1    1    2    0    0  0.13225609626E+03  0.16336935495E+03  0.36814661291E+03  0.44058273881E+03  0.12000000000E+03 0.  0.
<mgrwt>
<rscale>  0 0.48408742E+03</rscale>
<asrwt>0</asrwt>
<pdfrwt beam="1">  1        3 0.12544812E+00 0.48408742E+03</pdfrwt>
<pdfrwt beam="2">  1       -3 0.11053421E-01 0.48408742E+03</pdfrwt>
<totfact> 0.86255831E+01</totfact>
</mgrwt>
</event>
<event>
 4    1  0.1866622E-004  0.2663952E+03  0.7818608E-02  0.1103361E+00
         -1   -1    0    0    0  501 -0.00000000000E+00  0.00000000000E+00  0.76964410359E+02  0.76964410359E+02  0.00000000000E+00 0. -1.
          1   -1    0    0  501    0  0.00000000000E+00 -0.00000000000E+00 -0.23051693673E+03  0.23051693673E+03  0.00000000000E+00 0. -1.
         25    1    1    2    0    0  0.44154568595E+02  0.10515966084E+02 -0.35458878711E+02  0.13310726333E+03  0.12000000000E+03 0.  0.
         25    1    1    2    0    0 -0.44154568595E+02 -0.10515966084E+02 -0.11809364766E+03  0.17437408376E+03  0.12000000000E+03 0.  0.
<mgrwt>
<rscale>  0 0.26639520E+03</rscale>
<asrwt>0</asrwt>
<pdfrwt beam="1">  1        1 0.35464144E-01 0.26639520E+03</pdfrwt>
<pdfrwt beam="2">  1       -1 0.11840679E-01 0.26639520E+03</pdfrwt>
<totfact> 0.56769427E+03</totfact>
</mgrwt>
</event>
<event>
 4    1  0.1866622E-004  0.4833732E+03  0.7818608E-02  0.1018212E+00
         -2   -1    0    0    0  501 -0.00000000000E+00  0.00000000000E+00  0.12681816775E+03  0.12681816775E+03  0.00000000000E+00 0.  1.
          2   -1    0    0  501    0  0.00000000000E+00 -0.00000000000E+00 -0.46059979086E+03  0.46059979086E+03  0.00000000000E+00 0.  1.
         25    1    1    2    0    0  0.16580011321E+03  0.15693151505E+01 -0.32308804487E+03  0.38246310283E+03  0.12000000000E+03 0.  0.
         25    1    1    2    0    0 -0.16580011321E+03 -0.15693151505E+01 -0.10693578238E+02  0.20495485577E+03  0.12000000000E+03 0.  0.
<mgrwt>
<rscale>  0 0.48337324E+03</rscale>
<asrwt>0</asrwt>
<pdfrwt beam="1">  1        2 0.70861507E-01 0.48337324E+03</pdfrwt>
<pdfrwt beam="2">  1       -2 0.19510487E-01 0.48337324E+03</pdfrwt>
<totfact> 0.15061726E+03</totfact>
</mgrwt>
</event>
<event>
 4    1  0.1866622E-004  0.3494904E+03  0.7818608E-02  0.1062824E+00
          3   -1    0    0  501    0  0.00000000000E+00  0.00000000000E+00  0.19818692905E+03  0.19818692905E+03  0.00000000000E+00 0.  1.
         -3   -1    0    0    0  501 -0.00000000000E+00 -0.00000000000E+00 -0.15407615319E+03  0.15407615319E+03  0.00000000000E+00 0.  1.
         25    1    1    2    0    0  0.43398685458E+02  0.11928454165E+03  0.26955216914E+02  0.17674510317E+03  0.12000000000E+03 0.  0.
         25    1    1    2    0    0 -0.43398685458E+02 -0.11928454165E+03  0.17155558941E+02  0.17551797907E+03  0.12000000000E+03 0.  0.
<mgrwt>
<rscale>  0 0.34949037E+03</rscale>
<asrwt>0</asrwt>
<pdfrwt beam="1">  1        3 0.30490297E-01 0.34949037E+03</pdfrwt>
<pdfrwt beam="2">  1       -3 0.23704024E-01 0.34949037E+03</pdfrwt>
<totfact> 0.44664327E+02</totfact>
</mgrwt>
</event>
<event>
 4    1  0.1866622E-004  0.2652434E+03  0.7818608E-02  0.1104033E+00
          4   -1    0    0  501    0  0.00000000000E+00  0.00000000000E+00  0.20821715200E+02  0.20821715200E+02  0.00000000000E+00 0.  1.
         -4   -1    0    0    0  501 -0.00000000000E+00 -0.00000000000E+00 -0.84471952950E+03  0.84471952950E+03  0.00000000000E+00 0.  1.
         25    1    1    2    0    0  0.33917761092E+02 -0.23614702746E+02 -0.53750528287E+03  0.55228615573E+03  0.12000000000E+03 0.  0.
         25    1    1    2    0    0 -0.33917761092E+02  0.23614702746E+02 -0.28639253143E+03  0.31325508897E+03  0.12000000000E+03 0.  0.
<mgrwt>
<rscale>  0 0.26524336E+03</rscale>
<asrwt>0</asrwt>
<pdfrwt beam="1">  1        4 0.32033404E-02 0.26524336E+03</pdfrwt>
<pdfrwt beam="2">  1       -4 0.12995686E+00 0.26524336E+03</pdfrwt>
<totfact> 0.41234357E+02</totfact>
</mgrwt>
</event>
<event>
 4    1  0.1866622E-004  0.2439657E+03  0.7818608E-02  0.1117179E+00
         -1   -1    0    0    0  501 -0.00000000000E+00  0.00000000000E+00  0.15044480426E+02  0.15044480426E+02  0.00000000000E+00 0. -1.
          1   -1    0    0  501    0  0.00000000000E+00 -0.00000000000E+00 -0.98905512010E+03  0.98905512010E+03  0.00000000000E+00 0. -1.
         25    1    1    2    0    0 -0.15724631286E+02 -0.15233597818E+02 -0.48989767304E+03  0.50485548089E+03  0.12000000000E+03 0.  0.
         25    1    1    2    0    0  0.15724631286E+02  0.15233597818E+02 -0.48411296663E+03  0.49924411964E+03  0.12000000000E+03 0.  0.
<mgrwt>
<rscale>  0 0.24396574E+03</rscale>
<asrwt>0</asrwt>
<pdfrwt beam="1">  1        1 0.15216237E+00 0.24396574E+03</pdfrwt>
<pdfrwt beam="2">  1       -1 0.23145349E-02 0.24396574E+03</pdfrwt>
<totfact> 0.89653342E+03</totfact>
</mgrwt>
</event>
<event>
 4    1  0.1866622E-004  0.2451858E+03  0.7818608E-02  0.1116386E+00
         -2   -1    0    0    0  501 -0.00000000000E+00  0.00000000000E+00  0.73946744995E+02  0.73946744995E+02  0.00000000000E+00 0. -1.
          2   -1    0    0  501    0  0.00000000000E+00 -0.00000000000E+00 -0.20324113638E+03  0.20324113638E+03  0.00000000000E+00 0. -1.
         25    1    1    2    0    0  0.12659433769E+02 -0.17754524992E+01 -0.40252879395E+02  0.12721520269E+03  0.12000000000E+03 0.  0.
         25    1    1    2    0    0 -0.12659433769E+02  0.17754524992E+01 -0.89041511986E+02  0.14997267868E+03  0.12000000000E+03 0.  0.
<mgrwt>
<rscale>  0 0.24518581E+03</rscale>
<asrwt>0</asrwt>
<pdfrwt beam="1">  1        2 0.31267867E-01 0.24518581E+03</pdfrwt>
<pdfrwt beam="2">  1       -2 0.11376422E-01 0.24518581E+03</pdfrwt>
<totfact> 0.88884474E+03</totfact>
</mgrwt>
</event>
<event>
 4    1  0.1866622E-004  0.2892218E+03  0.7818608E-02  0.1090756E+00
          2   -1    0    0  501    0  0.00000000000E+00  0.00000000000E+00  0.32196106053E+03  0.32196106053E+03  0.00000000000E+00 0. -1.
         -2   -1    0    0    0  501 -0.00000000000E+00 -0.00000000000E+00 -0.64952932890E+02  0.64952932890E+02  0.00000000000E+00 0. -1.
         25    1    1    2    0    0  0.66923935285E+02  0.43355198163E+02  0.11191192927E+03  0.18243564957E+03  0.12000000000E+03 0.  0.
         25    1    1    2    0    0 -0.66923935285E+02 -0.43355198163E+02  0.14509619837E+03  0.20447834385E+03  0.12000000000E+03 0.  0.
<mgrwt>
<rscale>  0 0.28922182E+03</rscale>
<asrwt>0</asrwt>
<pdfrwt beam="1">  1        2 0.49532470E-01 0.28922182E+03</pdfrwt>
<pdfrwt beam="2">  1       -2 0.99927591E-02 0.28922182E+03</pdfrwt>
<totfact> 0.66955061E+03</totfact>
</mgrwt>
</event>
<event>
 4    1  0.1866622E-004  0.2673722E+03  0.7818608E-02  0.1102793E+00
          1   -1    0    0  501    0  0.00000000000E+00  0.00000000000E+00  0.42045336847E+03  0.42045336847E+03  0.00000000000E+00 0.  1.
         -1   -1    0    0    0  501 -0.00000000000E+00 -0.00000000000E+00 -0.42506420817E+02  0.42506420817E+02  0.00000000000E+00 0.  1.
         25    1    1    2    0    0  0.32418207152E+02 -0.45554961922E+02  0.22117101395E+03  0.25776503277E+03  0.12000000000E+03 0.  0.
         25    1    1    2    0    0 -0.32418207152E+02  0.45554961922E+02  0.15677593370E+03  0.20519475651E+03  0.12000000000E+03 0.  0.
<mgrwt>
<rscale>  0 0.26737216E+03</rscale>
<asrwt>0</asrwt>
<pdfrwt beam="1">  1        1 0.64685131E-01 0.26737216E+03</pdfrwt>
<pdfrwt beam="2">  1       -1 0.65394496E-02 0.26737216E+03</pdfrwt>
<totfact> 0.66093431E+03</totfact>
</mgrwt>
</event>
<event>
 4    1  0.1866622E-004  0.3044706E+03  0.7818608E-02  0.1083027E+00
         -1   -1    0    0    0  501 -0.00000000000E+00  0.00000000000E+00  0.56973517763E+02  0.56973517763E+02  0.00000000000E+00 0.  1.
          1   -1    0    0  501    0  0.00000000000E+00 -0.00000000000E+00 -0.40677823541E+03  0.40677823541E+03  0.00000000000E+00 0.  1.
         25    1    1    2    0    0 -0.95169050895E+01 -0.22428475550E+02 -0.37127689300E+02  0.12795340289E+03  0.12000000000E+03 0.  0.
         25    1    1    2    0    0  0.95169050895E+01  0.22428475550E+02 -0.31267702835E+03  0.33579835029E+03  0.12000000000E+03 0.  0.
<mgrwt>
<rscale>  0 0.30447060E+03</rscale>
<asrwt>0</asrwt>
<pdfrwt beam="1">  1        1 0.62581266E-01 0.30447060E+03</pdfrwt>
<pdfrwt beam="2">  1       -1 0.87651568E-02 0.30447060E+03</pdfrwt>
<totfact> 0.44281901E+03</totfact>
</mgrwt>
</event>
<event>
 4    1  0.1866622E-004  0.2988418E+03  0.7818608E-02  0.1085821E+00
         -1   -1    0    0    0  501 -0.00000000000E+00  0.00000000000E+00  0.11755168198E+02  0.11755168198E+02  0.00000000000E+00 0.  1.
          1   -1    0    0  501    0  0.00000000000E+00 -0.00000000000E+00 -0.18993007996E+04  0.18993007996E+04  0.00000000000E+00 0.  1.
         25    1    1    2    0    0 -0.21897294338E+02 -0.52945489333E+02 -0.50798729796E+03  0.52510361952E+03  0.12000000000E+03 0.  0.
         25    1    1    2    0    0  0.21897294338E+02  0.52945489333E+02 -0.13795583335E+04  0.13859523483E+04  0.12000000000E+03 0.  0.
<mgrwt>
<rscale>  0 0.29884177E+03</rscale>
<asrwt>0</asrwt>
<pdfrwt beam="1">  1        1 0.29219999E+00 0.29884177E+03</pdfrwt>
<pdfrwt beam="2">  1       -1 0.18084882E-02 0.29884177E+03</pdfrwt>
<totfact> 0.31148186E+03</totfact>
</mgrwt>
</event>
<event>
 4    1  0.1866622E-004  0.3172829E+03  0.7818608E-02  0.1076907E+00
          1   -1    0    0  501    0  0.00000000000E+00  0.00000000000E+00  0.76458884129E+02  0.76458884129E+02  0.00000000000E+00 0.  1.
         -1   -1    0    0    0  501 -0.00000000000E+00 -0.00000000000E+00 -0.32915875972E+03  0.32915875972E+03  0.00000000000E+00 0.  1.
         25    1    1    2    0    0 -0.73251572472E+02 -0.20931424481E+02 -0.21641384514E+03  0.25891865474E+03  0.12000000000E+03 0.  0.
         25    1    1    2    0    0  0.73251572472E+02  0.20931424481E+02 -0.36286030445E+02  0.14669898911E+03  0.12000000000E+03 0.  0.
<mgrwt>
<rscale>  0 0.31728291E+03</rscale>
<asrwt>0</asrwt>
<pdfrwt beam="1">  1        1 0.11762905E-01 0.31728291E+03</pdfrwt>
<pdfrwt beam="2">  1       -1 0.50639809E-01 0.31728291E+03</pdfrwt>
<totfact> 0.20706809E+03</totfact>
</mgrwt>
</event>
<event>
 4    1  0.1866622E-004  0.3432765E+03  0.7818608E-02  0.1065409E+00
         -2   -1    0    0    0  501 -0.00000000000E+00  0.00000000000E+00  0.12735899144E+02  0.12735899144E+02  0.00000000000E+00 0. -1.
          2   -1    0    0  501    0  0.00000000000E+00 -0.00000000000E+00 -0.23131216482E+04  0.23131216482E+04  0.00000000000E+00 0. -1.
         25    1    1    2    0    0 -0.10198112812E+03 -0.80448159151E+01 -0.69091760189E+03  0.70868328763E+03  0.12000000000E+03 0.  0.
         25    1    1    2    0    0  0.10198112812E+03  0.80448159151E+01 -0.16094681471E+04  0.16171742597E+04  0.12000000000E+03 0.  0.
<mgrwt>
<rscale>  0 0.34327647E+03</rscale>
<asrwt>0</asrwt>
<pdfrwt beam="1">  1        2 0.35586476E+00 0.34327647E+03</pdfrwt>
<pdfrwt beam="2">  1       -2 0.19593697E-02 0.34327647E+03</pdfrwt>
<totfact> 0.40257127E+03</totfact>
</mgrwt>
</event>
<event>
 4    1  0.1866622E-004  0.2561060E+03  0.7818608E-02  0.1109506E+00
          1   -1    0    0  501    0  0.00000000000E+00  0.00000000000E+00  0.30836372924E+02  0.30836372924E+02  0.00000000000E+00 0. -1.
         -1   -1    0    0    0  501 -0.00000000000E+00 -0.00000000000E+00 -0.53176063967E+03  0.53176063967E+03  0.00000000000E+00 0. -1.
         25    1    1    2    0    0 -0.42030858665E+02 -0.22001267665E+01 -0.21742804674E+03  0.25188566682E+03  0.12000000000E+03 0.  0.
         25    1    1    2    0    0  0.42030858665E+02  0.22001267665E+01 -0.28349622000E+03  0.31071134578E+03  0.12000000000E+03 0.  0.
<mgrwt>
<rscale>  0 0.25610599E+03</rscale>
<asrwt>0</asrwt>
<pdfrwt beam="1">  1        1 0.47440576E-02 0.25610599E+03</pdfrwt>
<pdfrwt beam="2">  1       -1 0.81809325E-01 0.25610599E+03</pdfrwt>
<totfact> 0.27749548E+03</totfact>
</mgrwt>
</event>
<event>
 4    1  0.1866622E-004  0.5105584E+03  0.7818608E-02  0.1011059E+00
         -4   -1    0    0    0  501 -0.00000000000E+00  0.00000000000E+00  0.21427876714E+04  0.21427876714E+04  0.00000000000E+00 0.  1.
          4   -1    0    0  501    0  0.00000000000E+00 -0.00000000000E+00 -0.30412474485E+02  0.30412474485E+02  0.00000000000E+00 0.  1.
         25    1    1    2    0    0  0.28666323723E+01 -0.54391153467E+01  0.20148933141E+04  0.20184729051E+04  0.12000000000E+03 0.  0.
         25    1    1    2    0    0 -0.28666323723E+01  0.54391153467E+01  0.97481882848E+02  0.15472724078E+03  0.12000000000E+03 0.  0.
<mgrwt>
<rscale>  0 0.51055842E+03</rscale>
<asrwt>0</asrwt>
<pdfrwt beam="1">  1        4 0.46788439E-02 0.51055842E+03</pdfrwt>
<pdfrwt beam="2">  1       -4 0.32965952E+00 0.51055842E+03</pdfrwt>
<totfact> 0.11927287E+01</totfact>
</mgrwt>
</event>
<event>
 4    1  0.1866622E-004  0.2838775E+03  0.7818608E-02  0.1093590E+00
          1   -1    0    0  501    0  0.00000000000E+00  0.00000000000E+00  0.66227438585E+03  0.66227438585E+03  0.00000000000E+00 0. -1.
         -1   -1    0    0    0  501 -0.00000000000E+00 -0.00000000000E+00 -0.30420342383E+02  0.30420342383E+02  0.00000000000E+00 0. -1.
         25    1    1    2    0    0 -0.47620631202E+02 -0.27052016551E+02  0.44381988511E+03  0.46300715603E+03  0.12000000000E+03 0.  0.
         25    1    1    2    0    0  0.47620631202E+02  0.27052016551E+02  0.18803415836E+03  0.22968757220E+03  0.12000000000E+03 0.  0.
<mgrwt>
<rscale>  0 0.28387753E+03</rscale>
<asrwt>0</asrwt>
<pdfrwt beam="1">  1        1 0.10188836E+00 0.28387753E+03</pdfrwt>
<pdfrwt beam="2">  1       -1 0.46800531E-02 0.28387753E+03</pdfrwt>
<totfact> 0.59300246E+03</totfact>
</mgrwt>
</event>
<event>
 4    1  0.1866622E-004  0.4102759E+03  0.7818608E-02  0.1040278E+00
          1   -1    0    0  501    0  0.00000000000E+00  0.00000000000E+00  0.10874050555E+03  0.10874050555E+03  0.00000000000E+00 0. -1.
         -1   -1    0    0    0  501 -0.00000000000E+00 -0.00000000000E+00 -0.38699073727E+03  0.38699073727E+03  0.00000000000E+00 0. -1.
         25    1    1    2    0    0  0.16094152208E+03 -0.22048790256E+02 -0.18257722513E+03  0.27225496472E+03  0.12000000000E+03 0.  0.
         25    1    1    2    0    0 -0.16094152208E+03  0.22048790256E+02 -0.95673006593E+02  0.22347627809E+03  0.12000000000E+03 0.  0.
<mgrwt>
<rscale>  0 0.41027585E+03</rscale>
<asrwt>0</asrwt>
<pdfrwt beam="1">  1        1 0.16729308E-01 0.41027585E+03</pdfrwt>
<pdfrwt beam="2">  1       -1 0.59537037E-01 0.41027585E+03</pdfrwt>
<totfact> 0.95544016E+02</totfact>
</mgrwt>
</event>
<event>
 4    1  0.1866622E-004  0.2654689E+03  0.7818608E-02  0.1103901E+00
         -1   -1    0    0    0  501 -0.00000000000E+00  0.00000000000E+00  0.35175774981E+02  0.35175774981E+02  0.00000000000E+00 0. -1.
          1   -1    0    0  501    0  0.00000000000E+00 -0.00000000000E+00 -0.50086841801E+03  0.50086841801E+03  0.00000000000E+00 0. -1.
         25    1    1    2    0    0  0.14940642955E+02  0.34062140092E+02 -0.14634895007E+03  0.19287681921E+03  0.12000000000E+03 0.  0.
         25    1    1    2    0    0 -0.14940642955E+02 -0.34062140092E+02 -0.31934369295E+03  0.34316737378E+03  0.12000000000E+03 0.  0.
<mgrwt>
<rscale>  0 0.26546890E+03</rscale>
<asrwt>0</asrwt>
<pdfrwt beam="1">  1        1 0.77056678E-01 0.26546890E+03</pdfrwt>
<pdfrwt beam="2">  1       -1 0.54116578E-02 0.26546890E+03</pdfrwt>
<totfact> 0.69914966E+03</totfact>
</mgrwt>
</event>
<event>
 4    1  0.1866622E-004  0.2645543E+03  0.7818608E-02  0.1104437E+00
         -2   -1    0    0    0  501 -0.00000000000E+00  0.00000000000E+00  0.71832465477E+02  0.71832465477E+02  0.00000000000E+00 0. -1.
          2   -1    0    0  501    0  0.00000000000E+00 -0.00000000000E+00 -0.24358415497E+03  0.24358415497E+03  0.00000000000E+00 0. -1.
         25    1    1    2    0    0  0.44633417669E+02  0.19350112550E+02 -0.53647815223E+02  0.14015939821E+03  0.12000000000E+03 0.  0.
         25    1    1    2    0    0 -0.44633417669E+02 -0.19350112550E+02 -0.11810387427E+03  0.17525722224E+03  0.12000000000E+03 0.  0.
<mgrwt>
<rscale>  0 0.26455435E+03</rscale>
<asrwt>0</asrwt>
<pdfrwt beam="1">  1        2 0.37474485E-01 0.26455435E+03</pdfrwt>
<pdfrwt beam="2">  1       -2 0.11051149E-01 0.26455435E+03</pdfrwt>
<totfact> 0.76749203E+03</totfact>
</mgrwt>
</event>
<event>
 4    1  0.1866622E-004  0.2496124E+03  0.7818608E-02  0.1113550E+00
         -2   -1    0    0    0  501 -0.00000000000E+00  0.00000000000E+00  0.48387517071E+01  0.48387517071E+01  0.00000000000E+00 0. -1.
          2   -1    0    0  501    0  0.00000000000E+00 -0.00000000000E+00 -0.32191339008E+04  0.32191339008E+04  0.00000000000E+00 0. -1.
         25    1    1    2    0    0 -0.27572914477E+02 -0.16571429089E+02 -0.17609021842E+04  0.17652794057E+04  0.12000000000E+03 0.  0.
         25    1    1    2    0    0  0.27572914477E+02  0.16571429089E+02 -0.14533929649E+04  0.14586932468E+04  0.12000000000E+03 0.  0.
<mgrwt>
<rscale>  0 0.24961242E+03</rscale>
<asrwt>0</asrwt>
<pdfrwt beam="1">  1        2 0.49525253E+00 0.24961242E+03</pdfrwt>
<pdfrwt beam="2">  1       -2 0.74442159E-03 0.24961242E+03</pdfrwt>
<totfact> 0.50292338E+03</totfact>
</mgrwt>
</event>
<event>
 4    1  0.1866622E-004  0.2815984E+03  0.7818608E-02  0.1094819E+00
         -1   -1    0    0    0  501 -0.00000000000E+00  0.00000000000E+00  0.31911792087E+03  0.31911792087E+03  0.00000000000E+00 0. -1.
          1   -1    0    0  501    0  0.00000000000E+00 -0.00000000000E+00 -0.62122528464E+02  0.62122528464E+02  0.00000000000E+00 0. -1.
         25    1    1    2    0    0  0.68391522364E+02  0.21856308166E+02  0.10628005502E+03  0.17564324249E+03  0.12000000000E+03 0.  0.
         25    1    1    2    0    0 -0.68391522364E+02 -0.21856308166E+02  0.15071533739E+03  0.20559720685E+03  0.12000000000E+03 0.  0.
<mgrwt>
<rscale>  0 0.28159838E+03</rscale>
<asrwt>0</asrwt>
<pdfrwt beam="1">  1        1 0.95573123E-02 0.28159838E+03</pdfrwt>
<pdfrwt beam="2">  1       -1 0.49095064E-01 0.28159838E+03</pdfrwt>
<totfact> 0.28917257E+03</totfact>
</mgrwt>
</event>
<event>
 4    1  0.1866622E-004  0.2513945E+03  0.7818608E-02  0.1112427E+00
          1   -1    0    0  501    0  0.00000000000E+00  0.00000000000E+00  0.30276385783E+02  0.30276385783E+02  0.00000000000E+00 0.  1.
         -1   -1    0    0    0  501 -0.00000000000E+00 -0.00000000000E+00 -0.52185222286E+03  0.52185222286E+03  0.00000000000E+00 0.  1.
         25    1    1    2    0    0  0.35378971544E+02  0.10149855881E+02 -0.23103726207E+03  0.26293137444E+03  0.12000000000E+03 0.  0.
         25    1    1    2    0    0 -0.35378971544E+02 -0.10149855881E+02 -0.26053857501E+03  0.28919723420E+03  0.12000000000E+03 0.  0.
<mgrwt>
<rscale>  0 0.25139450E+03</rscale>
<asrwt>0</asrwt>
<pdfrwt beam="1">  1        1 0.46579051E-02 0.25139450E+03</pdfrwt>
<pdfrwt beam="2">  1       -1 0.80284964E-01 0.25139450E+03</pdfrwt>
<totfact> 0.29581991E+03</totfact>
</mgrwt>
</event>
<event>
 4    1  0.1866622E-004  0.3337771E+03  0.7818608E-02  0.1069478E+00
         -2   -1    0    0    0  501 -0.00000000000E+00  0.00000000000E+00  0.13254442762E+02  0.13254442762E+02  0.00000000000E+00 0.  1.
          2   -1    0    0  501    0  0.00000000000E+00 -0.00000000000E+00 -0.21013175143E+04  0.21013175143E+04  0.00000000000E+00 0.  1.
         25    1    1    2    0    0  0.28707595559E+01 -0.11005152304E+03 -0.12752661519E+04  0.12856217706E+04  0.12000000000E+03 0.  0.
         25    1    1    2    0    0 -0.28707595559E+01  0.11005152304E+03 -0.81279691972E+03  0.82895018650E+03  0.12000000000E+03 0.  0.
<mgrwt>
<rscale>  0 0.33377713E+03</rscale>
<asrwt>0</asrwt>
<pdfrwt beam="1">  1        2 0.32327973E+00 0.33377713E+03</pdfrwt>
<pdfrwt beam="2">  1       -2 0.20391443E-02 0.33377713E+03</pdfrwt>
<totfact> 0.49313443E+03</totfact>
</mgrwt>
</event>
<event>
 4    1  0.1866622E-004  0.2730721E+03  0.7818608E-02  0.1099534E+00
          2   -1    0    0  501    0  0.00000000000E+00  0.00000000000E+00  0.50129561595E+03  0.50129561595E+03  0.00000000000E+00 0. -1.
         -2   -1    0    0    0  501 -0.00000000000E+00 -0.00000000000E+00 -0.37187825809E+02  0.37187825809E+02  0.00000000000E+00 0. -1.
         25    1    1    2    0    0  0.26475527996E+02 -0.32427863568E+02  0.13366240417E+03  0.18444012093E+03  0.12000000000E+03 0.  0.
         25    1    1    2    0    0 -0.26475527996E+02  0.32427863568E+02  0.33044538597E+03  0.35404332083E+03  0.12000000000E+03 0.  0.
<mgrwt>
<rscale>  0 0.27307211E+03</rscale>
<asrwt>0</asrwt>
<pdfrwt beam="1">  1        2 0.77122397E-01 0.27307211E+03</pdfrwt>
<pdfrwt beam="2">  1       -2 0.57212043E-02 0.27307211E+03</pdfrwt>
<totfact> 0.98247450E+03</totfact>
</mgrwt>
</event>
<event>
 4    1  0.1866622E-004  0.2523818E+03  0.7818608E-02  0.1111809E+00
         -2   -1    0    0    0  501 -0.00000000000E+00  0.00000000000E+00  0.94309894935E+01  0.94309894935E+01  0.00000000000E+00 0.  1.
          2   -1    0    0  501    0  0.00000000000E+00 -0.00000000000E+00 -0.16884915317E+04  0.16884915317E+04  0.00000000000E+00 0.  1.
         25    1    1    2    0    0  0.38951023083E+02 -0.24424851550E+01 -0.83280953468E+03  0.84231518387E+03  0.12000000000E+03 0.  0.
         25    1    1    2    0    0 -0.38951023083E+02  0.24424851550E+01 -0.84625100752E+03  0.85560733731E+03  0.12000000000E+03 0.  0.
<mgrwt>
<rscale>  0 0.25238182E+03</rscale>
<asrwt>0</asrwt>
<pdfrwt beam="1">  1        2 0.25976762E+00 0.25238182E+03</pdfrwt>
<pdfrwt beam="2">  1       -2 0.14509232E-02 0.25238182E+03</pdfrwt>
<totfact> 0.13386820E+04</totfact>
</mgrwt>
</event>
<event>
 4    1  0.1866622E-004  0.4512006E+03  0.7818608E-02  0.1027365E+00
          4   -1    0    0  501    0  0.00000000000E+00  0.00000000000E+00  0.20884644391E+03  0.20884644391E+03  0.00000000000E+00 0.  1.
         -4   -1    0    0    0  501 -0.00000000000E+00 -0.00000000000E+00 -0.24369817277E+03  0.24369817277E+03  0.00000000000E+00 0.  1.
         25    1    1    2    0    0  0.12636403428E+02 -0.18693680051E+03  0.19973956666E+02  0.22339204333E+03  0.12000000000E+03 0.  0.
         25    1    1    2    0    0 -0.12636403428E+02  0.18693680051E+03 -0.54825685531E+02  0.22915257335E+03  0.12000000000E+03 0.  0.
<mgrwt>
<rscale>  0 0.45120061E+03</rscale>
<asrwt>0</asrwt>
<pdfrwt beam="1">  1        4 0.32130222E-01 0.45120061E+03</pdfrwt>
<pdfrwt beam="2">  1       -4 0.37492027E-01 0.45120061E+03</pdfrwt>
<totfact> 0.12595227E+02</totfact>
</mgrwt>
</event>
<event>
 4    1  0.1866622E-004  0.2655627E+03  0.7818608E-02  0.1103846E+00
         -2   -1    0    0    0  501 -0.00000000000E+00  0.00000000000E+00  0.15135832077E+03  0.15135832077E+03  0.00000000000E+00 0.  1.
          2   -1    0    0  501    0  0.00000000000E+00 -0.00000000000E+00 -0.11648443413E+03  0.11648443413E+03  0.00000000000E+00 0.  1.
         25    1    1    2    0    0  0.40545382070E+02 -0.17597964848E+02 -0.18608842769E+02  0.12922811383E+03  0.12000000000E+03 0.  0.
         25    1    1    2    0    0 -0.40545382070E+02  0.17597964848E+02  0.53482729416E+02  0.13861464107E+03  0.12000000000E+03 0.  0.
<mgrwt>
<rscale>  0 0.26556271E+03</rscale>
<asrwt>0</asrwt>
<pdfrwt beam="1">  1        2 0.17920682E-01 0.26556271E+03</pdfrwt>
<pdfrwt beam="2">  1       -2 0.23285895E-01 0.26556271E+03</pdfrwt>
<totfact> 0.50438411E+03</totfact>
</mgrwt>
</event>
<event>
 4    1  0.1866622E-004  0.3279769E+03  0.7818608E-02  0.1072036E+00
         -2   -1    0    0    0  501 -0.00000000000E+00  0.00000000000E+00  0.39348781778E+02  0.39348781778E+02  0.00000000000E+00 0.  1.
          2   -1    0    0  501    0  0.00000000000E+00 -0.00000000000E+00 -0.68343175952E+03  0.68343175952E+03  0.00000000000E+00 0.  1.
         25    1    1    2    0    0 -0.33168590309E+01  0.84764901290E+02 -0.16166451205E+03  0.21847540937E+03  0.12000000000E+03 0.  0.
         25    1    1    2    0    0  0.33168590309E+01 -0.84764901290E+02 -0.48241846570E+03  0.50430513193E+03  0.12000000000E+03 0.  0.
<mgrwt>
<rscale>  0 0.32797687E+03</rscale>
<asrwt>0</asrwt>
<pdfrwt beam="1">  1        2 0.10514333E+00 0.32797687E+03</pdfrwt>
<pdfrwt beam="2">  1       -2 0.60536595E-02 0.32797687E+03</pdfrwt>
<totfact> 0.63213688E+03</totfact>
</mgrwt>
</event>
<event>
 4    1  0.1866622E-004  0.3322680E+03  0.7818608E-02  0.1070138E+00
          3   -1    0    0  501    0  0.00000000000E+00  0.00000000000E+00  0.88182530768E+02  0.88182530768E+02  0.00000000000E+00 0.  1.
         -3   -1    0    0    0  501 -0.00000000000E+00 -0.00000000000E+00 -0.31299298516E+03  0.31299298516E+03  0.00000000000E+00 0.  1.
         25    1    1    2    0    0 -0.76503184153E+02 -0.52857884193E+01 -0.21570432819E+03  0.25847443576E+03  0.12000000000E+03 0.  0.
         25    1    1    2    0    0  0.76503184153E+02  0.52857884193E+01 -0.91061262028E+01  0.14270108016E+03  0.12000000000E+03 0.  0.
<mgrwt>
<rscale>  0 0.33226805E+03</rscale>
<asrwt>0</asrwt>
<pdfrwt beam="1">  1        3 0.13566543E-01 0.33226805E+03</pdfrwt>
<pdfrwt beam="2">  1       -3 0.48152767E-01 0.33226805E+03</pdfrwt>
<totfact> 0.49056741E+02</totfact>
</mgrwt>
</event>
<event>
 4    1  0.1866622E-004  0.3446667E+03  0.7818608E-02  0.1064826E+00
         -2   -1    0    0    0  501 -0.00000000000E+00  0.00000000000E+00  0.34434922415E+02  0.34434922415E+02  0.00000000000E+00 0.  1.
          2   -1    0    0  501    0  0.00000000000E+00 -0.00000000000E+00 -0.86246111603E+03  0.86246111603E+03  0.00000000000E+00 0.  1.
         25    1    1    2    0    0 -0.97705835750E+02  0.72102093903E+02 -0.35278422440E+03  0.39192072064E+03  0.12000000000E+03 0.  0.
         25    1    1    2    0    0  0.97705835750E+02 -0.72102093903E+02 -0.47524196921E+03  0.50497531780E+03  0.12000000000E+03 0.  0.
<mgrwt>
<rscale>  0 0.34466669E+03</rscale>
<asrwt>0</asrwt>
<pdfrwt beam="1">  1        2 0.13268631E+00 0.34466669E+03</pdfrwt>
<pdfrwt beam="2">  1       -2 0.52976810E-02 0.34466669E+03</pdfrwt>
<totfact> 0.57871165E+03</totfact>
</mgrwt>
</event>
<event>
 4    1  0.1866622E-004  0.3049062E+03  0.7818608E-02  0.1082813E+00
         -2   -1    0    0    0  501 -0.00000000000E+00  0.00000000000E+00  0.11742830904E+02  0.11742830904E+02  0.00000000000E+00 0.  1.
          2   -1    0    0  501    0  0.00000000000E+00 -0.00000000000E+00 -0.19792455540E+04  0.19792455540E+04  0.00000000000E+00 0.  1.
         25    1    1    2    0    0 -0.26154235287E+01  0.82911292088E+01 -0.37236998817E+03  0.39132466233E+03  0.12000000000E+03 0.  0.
         25    1    1    2    0    0  0.26154235287E+01 -0.82911292088E+01 -0.15951327350E+04  0.15996637226E+04  0.12000000000E+03 0.  0.
<mgrwt>
<rscale>  0 0.30490619E+03</rscale>
<asrwt>0</asrwt>
<pdfrwt beam="1">  1        2 0.30449921E+00 0.30490619E+03</pdfrwt>
<pdfrwt beam="2">  1       -2 0.18065900E-02 0.30490619E+03</pdfrwt>
<totfact> 0.68458103E+03</totfact>
</mgrwt>
</event>
<event>
 4    1  0.1866622E-004  0.3319700E+03  0.7818608E-02  0.1070269E+00
         -2   -1    0    0    0  501 -0.00000000000E+00  0.00000000000E+00  0.16391567908E+02  0.16391567908E+02  0.00000000000E+00 0.  1.
          2   -1    0    0  501    0  0.00000000000E+00 -0.00000000000E+00 -0.16808043473E+04  0.16808043473E+04  0.00000000000E+00 0.  1.
         25    1    1    2    0    0 -0.11248339557E+03 -0.22326501608E+02 -0.83311586197E+03  0.84948986246E+03  0.12000000000E+03 0.  0.
         25    1    1    2    0    0  0.11248339557E+03  0.22326501608E+02 -0.83129691741E+03  0.84770605273E+03  0.12000000000E+03 0.  0.
<mgrwt>
<rscale>  0 0.33196999E+03</rscale>
<asrwt>0</asrwt>
<pdfrwt beam="1">  1        2 0.25858519E+00 0.33196999E+03</pdfrwt>
<pdfrwt beam="2">  1       -2 0.25217806E-02 0.33196999E+03</pdfrwt>
<totfact> 0.60090113E+03</totfact>
</mgrwt>
</event>
<event>
 4    1  0.1866622E-004  0.4206650E+03  0.7818608E-02  0.1036850E+00
         -1   -1    0    0    0  501 -0.00000000000E+00  0.00000000000E+00  0.39030066944E+03  0.39030066944E+03  0.00000000000E+00 0. -1.
          1   -1    0    0  501    0  0.00000000000E+00 -0.00000000000E+00 -0.11334789801E+03  0.11334789801E+03  0.00000000000E+00 0. -1.
         25    1    1    2    0    0 -0.12553751227E+03 -0.10425527852E+03  0.20631963953E+03  0.28913080732E+03  0.12000000000E+03 0.  0.
         25    1    1    2    0    0  0.12553751227E+03  0.10425527852E+03  0.70633131907E+02  0.21451776013E+03  0.12000000000E+03 0.  0.
<mgrwt>
<rscale>  0 0.42066500E+03</rscale>
<asrwt>0</asrwt>
<pdfrwt beam="1">  1        1 0.17438138E-01 0.42066500E+03</pdfrwt>
<pdfrwt beam="2">  1       -1 0.60046257E-01 0.42066500E+03</pdfrwt>
<totfact> 0.88967717E+02</totfact>
</mgrwt>
</event>
<event>
 4    1  0.1866622E-004  0.3026094E+03  0.7818608E-02  0.1083943E+00
          1   -1    0    0  501    0  0.00000000000E+00  0.00000000000E+00  0.43636733637E+03  0.43636733637E+03  0.00000000000E+00 0. -1.
         -1   -1    0    0    0  501 -0.00000000000E+00 -0.00000000000E+00 -0.52462926600E+02  0.52462926600E+02  0.00000000000E+00 0. -1.
         25    1    1    2    0    0  0.84763101936E+02  0.35314702690E+02  0.20458899419E+03  0.25433947436E+03  0.12000000000E+03 0.  0.
         25    1    1    2    0    0 -0.84763101936E+02 -0.35314702690E+02  0.17931541558E+03  0.23449078860E+03  0.12000000000E+03 0.  0.
<mgrwt>
<rscale>  0 0.30260937E+03</rscale>
<asrwt>0</asrwt>
<pdfrwt beam="1">  1        1 0.67133434E-01 0.30260937E+03</pdfrwt>
<pdfrwt beam="2">  1       -1 0.80712198E-02 0.30260937E+03</pdfrwt>
<totfact> 0.45881994E+03</totfact>
</mgrwt>
</event>
<event>
 4    1  0.1866622E-004  0.3348935E+03  0.7818608E-02  0.1068992E+00
          2   -1    0    0  501    0  0.00000000000E+00  0.00000000000E+00  0.30947969934E+03  0.30947969934E+03  0.00000000000E+00 0.  1.
         -2   -1    0    0    0  501 -0.00000000000E+00 -0.00000000000E+00 -0.90598551039E+02  0.90598551039E+02  0.00000000000E+00 0.  1.
         25    1    1    2    0    0 -0.60676127823E+02  0.99770705044E+02  0.11137658339E+03  0.20109830780E+03  0.12000000000E+03 0.  0.
         25    1    1    2    0    0  0.60676127823E+02 -0.99770705044E+02  0.10750456492E+03  0.19897994258E+03  0.12000000000E+03 0.  0.
<mgrwt>
<rscale>  0 0.33489349E+03</rscale>
<asrwt>0</asrwt>
<pdfrwt beam="1">  1        2 0.47612261E-01 0.33489349E+03</pdfrwt>
<pdfrwt beam="2">  1       -2 0.13938239E-01 0.33489349E+03</pdfrwt>
<totfact> 0.40954945E+03</totfact>
</mgrwt>
</event>
<event>
 4    1  0.1866622E-004  0.2731517E+03  0.7818608E-02  0.1099489E+00
          1   -1    0    0  501    0  0.00000000000E+00  0.00000000000E+00  0.13352158396E+04  0.13352158396E+04  0.00000000000E+00 0.  1.
         -1   -1    0    0    0  501 -0.00000000000E+00 -0.00000000000E+00 -0.13969999866E+02  0.13969999866E+02  0.00000000000E+00 0.  1.
         25    1    1    2    0    0 -0.55403678210E+02 -0.30961884470E+02  0.58657265299E+03  0.60207614393E+03  0.12000000000E+03 0.  0.
         25    1    1    2    0    0  0.55403678210E+02  0.30961884470E+02  0.73467318677E+03  0.74710969557E+03  0.12000000000E+03 0.  0.
<mgrwt>
<rscale>  0 0.27315172E+03</rscale>
<asrwt>0</asrwt>
<pdfrwt beam="1">  1        1 0.20541772E+00 0.27315172E+03</pdfrwt>
<pdfrwt beam="2">  1       -1 0.21492318E-02 0.27315172E+03</pdfrwt>
<totfact> 0.56956096E+03</totfact>
</mgrwt>
</event>
<event>
 4    1  0.1866622E-004  0.2729763E+03  0.7818608E-02  0.1099588E+00
         -1   -1    0    0    0  501 -0.00000000000E+00  0.00000000000E+00  0.36955808465E+03  0.36955808465E+03  0.00000000000E+00 0. -1.
          1   -1    0    0  501    0  0.00000000000E+00 -0.00000000000E+00 -0.50408897386E+02  0.50408897386E+02  0.00000000000E+00 0. -1.
         25    1    1    2    0    0  0.24506258411E+02  0.14164674087E+02  0.69500633218E+02  0.14153279730E+03  0.12000000000E+03 0.  0.
         25    1    1    2    0    0 -0.24506258411E+02 -0.14164674087E+02  0.24964855405E+03  0.27843418474E+03  0.12000000000E+03 0.  0.
<mgrwt>
<rscale>  0 0.27297630E+03</rscale>
<asrwt>0</asrwt>
<pdfrwt beam="1">  1        1 0.77552152E-02 0.27297630E+03</pdfrwt>
<pdfrwt beam="2">  1       -1 0.56855088E-01 0.27297630E+03</pdfrwt>
<totfact> 0.29144708E+03</totfact>
</mgrwt>
</event>
<event>
 4    1  0.1866622E-004  0.3483511E+03  0.7818608E-02  0.1063294E+00
          2   -1    0    0  501    0  0.00000000000E+00  0.00000000000E+00  0.12172185825E+04  0.12172185825E+04  0.00000000000E+00 0. -1.
         -2   -1    0    0    0  501 -0.00000000000E+00 -0.00000000000E+00 -0.24923309643E+02  0.24923309643E+02  0.00000000000E+00 0. -1.
         25    1    1    2    0    0 -0.69558938220E+02 -0.57811444556E+02  0.91018921646E+03  0.92251017272E+03  0.12000000000E+03 0.  0.
         25    1    1    2    0    0  0.69558938220E+02  0.57811444556E+02  0.28210605641E+03  0.31963171944E+03  0.12000000000E+03 0.  0.
<mgrwt>
<rscale>  0 0.34835106E+03</rscale>
<asrwt>0</asrwt>
<pdfrwt beam="1">  1        2 0.18726435E+00 0.34835106E+03</pdfrwt>
<pdfrwt beam="2">  1       -2 0.38343563E-02 0.34835106E+03</pdfrwt>
<totfact> 0.57446448E+03</totfact>
</mgrwt>
</event>
<event>
 4    1  0.1866622E-004  0.3931626E+03  0.7818608E-02  0.1046173E+00
         -2   -1    0    0    0  501 -0.00000000000E+00  0.00000000000E+00  0.30349613986E+02  0.30349613986E+02  0.00000000000E+00 0. -1.
          2   -1    0    0  501    0  0.00000000000E+00 -0.00000000000E+00 -0.12733012377E+04  0.12733012377E+04  0.00000000000E+00 0. -1.
         25    1    1    2    0    0 -0.86511410951E+02  0.11674885322E+03 -0.43597780670E+03  0.47496438486E+03  0.12000000000E+03 0.  0.
         25    1    1    2    0    0  0.86511410951E+02 -0.11674885322E+03 -0.80697381702E+03  0.82868646683E+03  0.12000000000E+03 0.  0.
<mgrwt>
<rscale>  0 0.39316257E+03</rscale>
<asrwt>0</asrwt>
<pdfrwt beam="1">  1        2 0.19589255E+00 0.39316257E+03</pdfrwt>
<pdfrwt beam="2">  1       -2 0.46691701E-02 0.39316257E+03</pdfrwt>
<totfact> 0.39592032E+03</totfact>
</mgrwt>
</event>
<event>
 4    1  0.1866622E-004  0.3384859E+03  0.7818608E-02  0.1067443E+00
          1   -1    0    0  501    0  0.00000000000E+00  0.00000000000E+00  0.13449764461E+04  0.13449764461E+04  0.00000000000E+00 0. -1.
         -1   -1    0    0    0  501 -0.00000000000E+00 -0.00000000000E+00 -0.21296414989E+02  0.21296414989E+02  0.00000000000E+00 0. -1.
         25    1    1    2    0    0  0.31445505159E+02  0.60748875157E+02  0.26709643919E+03  0.30069877528E+03  0.12000000000E+03 0.  0.
         25    1    1    2    0    0 -0.31445505159E+02 -0.60748875157E+02  0.10565835919E+04  0.10655740858E+04  0.12000000000E+03 0.  0.
<mgrwt>
<rscale>  0 0.33848590E+03</rscale>
<asrwt>0</asrwt>
<pdfrwt beam="1">  1        1 0.20691939E+00 0.33848590E+03</pdfrwt>
<pdfrwt beam="2">  1       -1 0.32763726E-02 0.33848590E+03</pdfrwt>
<totfact> 0.30145196E+03</totfact>
</mgrwt>
</event>
<event>
 4    1  0.1866622E-004  0.5143709E+03  0.7818608E-02  0.1010094E+00
         -1   -1    0    0    0  501 -0.00000000000E+00  0.00000000000E+00  0.47542608904E+02  0.47542608904E+02  0.00000000000E+00 0.  1.
          1   -1    0    0  501    0  0.00000000000E+00 -0.00000000000E+00 -0.13912649304E+04  0.13912649304E+04  0.00000000000E+00 0.  1.
         25    1    1    2    0    0  0.34705673303E+02  0.12563373226E+03 -0.15037658568E+03  0.23238209045E+03  0.12000000000E+03 0.  0.
         25    1    1    2    0    0 -0.34705673303E+02 -0.12563373226E+03 -0.11933457358E+04  0.12064254488E+04  0.12000000000E+03 0.  0.
<mgrwt>
<rscale>  0 0.51437093E+03</rscale>
<asrwt>0</asrwt>
<pdfrwt beam="1">  1        1 0.21404076E+00 0.51437093E+03</pdfrwt>
<pdfrwt beam="2">  1       -1 0.73142476E-02 0.51437093E+03</pdfrwt>
<totfact> 0.82444261E+02</totfact>
</mgrwt>
</event>
<event>
 4    1  0.1866622E-004  0.2994965E+03  0.7818608E-02  0.1085493E+00
          2   -1    0    0  501    0  0.00000000000E+00  0.00000000000E+00  0.30309083249E+03  0.30309083249E+03  0.00000000000E+00 0.  1.
         -2   -1    0    0    0  501 -0.00000000000E+00 -0.00000000000E+00 -0.73986175140E+02  0.73986175140E+02  0.00000000000E+00 0.  1.
         25    1    1    2    0    0 -0.92489574067E+01 -0.67078874667E+02  0.40714227804E+02  0.14367590955E+03  0.12000000000E+03 0.  0.
         25    1    1    2    0    0  0.92489574067E+01  0.67078874667E+02  0.18839042955E+03  0.23340109808E+03  0.12000000000E+03 0.  0.
<mgrwt>
<rscale>  0 0.29949645E+03</rscale>
<asrwt>0</asrwt>
<pdfrwt beam="1">  1        2 0.46629358E-01 0.29949645E+03</pdfrwt>
<pdfrwt beam="2">  1       -2 0.11382489E-01 0.29949645E+03</pdfrwt>
<totfact> 0.58079276E+03</totfact>
</mgrwt>
</event>
<event>
 4    1  0.1866622E-004  0.2615264E+03  0.7818608E-02  0.1106230E+00
          4   -1    0    0  501    0  0.00000000000E+00  0.00000000000E+00  0.44247523436E+02  0.44247523436E+02  0.00000000000E+00 0. -1.
         -4   -1    0    0    0  501 -0.00000000000E+00 -0.00000000000E+00 -0.38644011712E+03  0.38644011712E+03  0.00000000000E+00 0. -1.
         25    1    1    2    0    0  0.49455627229E+02  0.52235928821E+01 -0.14634607290E+03  0.19567912009E+03  0.12000000000E+03 0.  0.
         25    1    1    2    0    0 -0.49455627229E+02 -0.52235928821E+01 -0.19584652078E+03  0.23500852046E+03  0.12000000000E+03 0.  0.
<mgrwt>
<rscale>  0 0.26152643E+03</rscale>
<asrwt>0</asrwt>
<pdfrwt beam="1">  1        4 0.68073114E-02 0.26152643E+03</pdfrwt>
<pdfrwt beam="2">  1       -4 0.59452324E-01 0.26152643E+03</pdfrwt>
<totfact> 0.72667258E+02</totfact>
</mgrwt>
</event>
<event>
 4    1  0.1866622E-004  0.3423771E+03  0.7818608E-02  0.1065788E+00
         -2   -1    0    0    0  501 -0.00000000000E+00  0.00000000000E+00  0.96645237878E+02  0.96645237878E+02  0.00000000000E+00 0. -1.
          2   -1    0    0  501    0  0.00000000000E+00 -0.00000000000E+00 -0.30322783346E+03  0.30322783346E+03  0.00000000000E+00 0. -1.
         25    1    1    2    0    0 -0.88728119102E+02  0.77953299598E+02 -0.13940532221E+03  0.21859377827E+03  0.12000000000E+03 0.  0.
         25    1    1    2    0    0  0.88728119102E+02 -0.77953299598E+02 -0.67177273371E+02  0.18127929307E+03  0.12000000000E+03 0.  0.
<mgrwt>
<rscale>  0 0.34237714E+03</rscale>
<asrwt>0</asrwt>
<pdfrwt beam="1">  1        2 0.46650435E-01 0.34237714E+03</pdfrwt>
<pdfrwt beam="2">  1       -2 0.14868498E-01 0.34237714E+03</pdfrwt>
<totfact> 0.37647210E+03</totfact>
</mgrwt>
</event>
<event>
 4    1  0.1866622E-004  0.5268066E+03  0.7818608E-02  0.1007010E+00
         -2   -1    0    0    0  501 -0.00000000000E+00  0.00000000000E+00  0.46261868571E+02  0.46261868571E+02  0.00000000000E+00 0.  1.
          2   -1    0    0  501    0  0.00000000000E+00 -0.00000000000E+00 -0.14997510494E+04  0.14997510494E+04  0.00000000000E+00 0.  1.
         25    1    1    2    0    0 -0.19042695125E+03  0.47336717453E+02 -0.11034618190E+04  0.11271784129E+04  0.12000000000E+03 0.  0.
         25    1    1    2    0    0  0.19042695125E+03 -0.47336717453E+02 -0.35002736180E+03  0.41883450501E+03  0.12000000000E+03 0.  0.
<mgrwt>
<rscale>  0 0.52680655E+03</rscale>
<asrwt>0</asrwt>
<pdfrwt beam="1">  1        2 0.23073097E+00 0.52680655E+03</pdfrwt>
<pdfrwt beam="2">  1       -2 0.71172094E-02 0.52680655E+03</pdfrwt>
<totfact> 0.15349899E+03</totfact>
</mgrwt>
</event>
<event>
 4    1  0.1866622E-004  0.2591332E+03  0.7818608E-02  0.1107665E+00
          2   -1    0    0  501    0  0.00000000000E+00  0.00000000000E+00  0.14834899844E+04  0.14834899844E+04  0.00000000000E+00 0. -1.
         -2   -1    0    0    0  501 -0.00000000000E+00 -0.00000000000E+00 -0.11316221451E+02  0.11316221451E+02  0.00000000000E+00 0. -1.
         25    1    1    2    0    0  0.41756443578E+02 -0.11303630289E+02  0.60503573989E+03  0.61833617004E+03  0.12000000000E+03 0.  0.
         25    1    1    2    0    0 -0.41756443578E+02  0.11303630289E+02  0.86713802308E+03  0.87647003583E+03  0.12000000000E+03 0.  0.
<mgrwt>
<rscale>  0 0.25913318E+03</rscale>
<asrwt>0</asrwt>
<pdfrwt beam="1">  1        2 0.22822907E+00 0.25913318E+03</pdfrwt>
<pdfrwt beam="2">  1       -2 0.17409583E-02 0.25913318E+03</pdfrwt>
<totfact> 0.13177892E+04</totfact>
</mgrwt>
</event>
<event>
 4    1  0.1866622E-004  0.3210515E+03  0.7818608E-02  0.1075166E+00
         -1   -1    0    0    0  501 -0.00000000000E+00  0.00000000000E+00  0.18814637862E+03  0.18814637862E+03  0.00000000000E+00 0.  1.
          1   -1    0    0  501    0  0.00000000000E+00 -0.00000000000E+00 -0.13695995136E+03  0.13695995136E+03  0.00000000000E+00 0.  1.
         25    1    1    2    0    0 -0.23658916956E+02  0.80431636027E+02  0.92300284459E+02  0.17305587230E+03  0.12000000000E+03 0.  0.
         25    1    1    2    0    0  0.23658916956E+02 -0.80431636027E+02 -0.41113857202E+02  0.15205045768E+03  0.12000000000E+03 0.  0.
<mgrwt>
<rscale>  0 0.32105152E+03</rscale>
<asrwt>0</asrwt>
<pdfrwt beam="1">  1        1 0.21070762E-01 0.32105152E+03</pdfrwt>
<pdfrwt beam="2">  1       -1 0.28945597E-01 0.32105152E+03</pdfrwt>
<totfact> 0.25952196E+03</totfact>
</mgrwt>
</event>
<event>
 4    1  0.1866622E-004  0.3789129E+03  0.7818608E-02  0.1051336E+00
         -1   -1    0    0    0  501 -0.00000000000E+00  0.00000000000E+00  0.10499151871E+03  0.10499151871E+03  0.00000000000E+00 0.  1.
          1   -1    0    0  501    0  0.00000000000E+00 -0.00000000000E+00 -0.34187274467E+03  0.34187274467E+03  0.00000000000E+00 0.  1.
         25    1    1    2    0    0 -0.44288420537E+02  0.98919383672E+02 -0.20073984061E+01  0.16171128071E+03  0.12000000000E+03 0.  0.
         25    1    1    2    0    0  0.44288420537E+02 -0.98919383672E+02 -0.23487382756E+03  0.28515298268E+03  0.12000000000E+03 0.  0.
<mgrwt>
<rscale>  0 0.37891286E+03</rscale>
<asrwt>0</asrwt>
<pdfrwt beam="1">  1        1 0.52595808E-01 0.37891286E+03</pdfrwt>
<pdfrwt beam="2">  1       -1 0.16152541E-01 0.37891286E+03</pdfrwt>
<totfact> 0.21256607E+03</totfact>
</mgrwt>
</event>
<event>
 4    1  0.1866622E-004  0.2766662E+03  0.7818608E-02  0.1097524E+00
         -1   -1    0    0    0  501 -0.00000000000E+00  0.00000000000E+00  0.14957513169E+02  0.14957513169E+02  0.00000000000E+00 0.  1.
          1   -1    0    0  501    0  0.00000000000E+00 -0.00000000000E+00 -0.12793598946E+04  0.12793598946E+04  0.00000000000E+00 0.  1.
         25    1    1    2    0    0 -0.26139463324E+02  0.43225853959E+02 -0.41355569939E+03  0.43356667594E+03  0.12000000000E+03 0.  0.
         25    1    1    2    0    0  0.26139463324E+02 -0.43225853959E+02 -0.85084668206E+03  0.86075073184E+03  0.12000000000E+03 0.  0.
<mgrwt>
<rscale>  0 0.27666617E+03</rscale>
<asrwt>0</asrwt>
<pdfrwt beam="1">  1        1 0.19682465E+00 0.27666617E+03</pdfrwt>
<pdfrwt beam="2">  1       -1 0.23011553E-02 0.27666617E+03</pdfrwt>
<totfact> 0.56270631E+03</totfact>
</mgrwt>
</event>
<event>
 4    1  0.1866622E-004  0.2518481E+03  0.7818608E-02  0.1112142E+00
         -1   -1    0    0    0  501 -0.00000000000E+00  0.00000000000E+00  0.79513342167E+02  0.79513342167E+02  0.00000000000E+00 0. -1.
          1   -1    0    0  501    0  0.00000000000E+00 -0.00000000000E+00 -0.19942399380E+03  0.19942399380E+03  0.00000000000E+00 0. -1.
         25    1    1    2    0    0 -0.22856807542E+02  0.25458915263E+02 -0.78695003283E+02  0.14752455239E+03  0.12000000000E+03 0.  0.
         25    1    1    2    0    0  0.22856807542E+02 -0.25458915263E+02 -0.41215648350E+02  0.13141278357E+03  0.12000000000E+03 0.  0.
<mgrwt>
<rscale>  0 0.25184811E+03</rscale>
<asrwt>0</asrwt>
<pdfrwt beam="1">  1        1 0.30680614E-01 0.25184811E+03</pdfrwt>
<pdfrwt beam="2">  1       -1 0.12232822E-01 0.25184811E+03</pdfrwt>
<totfact> 0.64594891E+03</totfact>
</mgrwt>
</event>
<event>
 4    1  0.1866622E-004  0.3207570E+03  0.7818608E-02  0.1075301E+00
          2   -1    0    0  501    0  0.00000000000E+00  0.00000000000E+00  0.14098541614E+04  0.14098541614E+04  0.00000000000E+00 0. -1.
         -2   -1    0    0    0  501 -0.00000000000E+00 -0.00000000000E+00 -0.18243920025E+02  0.18243920025E+02  0.00000000000E+00 0. -1.
         25    1    1    2    0    0 -0.59234859302E+02 -0.76950220653E+02  0.88942332149E+03  0.90272030542E+03  0.12000000000E+03 0.  0.
         25    1    1    2    0    0  0.59234859302E+02  0.76950220653E+02  0.50218691994E+03  0.52537777605E+03  0.12000000000E+03 0.  0.
<mgrwt>
<rscale>  0 0.32075702E+03</rscale>
<asrwt>0</asrwt>
<pdfrwt beam="1">  1        2 0.21690055E+00 0.32075702E+03</pdfrwt>
<pdfrwt beam="2">  1       -2 0.28067581E-02 0.32075702E+03</pdfrwt>
<totfact> 0.71602759E+03</totfact>
</mgrwt>
</event>
<event>
 4    1  0.1866622E-004  0.2654109E+03  0.7818608E-02  0.1103935E+00
         -4   -1    0    0    0  501 -0.00000000000E+00  0.00000000000E+00  0.15214812835E+04  0.15214812835E+04  0.00000000000E+00 0. -1.
          4   -1    0    0  501    0  0.00000000000E+00 -0.00000000000E+00 -0.11574730848E+02  0.11574730848E+02  0.00000000000E+00 0. -1.
         25    1    1    2    0    0  0.60120351248E+01 -0.55874214715E+02  0.71303573276E+03  0.72524342716E+03  0.12000000000E+03 0.  0.
         25    1    1    2    0    0 -0.60120351248E+01  0.55874214715E+02  0.79687081992E+03  0.80781258722E+03  0.12000000000E+03 0.  0.
<mgrwt>
<rscale>  0 0.26541090E+03</rscale>
<asrwt>0</asrwt>
<pdfrwt beam="1">  1        4 0.17807290E-02 0.26541090E+03</pdfrwt>
<pdfrwt beam="2">  1       -4 0.23407389E+00 0.26541090E+03</pdfrwt>
<totfact> 0.20161198E+02</totfact>
</mgrwt>
</event>
<event>
 4    1  0.1866622E-004  0.4442811E+03  0.7818608E-02  0.1029441E+00
          2   -1    0    0  501    0  0.00000000000E+00  0.00000000000E+00  0.45377430094E+03  0.45377430094E+03  0.00000000000E+00 0. -1.
         -2   -1    0    0    0  501 -0.00000000000E+00 -0.00000000000E+00 -0.10874663176E+03  0.10874663176E+03  0.00000000000E+00 0. -1.
         25    1    1    2    0    0 -0.16125457292E+02  0.12245980537E+01  0.40831776541E+03  0.42589309405E+03  0.12000000000E+03 0.  0.
         25    1    1    2    0    0  0.16125457292E+02 -0.12245980537E+01 -0.63290096229E+02  0.13662783865E+03  0.12000000000E+03 0.  0.
<mgrwt>
<rscale>  0 0.44428111E+03</rscale>
<asrwt>0</asrwt>
<pdfrwt beam="1">  1        2 0.69811430E-01 0.44428111E+03</pdfrwt>
<pdfrwt beam="2">  1       -2 0.16730251E-01 0.44428111E+03</pdfrwt>
<totfact> 0.19914587E+03</totfact>
</mgrwt>
</event>
<event>
 4    1  0.1866622E-004  0.3730073E+03  0.7818608E-02  0.1053549E+00
          1   -1    0    0  501    0  0.00000000000E+00  0.00000000000E+00  0.99564853540E+02  0.99564853540E+02  0.00000000000E+00 0. -1.
         -1   -1    0    0    0  501 -0.00000000000E+00 -0.00000000000E+00 -0.34935637194E+03  0.34935637194E+03  0.00000000000E+00 0. -1.
         25    1    1    2    0    0  0.13582673638E+03  0.33048313631E+02 -0.89962140587E+02  0.20502263311E+03  0.12000000000E+03 0.  0.
         25    1    1    2    0    0 -0.13582673638E+03 -0.33048313631E+02 -0.15982937781E+03  0.24389859237E+03  0.12000000000E+03 0.  0.
<mgrwt>
<rscale>  0 0.37300732E+03</rscale>
<asrwt>0</asrwt>
<pdfrwt beam="1">  1        1 0.15317670E-01 0.37300732E+03</pdfrwt>
<pdfrwt beam="2">  1       -1 0.53747133E-01 0.37300732E+03</pdfrwt>
<totfact> 0.13054887E+03</totfact>
</mgrwt>
</event>
<event>
 4    1  0.1866622E-004  0.3098262E+03  0.7818608E-02  0.1080429E+00
          2   -1    0    0  501    0  0.00000000000E+00  0.00000000000E+00  0.33335803026E+02  0.33335803026E+02  0.00000000000E+00 0.  1.
         -2   -1    0    0    0  501 -0.00000000000E+00 -0.00000000000E+00 -0.71988892141E+03  0.71988892141E+03  0.00000000000E+00 0.  1.
         25    1    1    2    0    0 -0.51717172474E+02 -0.37789603449E+02 -0.16305603384E+03  0.21234403742E+03  0.12000000000E+03 0.  0.
         25    1    1    2    0    0  0.51717172474E+02  0.37789603449E+02 -0.52349708454E+03  0.54088068701E+03  0.12000000000E+03 0.  0.
<mgrwt>
<rscale>  0 0.30982624E+03</rscale>
<asrwt>0</asrwt>
<pdfrwt beam="1">  1        2 0.51285849E-02 0.30982624E+03</pdfrwt>
<pdfrwt beam="2">  1       -2 0.11075215E+00 0.30982624E+03</pdfrwt>
<totfact> 0.10271540E+03</totfact>
</mgrwt>
</event>
<event>
 4    1  0.1866622E-004  0.3148170E+03  0.7818608E-02  0.1078060E+00
         -1   -1    0    0    0  501 -0.00000000000E+00  0.00000000000E+00  0.33907238431E+03  0.33907238431E+03  0.00000000000E+00 0. -1.
          1   -1    0    0  501    0  0.00000000000E+00 -0.00000000000E+00 -0.73074187703E+02  0.73074187703E+02  0.00000000000E+00 0. -1.
         25    1    1    2    0    0  0.64708263280E+02 -0.26931668176E+02  0.36218750342E+02  0.14361153144E+03  0.12000000000E+03 0.  0.
         25    1    1    2    0    0 -0.64708263280E+02  0.26931668176E+02  0.22977944626E+03  0.26853504057E+03  0.12000000000E+03 0.  0.
<mgrwt>
<rscale>  0 0.31481702E+03</rscale>
<asrwt>0</asrwt>
<pdfrwt beam="1">  1        1 0.11242183E-01 0.31481702E+03</pdfrwt>
<pdfrwt beam="2">  1       -1 0.52164981E-01 0.31481702E+03</pdfrwt>
<totfact> 0.20813656E+03</totfact>
</mgrwt>
</event>
<event>
 4    1  0.1866622E-004  0.2680448E+03  0.7818608E-02  0.1102404E+00
          3   -1    0    0  501    0  0.00000000000E+00  0.00000000000E+00  0.61486618864E+03  0.61486618864E+03  0.00000000000E+00 0.  1.
         -3   -1    0    0    0  501 -0.00000000000E+00 -0.00000000000E+00 -0.29212868789E+02  0.29212868789E+02  0.00000000000E+00 0.  1.
         25    1    1    2    0    0  0.15898739616E+02  0.37191761389E+02  0.39828012252E+03  0.41792709057E+03  0.12000000000E+03 0.  0.
         25    1    1    2    0    0 -0.15898739616E+02 -0.37191761389E+02  0.18737319733E+03  0.22615196686E+03  0.12000000000E+03 0.  0.
<mgrwt>
<rscale>  0 0.26804481E+03</rscale>
<asrwt>0</asrwt>
<pdfrwt beam="1">  1        3 0.94594789E-01 0.26804481E+03</pdfrwt>
<pdfrwt beam="2">  1       -3 0.44942880E-02 0.26804481E+03</pdfrwt>
<totfact> 0.70363981E+02</totfact>
</mgrwt>
</event>
<event>
 4    1  0.1866622E-004  0.2498200E+03  0.7818608E-02  0.1113419E+00
         -2   -1    0    0    0  501 -0.00000000000E+00  0.00000000000E+00  0.46727204461E+02  0.46727204461E+02  0.00000000000E+00 0. -1.
          2   -1    0    0  501    0  0.00000000000E+00 -0.00000000000E+00 -0.33390631404E+03  0.33390631404E+03  0.00000000000E+00 0. -1.
         25    1    1    2    0    0  0.27037340798E+02  0.15714064475E+02 -0.16642161173E+03  0.20754301355E+03  0.12000000000E+03 0.  0.
         25    1    1    2    0    0 -0.27037340798E+02 -0.15714064475E+02 -0.12075749784E+03  0.17309050495E+03  0.12000000000E+03 0.  0.
<mgrwt>
<rscale>  0 0.24982000E+03</rscale>
<asrwt>0</asrwt>
<pdfrwt beam="1">  1        2 0.51370199E-01 0.24982000E+03</pdfrwt>
<pdfrwt beam="2">  1       -2 0.71888011E-02 0.24982000E+03</pdfrwt>
<totfact> 0.10729633E+04</totfact>
</mgrwt>
</event>
<event>
 4    1  0.1866622E-004  0.2561873E+03  0.7818608E-02  0.1109456E+00
         -2   -1    0    0    0  501 -0.00000000000E+00  0.00000000000E+00  0.17615783073E+02  0.17615783073E+02  0.00000000000E+00 0.  1.
          2   -1    0    0  501    0  0.00000000000E+00 -0.00000000000E+00 -0.93143656273E+03  0.93143656273E+03  0.00000000000E+00 0.  1.
         25    1    1    2    0    0  0.26431642045E+02  0.19201495137E+02 -0.57052856542E+03  0.58392651342E+03  0.12000000000E+03 0.  0.
         25    1    1    2    0    0 -0.26431642045E+02 -0.19201495137E+02 -0.34329221424E+03  0.36512583238E+03  0.12000000000E+03 0.  0.
<mgrwt>
<rscale>  0 0.25618731E+03</rscale>
<asrwt>0</asrwt>
<pdfrwt beam="1">  1        2 0.14329793E+00 0.25618731E+03</pdfrwt>
<pdfrwt beam="2">  1       -2 0.27101206E-02 0.25618731E+03</pdfrwt>
<totfact> 0.14199492E+04</totfact>
</mgrwt>
</event>
<event>
 4    1  0.1866622E-004  0.2996894E+03  0.7818608E-02  0.1085396E+00
         -2   -1    0    0    0  501 -0.00000000000E+00  0.00000000000E+00  0.92340291946E+01  0.92340291946E+01  0.00000000000E+00 0.  1.
          2   -1    0    0  501    0  0.00000000000E+00 -0.00000000000E+00 -0.24315973021E+04  0.24315973021E+04  0.00000000000E+00 0.  1.
         25    1    1    2    0    0 -0.43995780795E+02 -0.48843013004E+02 -0.71361970964E+03  0.72661844089E+03  0.12000000000E+03 0.  0.
         25    1    1    2    0    0  0.43995780795E+02  0.48843013004E+02 -0.17087435633E+04  0.17142128904E+04  0.12000000000E+03 0.  0.
<mgrwt>
<rscale>  0 0.29968944E+03</rscale>
<asrwt>0</asrwt>
<pdfrwt beam="1">  1        2 0.37409181E+00 0.29968944E+03</pdfrwt>
<pdfrwt beam="2">  1       -2 0.14206202E-02 0.29968944E+03</pdfrwt>
<totfact> 0.55821072E+03</totfact>
</mgrwt>
</event>
<event>
 4    1  0.1866622E-004  0.2572390E+03  0.7818608E-02  0.1108814E+00
         -1   -1    0    0    0  501 -0.00000000000E+00  0.00000000000E+00  0.73099802140E+02  0.73099802140E+02  0.00000000000E+00 0.  1.
          1   -1    0    0  501    0  0.00000000000E+00 -0.00000000000E+00 -0.22630678600E+03  0.22630678600E+03  0.00000000000E+00 0.  1.
         25    1    1    2    0    0 -0.41376155905E+02 -0.19001175985E+01 -0.52541372439E+02  0.13739065668E+03  0.12000000000E+03 0.  0.
         25    1    1    2    0    0  0.41376155905E+02  0.19001175985E+01 -0.10066561142E+03  0.16201593146E+03  0.12000000000E+03 0.  0.
<mgrwt>
<rscale>  0 0.25723904E+03</rscale>
<asrwt>0</asrwt>
<pdfrwt beam="1">  1        1 0.34816429E-01 0.25723904E+03</pdfrwt>
<pdfrwt beam="2">  1       -1 0.11246123E-01 0.25723904E+03</pdfrwt>
<totfact> 0.62869610E+03</totfact>
</mgrwt>
</event>
<event>
 4    1  0.1866622E-004  0.2901376E+03  0.7818608E-02  0.1090277E+00
          1   -1    0    0  501    0  0.00000000000E+00  0.00000000000E+00  0.50194439744E+03  0.50194439744E+03  0.00000000000E+00 0.  1.
         -1   -1    0    0    0  501 -0.00000000000E+00 -0.00000000000E+00 -0.41926856398E+02  0.41926856398E+02  0.00000000000E+00 0.  1.
         25    1    1    2    0    0 -0.44678360384E+01  0.75990166967E+02  0.17534178401E+03  0.22569716049E+03  0.12000000000E+03 0.  0.
         25    1    1    2    0    0  0.44678360384E+01 -0.75990166967E+02  0.28467575703E+03  0.31817409335E+03  0.12000000000E+03 0.  0.
<mgrwt>
<rscale>  0 0.29013756E+03</rscale>
<asrwt>0</asrwt>
<pdfrwt beam="1">  1        1 0.77222211E-01 0.29013756E+03</pdfrwt>
<pdfrwt beam="2">  1       -1 0.64502860E-02 0.29013756E+03</pdfrwt>
<totfact> 0.53639876E+03</totfact>
</mgrwt>
</event>
<event>
 4    1  0.1866622E-004  0.2504566E+03  0.7818608E-02  0.1113017E+00
         -2   -1    0    0    0  501 -0.00000000000E+00  0.00000000000E+00  0.59523061525E+02  0.59523061525E+02  0.00000000000E+00 0.  1.
          2   -1    0    0  501    0  0.00000000000E+00 -0.00000000000E+00 -0.26346301477E+03  0.26346301477E+03  0.00000000000E+00 0.  1.
         25    1    1    2    0    0  0.29072289744E+02 -0.20885300609E+02 -0.10086707590E+03  0.16079664429E+03  0.12000000000E+03 0.  0.
         25    1    1    2    0    0 -0.29072289744E+02  0.20885300609E+02 -0.10307287735E+03  0.16218943201E+03  0.12000000000E+03 0.  0.
<mgrwt>
<rscale>  0 0.25045658E+03</rscale>
<asrwt>0</asrwt>
<pdfrwt beam="1">  1        2 0.40532770E-01 0.25045658E+03</pdfrwt>
<pdfrwt beam="2">  1       -2 0.91573943E-02 0.25045658E+03</pdfrwt>
<totfact> 0.94837974E+03</totfact>
</mgrwt>
</event>
<event>
 4    1  0.1866622E-004  0.3004886E+03  0.7818608E-02  0.1084997E+00
         -1   -1    0    0    0  501 -0.00000000000E+00  0.00000000000E+00  0.17888452360E+03  0.17888452360E+03  0.00000000000E+00 0. -1.
          1   -1    0    0  501    0  0.00000000000E+00 -0.00000000000E+00 -0.12618954781E+03  0.12618954781E+03  0.00000000000E+00 0. -1.
         25    1    1    2    0    0  0.29169281738E+02 -0.33174643253E+02  0.10643053616E+03  0.16636965763E+03  0.12000000000E+03 0.  0.
         25    1    1    2    0    0 -0.29169281738E+02  0.33174643253E+02 -0.53735560373E+02  0.13870441378E+03  0.12000000000E+03 0.  0.
<mgrwt>
<rscale>  0 0.30048865E+03</rscale>
<asrwt>0</asrwt>
<pdfrwt beam="1">  1        1 0.19413777E-01 0.30048865E+03</pdfrwt>
<pdfrwt beam="2">  1       -1 0.27520696E-01 0.30048865E+03</pdfrwt>
<totfact> 0.31383065E+03</totfact>
</mgrwt>
</event>
<event>
 4    1  0.1866622E-004  0.2994355E+03  0.7818608E-02  0.1085523E+00
          2   -1    0    0  501    0  0.00000000000E+00  0.00000000000E+00  0.13574988571E+04  0.13574988571E+04  0.00000000000E+00 0.  1.
         -2   -1    0    0    0  501 -0.00000000000E+00 -0.00000000000E+00 -0.16512284347E+02  0.16512284347E+02  0.00000000000E+00 0.  1.
         25    1    1    2    0    0  0.73307666834E+02 -0.49195724682E+02  0.60225096870E+03  0.62040346763E+03  0.12000000000E+03 0.  0.
         25    1    1    2    0    0 -0.73307666834E+02  0.49195724682E+02  0.73873560403E+03  0.75360767379E+03  0.12000000000E+03 0.  0.
<mgrwt>
<rscale>  0 0.29943552E+03</rscale>
<asrwt>0</asrwt>
<pdfrwt beam="1">  1        2 0.20884589E+00 0.29943552E+03</pdfrwt>
<pdfrwt beam="2">  1       -2 0.25403525E-02 0.29943552E+03</pdfrwt>
<totfact> 0.88632169E+03</totfact>
</mgrwt>
</event>
<event>
 4    1  0.1866622E-004  0.2471724E+03  0.7818608E-02  0.1115105E+00
         -2   -1    0    0    0  501 -0.00000000000E+00  0.00000000000E+00  0.29743426113E+03  0.29743426113E+03  0.00000000000E+00 0.  1.
          2   -1    0    0  501    0  0.00000000000E+00 -0.00000000000E+00 -0.51350992313E+02  0.51350992313E+02  0.00000000000E+00 0.  1.
         25    1    1    2    0    0 -0.89917028962E+01 -0.11153649579E+02  0.15952044174E+03  0.20013002261E+03  0.12000000000E+03 0.  0.
         25    1    1    2    0    0  0.89917028962E+01  0.11153649579E+02  0.86562827078E+02  0.14865523082E+03  0.12000000000E+03 0.  0.
<mgrwt>
<rscale>  0 0.24717236E+03</rscale>
<asrwt>0</asrwt>
<pdfrwt beam="1">  1        2 0.79001528E-02 0.24717236E+03</pdfrwt>
<pdfrwt beam="2">  1       -2 0.45759116E-01 0.24717236E+03</pdfrwt>
<totfact> 0.39202691E+03</totfact>
</mgrwt>
</event>
<event>
 4    1  0.1866622E-004  0.2974939E+03  0.7818608E-02  0.1086500E+00
          2   -1    0    0  501    0  0.00000000000E+00  0.00000000000E+00  0.95848008524E+03  0.95848008524E+03  0.00000000000E+00 0. -1.
         -2   -1    0    0    0  501 -0.00000000000E+00 -0.00000000000E+00 -0.23084103490E+02  0.23084103490E+02  0.00000000000E+00 0. -1.
         25    1    1    2    0    0 -0.44379228981E+02  0.37404052568E+02  0.68548809507E+03  0.69832836660E+03  0.12000000000E+03 0.  0.
         25    1    1    2    0    0  0.44379228981E+02 -0.37404052568E+02  0.24990788668E+03  0.28323582213E+03  0.12000000000E+03 0.  0.
<mgrwt>
<rscale>  0 0.29749389E+03</rscale>
<asrwt>0</asrwt>
<pdfrwt beam="1">  1        2 0.14745844E+00 0.29749389E+03</pdfrwt>
<pdfrwt beam="2">  1       -2 0.35514013E-02 0.29749389E+03</pdfrwt>
<totfact> 0.91691570E+03</totfact>
</mgrwt>
</event>
<event>
 4    1  0.1866622E-004  0.2721019E+03  0.7818608E-02  0.1100083E+00
          3   -1    0    0  501    0  0.00000000000E+00  0.00000000000E+00  0.98572255881E+02  0.98572255881E+02  0.00000000000E+00 0. -1.
         -3   -1    0    0    0  501 -0.00000000000E+00 -0.00000000000E+00 -0.18777957684E+03  0.18777957684E+03  0.00000000000E+00 0. -1.
         25    1    1    2    0    0  0.36690407185E+02  0.48096474421E+02 -0.66937710047E+02  0.15013365331E+03  0.12000000000E+03 0.  0.
         25    1    1    2    0    0 -0.36690407185E+02 -0.48096474421E+02 -0.22269610913E+02  0.13621817941E+03  0.12000000000E+03 0.  0.
<mgrwt>
<rscale>  0 0.27210187E+03</rscale>
<asrwt>0</asrwt>
<pdfrwt beam="1">  1        3 0.15164963E-01 0.27210187E+03</pdfrwt>
<pdfrwt beam="2">  1       -3 0.28889165E-01 0.27210187E+03</pdfrwt>
<totfact> 0.10656966E+03</totfact>
</mgrwt>
</event>
<event>
 4    1  0.1866622E-004  0.2831267E+03  0.7818608E-02  0.1093993E+00
         -1   -1    0    0    0  501 -0.00000000000E+00  0.00000000000E+00  0.14594766174E+04  0.14594766174E+04  0.00000000000E+00 0.  1.
          1   -1    0    0  501    0  0.00000000000E+00 -0.00000000000E+00 -0.13731073457E+02  0.13731073457E+02  0.00000000000E+00 0.  1.
         25    1    1    2    0    0 -0.38563230342E+02 -0.57011329434E-01  0.10581985872E+04  0.10656788334E+04  0.12000000000E+03 0.  0.
         25    1    1    2    0    0  0.38563230342E+02  0.57011329434E-01  0.38754695668E+03  0.40752885740E+03  0.12000000000E+03 0.  0.
<mgrwt>
<rscale>  0 0.28312669E+03</rscale>
<asrwt>0</asrwt>
<pdfrwt beam="1">  1        1 0.21124740E-02 0.28312669E+03</pdfrwt>
<pdfrwt beam="2">  1       -1 0.22453474E+00 0.28312669E+03</pdfrwt>
<totfact> 0.64534228E+02</totfact>
</mgrwt>
</event>
<event>
 4    1  0.1866622E-004  0.3100688E+03  0.7818608E-02  0.1080313E+00
         -2   -1    0    0    0  501 -0.00000000000E+00  0.00000000000E+00  0.30711121350E+02  0.30711121350E+02  0.00000000000E+00 0.  1.
          2   -1    0    0  501    0  0.00000000000E+00 -0.00000000000E+00 -0.78263699090E+03  0.78263699090E+03  0.00000000000E+00 0.  1.
         25    1    1    2    0    0 -0.61007428525E+02  0.76524017251E+02 -0.39591039997E+03  0.42511513306E+03  0.12000000000E+03 0.  0.
         25    1    1    2    0    0  0.61007428525E+02 -0.76524017251E+02 -0.35601546958E+03  0.38823297919E+03  0.12000000000E+03 0.  0.
<mgrwt>
<rscale>  0 0.31006876E+03</rscale>
<asrwt>0</asrwt>
<pdfrwt beam="1">  1        2 0.12040568E+00 0.31006876E+03</pdfrwt>
<pdfrwt beam="2">  1       -2 0.47247884E-02 0.31006876E+03</pdfrwt>
<totfact> 0.77987964E+03</totfact>
</mgrwt>
</event>
<event>
 4    1  0.1866622E-004  0.2954123E+03  0.7818608E-02  0.1087557E+00
          2   -1    0    0  501    0  0.00000000000E+00  0.00000000000E+00  0.76889564884E+02  0.76889564884E+02  0.00000000000E+00 0.  1.
         -2   -1    0    0    0  501 -0.00000000000E+00 -0.00000000000E+00 -0.28374608210E+03  0.28374608210E+03  0.00000000000E+00 0.  1.
         25    1    1    2    0    0  0.25311355415E+02 -0.14486335263E+02 -0.20235418058E+03  0.23706061043E+03  0.12000000000E+03 0.  0.
         25    1    1    2    0    0 -0.25311355415E+02  0.14486335263E+02 -0.45023366358E+01  0.12357503655E+03  0.12000000000E+03 0.  0.
<mgrwt>
<rscale>  0 0.29541234E+03</rscale>
<asrwt>0</asrwt>
<pdfrwt beam="1">  1        2 0.11829164E-01 0.29541234E+03</pdfrwt>
<pdfrwt beam="2">  1       -2 0.43653243E-01 0.29541234E+03</pdfrwt>
<totfact> 0.26130071E+03</totfact>
</mgrwt>
</event>
<event>
 4    1  0.1866622E-004  0.5034210E+03  0.7818608E-02  0.1012890E+00
         -1   -1    0    0    0  501 -0.00000000000E+00  0.00000000000E+00  0.16877768312E+03  0.16877768312E+03  0.00000000000E+00 0.  1.
          1   -1    0    0  501    0  0.00000000000E+00 -0.00000000000E+00 -0.37539428034E+03  0.37539428034E+03  0.00000000000E+00 0.  1.
         25    1    1    2    0    0  0.75943477153E+02  0.93116419487E+02  0.97527366203E+02  0.19583070867E+03  0.12000000000E+03 0.  0.
         25    1    1    2    0    0 -0.75943477153E+02 -0.93116419487E+02 -0.30414396342E+03  0.34834125479E+03  0.12000000000E+03 0.  0.
<mgrwt>
<rscale>  0 0.50342100E+03</rscale>
<asrwt>0</asrwt>
<pdfrwt beam="1">  1        1 0.57752966E-01 0.50342100E+03</pdfrwt>
<pdfrwt beam="2">  1       -1 0.25965797E-01 0.50342100E+03</pdfrwt>
<totfact> 0.86065200E+02</totfact>
</mgrwt>
</event>
<event>
 4    1  0.1866622E-004  0.2592993E+03  0.7818608E-02  0.1107565E+00
          1   -1    0    0  501    0  0.00000000000E+00  0.00000000000E+00  0.14512184693E+03  0.14512184693E+03  0.00000000000E+00 0. -1.
         -1   -1    0    0    0  501 -0.00000000000E+00 -0.00000000000E+00 -0.11582705789E+03  0.11582705789E+03  0.00000000000E+00 0. -1.
         25    1    1    2    0    0  0.65008601211E+01  0.38281697562E+02 -0.15565033520E+02  0.12708272825E+03  0.12000000000E+03 0.  0.
         25    1    1    2    0    0 -0.65008601211E+01 -0.38281697562E+02  0.44859822555E+02  0.13386617657E+03  0.12000000000E+03 0.  0.
<mgrwt>
<rscale>  0 0.25929934E+03</rscale>
<asrwt>0</asrwt>
<pdfrwt beam="1">  1        1 0.22326438E-01 0.25929934E+03</pdfrwt>
<pdfrwt beam="2">  1       -1 0.17819547E-01 0.25929934E+03</pdfrwt>
<totfact> 0.53343784E+03</totfact>
</mgrwt>
</event>
<event>
 4    1  0.1866622E-004  0.3102059E+03  0.7818608E-02  0.1080247E+00
          1   -1    0    0  501    0  0.00000000000E+00  0.00000000000E+00  0.12970436511E+03  0.12970436511E+03  0.00000000000E+00 0.  1.
         -1   -1    0    0    0  501 -0.00000000000E+00 -0.00000000000E+00 -0.18547504933E+03  0.18547504933E+03  0.00000000000E+00 0.  1.
         25    1    1    2    0    0  0.74574259418E+02 -0.17852660071E+02 -0.90327044666E+02  0.16863870445E+03  0.12000000000E+03 0.  0.
         25    1    1    2    0    0 -0.74574259418E+02  0.17852660071E+02  0.34556360441E+02  0.14654071000E+03  0.12000000000E+03 0.  0.
<mgrwt>
<rscale>  0 0.31020589E+03</rscale>
<asrwt>0</asrwt>
<pdfrwt beam="1">  1        1 0.19954518E-01 0.31020589E+03</pdfrwt>
<pdfrwt beam="2">  1       -1 0.28534623E-01 0.31020589E+03</pdfrwt>
<totfact> 0.28508585E+03</totfact>
</mgrwt>
</event>
<event>
 4    1  0.1866622E-004  0.2548378E+03  0.7818608E-02  0.1110285E+00
         -1   -1    0    0    0  501 -0.00000000000E+00  0.00000000000E+00  0.76831839588E+02  0.76831839588E+02  0.00000000000E+00 0. -1.
          1   -1    0    0  501    0  0.00000000000E+00 -0.00000000000E+00 -0.21131315580E+03  0.21131315580E+03  0.00000000000E+00 0. -1.
         25    1    1    2    0    0 -0.38220828973E+02 -0.19214426166E+02 -0.69905021168E+02  0.14531599335E+03  0.12000000000E+03 0.  0.
         25    1    1    2    0    0  0.38220828973E+02  0.19214426166E+02 -0.64576295045E+02  0.14282900203E+03  0.12000000000E+03 0.  0.
<mgrwt>
<rscale>  0 0.25483782E+03</rscale>
<asrwt>0</asrwt>
<pdfrwt beam="1">  1        1 0.32509716E-01 0.25483782E+03</pdfrwt>
<pdfrwt beam="2">  1       -1 0.11820283E-01 0.25483782E+03</pdfrwt>
<totfact> 0.63389333E+03</totfact>
</mgrwt>
</event>
<event>
 4    1  0.1866622E-004  0.2742832E+03  0.7818608E-02  0.1098853E+00
         -2   -1    0    0    0  501 -0.00000000000E+00  0.00000000000E+00  0.60442074495E+01  0.60442074495E+01  0.00000000000E+00 0.  1.
          2   -1    0    0  501    0  0.00000000000E+00 -0.00000000000E+00 -0.31117093427E+04  0.31117093427E+04  0.00000000000E+00 0.  1.
         25    1    1    2    0    0 -0.57026492069E+02 -0.30543326521E+02 -0.17225391917E+04  0.17279253984E+04  0.12000000000E+03 0.  0.
         25    1    1    2    0    0  0.57026492069E+02  0.30543326521E+02 -0.13831259436E+04  0.13898281517E+04  0.12000000000E+03 0.  0.
<mgrwt>
<rscale>  0 0.27428319E+03</rscale>
<asrwt>0</asrwt>
<pdfrwt beam="1">  1        2 0.47872410E+00 0.27428319E+03</pdfrwt>
<pdfrwt beam="2">  1       -2 0.92987888E-03 0.27428319E+03</pdfrwt>
<totfact> 0.42320656E+03</totfact>
</mgrwt>
</event>
<event>
 4    1  0.1866622E-004  0.2499006E+03  0.7818608E-02  0.1113368E+00
          2   -1    0    0  501    0  0.00000000000E+00  0.00000000000E+00  0.66895636497E+03  0.66895636497E+03  0.00000000000E+00 0.  1.
         -2   -1    0    0    0  501 -0.00000000000E+00 -0.00000000000E+00 -0.23338717625E+02  0.23338717625E+02  0.00000000000E+00 0.  1.
         25    1    1    2    0    0 -0.77248900595E+01 -0.31528607847E+02  0.28789265493E+03  0.31358556695E+03  0.12000000000E+03 0.  0.
         25    1    1    2    0    0  0.77248900595E+01  0.31528607847E+02  0.35772499242E+03  0.37870951565E+03  0.12000000000E+03 0.  0.
<mgrwt>
<rscale>  0 0.24990065E+03</rscale>
<asrwt>0</asrwt>
<pdfrwt beam="1">  1        2 0.10291635E+00 0.24990065E+03</pdfrwt>
<pdfrwt beam="2">  1       -2 0.35905724E-02 0.24990065E+03</pdfrwt>
<totfact> 0.14195687E+04</totfact>
</mgrwt>
</event>
<event>
 4    1  0.1866622E-004  0.3034022E+03  0.7818608E-02  0.1083552E+00
          1   -1    0    0  501    0  0.00000000000E+00  0.00000000000E+00  0.19710646280E+04  0.19710646280E+04  0.00000000000E+00 0.  1.
         -1   -1    0    0    0  501 -0.00000000000E+00 -0.00000000000E+00 -0.11675531203E+02  0.11675531203E+02  0.00000000000E+00 0.  1.
         25    1    1    2    0    0  0.26765806169E+02 -0.41917447137E+02  0.46763290393E+03  0.48533907075E+03  0.12000000000E+03 0.  0.
         25    1    1    2    0    0 -0.26765806169E+02  0.41917447137E+02  0.14917561928E+04  0.14974010884E+04  0.12000000000E+03 0.  0.
<mgrwt>
<rscale>  0 0.30340222E+03</rscale>
<asrwt>0</asrwt>
<pdfrwt beam="1">  1        1 0.30324045E+00 0.30340222E+03</pdfrwt>
<pdfrwt beam="2">  1       -1 0.17962371E-02 0.30340222E+03</pdfrwt>
<totfact> 0.28248189E+03</totfact>
</mgrwt>
</event>
<event>
 4    1  0.1866622E-004  0.2988847E+03  0.7818608E-02  0.1085799E+00
         -2   -1    0    0    0  501 -0.00000000000E+00  0.00000000000E+00  0.79824360436E+02  0.79824360436E+02  0.00000000000E+00 0.  1.
          2   -1    0    0  501    0  0.00000000000E+00 -0.00000000000E+00 -0.27977704157E+03  0.27977704157E+03  0.00000000000E+00 0.  1.
         25    1    1    2    0    0 -0.34492461173E+02 -0.26022370212E+02 -0.19368365008E+03  0.23190569190E+03  0.12000000000E+03 0.  0.
         25    1    1    2    0    0  0.34492461173E+02  0.26022370212E+02 -0.62690310594E+01  0.12769571011E+03  0.12000000000E+03 0.  0.
<mgrwt>
<rscale>  0 0.29888475E+03</rscale>
<asrwt>0</asrwt>
<pdfrwt beam="1">  1        2 0.43042622E-01 0.29888475E+03</pdfrwt>
<pdfrwt beam="2">  1       -2 0.12280671E-01 0.29888475E+03</pdfrwt>
<totfact> 0.55999179E+03</totfact>
</mgrwt>
</event>
<event>
 4    1  0.1866622E-004  0.5308786E+03  0.7818608E-02  0.1006019E+00
          2   -1    0    0  501    0  0.00000000000E+00  0.00000000000E+00  0.17402924692E+04  0.17402924692E+04  0.00000000000E+00 0. -1.
         -2   -1    0    0    0  501 -0.00000000000E+00 -0.00000000000E+00 -0.40486315697E+02  0.40486315697E+02  0.00000000000E+00 0. -1.
         25    1    1    2    0    0  0.18681714171E+03  0.75692219101E+02  0.43325384745E+03  0.49268534867E+03  0.12000000000E+03 0.  0.
         25    1    1    2    0    0 -0.18681714171E+03 -0.75692219101E+02  0.12665523060E+04  0.12880934362E+04  0.12000000000E+03 0.  0.
<mgrwt>
<rscale>  0 0.53087863E+03</rscale>
<asrwt>0</asrwt>
<pdfrwt beam="1">  1        2 0.26773724E+00 0.53087863E+03</pdfrwt>
<pdfrwt beam="2">  1       -2 0.62286653E-02 0.53087863E+03</pdfrwt>
<totfact> 0.14003173E+03</totfact>
</mgrwt>
</event>
<event>
 4    1  0.1866622E-004  0.2543908E+03  0.7818608E-02  0.1110561E+00
          2   -1    0    0  501    0  0.00000000000E+00  0.00000000000E+00  0.49849575651E+03  0.49849575651E+03  0.00000000000E+00 0. -1.
         -2   -1    0    0    0  501 -0.00000000000E+00 -0.00000000000E+00 -0.32454975140E+02  0.32454975140E+02  0.00000000000E+00 0. -1.
         25    1    1    2    0    0  0.33685454699E+02 -0.10411948930E+02  0.18471980482E+03  0.22307963787E+03  0.12000000000E+03 0.  0.
         25    1    1    2    0    0 -0.33685454699E+02  0.10411948930E+02  0.28132097655E+03  0.30787109378E+03  0.12000000000E+03 0.  0.
<mgrwt>
<rscale>  0 0.25439078E+03</rscale>
<asrwt>0</asrwt>
<pdfrwt beam="1">  1        2 0.76691649E-01 0.25439078E+03</pdfrwt>
<pdfrwt beam="2">  1       -2 0.49930735E-02 0.25439078E+03</pdfrwt>
<totfact> 0.12128536E+04</totfact>
</mgrwt>
</event>
<event>
 4    1  0.1866622E-004  0.2687532E+03  0.7818608E-02  0.1101995E+00
         -2   -1    0    0    0  501 -0.00000000000E+00  0.00000000000E+00  0.96397901795E+01  0.96397901795E+01  0.00000000000E+00 0.  1.
          2   -1    0    0  501    0  0.00000000000E+00 -0.00000000000E+00 -0.18731815652E+04  0.18731815652E+04  0.00000000000E+00 0.  1.
         25    1    1    2    0    0  0.18883894035E+02  0.65235787865E+01 -0.13316470489E+04  0.13371922156E+04  0.12000000000E+03 0.  0.
         25    1    1    2    0    0 -0.18883894035E+02 -0.65235787865E+01 -0.53189472606E+03  0.54562913975E+03  0.12000000000E+03 0.  0.
<mgrwt>
<rscale>  0 0.26875325E+03</rscale>
<asrwt>0</asrwt>
<pdfrwt beam="1">  1        2 0.28818197E+00 0.26875325E+03</pdfrwt>
<pdfrwt beam="2">  1       -2 0.14830437E-02 0.26875325E+03</pdfrwt>
<totfact> 0.10386826E+04</totfact>
</mgrwt>
</event>
<event>
 4    1  0.1866622E-004  0.2476877E+03  0.7818608E-02  0.1114775E+00
         -1   -1    0    0    0  501 -0.00000000000E+00  0.00000000000E+00  0.66677337840E+02  0.66677337840E+02  0.00000000000E+00 0.  1.
          1   -1    0    0  501    0  0.00000000000E+00 -0.00000000000E+00 -0.23002276052E+03  0.23002276052E+03  0.00000000000E+00 0.  1.
         25    1    1    2    0    0 -0.24198066071E+02 -0.15441209483E+02 -0.68920611545E+02  0.14132950169E+03  0.12000000000E+03 0.  0.
         25    1    1    2    0    0  0.24198066071E+02  0.15441209483E+02 -0.94424811132E+02  0.15537059667E+03  0.12000000000E+03 0.  0.
<mgrwt>
<rscale>  0 0.24768775E+03</rscale>
<asrwt>0</asrwt>
<pdfrwt beam="1">  1        1 0.35388117E-01 0.24768775E+03</pdfrwt>
<pdfrwt beam="2">  1       -1 0.10258052E-01 0.24768775E+03</pdfrwt>
<totfact> 0.70922992E+03</totfact>
</mgrwt>
</event>
<event>
 4    1  0.1866622E-004  0.3175858E+03  0.7818608E-02  0.1076766E+00
          2   -1    0    0  501    0  0.00000000000E+00  0.00000000000E+00  0.30334729189E+04  0.30334729189E+04  0.00000000000E+00 0.  1.
         -2   -1    0    0    0  501 -0.00000000000E+00 -0.00000000000E+00 -0.83123143428E+01  0.83123143428E+01  0.00000000000E+00 0.  1.
         25    1    1    2    0    0  0.57839665506E+02  0.60674102385E+02  0.92306400236E+03  0.93459826988E+03  0.12000000000E+03 0.  0.
         25    1    1    2    0    0 -0.57839665506E+02 -0.60674102385E+02  0.21020966022E+04  0.21071869634E+04  0.12000000000E+03 0.  0.
<mgrwt>
<rscale>  0 0.31758577E+03</rscale>
<asrwt>0</asrwt>
<pdfrwt beam="1">  1        2 0.46668726E+00 0.31758577E+03</pdfrwt>
<pdfrwt beam="2">  1       -2 0.12788200E-02 0.31758577E+03</pdfrwt>
<totfact> 0.29532170E+03</totfact>
</mgrwt>
</event>
<event>
 4    1  0.1866622E-004  0.2839676E+03  0.7818608E-02  0.1093541E+00
         -2   -1    0    0    0  501 -0.00000000000E+00  0.00000000000E+00  0.31341263755E+02  0.31341263755E+02  0.00000000000E+00 0. -1.
          2   -1    0    0  501    0  0.00000000000E+00 -0.00000000000E+00 -0.64322206537E+03  0.64322206537E+03  0.00000000000E+00 0. -1.
         25    1    1    2    0    0 -0.15853267920E+02 -0.62610846013E+02 -0.40060164043E+03  0.42314668669E+03  0.12000000000E+03 0.  0.
         25    1    1    2    0    0  0.15853267920E+02  0.62610846013E+02 -0.21127916119E+03  0.25141664244E+03  0.12000000000E+03 0.  0.
<mgrwt>
<rscale>  0 0.28396755E+03</rscale>
<asrwt>0</asrwt>
<pdfrwt beam="1">  1        2 0.98957234E-01 0.28396755E+03</pdfrwt>
<pdfrwt beam="2">  1       -2 0.48217332E-02 0.28396755E+03</pdfrwt>
<totfact> 0.95890984E+03</totfact>
</mgrwt>
</event>
<event>
 4    1  0.1866622E-004  0.4772459E+03  0.7818608E-02  0.1019895E+00
         -2   -1    0    0    0  501 -0.00000000000E+00  0.00000000000E+00  0.75101652723E+02  0.75101652723E+02  0.00000000000E+00 0. -1.
          2   -1    0    0  501    0  0.00000000000E+00 -0.00000000000E+00 -0.75818464057E+03  0.75818464057E+03  0.00000000000E+00 0. -1.
         25    1    1    2    0    0  0.61459458059E+02 -0.19684704226E+03 -0.34828048297E+03  0.42216740500E+03  0.12000000000E+03 0.  0.
         25    1    1    2    0    0 -0.61459458059E+02  0.19684704226E+03 -0.33480250488E+03  0.41111888829E+03  0.12000000000E+03 0.  0.
<mgrwt>
<rscale>  0 0.47724593E+03</rscale>
<asrwt>0</asrwt>
<pdfrwt beam="1">  1        2 0.11664379E+00 0.47724593E+03</pdfrwt>
<pdfrwt beam="2">  1       -2 0.11554100E-01 0.47724593E+03</pdfrwt>
<totfact> 0.20038334E+03</totfact>
</mgrwt>
</event>
<event>
 4    1  0.1866622E-004  0.3074054E+03  0.7818608E-02  0.1081596E+00
         -2   -1    0    0    0  501 -0.00000000000E+00  0.00000000000E+00  0.88273843652E+03  0.88273843652E+03  0.00000000000E+00 0. -1.
          2   -1    0    0  501    0  0.00000000000E+00 -0.00000000000E+00 -0.26762761323E+02  0.26762761323E+02  0.00000000000E+00 0. -1.
         25    1    1    2    0    0  0.75502847667E+02  0.51311938123E+02  0.51629824887E+03  0.53786380877E+03  0.12000000000E+03 0.  0.
         25    1    1    2    0    0 -0.75502847667E+02 -0.51311938123E+02  0.33967742634E+03  0.37163738908E+03  0.12000000000E+03 0.  0.
<mgrwt>
<rscale>  0 0.30740539E+03</rscale>
<asrwt>0</asrwt>
<pdfrwt beam="1">  1        2 0.41173486E-02 0.30740539E+03</pdfrwt>
<pdfrwt beam="2">  1       -2 0.13580589E+00 0.30740539E+03</pdfrwt>
<totfact> 0.83608089E+02</totfact>
</mgrwt>
</event>
<event>
 4    1  0.1866622E-004  0.2503520E+03  0.7818608E-02  0.1113083E+00
          1   -1    0    0  501    0  0.00000000000E+00  0.00000000000E+00  0.29806927146E+04  0.29806927146E+04  0.00000000000E+00 0. -1.
         -1   -1    0    0    0  501 -0.00000000000E+00 -0.00000000000E+00 -0.52568431634E+01  0.52568431634E+01  0.00000000000E+00 0. -1.
         25    1    1    2    0    0  0.34870803246E+02 -0.49030832052E+01  0.14234658308E+04  0.14289489091E+04  0.12000000000E+03 0.  0.
         25    1    1    2    0    0 -0.34870803246E+02  0.49030832052E+01  0.15519700406E+04  0.15570006487E+04  0.12000000000E+03 0.  0.
<mgrwt>
<rscale>  0 0.25035203E+03</rscale>
<asrwt>0</asrwt>
<pdfrwt beam="1">  1        1 0.45856676E+00 0.25035203E+03</pdfrwt>
<pdfrwt beam="2">  1       -1 0.80874749E-03 0.25035203E+03</pdfrwt>
<totfact> 0.19129043E+03</totfact>
</mgrwt>
</event>
<event>
 4    1  0.1866622E-004  0.2467071E+03  0.7818608E-02  0.1115404E+00
          1   -1    0    0  501    0  0.00000000000E+00  0.00000000000E+00  0.22974348066E+03  0.22974348066E+03  0.00000000000E+00 0.  1.
         -1   -1    0    0    0  501 -0.00000000000E+00 -0.00000000000E+00 -0.66230809363E+02  0.66230809363E+02  0.00000000000E+00 0.  1.
         25    1    1    2    0    0 -0.52731420691E+01 -0.19335319800E+01  0.11535973832E+03  0.16655153496E+03  0.12000000000E+03 0.  0.
         25    1    1    2    0    0  0.52731420691E+01  0.19335319800E+01  0.48152932981E+02  0.12942275506E+03  0.12000000000E+03 0.  0.
<mgrwt>
<rscale>  0 0.24670709E+03</rscale>
<asrwt>0</asrwt>
<pdfrwt beam="1">  1        1 0.35345150E-01 0.24670709E+03</pdfrwt>
<pdfrwt beam="2">  1       -1 0.10189355E-01 0.24670709E+03</pdfrwt>
<totfact> 0.71760100E+03</totfact>
</mgrwt>
</event>
<event>
 4    1  0.1866622E-004  0.2481870E+03  0.7818608E-02  0.1114456E+00
          1   -1    0    0  501    0  0.00000000000E+00  0.00000000000E+00  0.12253756189E+04  0.12253756189E+04  0.00000000000E+00 0.  1.
         -1   -1    0    0    0  501 -0.00000000000E+00 -0.00000000000E+00 -0.12566915648E+02  0.12566915648E+02  0.00000000000E+00 0.  1.
         25    1    1    2    0    0 -0.16098327838E+02 -0.27202914655E+02  0.60736788279E+03  0.61991523596E+03  0.12000000000E+03 0.  0.
         25    1    1    2    0    0  0.16098327838E+02  0.27202914655E+02  0.60544082046E+03  0.61802729860E+03  0.12000000000E+03 0.  0.
<mgrwt>
<rscale>  0 0.24818696E+03</rscale>
<asrwt>0</asrwt>
<pdfrwt beam="1">  1        1 0.18851923E+00 0.24818696E+03</pdfrwt>
<pdfrwt beam="2">  1       -1 0.19333726E-02 0.24818696E+03</pdfrwt>
<totfact> 0.78925507E+03</totfact>
</mgrwt>
</event>
<event>
 4    1  0.1866622E-004  0.4074865E+03  0.7818608E-02  0.1041218E+00
          2   -1    0    0  501    0  0.00000000000E+00  0.00000000000E+00  0.11882654095E+03  0.11882654095E+03  0.00000000000E+00 0. -1.
         -2   -1    0    0    0  501 -0.00000000000E+00 -0.00000000000E+00 -0.34934384866E+03  0.34934384866E+03  0.00000000000E+00 0. -1.
         25    1    1    2    0    0  0.11888848750E+03  0.55938173738E+02 -0.22927302708E+03  0.29022348749E+03  0.12000000000E+03 0.  0.
         25    1    1    2    0    0 -0.11888848750E+03 -0.55938173738E+02 -0.12442806318E+01  0.17794690212E+03  0.12000000000E+03 0.  0.
<mgrwt>
<rscale>  0 0.40748655E+03</rscale>
<asrwt>0</asrwt>
<pdfrwt beam="1">  1        2 0.18281006E-01 0.40748655E+03</pdfrwt>
<pdfrwt beam="2">  1       -2 0.53745208E-01 0.40748655E+03</pdfrwt>
<totfact> 0.10304811E+03</totfact>
</mgrwt>
</event>
<event>
 4    1  0.1866622E-004  0.2533010E+03  0.7818608E-02  0.1111236E+00
         -1   -1    0    0    0  501 -0.00000000000E+00  0.00000000000E+00  0.97790249744E+02  0.97790249744E+02  0.00000000000E+00 0. -1.
          1   -1    0    0  501    0  0.00000000000E+00 -0.00000000000E+00 -0.16402816242E+03  0.16402816242E+03  0.00000000000E+00 0. -1.
         25    1    1    2    0    0  0.29910560114E+02  0.33074484745E+01 -0.61137150139E+02  0.13799757950E+03  0.12000000000E+03 0.  0.
         25    1    1    2    0    0 -0.29910560114E+02 -0.33074484745E+01 -0.51007625339E+01  0.12382083266E+03  0.12000000000E+03 0.  0.
<mgrwt>
<rscale>  0 0.25330105E+03</rscale>
<asrwt>0</asrwt>
<pdfrwt beam="1">  1        1 0.25235102E-01 0.25330105E+03</pdfrwt>
<pdfrwt beam="2">  1       -1 0.15044654E-01 0.25330105E+03</pdfrwt>
<totfact> 0.59732924E+03</totfact>
</mgrwt>
</event>
<event>
 4    1  0.1866622E-004  0.2617153E+03  0.7818608E-02  0.1106117E+00
          2   -1    0    0  501    0  0.00000000000E+00  0.00000000000E+00  0.18656737560E+04  0.18656737560E+04  0.00000000000E+00 0. -1.
         -2   -1    0    0    0  501 -0.00000000000E+00 -0.00000000000E+00 -0.91783092846E+01  0.91783092846E+01  0.00000000000E+00 0. -1.
         25    1    1    2    0    0  0.46635346495E+02 -0.19124539877E+02  0.83130522042E+03  0.84143269076E+03  0.12000000000E+03 0.  0.
         25    1    1    2    0    0 -0.46635346495E+02  0.19124539877E+02  0.10251902263E+04  0.10334193745E+04  0.12000000000E+03 0.  0.
<mgrwt>
<rscale>  0 0.26171535E+03</rscale>
<asrwt>0</asrwt>
<pdfrwt beam="1">  1        2 0.28702643E+00 0.26171535E+03</pdfrwt>
<pdfrwt beam="2">  1       -2 0.14120491E-02 0.26171535E+03</pdfrwt>
<totfact> 0.11255109E+04</totfact>
</mgrwt>
</event>
<event>
 4    1  0.1866622E-004  0.2465269E+03  0.7818608E-02  0.1115520E+00
         -2   -1    0    0    0  501 -0.00000000000E+00  0.00000000000E+00  0.14046498395E+03  0.14046498395E+03  0.00000000000E+00 0.  1.
          2   -1    0    0  501    0  0.00000000000E+00 -0.00000000000E+00 -0.10816842161E+03  0.10816842161E+03  0.00000000000E+00 0.  1.
         25    1    1    2    0    0  0.13335494789E+02 -0.39161724575E+01  0.40866967192E+02  0.12752756892E+03  0.12000000000E+03 0.  0.
         25    1    1    2    0    0 -0.13335494789E+02  0.39161724575E+01 -0.85704048488E+01  0.12110583664E+03  0.12000000000E+03 0.  0.
<mgrwt>
<rscale>  0 0.24652688E+03</rscale>
<asrwt>0</asrwt>
<pdfrwt beam="1">  1        2 0.16641296E-01 0.24652688E+03</pdfrwt>
<pdfrwt beam="2">  1       -2 0.21609998E-01 0.24652688E+03</pdfrwt>
<totfact> 0.62404660E+03</totfact>
</mgrwt>
</event>
<event>
 4    1  0.1866622E-004  0.3178999E+03  0.7818608E-02  0.1076620E+00
         -2   -1    0    0    0  501 -0.00000000000E+00  0.00000000000E+00  0.62790559464E+02  0.62790559464E+02  0.00000000000E+00 0. -1.
          2   -1    0    0  501    0  0.00000000000E+00 -0.00000000000E+00 -0.40237079381E+03  0.40237079381E+03  0.00000000000E+00 0. -1.
         25    1    1    2    0    0 -0.27876264707E+02  0.10043036379E+03 -0.16785823534E+03  0.23117035121E+03  0.12000000000E+03 0.  0.
         25    1    1    2    0    0  0.27876264707E+02 -0.10043036379E+03 -0.17172199901E+03  0.23399100207E+03  0.12000000000E+03 0.  0.
<mgrwt>
<rscale>  0 0.31789990E+03</rscale>
<asrwt>0</asrwt>
<pdfrwt beam="1">  1        2 0.61903198E-01 0.31789990E+03</pdfrwt>
<pdfrwt beam="2">  1       -2 0.96600862E-02 0.31789990E+03</pdfrwt>
<totfact> 0.55640514E+03</totfact>
</mgrwt>
</event>
<event>
 4    1  0.1866622E-004  0.2967830E+03  0.7818608E-02  0.1086860E+00
         -2   -1    0    0    0  501 -0.00000000000E+00  0.00000000000E+00  0.15839649733E+02  0.15839649733E+02  0.00000000000E+00 0.  1.
          2   -1    0    0  501    0  0.00000000000E+00 -0.00000000000E+00 -0.13901850304E+04  0.13901850304E+04  0.00000000000E+00 0.  1.
         25    1    1    2    0    0 -0.33811895618E+01 -0.84004429850E+02 -0.79846654274E+03  0.81179861822E+03  0.12000000000E+03 0.  0.
         25    1    1    2    0    0  0.33811895618E+01  0.84004429850E+02 -0.57587883792E+03  0.59422606190E+03  0.12000000000E+03 0.  0.
<mgrwt>
<rscale>  0 0.29678304E+03</rscale>
<asrwt>0</asrwt>
<pdfrwt beam="1">  1        2 0.21387457E+00 0.29678304E+03</pdfrwt>
<pdfrwt beam="2">  1       -2 0.24368697E-02 0.29678304E+03</pdfrwt>
<totfact> 0.90452135E+03</totfact>
</mgrwt>
</event>
<event>
 4    1  0.1866622E-004  0.3335845E+03  0.7818608E-02  0.1069562E+00
         -1   -1    0    0    0  501 -0.00000000000E+00  0.00000000000E+00  0.12854546512E+03  0.12854546512E+03  0.00000000000E+00 0.  1.
          1   -1    0    0  501    0  0.00000000000E+00 -0.00000000000E+00 -0.21641878527E+03  0.21641878527E+03  0.00000000000E+00 0.  1.
         25    1    1    2    0    0  0.93161648920E+02 -0.51427940622E+01 -0.11493827010E+03  0.19056848400E+03  0.12000000000E+03 0.  0.
         25    1    1    2    0    0 -0.93161648920E+02  0.51427940622E+01  0.27064949954E+02  0.15439576638E+03  0.12000000000E+03 0.  0.
<mgrwt>
<rscale>  0 0.33358449E+03</rscale>
<asrwt>0</asrwt>
<pdfrwt beam="1">  1        1 0.33295197E-01 0.33358449E+03</pdfrwt>
<pdfrwt beam="2">  1       -1 0.19776226E-01 0.33358449E+03</pdfrwt>
<totfact> 0.27298319E+03</totfact>
</mgrwt>
</event>
<event>
 4    1  0.1866622E-004  0.2694483E+03  0.7818608E-02  0.1101596E+00
         -2   -1    0    0    0  501 -0.00000000000E+00  0.00000000000E+00  0.26205351763E+02  0.26205351763E+02  0.00000000000E+00 0. -1.
          2   -1    0    0  501    0  0.00000000000E+00 -0.00000000000E+00 -0.69262925441E+03  0.69262925441E+03  0.00000000000E+00 0. -1.
         25    1    1    2    0    0  0.58528997343E+02  0.30711573630E+01 -0.38059963092E+03  0.40334991582E+03  0.12000000000E+03 0.  0.
         25    1    1    2    0    0 -0.58528997343E+02 -0.30711573630E+01 -0.28582427173E+03  0.31548469036E+03  0.12000000000E+03 0.  0.
<mgrwt>
<rscale>  0 0.26944828E+03</rscale>
<asrwt>0</asrwt>
<pdfrwt beam="1">  1        2 0.10655835E+00 0.26944828E+03</pdfrwt>
<pdfrwt beam="2">  1       -2 0.40315924E-02 0.26944828E+03</pdfrwt>
<totfact> 0.11480192E+04</totfact>
</mgrwt>
</event>
<event>
 4    1  0.1866622E-004  0.3259830E+03  0.7818608E-02  0.1072928E+00
          3   -1    0    0  501    0  0.00000000000E+00  0.00000000000E+00  0.59846953332E+02  0.59846953332E+02  0.00000000000E+00 0. -1.
         -3   -1    0    0    0  501 -0.00000000000E+00 -0.00000000000E+00 -0.44390277238E+03  0.44390277238E+03  0.00000000000E+00 0. -1.
         25    1    1    2    0    0 -0.13786460444E+02  0.18378933564E+02 -0.35873961030E+03  0.37897488003E+03  0.12000000000E+03 0.  0.
         25    1    1    2    0    0  0.13786460444E+02 -0.18378933564E+02 -0.25316208744E+02  0.12477484568E+03  0.12000000000E+03 0.  0.
<mgrwt>
<rscale>  0 0.32598300E+03</rscale>
<asrwt>0</asrwt>
<pdfrwt beam="1">  1        3 0.92072235E-02 0.32598300E+03</pdfrwt>
<pdfrwt beam="2">  1       -3 0.68292735E-01 0.32598300E+03</pdfrwt>
<totfact> 0.45710523E+02</totfact>
</mgrwt>
</event>
<event>
 4    1  0.1866622E-004  0.3138136E+03  0.7818608E-02  0.1078532E+00
          2   -1    0    0  501    0  0.00000000000E+00  0.00000000000E+00  0.14321282424E+04  0.14321282424E+04  0.00000000000E+00 0.  1.
         -2   -1    0    0    0  501 -0.00000000000E+00 -0.00000000000E+00 -0.17191020196E+02  0.17191020196E+02  0.00000000000E+00 0.  1.
         25    1    1    2    0    0 -0.40946522881E+02 -0.59690062384E+02  0.38154431347E+03  0.40646719969E+03  0.12000000000E+03 0.  0.
         25    1    1    2    0    0  0.40946522881E+02  0.59690062384E+02  0.10333929087E+04  0.10428520629E+04  0.12000000000E+03 0.  0.
<mgrwt>
<rscale>  0 0.31381361E+03</rscale>
<asrwt>0</asrwt>
<pdfrwt beam="1">  1        2 0.22032733E+00 0.31381361E+03</pdfrwt>
<pdfrwt beam="2">  1       -2 0.26447735E-02 0.31381361E+03</pdfrwt>
<totfact> 0.76058273E+03</totfact>
</mgrwt>
</event>
<event>
 4    1  0.1866622E-004  0.2790947E+03  0.7818608E-02  0.1096184E+00
          4   -1    0    0  501    0  0.00000000000E+00  0.00000000000E+00  0.17148444257E+03  0.17148444257E+03  0.00000000000E+00 0. -1.
         -4   -1    0    0    0  501 -0.00000000000E+00 -0.00000000000E+00 -0.11355817041E+03  0.11355817041E+03  0.00000000000E+00 0. -1.
         25    1    1    2    0    0 -0.25434289268E+02  0.59040058645E+02  0.60289742113E+02  0.14888748973E+03  0.12000000000E+03 0.  0.
         25    1    1    2    0    0  0.25434289268E+02 -0.59040058645E+02 -0.23634699605E+01  0.13615512324E+03  0.12000000000E+03 0.  0.
<mgrwt>
<rscale>  0 0.27909468E+03</rscale>
<asrwt>0</asrwt>
<pdfrwt beam="1">  1        4 0.26382222E-01 0.27909468E+03</pdfrwt>
<pdfrwt beam="2">  1       -4 0.17470488E-01 0.27909468E+03</pdfrwt>
<totfact> 0.73262532E+02</totfact>
</mgrwt>
</event>
<event>
 4    1  0.1866622E-004  0.2621170E+03  0.7818608E-02  0.1105878E+00
         -4   -1    0    0    0  501 -0.00000000000E+00  0.00000000000E+00  0.63717745038E+03  0.63717745038E+03  0.00000000000E+00 0.  1.
          4   -1    0    0  501    0  0.00000000000E+00 -0.00000000000E+00 -0.26956908034E+02  0.26956908034E+02  0.00000000000E+00 0.  1.
         25    1    1    2    0    0 -0.10616494227E+02  0.18507198994E+02  0.42718010385E+03  0.44422749520E+03  0.12000000000E+03 0.  0.
         25    1    1    2    0    0  0.10616494227E+02 -0.18507198994E+02  0.18304043849E+03  0.21990686321E+03  0.12000000000E+03 0.  0.
<mgrwt>
<rscale>  0 0.26211703E+03</rscale>
<asrwt>0</asrwt>
<pdfrwt beam="1">  1        4 0.41472171E-02 0.26211703E+03</pdfrwt>
<pdfrwt beam="2">  1       -4 0.98027288E-01 0.26211703E+03</pdfrwt>
<totfact> 0.53732397E+02</totfact>
</mgrwt>
</event>
<event>
 4    1  0.1866622E-004  0.3243034E+03  0.7818608E-02  0.1073686E+00
         -2   -1    0    0    0  501 -0.00000000000E+00  0.00000000000E+00  0.25902175686E+02  0.25902175686E+02  0.00000000000E+00 0.  1.
          2   -1    0    0  501    0  0.00000000000E+00 -0.00000000000E+00 -0.10150951881E+04  0.10150951881E+04  0.00000000000E+00 0.  1.
         25    1    1    2    0    0 -0.80285333637E+02  0.47696933727E+02 -0.67539505749E+03  0.69229994653E+03  0.12000000000E+03 0.  0.
         25    1    1    2    0    0  0.80285333637E+02 -0.47696933727E+02 -0.31379795490E+03  0.34869741723E+03  0.12000000000E+03 0.  0.
<mgrwt>
<rscale>  0 0.32430340E+03</rscale>
<asrwt>0</asrwt>
<pdfrwt beam="1">  1        2 0.15616849E+00 0.32430340E+03</pdfrwt>
<pdfrwt beam="2">  1       -2 0.39849502E-02 0.32430340E+03</pdfrwt>
<totfact> 0.71246846E+03</totfact>
</mgrwt>
</event>
<event>
 4    1  0.1866622E-004  0.3540766E+03  0.7818608E-02  0.1060954E+00
          4   -1    0    0  501    0  0.00000000000E+00  0.00000000000E+00  0.39149383432E+03  0.39149383432E+03  0.00000000000E+00 0. -1.
         -4   -1    0    0    0  501 -0.00000000000E+00 -0.00000000000E+00 -0.80058871660E+02  0.80058871660E+02  0.00000000000E+00 0. -1.
         25    1    1    2    0    0  0.74985292133E+01 -0.12227403832E+03  0.97128374742E+02  0.19708142877E+03  0.12000000000E+03 0.  0.
         25    1    1    2    0    0 -0.74985292133E+01  0.12227403832E+03  0.21430658792E+03  0.27447127721E+03  0.12000000000E+03 0.  0.
<mgrwt>
<rscale>  0 0.35407657E+03</rscale>
<asrwt>0</asrwt>
<pdfrwt beam="1">  1        4 0.60229819E-01 0.35407657E+03</pdfrwt>
<pdfrwt beam="2">  1       -4 0.12316750E-01 0.35407657E+03</pdfrwt>
<totfact> 0.26891011E+02</totfact>
</mgrwt>
</event>
<event>
 4    1  0.1866622E-004  0.2485646E+03  0.7818608E-02  0.1114215E+00
         -2   -1    0    0    0  501 -0.00000000000E+00  0.00000000000E+00  0.72522151389E+01  0.72522151389E+01  0.00000000000E+00 0. -1.
          2   -1    0    0  501    0  0.00000000000E+00 -0.00000000000E+00 -0.21298437141E+04  0.21298437141E+04  0.00000000000E+00 0. -1.
         25    1    1    2    0    0 -0.11086493102E+02  0.23250484386E+02 -0.12294668327E+04  0.12355776739E+04  0.12000000000E+03 0.  0.
         25    1    1    2    0    0  0.11086493102E+02 -0.23250484386E+02 -0.89312466617E+03  0.90151825532E+03  0.12000000000E+03 0.  0.
<mgrwt>
<rscale>  0 0.24856456E+03</rscale>
<asrwt>0</asrwt>
<pdfrwt beam="1">  1        2 0.32766801E+00 0.24856456E+03</pdfrwt>
<pdfrwt beam="2">  1       -2 0.11157263E-02 0.24856456E+03</pdfrwt>
<totfact> 0.11512521E+04</totfact>
</mgrwt>
</event>
<event>
 4    1  0.1866622E-004  0.2503252E+03  0.7818608E-02  0.1113099E+00
         -2   -1    0    0    0  501 -0.00000000000E+00  0.00000000000E+00  0.16007911135E+02  0.16007911135E+02  0.00000000000E+00 0.  1.
          2   -1    0    0  501    0  0.00000000000E+00 -0.00000000000E+00 -0.97862115719E+03  0.97862115719E+03  0.00000000000E+00 0.  1.
         25    1    1    2    0    0 -0.29070911557E+02  0.41231616652E+01 -0.56112662554E+03  0.57456523411E+03  0.12000000000E+03 0.  0.
         25    1    1    2    0    0  0.29070911557E+02 -0.41231616652E+01 -0.40148662051E+03  0.42006383421E+03  0.12000000000E+03 0.  0.
<mgrwt>
<rscale>  0 0.25032523E+03</rscale>
<asrwt>0</asrwt>
<pdfrwt beam="1">  1        2 0.15055712E+00 0.25032523E+03</pdfrwt>
<pdfrwt beam="2">  1       -2 0.24627553E-02 0.25032523E+03</pdfrwt>
<totfact> 0.15270723E+04</totfact>
</mgrwt>
</event>
<event>
 4    1  0.1866622E-004  0.2535471E+03  0.7818608E-02  0.1111083E+00
         -2   -1    0    0    0  501 -0.00000000000E+00  0.00000000000E+00  0.22763468382E+02  0.22763468382E+02  0.00000000000E+00 0.  1.
          2   -1    0    0  501    0  0.00000000000E+00 -0.00000000000E+00 -0.70602294328E+03  0.70602294328E+03  0.00000000000E+00 0.  1.
         25    1    1    2    0    0  0.39303804231E+02  0.78591822881E+01 -0.31846030636E+03  0.34267115796E+03  0.12000000000E+03 0.  0.
         25    1    1    2    0    0 -0.39303804231E+02 -0.78591822881E+01 -0.36479916854E+03  0.38611525370E+03  0.12000000000E+03 0.  0.
<mgrwt>
<rscale>  0 0.25354708E+03</rscale>
<asrwt>0</asrwt>
<pdfrwt beam="1">  1        2 0.10861890E+00 0.25354708E+03</pdfrwt>
<pdfrwt beam="2">  1       -2 0.35020724E-02 0.25354708E+03</pdfrwt>
<totfact> 0.13818282E+04</totfact>
</mgrwt>
</event>
<event>
 4    1  0.1866622E-004  0.2592298E+03  0.7818608E-02  0.1107607E+00
         -1   -1    0    0    0  501 -0.00000000000E+00  0.00000000000E+00  0.38971503734E+03  0.38971503734E+03  0.00000000000E+00 0.  1.
          1   -1    0    0  501    0  0.00000000000E+00 -0.00000000000E+00 -0.43108478795E+02  0.43108478795E+02  0.00000000000E+00 0.  1.
         25    1    1    2    0    0  0.57849474850E+01 -0.33512446760E+02  0.23218005966E+03  0.26356048605E+03  0.12000000000E+03 0.  0.
         25    1    1    2    0    0 -0.57849474850E+01  0.33512446760E+02  0.11442649889E+03  0.16926303008E+03  0.12000000000E+03 0.  0.
<mgrwt>
<rscale>  0 0.25922980E+03</rscale>
<asrwt>0</asrwt>
<pdfrwt beam="1">  1        1 0.66320739E-02 0.25922980E+03</pdfrwt>
<pdfrwt beam="2">  1       -1 0.59956157E-01 0.25922980E+03</pdfrwt>
<totfact> 0.32556155E+03</totfact>
</mgrwt>
</event>
<event>
 4    1  0.1866622E-004  0.2680527E+03  0.7818608E-02  0.1102399E+00
          2   -1    0    0  501    0  0.00000000000E+00  0.00000000000E+00  0.31198717698E+04  0.31198717698E+04  0.00000000000E+00 0. -1.
         -2   -1    0    0    0  501 -0.00000000000E+00 -0.00000000000E+00 -0.57576283576E+01  0.57576283576E+01  0.00000000000E+00 0. -1.
         25    1    1    2    0    0 -0.44408029733E+02  0.38528728133E+02  0.14367072430E+04  0.14429082570E+04  0.12000000000E+03 0.  0.
         25    1    1    2    0    0  0.44408029733E+02 -0.38528728133E+02  0.16774068984E+04  0.16827211412E+04  0.12000000000E+03 0.  0.
<mgrwt>
<rscale>  0 0.26805270E+03</rscale>
<asrwt>0</asrwt>
<pdfrwt beam="1">  1        2 0.47997892E+00 0.26805270E+03</pdfrwt>
<pdfrwt beam="2">  1       -2 0.88579147E-03 0.26805270E+03</pdfrwt>
<totfact> 0.44919464E+03</totfact>
</mgrwt>
</event>
<event>
 4    1  0.1866622E-004  0.2668758E+03  0.7818608E-02  0.1103081E+00
          1   -1    0    0  501    0  0.00000000000E+00  0.00000000000E+00  0.59941598711E+03  0.59941598711E+03  0.00000000000E+00 0. -1.
         -1   -1    0    0    0  501 -0.00000000000E+00 -0.00000000000E+00 -0.29705042315E+02  0.29705042315E+02  0.00000000000E+00 0. -1.
         25    1    1    2    0    0  0.34231654765E+02  0.36057381293E+02  0.21282154630E+03  0.24932900253E+03  0.12000000000E+03 0.  0.
         25    1    1    2    0    0 -0.34231654765E+02 -0.36057381293E+02  0.35688939850E+03  0.37979202689E+03  0.12000000000E+03 0.  0.
<mgrwt>
<rscale>  0 0.26687583E+03</rscale>
<asrwt>0</asrwt>
<pdfrwt beam="1">  1        1 0.92217835E-01 0.26687583E+03</pdfrwt>
<pdfrwt beam="2">  1       -1 0.45700070E-02 0.26687583E+03</pdfrwt>
<totfact> 0.70597045E+03</totfact>
</mgrwt>
</event>
<event>
 4    1  0.1866622E-004  0.3750492E+03  0.7818608E-02  0.1052779E+00
         -4   -1    0    0    0  501 -0.00000000000E+00  0.00000000000E+00  0.45923254260E+03  0.45923254260E+03  0.00000000000E+00 0.  1.
          4   -1    0    0  501    0  0.00000000000E+00 -0.00000000000E+00 -0.76574459201E+02  0.76574459201E+02  0.00000000000E+00 0.  1.
         25    1    1    2    0    0 -0.51346944618E+01  0.53552145853E+02  0.34459687838E+00  0.13150785589E+03  0.12000000000E+03 0.  0.
         25    1    1    2    0    0  0.51346944618E+01 -0.53552145853E+02  0.38231348652E+03  0.40429914592E+03  0.12000000000E+03 0.  0.
<mgrwt>
<rscale>  0 0.37504924E+03</rscale>
<asrwt>0</asrwt>
<pdfrwt beam="1">  1        4 0.11780686E-01 0.37504924E+03</pdfrwt>
<pdfrwt beam="2">  1       -4 0.70651159E-01 0.37504924E+03</pdfrwt>
<totfact> 0.20683246E+02</totfact>
</mgrwt>
</event>
<event>
 4    1  0.1866622E-004  0.2764077E+03  0.7818608E-02  0.1097667E+00
          2   -1    0    0  501    0  0.00000000000E+00  0.00000000000E+00  0.34392936860E+03  0.34392936860E+03  0.00000000000E+00 0.  1.
         -2   -1    0    0    0  501 -0.00000000000E+00 -0.00000000000E+00 -0.55535524380E+02  0.55535524380E+02  0.00000000000E+00 0.  1.
         25    1    1    2    0    0 -0.15103499734E+02  0.57439095585E+02  0.19369234610E+03  0.23546568825E+03  0.12000000000E+03 0.  0.
         25    1    1    2    0    0  0.15103499734E+02 -0.57439095585E+02  0.94701498122E+02  0.16399920473E+03  0.12000000000E+03 0.  0.
<mgrwt>
<rscale>  0 0.27640765E+03</rscale>
<asrwt>0</asrwt>
<pdfrwt beam="1">  1        2 0.52912209E-01 0.27640765E+03</pdfrwt>
<pdfrwt beam="2">  1       -2 0.85439270E-02 0.27640765E+03</pdfrwt>
<totfact> 0.79743759E+03</totfact>
</mgrwt>
</event>
<event>
 4    1  0.1866622E-004  0.3072528E+03  0.7818608E-02  0.1081670E+00
         -1   -1    0    0    0  501 -0.00000000000E+00  0.00000000000E+00  0.10626146082E+02  0.10626146082E+02  0.00000000000E+00 0.  1.
          1   -1    0    0  501    0  0.00000000000E+00 -0.00000000000E+00 -0.22210382506E+04  0.22210382506E+04  0.00000000000E+00 0.  1.
         25    1    1    2    0    0 -0.88886303989E+01 -0.94453086964E+02 -0.10023123409E+04  0.10139183508E+04  0.12000000000E+03 0.  0.
         25    1    1    2    0    0  0.88886303989E+01  0.94453086964E+02 -0.12080997636E+04  0.12177460458E+04  0.12000000000E+03 0.  0.
<mgrwt>
<rscale>  0 0.30725284E+03</rscale>
<asrwt>0</asrwt>
<pdfrwt beam="1">  1        1 0.34169859E+00 0.30725284E+03</pdfrwt>
<pdfrwt beam="2">  1       -1 0.16347898E-02 0.30725284E+03</pdfrwt>
<totfact> 0.22260812E+03</totfact>
</mgrwt>
</event>
<event>
 4    1  0.1866622E-004  0.2790665E+03  0.7818608E-02  0.1096200E+00
         -2   -1    0    0    0  501 -0.00000000000E+00  0.00000000000E+00  0.16737799777E+03  0.16737799777E+03  0.00000000000E+00 0. -1.
          2   -1    0    0  501    0  0.00000000000E+00 -0.00000000000E+00 -0.11632068199E+03  0.11632068199E+03  0.00000000000E+00 0. -1.
         25    1    1    2    0    0 -0.46086491902E+02 -0.33814975257E+01  0.80595334466E+02  0.15175970216E+03  0.12000000000E+03 0.  0.
         25    1    1    2    0    0  0.46086491902E+02  0.33814975257E+01 -0.29538018686E+02  0.13193897760E+03  0.12000000000E+03 0.  0.
<mgrwt>
<rscale>  0 0.27906646E+03</rscale>
<asrwt>0</asrwt>
<pdfrwt beam="1">  1        2 0.17895489E-01 0.27906646E+03</pdfrwt>
<pdfrwt beam="2">  1       -2 0.25750461E-01 0.27906646E+03</pdfrwt>
<totfact> 0.42400006E+03</totfact>
</mgrwt>
</event>
<event>
 4    1  0.1866622E-004  0.3978250E+03  0.7818608E-02  0.1044535E+00
          2   -1    0    0  501    0  0.00000000000E+00  0.00000000000E+00  0.38392468438E+03  0.38392468438E+03  0.00000000000E+00 0.  1.
         -2   -1    0    0    0  501 -0.00000000000E+00 -0.00000000000E+00 -0.10305713226E+03  0.10305713226E+03  0.00000000000E+00 0.  1.
         25    1    1    2    0    0 -0.11091121168E+02 -0.53140670120E+02  0.32290115707E+03  0.34872926609E+03  0.12000000000E+03 0.  0.
         25    1    1    2    0    0  0.11091121168E+02  0.53140670120E+02 -0.42033604955E+02  0.13825255056E+03  0.12000000000E+03 0.  0.
<mgrwt>
<rscale>  0 0.39782497E+03</rscale>
<asrwt>0</asrwt>
<pdfrwt beam="1">  1        2 0.59065335E-01 0.39782497E+03</pdfrwt>
<pdfrwt beam="2">  1       -2 0.15854944E-01 0.39782497E+03</pdfrwt>
<totfact> 0.26217142E+03</totfact>
</mgrwt>
</event>
<event>
 4    1  0.1866622E-004  0.2460718E+03  0.7818608E-02  0.1115813E+00
         -1   -1    0    0    0  501 -0.00000000000E+00  0.00000000000E+00  0.19024415427E+03  0.19024415427E+03  0.00000000000E+00 0. -1.
          1   -1    0    0  501    0  0.00000000000E+00 -0.00000000000E+00 -0.79570570560E+02  0.79570570560E+02  0.00000000000E+00 0. -1.
         25    1    1    2    0    0 -0.21966484032E+01 -0.14428529636E+02  0.30217214761E+02  0.12460372306E+03  0.12000000000E+03 0.  0.
         25    1    1    2    0    0  0.21966484032E+01  0.14428529636E+02  0.80456368951E+02  0.14521100177E+03  0.12000000000E+03 0.  0.
<mgrwt>
<rscale>  0 0.24607183E+03</rscale>
<asrwt>0</asrwt>
<pdfrwt beam="1">  1        1 0.12241626E-01 0.24607183E+03</pdfrwt>
<pdfrwt beam="2">  1       -1 0.29268331E-01 0.24607183E+03</pdfrwt>
<totfact> 0.51433931E+03</totfact>
</mgrwt>
</event>
<event>
 4    1  0.1866622E-004  0.2514506E+03  0.7818608E-02  0.1112392E+00
          2   -1    0    0  501    0  0.00000000000E+00  0.00000000000E+00  0.17618119417E+03  0.17618119417E+03  0.00000000000E+00 0. -1.
         -2   -1    0    0    0  501 -0.00000000000E+00 -0.00000000000E+00 -0.89719255164E+02  0.89719255164E+02  0.00000000000E+00 0. -1.
         25    1    1    2    0    0  0.90359204531E+01 -0.12606368871E+02  0.79344283920E+02  0.14469306751E+03  0.12000000000E+03 0.  0.
         25    1    1    2    0    0 -0.90359204531E+01  0.12606368871E+02  0.71176550858E+01  0.12120738182E+03  0.12000000000E+03 0.  0.
<mgrwt>
<rscale>  0 0.25145056E+03</rscale>
<asrwt>0</asrwt>
<pdfrwt beam="1">  1        2 0.27104799E-01 0.25145056E+03</pdfrwt>
<pdfrwt beam="2">  1       -2 0.13802962E-01 0.25145056E+03</pdfrwt>
<totfact> 0.76123604E+03</totfact>
</mgrwt>
</event>
<event>
 4    1  0.1866622E-004  0.3546287E+03  0.7818608E-02  0.1060731E+00
          3   -1    0    0  501    0  0.00000000000E+00  0.00000000000E+00  0.58715459251E+03  0.58715459251E+03  0.00000000000E+00 0. -1.
         -3   -1    0    0    0  501 -0.00000000000E+00 -0.00000000000E+00 -0.53547014173E+02  0.53547014173E+02  0.00000000000E+00 0. -1.
         25    1    1    2    0    0  0.91943116815E+02 -0.91400234262E+02  0.23923569310E+03  0.29739074701E+03  0.12000000000E+03 0.  0.
         25    1    1    2    0    0 -0.91943116815E+02  0.91400234262E+02  0.29437188523E+03  0.34331085967E+03  0.12000000000E+03 0.  0.
<mgrwt>
<rscale>  0 0.35462868E+03</rscale>
<asrwt>0</asrwt>
<pdfrwt beam="1">  1        3 0.90331471E-01 0.35462868E+03</pdfrwt>
<pdfrwt beam="2">  1       -3 0.82380026E-02 0.35462868E+03</pdfrwt>
<totfact> 0.29986668E+02</totfact>
</mgrwt>
</event>
<event>
 4    1  0.1866622E-004  0.3172583E+03  0.7818608E-02  0.1076918E+00
         -1   -1    0    0    0  501 -0.00000000000E+00  0.00000000000E+00  0.61232916171E+02  0.61232916171E+02  0.00000000000E+00 0.  1.
          1   -1    0    0  501    0  0.00000000000E+00 -0.00000000000E+00 -0.41094241118E+03  0.41094241118E+03  0.00000000000E+00 0.  1.
         25    1    1    2    0    0 -0.54602911311E+02  0.47550150912E+02 -0.28543757930E+03  0.31798916090E+03  0.12000000000E+03 0.  0.
         25    1    1    2    0    0  0.54602911311E+02 -0.47550150912E+02 -0.64271915713E+02  0.15418616645E+03  0.12000000000E+03 0.  0.
<mgrwt>
<rscale>  0 0.31725827E+03</rscale>
<asrwt>0</asrwt>
<pdfrwt beam="1">  1        1 0.63221907E-01 0.31725827E+03</pdfrwt>
<pdfrwt beam="2">  1       -1 0.94204490E-02 0.31725827E+03</pdfrwt>
<totfact> 0.39139121E+03</totfact>
</mgrwt>
</event>
<event>
 4    1  0.1866622E-004  0.3933265E+03  0.7818608E-02  0.1046115E+00
         -1   -1    0    0    0  501 -0.00000000000E+00  0.00000000000E+00  0.16229875515E+02  0.16229875515E+02  0.00000000000E+00 0.  1.
          1   -1    0    0  501    0  0.00000000000E+00 -0.00000000000E+00 -0.23830399694E+04  0.23830399694E+04  0.00000000000E+00 0.  1.
         25    1    1    2    0    0 -0.20924075885E+02 -0.54609274376E+02 -0.30246559455E+03  0.33061371068E+03  0.12000000000E+03 0.  0.
         25    1    1    2    0    0  0.20924075885E+02  0.54609274376E+02 -0.20643444993E+04  0.20686561342E+04  0.12000000000E+03 0.  0.
<mgrwt>
<rscale>  0 0.39332654E+03</rscale>
<asrwt>0</asrwt>
<pdfrwt beam="1">  1        1 0.36662155E+00 0.39332654E+03</pdfrwt>
<pdfrwt beam="2">  1       -1 0.24969038E-02 0.39332654E+03</pdfrwt>
<totfact> 0.92613750E+02</totfact>
</mgrwt>
</event>
<event>
 4    1  0.1866622E-004  0.3330614E+03  0.7818608E-02  0.1069790E+00
          1   -1    0    0  501    0  0.00000000000E+00  0.00000000000E+00  0.19546296924E+03  0.19546296924E+03  0.00000000000E+00 0. -1.
         -1   -1    0    0    0  501 -0.00000000000E+00 -0.00000000000E+00 -0.14188092382E+03  0.14188092382E+03  0.00000000000E+00 0. -1.
         25    1    1    2    0    0  0.95571069518E+02 -0.62378622254E+02  0.90285752818E+01  0.16585064671E+03  0.12000000000E+03 0.  0.
         25    1    1    2    0    0 -0.95571069518E+02  0.62378622254E+02  0.44553470132E+02  0.17149324635E+03  0.12000000000E+03 0.  0.
<mgrwt>
<rscale>  0 0.33306136E+03</rscale>
<asrwt>0</asrwt>
<pdfrwt beam="1">  1        1 0.30071226E-01 0.33306136E+03</pdfrwt>
<pdfrwt beam="2">  1       -1 0.21827835E-01 0.33306136E+03</pdfrwt>
<totfact> 0.26416212E+03</totfact>
</mgrwt>
</event>
<event>
 4    1  0.1866622E-004  0.2774109E+03  0.7818608E-02  0.1097111E+00
         -1   -1    0    0    0  501 -0.00000000000E+00  0.00000000000E+00  0.28136915026E+03  0.28136915026E+03  0.00000000000E+00 0. -1.
          1   -1    0    0  501    0  0.00000000000E+00 -0.00000000000E+00 -0.68377094950E+02  0.68377094950E+02  0.00000000000E+00 0. -1.
         25    1    1    2    0    0  0.38950919897E+02 -0.21797968943E+02  0.39227171222E+02  0.13390704452E+03  0.12000000000E+03 0.  0.
         25    1    1    2    0    0 -0.38950919897E+02  0.21797968943E+02  0.17376488409E+03  0.21583920069E+03  0.12000000000E+03 0.  0.
<mgrwt>
<rscale>  0 0.27741092E+03</rscale>
<asrwt>0</asrwt>
<pdfrwt beam="1">  1        1 0.10519553E-01 0.27741092E+03</pdfrwt>
<pdfrwt beam="2">  1       -1 0.43287561E-01 0.27741092E+03</pdfrwt>
<totfact> 0.31956517E+03</totfact>
</mgrwt>
</event>
<event>
 4    1  0.1866622E-004  0.2638993E+03  0.7818608E-02  0.1104823E+00
         -1   -1    0    0    0  501 -0.00000000000E+00  0.00000000000E+00  0.12852353429E+04  0.12852353429E+04  0.00000000000E+00 0. -1.
          1   -1    0    0  501    0  0.00000000000E+00 -0.00000000000E+00 -0.13546708433E+02  0.13546708433E+02  0.00000000000E+00 0. -1.
         25    1    1    2    0    0 -0.10713119454E+02 -0.41549025146E+02  0.46753051983E+03  0.48458836077E+03  0.12000000000E+03 0.  0.
         25    1    1    2    0    0  0.10713119454E+02  0.41549025146E+02  0.80415811467E+03  0.81419369059E+03  0.12000000000E+03 0.  0.
<mgrwt>
<rscale>  0 0.26389929E+03</rscale>
<asrwt>0</asrwt>
<pdfrwt beam="1">  1        1 0.20841100E-02 0.26389929E+03</pdfrwt>
<pdfrwt beam="2">  1       -1 0.19772842E+00 0.26389929E+03</pdfrwt>
<totfact> 0.98606010E+02</totfact>
</mgrwt>
</event>
<event>
 4    1  0.1866622E-004  0.2414175E+03  0.7818608E-02  0.1118852E+00
         -2   -1    0    0    0  501 -0.00000000000E+00  0.00000000000E+00  0.20998494427E+03  0.20998494427E+03  0.00000000000E+00 0.  1.
          2   -1    0    0  501    0  0.00000000000E+00 -0.00000000000E+00 -0.69388792288E+02  0.69388792288E+02  0.00000000000E+00 0.  1.
         25    1    1    2    0    0 -0.27776374372E+01  0.12654549092E+02  0.72216693114E+02  0.14065242140E+03  0.12000000000E+03 0.  0.
         25    1    1    2    0    0  0.27776374372E+01 -0.12654549092E+02  0.68379458863E+02  0.13872131515E+03  0.12000000000E+03 0.  0.
<mgrwt>
<rscale>  0 0.24141749E+03</rscale>
<asrwt>0</asrwt>
<pdfrwt beam="1">  1        2 0.10675199E-01 0.24141749E+03</pdfrwt>
<pdfrwt beam="2">  1       -2 0.32305376E-01 0.24141749E+03</pdfrwt>
<totfact> 0.51968730E+03</totfact>
</mgrwt>
</event>
<event>
 4    1  0.1866622E-004  0.3352886E+03  0.7818608E-02  0.1068820E+00
         -2   -1    0    0    0  501 -0.00000000000E+00  0.00000000000E+00  0.51553878754E+02  0.51553878754E+02  0.00000000000E+00 0. -1.
          2   -1    0    0  501    0  0.00000000000E+00 -0.00000000000E+00 -0.54515042623E+03  0.54515042623E+03  0.00000000000E+00 0. -1.
         25    1    1    2    0    0  0.10337705405E+03 -0.54720345835E+02 -0.23817329539E+03  0.29121753070E+03  0.12000000000E+03 0.  0.
         25    1    1    2    0    0 -0.10337705405E+03  0.54720345835E+02 -0.25542325209E+03  0.30548677428E+03  0.12000000000E+03 0.  0.
<mgrwt>
<rscale>  0 0.33528865E+03</rscale>
<asrwt>0</asrwt>
<pdfrwt beam="1">  1        2 0.83869295E-01 0.33528865E+03</pdfrwt>
<pdfrwt beam="2">  1       -2 0.79313661E-02 0.33528865E+03</pdfrwt>
<totfact> 0.54207175E+03</totfact>
</mgrwt>
</event>
<event>
 4    1  0.1866622E-004  0.4836077E+03  0.7818608E-02  0.1018148E+00
          1   -1    0    0  501    0  0.00000000000E+00  0.00000000000E+00  0.50354750172E+03  0.50354750172E+03  0.00000000000E+00 0.  1.
         -1   -1    0    0    0  501 -0.00000000000E+00 -0.00000000000E+00 -0.11611435665E+03  0.11611435665E+03  0.00000000000E+00 0.  1.
         25    1    1    2    0    0  0.20040204657E+03  0.62434857606E+02  0.19776900458E+03  0.31236464410E+03  0.12000000000E+03 0.  0.
         25    1    1    2    0    0 -0.20040204657E+03 -0.62434857606E+02  0.18966414049E+03  0.30729721428E+03  0.12000000000E+03 0.  0.
<mgrwt>
<rscale>  0 0.48360767E+03</rscale>
<asrwt>0</asrwt>
<pdfrwt beam="1">  1        1 0.77468845E-01 0.48360767E+03</pdfrwt>
<pdfrwt beam="2">  1       -1 0.17863747E-01 0.48360767E+03</pdfrwt>
<totfact> 0.10866281E+03</totfact>
</mgrwt>
</event>
<event>
 4    1  0.1866622E-004  0.3714321E+03  0.7818608E-02  0.1054147E+00
          2   -1    0    0  501    0  0.00000000000E+00  0.00000000000E+00  0.33896460589E+04  0.33896460589E+04  0.00000000000E+00 0.  1.
         -2   -1    0    0    0  501 -0.00000000000E+00 -0.00000000000E+00 -0.10175234567E+02  0.10175234567E+02  0.00000000000E+00 0.  1.
         25    1    1    2    0    0  0.63357514874E+02 -0.17280494372E+01  0.28501922644E+04  0.28534212982E+04  0.12000000000E+03 0.  0.
         25    1    1    2    0    0 -0.63357514874E+02  0.17280494372E+01  0.52927855987E+03  0.54639999522E+03  0.12000000000E+03 0.  0.
<mgrwt>
<rscale>  0 0.37143206E+03</rscale>
<asrwt>0</asrwt>
<pdfrwt beam="1">  1        2 0.52148311E+00 0.37143206E+03</pdfrwt>
<pdfrwt beam="2">  1       -2 0.15654234E-02 0.37143206E+03</pdfrwt>
<totfact> 0.13064032E+03</totfact>
</mgrwt>
</event>
<event>
 4    1  0.1866622E-004  0.3171235E+03  0.7818608E-02  0.1076981E+00
         -2   -1    0    0    0  501 -0.00000000000E+00  0.00000000000E+00  0.93406260000E+01  0.93406260000E+01  0.00000000000E+00 0.  1.
          2   -1    0    0  501    0  0.00000000000E+00 -0.00000000000E+00 -0.26916643634E+04  0.26916643634E+04  0.00000000000E+00 0.  1.
         25    1    1    2    0    0  0.45449993945E+02 -0.86378277347E+02 -0.16380350974E+04  0.16453224271E+04  0.12000000000E+03 0.  0.
         25    1    1    2    0    0 -0.45449993945E+02  0.86378277347E+02 -0.10442886400E+04  0.10556825623E+04  0.12000000000E+03 0.  0.
<mgrwt>
<rscale>  0 0.31712351E+03</rscale>
<asrwt>0</asrwt>
<pdfrwt beam="1">  1        2 0.41410262E+00 0.31712351E+03</pdfrwt>
<pdfrwt beam="2">  1       -2 0.14370180E-02 0.31712351E+03</pdfrwt>
<totfact> 0.39339926E+03</totfact>
</mgrwt>
</event>
<event>
 4    1  0.1866622E-004  0.2930537E+03  0.7818608E-02  0.1088765E+00
         -2   -1    0    0    0  501 -0.00000000000E+00  0.00000000000E+00  0.58067222692E+03  0.58067222692E+03  0.00000000000E+00 0. -1.
          2   -1    0    0  501    0  0.00000000000E+00 -0.00000000000E+00 -0.36974594340E+02  0.36974594340E+02  0.00000000000E+00 0. -1.
         25    1    1    2    0    0 -0.17780823604E+02  0.79594748040E+02  0.22872546286E+03  0.27086310004E+03  0.12000000000E+03 0.  0.
         25    1    1    2    0    0  0.17780823604E+02 -0.79594748040E+02  0.31497216972E+03  0.34678372122E+03  0.12000000000E+03 0.  0.
<mgrwt>
<rscale>  0 0.29305372E+03</rscale>
<asrwt>0</asrwt>
<pdfrwt beam="1">  1        2 0.56883996E-02 0.29305372E+03</pdfrwt>
<pdfrwt beam="2">  1       -2 0.89334182E-01 0.29305372E+03</pdfrwt>
<totfact> 0.14750288E+03</totfact>
</mgrwt>
</event>
<event>
 4    1  0.1866622E-004  0.3071469E+03  0.7818608E-02  0.1081722E+00
          1   -1    0    0  501    0  0.00000000000E+00  0.00000000000E+00  0.56974123712E+03  0.56974123712E+03  0.00000000000E+00 0.  1.
         -1   -1    0    0    0  501 -0.00000000000E+00 -0.00000000000E+00 -0.41395649803E+02  0.41395649803E+02  0.00000000000E+00 0.  1.
         25    1    1    2    0    0 -0.23173775739E+02 -0.45878210384E+02  0.10322688473E+03  0.16642603102E+03  0.12000000000E+03 0.  0.
         25    1    1    2    0    0  0.23173775739E+02  0.45878210384E+02  0.42511870259E+03  0.44471085591E+03  0.12000000000E+03 0.  0.
<mgrwt>
<rscale>  0 0.30714693E+03</rscale>
<asrwt>0</asrwt>
<pdfrwt beam="1">  1        1 0.87652492E-01 0.30714693E+03</pdfrwt>
<pdfrwt beam="2">  1       -1 0.63685619E-02 0.30714693E+03</pdfrwt>
<totfact> 0.46133668E+03</totfact>
</mgrwt>
</event>
<event>
 4    1  0.1866622E-004  0.2814703E+03  0.7818608E-02  0.1094889E+00
         -2   -1    0    0    0  501 -0.00000000000E+00  0.00000000000E+00  0.48890747545E+02  0.48890747545E+02  0.00000000000E+00 0.  1.
          2   -1    0    0  501    0  0.00000000000E+00 -0.00000000000E+00 -0.40511508649E+03  0.40511508649E+03  0.00000000000E+00 0.  1.
         25    1    1    2    0    0  0.46179744461E+02 -0.17520229098E+00 -0.85822385060E+02  0.15459004260E+03  0.12000000000E+03 0.  0.
         25    1    1    2    0    0 -0.46179744461E+02  0.17520229098E+00 -0.27040195389E+03  0.29941579144E+03  0.12000000000E+03 0.  0.
<mgrwt>
<rscale>  0 0.28147028E+03</rscale>
<asrwt>0</asrwt>
<pdfrwt beam="1">  1        2 0.62325398E-01 0.28147028E+03</pdfrwt>
<pdfrwt beam="2">  1       -2 0.75216534E-02 0.28147028E+03</pdfrwt>
<totfact> 0.81560781E+03</totfact>
</mgrwt>
</event>
<event>
 4    1  0.1866622E-004  0.2990363E+03  0.7818608E-02  0.1085723E+00
         -3   -1    0    0    0  501 -0.00000000000E+00  0.00000000000E+00  0.22112149544E+03  0.22112149544E+03  0.00000000000E+00 0. -1.
          3   -1    0    0  501    0  0.00000000000E+00 -0.00000000000E+00 -0.10110129586E+03  0.10110129586E+03  0.00000000000E+00 0. -1.
         25    1    1    2    0    0  0.50993526117E+02 -0.33548840565E+02  0.13008985998E+03  0.18721441205E+03  0.12000000000E+03 0.  0.
         25    1    1    2    0    0 -0.50993526117E+02  0.33548840565E+02 -0.10069660402E+02  0.13500837926E+03  0.12000000000E+03 0.  0.
<mgrwt>
<rscale>  0 0.29903625E+03</rscale>
<asrwt>0</asrwt>
<pdfrwt beam="1">  1        3 0.15554046E-01 0.29903625E+03</pdfrwt>
<pdfrwt beam="2">  1       -3 0.34018691E-01 0.29903625E+03</pdfrwt>
<totfact> 0.75713235E+02</totfact>
</mgrwt>
</event>
<event>
 4    1  0.1866622E-004  0.3264055E+03  0.7818608E-02  0.1072739E+00
          2   -1    0    0  501    0  0.00000000000E+00  0.00000000000E+00  0.23047685888E+02  0.23047685888E+02  0.00000000000E+00 0. -1.
         -2   -1    0    0    0  501 -0.00000000000E+00 -0.00000000000E+00 -0.11556532399E+04  0.11556532399E+04  0.00000000000E+00 0. -1.
         25    1    1    2    0    0 -0.10093675322E+03  0.45009484076E+02 -0.58287127650E+03  0.60527101927E+03  0.12000000000E+03 0.  0.
         25    1    1    2    0    0  0.10093675322E+03 -0.45009484076E+02 -0.54973427747E+03  0.57342990647E+03  0.12000000000E+03 0.  0.
<mgrwt>
<rscale>  0 0.32640547E+03</rscale>
<asrwt>0</asrwt>
<pdfrwt beam="1">  1        2 0.35457980E-02 0.32640547E+03</pdfrwt>
<pdfrwt beam="2">  1       -2 0.17779280E+00 0.32640547E+03</pdfrwt>
<totfact> 0.50380006E+02</totfact>
</mgrwt>
</event>
<event>
 4    1  0.1866622E-004  0.3989292E+03  0.7818608E-02  0.1044151E+00
         -1   -1    0    0    0  501 -0.00000000000E+00  0.00000000000E+00  0.39620299870E+02  0.39620299870E+02  0.00000000000E+00 0. -1.
          1   -1    0    0  501    0  0.00000000000E+00 -0.00000000000E+00 -0.10041856024E+04  0.10041856024E+04  0.00000000000E+00 0. -1.
         25    1    1    2    0    0  0.37736691357E+01 -0.13377697056E+03 -0.70851118375E+03  0.73095732839E+03  0.12000000000E+03 0.  0.
         25    1    1    2    0    0 -0.37736691357E+01  0.13377697056E+03 -0.25605411877E+03  0.31284857387E+03  0.12000000000E+03 0.  0.
<mgrwt>
<rscale>  0 0.39892924E+03</rscale>
<asrwt>0</asrwt>
<pdfrwt beam="1">  1        1 0.15449009E+00 0.39892924E+03</pdfrwt>
<pdfrwt beam="2">  1       -1 0.60954310E-02 0.39892924E+03</pdfrwt>
<totfact> 0.20735959E+03</totfact>
</mgrwt>
</event>
<event>
 4    1  0.1866622E-004  0.3626495E+03  0.7818608E-02  0.1057540E+00
          1   -1    0    0  501    0  0.00000000000E+00  0.00000000000E+00  0.14094999636E+04  0.14094999636E+04  0.00000000000E+00 0. -1.
         -1   -1    0    0    0  501 -0.00000000000E+00 -0.00000000000E+00 -0.23326469978E+02  0.23326469978E+02  0.00000000000E+00 0. -1.
         25    1    1    2    0    0 -0.78722592223E+02 -0.11038697548E+03  0.65434931494E+03  0.67893707871E+03  0.12000000000E+03 0.  0.
         25    1    1    2    0    0  0.78722592223E+02  0.11038697548E+03  0.73182417870E+03  0.75388935489E+03  0.12000000000E+03 0.  0.
<mgrwt>
<rscale>  0 0.36264946E+03</rscale>
<asrwt>0</asrwt>
<pdfrwt beam="1">  1        1 0.21684608E+00 0.36264946E+03</pdfrwt>
<pdfrwt beam="2">  1       -1 0.35886888E-02 0.36264946E+03</pdfrwt>
<totfact> 0.23781613E+03</totfact>
</mgrwt>
</event>
<event>
 4    1  0.1866622E-004  0.3567878E+03  0.7818608E-02  0.1059863E+00
         -2   -1    0    0    0  501 -0.00000000000E+00  0.00000000000E+00  0.10890867415E+03  0.10890867415E+03  0.00000000000E+00 0.  1.
          2   -1    0    0  501    0  0.00000000000E+00 -0.00000000000E+00 -0.29221166458E+03  0.29221166458E+03  0.00000000000E+00 0.  1.
         25    1    1    2    0    0  0.15583022028E+02  0.49897663522E+02 -0.22792199547E+03  0.26283272898E+03  0.12000000000E+03 0.  0.
         25    1    1    2    0    0 -0.15583022028E+02 -0.49897663522E+02  0.44619005037E+02  0.13828760975E+03  0.12000000000E+03 0.  0.
<mgrwt>
<rscale>  0 0.35678781E+03</rscale>
<asrwt>0</asrwt>
<pdfrwt beam="1">  1        2 0.44955640E-01 0.35678781E+03</pdfrwt>
<pdfrwt beam="2">  1       -2 0.16755181E-01 0.35678781E+03</pdfrwt>
<totfact> 0.32121823E+03</totfact>
</mgrwt>
</event>
<event>
 4    1  0.1866622E-004  0.2498975E+03  0.7818608E-02  0.1113370E+00
          2   -1    0    0  501    0  0.00000000000E+00  0.00000000000E+00  0.14149513307E+03  0.14149513307E+03  0.00000000000E+00 0. -1.
         -2   -1    0    0    0  501 -0.00000000000E+00 -0.00000000000E+00 -0.11033729093E+03  0.11033729093E+03  0.00000000000E+00 0. -1.
         25    1    1    2    0    0 -0.24993463226E+02 -0.16232913950E+01  0.39950498525E+02  0.12893157337E+03  0.12000000000E+03 0.  0.
         25    1    1    2    0    0  0.24993463226E+02  0.16232913950E+01 -0.87926563844E+01  0.12290085063E+03  0.12000000000E+03 0.  0.
<mgrwt>
<rscale>  0 0.24989750E+03</rscale>
<asrwt>0</asrwt>
<pdfrwt beam="1">  1        2 0.21768482E-01 0.24989750E+03</pdfrwt>
<pdfrwt beam="2">  1       -2 0.16974968E-01 0.24989750E+03</pdfrwt>
<totfact> 0.69087994E+03</totfact>
</mgrwt>
</event>
<event>
 4    1  0.1866622E-004  0.3007895E+03  0.7818608E-02  0.1084847E+00
          4   -1    0    0  501    0  0.00000000000E+00  0.00000000000E+00  0.12221751517E+03  0.12221751517E+03  0.00000000000E+00 0.  1.
         -4   -1    0    0    0  501 -0.00000000000E+00 -0.00000000000E+00 -0.18506818197E+03  0.18506818197E+03  0.00000000000E+00 0.  1.
         25    1    1    2    0    0  0.29687068076E+02  0.72746115516E+02 -0.77626545767E+02  0.16309261155E+03  0.12000000000E+03 0.  0.
         25    1    1    2    0    0 -0.29687068076E+02 -0.72746115516E+02  0.14775878964E+02  0.14419308559E+03  0.12000000000E+03 0.  0.
<mgrwt>
<rscale>  0 0.30078945E+03</rscale>
<asrwt>0</asrwt>
<pdfrwt beam="1">  1        4 0.18802695E-01 0.30078945E+03</pdfrwt>
<pdfrwt beam="2">  1       -4 0.28472028E-01 0.30078945E+03</pdfrwt>
<totfact> 0.56137149E+02</totfact>
</mgrwt>
</event>
<event>
 4    1  0.1866622E-004  0.4722024E+03  0.7818608E-02  0.1021300E+00
          1   -1    0    0  501    0  0.00000000000E+00  0.00000000000E+00  0.13509823281E+03  0.13509823281E+03  0.00000000000E+00 0.  1.
         -1   -1    0    0    0  501 -0.00000000000E+00 -0.00000000000E+00 -0.41261658124E+03  0.41261658124E+03  0.00000000000E+00 0.  1.
         25    1    1    2    0    0 -0.10276523598E+03 -0.68130005887E+02 -0.32629773149E+03  0.36888019872E+03  0.12000000000E+03 0.  0.
         25    1    1    2    0    0  0.10276523598E+03  0.68130005887E+02  0.48779383068E+02  0.17883461533E+03  0.12000000000E+03 0.  0.
<mgrwt>
<rscale>  0 0.47220238E+03</rscale>
<asrwt>0</asrwt>
<pdfrwt beam="1">  1        1 0.20784344E-01 0.47220238E+03</pdfrwt>
<pdfrwt beam="2">  1       -1 0.63479473E-01 0.47220238E+03</pdfrwt>
<totfact> 0.63322310E+02</totfact>
</mgrwt>
</event>
<event>
 4    1  0.1866622E-004  0.2644857E+03  0.7818608E-02  0.1104478E+00
          3   -1    0    0  501    0  0.00000000000E+00  0.00000000000E+00  0.11711719666E+03  0.11711719666E+03  0.00000000000E+00 0. -1.
         -3   -1    0    0    0  501 -0.00000000000E+00 -0.00000000000E+00 -0.14932195101E+03  0.14932195101E+03  0.00000000000E+00 0. -1.
         25    1    1    2    0    0  0.43618811341E+02  0.21519134386E+02 -0.43180162265E+02  0.13649249159E+03  0.12000000000E+03 0.  0.
         25    1    1    2    0    0 -0.43618811341E+02 -0.21519134386E+02  0.10975407920E+02  0.12994665608E+03  0.12000000000E+03 0.  0.
<mgrwt>
<rscale>  0 0.26448568E+03</rscale>
<asrwt>0</asrwt>
<pdfrwt beam="1">  1        3 0.18018030E-01 0.26448568E+03</pdfrwt>
<pdfrwt beam="2">  1       -3 0.22972608E-01 0.26448568E+03</pdfrwt>
<totfact> 0.11969180E+03</totfact>
</mgrwt>
</event>
<event>
 4    1  0.1866622E-004  0.2423319E+03  0.7818608E-02  0.1118249E+00
          2   -1    0    0  501    0  0.00000000000E+00  0.00000000000E+00  0.51344902387E+03  0.51344902387E+03  0.00000000000E+00 0. -1.
         -2   -1    0    0    0  501 -0.00000000000E+00 -0.00000000000E+00 -0.28593268162E+02  0.28593268162E+02  0.00000000000E+00 0. -1.
         25    1    1    2    0    0 -0.12373227463E+02 -0.89497811329E+01  0.22693260295E+03  0.25716065333E+03  0.12000000000E+03 0.  0.
         25    1    1    2    0    0  0.12373227463E+02  0.89497811329E+01  0.25792315276E+03  0.28488163870E+03  0.12000000000E+03 0.  0.
<mgrwt>
<rscale>  0 0.24233189E+03</rscale>
<asrwt>0</asrwt>
<pdfrwt beam="1">  1        2 0.78992151E-01 0.24233189E+03</pdfrwt>
<pdfrwt beam="2">  1       -2 0.43989647E-02 0.24233189E+03</pdfrwt>
<totfact> 0.14179072E+04</totfact>
</mgrwt>
</event>
<event>
 4    1  0.1866622E-004  0.2483967E+03  0.7818608E-02  0.1114322E+00
          2   -1    0    0  501    0  0.00000000000E+00  0.00000000000E+00  0.23092354515E+04  0.23092354515E+04  0.00000000000E+00 0. -1.
         -2   -1    0    0    0  501 -0.00000000000E+00 -0.00000000000E+00 -0.66798006715E+01  0.66798006715E+01  0.00000000000E+00 0. -1.
         25    1    1    2    0    0  0.25587783007E+02  0.18505283427E+02  0.12006590156E+04  0.12070539557E+04  0.12000000000E+03 0.  0.
         25    1    1    2    0    0 -0.25587783007E+02 -0.18505283427E+02  0.11018966352E+04  0.11088612965E+04  0.12000000000E+03 0.  0.
<mgrwt>
<rscale>  0 0.24839672E+03</rscale>
<asrwt>0</asrwt>
<pdfrwt beam="1">  1        2 0.35526636E+00 0.24839672E+03</pdfrwt>
<pdfrwt beam="2">  1       -2 0.10276635E-02 0.24839672E+03</pdfrwt>
<totfact> 0.10416626E+04</totfact>
</mgrwt>
</event>
<event>
 4    1  0.1866622E-004  0.3392299E+03  0.7818608E-02  0.1067124E+00
         -2   -1    0    0    0  501 -0.00000000000E+00  0.00000000000E+00  0.25446836829E+02  0.25446836829E+02  0.00000000000E+00 0.  1.
          2   -1    0    0  501    0  0.00000000000E+00 -0.00000000000E+00 -0.11305621231E+04  0.11305621231E+04  0.00000000000E+00 0.  1.
         25    1    1    2    0    0 -0.43758348722E+02 -0.53679560150E+02 -0.88597621837E+03  0.89674419306E+03  0.12000000000E+03 0.  0.
         25    1    1    2    0    0  0.43758348722E+02  0.53679560150E+02 -0.21913906789E+03  0.25926476687E+03  0.12000000000E+03 0.  0.
<mgrwt>
<rscale>  0 0.33922989E+03</rscale>
<asrwt>0</asrwt>
<pdfrwt beam="1">  1        2 0.17393265E+00 0.33922989E+03</pdfrwt>
<pdfrwt beam="2">  1       -2 0.39148976E-02 0.33922989E+03</pdfrwt>
<totfact> 0.62460348E+03</totfact>
</mgrwt>
</event>
<event>
 4    1  0.1866622E-004  0.3145690E+03  0.7818608E-02  0.1078176E+00
          1   -1    0    0  501    0  0.00000000000E+00  0.00000000000E+00  0.10988895926E+02  0.10988895926E+02  0.00000000000E+00 0.  1.
         -1   -1    0    0    0  501 -0.00000000000E+00 -0.00000000000E+00 -0.22512186853E+04  0.22512186853E+04  0.00000000000E+00 0.  1.
         25    1    1    2    0    0 -0.79037407489E+02  0.52410929426E+02 -0.85641399590E+03  0.86996479796E+03  0.12000000000E+03 0.  0.
         25    1    1    2    0    0  0.79037407489E+02 -0.52410929426E+02 -0.13838157934E+04  0.13922427832E+04  0.12000000000E+03 0.  0.
<mgrwt>
<rscale>  0 0.31456896E+03</rscale>
<asrwt>0</asrwt>
<pdfrwt beam="1">  1        1 0.16906006E-02 0.31456896E+03</pdfrwt>
<pdfrwt beam="2">  1       -1 0.34634108E+00 0.31456896E+03</pdfrwt>
<totfact> 0.15058799E+02</totfact>
</mgrwt>
</event>
<event>
 4    1  0.1866622E-004  0.5523863E+03  0.7818608E-02  0.1000943E+00
          1   -1    0    0  501    0  0.00000000000E+00  0.00000000000E+00  0.42784279719E+03  0.42784279719E+03  0.00000000000E+00 0. -1.
         -1   -1    0    0    0  501 -0.00000000000E+00 -0.00000000000E+00 -0.17829598272E+03  0.17829598272E+03  0.00000000000E+00 0. -1.
         25    1    1    2    0    0 -0.19660139253E+03 -0.13814691676E+03  0.54118478753E+02  0.27398081666E+03  0.12000000000E+03 0.  0.
         25    1    1    2    0    0  0.19660139253E+03  0.13814691676E+03  0.19542833572E+03  0.33215796326E+03  0.12000000000E+03 0.  0.
<mgrwt>
<rscale>  0 0.55238629E+03</rscale>
<asrwt>0</asrwt>
<pdfrwt beam="1">  1        1 0.65821969E-01 0.55238629E+03</pdfrwt>
<pdfrwt beam="2">  1       -1 0.27430151E-01 0.55238629E+03</pdfrwt>
<totfact> 0.65948350E+02</totfact>
</mgrwt>
</event>
<event>
 4    1  0.1866622E-004  0.2647813E+03  0.7818608E-02  0.1104304E+00
         -2   -1    0    0    0  501 -0.00000000000E+00  0.00000000000E+00  0.84299751871E+01  0.84299751871E+01  0.00000000000E+00 0. -1.
          2   -1    0    0  501    0  0.00000000000E+00 -0.00000000000E+00 -0.20791626054E+04  0.20791626054E+04  0.00000000000E+00 0. -1.
         25    1    1    2    0    0  0.10671822304E+02 -0.33041909231E+02 -0.13809821777E+04  0.13866208677E+04  0.12000000000E+03 0.  0.
         25    1    1    2    0    0 -0.10671822304E+02  0.33041909231E+02 -0.68975045255E+03  0.70097171295E+03  0.12000000000E+03 0.  0.
<mgrwt>
<rscale>  0 0.26478134E+03</rscale>
<asrwt>0</asrwt>
<pdfrwt beam="1">  1        2 0.31987123E+00 0.26478134E+03</pdfrwt>
<pdfrwt beam="2">  1       -2 0.12969190E-02 0.26478134E+03</pdfrwt>
<totfact> 0.98444857E+03</totfact>
</mgrwt>
</event>
<event>
 4    1  0.1866622E-004  0.2525217E+03  0.7818608E-02  0.1111721E+00
          2   -1    0    0  501    0  0.00000000000E+00  0.00000000000E+00  0.13798648991E+04  0.13798648991E+04  0.00000000000E+00 0.  1.
         -2   -1    0    0    0  501 -0.00000000000E+00 -0.00000000000E+00 -0.11553158803E+02  0.11553158803E+02  0.00000000000E+00 0.  1.
         25    1    1    2    0    0 -0.37233723757E+02 -0.20277845627E+01  0.61637136773E+03  0.62905017689E+03  0.12000000000E+03 0.  0.
         25    1    1    2    0    0  0.37233723757E+02  0.20277845627E+01  0.75194037253E+03  0.76236788097E+03  0.12000000000E+03 0.  0.
<mgrwt>
<rscale>  0 0.25252167E+03</rscale>
<asrwt>0</asrwt>
<pdfrwt beam="1">  1        2 0.21228678E+00 0.25252167E+03</pdfrwt>
<pdfrwt beam="2">  1       -2 0.17774101E-02 0.25252167E+03</pdfrwt>
<totfact> 0.14527455E+04</totfact>
</mgrwt>
</event>
<event>
 4    1  0.1866622E-004  0.3169406E+03  0.7818608E-02  0.1077066E+00
          2   -1    0    0  501    0  0.00000000000E+00  0.00000000000E+00  0.35788786827E+03  0.35788786827E+03  0.00000000000E+00 0. -1.
         -2   -1    0    0    0  501 -0.00000000000E+00 -0.00000000000E+00 -0.70169580367E+02  0.70169580367E+02  0.00000000000E+00 0. -1.
         25    1    1    2    0    0  0.10010164436E+03  0.68008496829E+01  0.10952512258E+03  0.19095115406E+03  0.12000000000E+03 0.  0.
         25    1    1    2    0    0 -0.10010164436E+03 -0.68008496829E+01  0.17819316532E+03  0.23710629458E+03  0.12000000000E+03 0.  0.
<mgrwt>
<rscale>  0 0.31694064E+03</rscale>
<asrwt>0</asrwt>
<pdfrwt beam="1">  1        2 0.55059671E-01 0.31694064E+03</pdfrwt>
<pdfrwt beam="2">  1       -2 0.10795320E-01 0.31694064E+03</pdfrwt>
<totfact> 0.52924069E+03</totfact>
</mgrwt>
</event>
<event>
 4    1  0.1866622E-004  0.2746933E+03  0.7818608E-02  0.1098623E+00
          1   -1    0    0  501    0  0.00000000000E+00  0.00000000000E+00  0.44465548255E+02  0.44465548255E+02  0.00000000000E+00 0. -1.
         -1   -1    0    0    0  501 -0.00000000000E+00 -0.00000000000E+00 -0.42424099419E+03  0.42424099419E+03  0.00000000000E+00 0. -1.
         25    1    1    2    0    0  0.59891513387E+02 -0.19685498920E+02 -0.22764249720E+03  0.26494455793E+03  0.12000000000E+03 0.  0.
         25    1    1    2    0    0 -0.59891513387E+02  0.19685498920E+02 -0.15213294873E+03  0.20376198451E+03  0.12000000000E+03 0.  0.
<mgrwt>
<rscale>  0 0.27469334E+03</rscale>
<asrwt>0</asrwt>
<pdfrwt beam="1">  1        1 0.68408537E-02 0.27469334E+03</pdfrwt>
<pdfrwt beam="2">  1       -1 0.65267845E-01 0.27469334E+03</pdfrwt>
<totfact> 0.26501953E+03</totfact>
</mgrwt>
</event>
<event>
 4    1  0.1866622E-004  0.2479093E+03  0.7818608E-02  0.1114633E+00
         -2   -1    0    0    0  501 -0.00000000000E+00  0.00000000000E+00  0.18061449049E+03  0.18061449049E+03  0.00000000000E+00 0.  1.
          2   -1    0    0  501    0  0.00000000000E+00 -0.00000000000E+00 -0.85069330211E+02  0.85069330211E+02  0.00000000000E+00 0.  1.
         25    1    1    2    0    0 -0.24254256186E+02  0.13976722447E+02  0.62196215002E+02  0.13802893492E+03  0.12000000000E+03 0.  0.
         25    1    1    2    0    0  0.24254256186E+02 -0.13976722447E+02  0.33348945277E+02  0.12765488578E+03  0.12000000000E+03 0.  0.
<mgrwt>
<rscale>  0 0.24790929E+03</rscale>
<asrwt>0</asrwt>
<pdfrwt beam="1">  1        2 0.13087589E-01 0.24790929E+03</pdfrwt>
<pdfrwt beam="2">  1       -2 0.27786845E-01 0.24790929E+03</pdfrwt>
<totfact> 0.53354937E+03</totfact>
</mgrwt>
</event>
<event>
 4    1  0.1866622E-004  0.2945610E+03  0.7818608E-02  0.1087992E+00
         -2   -1    0    0    0  501 -0.00000000000E+00  0.00000000000E+00  0.24051145085E+02  0.24051145085E+02  0.00000000000E+00 0. -1.
          2   -1    0    0  501    0  0.00000000000E+00 -0.00000000000E+00 -0.90189269274E+03  0.90189269274E+03  0.00000000000E+00 0. -1.
         25    1    1    2    0    0  0.65659174416E+02  0.53292309708E+02 -0.47616188047E+03  0.49827836986E+03  0.12000000000E+03 0.  0.
         25    1    1    2    0    0 -0.65659174416E+02 -0.53292309708E+02 -0.40167966718E+03  0.42766546796E+03  0.12000000000E+03 0.  0.
<mgrwt>
<rscale>  0 0.29456104E+03</rscale>
<asrwt>0</asrwt>
<pdfrwt beam="1">  1        2 0.13875270E+00 0.29456104E+03</pdfrwt>
<pdfrwt beam="2">  1       -2 0.37001767E-02 0.29456104E+03</pdfrwt>
<totfact> 0.93648983E+03</totfact>
</mgrwt>
</event>
<event>
 4    1  0.1866622E-004  0.2994144E+03  0.7818608E-02  0.1085534E+00
          1   -1    0    0  501    0  0.00000000000E+00  0.00000000000E+00  0.31561713023E+03  0.31561713023E+03  0.00000000000E+00 0.  1.
         -1   -1    0    0    0  501 -0.00000000000E+00 -0.00000000000E+00 -0.71010882153E+02  0.71010882153E+02  0.00000000000E+00 0.  1.
         25    1    1    2    0    0 -0.32277870795E+02  0.67133251856E+02  0.18639431061E+03  0.23386229597E+03  0.12000000000E+03 0.  0.
         25    1    1    2    0    0  0.32277870795E+02 -0.67133251856E+02  0.58211937467E+02  0.15276571641E+03  0.12000000000E+03 0.  0.
<mgrwt>
<rscale>  0 0.29941443E+03</rscale>
<asrwt>0</asrwt>
<pdfrwt beam="1">  1        1 0.48556481E-01 0.29941443E+03</pdfrwt>
<pdfrwt beam="2">  1       -1 0.10924751E-01 0.29941443E+03</pdfrwt>
<totfact> 0.43504747E+03</totfact>
</mgrwt>
</event>
<event>
 4    1  0.1866622E-004  0.3618572E+03  0.7818608E-02  0.1057851E+00
          3   -1    0    0  501    0  0.00000000000E+00  0.00000000000E+00  0.28720830967E+02  0.28720830967E+02  0.00000000000E+00 0.  1.
         -3   -1    0    0    0  501 -0.00000000000E+00 -0.00000000000E+00 -0.11397704849E+04  0.11397704849E+04  0.00000000000E+00 0.  1.
         25    1    1    2    0    0  0.53311658810E+02 -0.11328647114E+03 -0.72204376076E+03  0.74257871634E+03  0.12000000000E+03 0.  0.
         25    1    1    2    0    0 -0.53311658810E+02  0.11328647114E+03 -0.38900589313E+03  0.42591259948E+03  0.12000000000E+03 0.  0.
<mgrwt>
<rscale>  0 0.36185718E+03</rscale>
<asrwt>0</asrwt>
<pdfrwt beam="1">  1        3 0.44185893E-02 0.36185718E+03</pdfrwt>
<pdfrwt beam="2">  1       -3 0.17534931E+00 0.36185718E+03</pdfrwt>
<totfact> 0.16273951E+02</totfact>
</mgrwt>
</event>
<event>
 4    1  0.1866622E-004  0.2467678E+03  0.7818608E-02  0.1115365E+00
          2   -1    0    0  501    0  0.00000000000E+00  0.00000000000E+00  0.41016816810E+03  0.41016816810E+03  0.00000000000E+00 0. -1.
         -2   -1    0    0    0  501 -0.00000000000E+00 -0.00000000000E+00 -0.37115483512E+02  0.37115483512E+02  0.00000000000E+00 0. -1.
         25    1    1    2    0    0  0.20631201684E+02  0.22895230752E+01  0.22244546833E+03  0.25359983198E+03  0.12000000000E+03 0.  0.
         25    1    1    2    0    0 -0.20631201684E+02 -0.22895230752E+01  0.15060721626E+03  0.19368381963E+03  0.12000000000E+03 0.  0.
<mgrwt>
<rscale>  0 0.24676783E+03</rscale>
<asrwt>0</asrwt>
<pdfrwt beam="1">  1        2 0.63102792E-01 0.24676783E+03</pdfrwt>
<pdfrwt beam="2">  1       -2 0.57100747E-02 0.24676783E+03</pdfrwt>
<totfact> 0.12236348E+04</totfact>
</mgrwt>
</event>
<event>
 4    1  0.1866622E-004  0.2646815E+03  0.7818608E-02  0.1104363E+00
          1   -1    0    0  501    0  0.00000000000E+00  0.00000000000E+00  0.35846127907E+03  0.35846127907E+03  0.00000000000E+00 0. -1.
         -1   -1    0    0    0  501 -0.00000000000E+00 -0.00000000000E+00 -0.48859028967E+02  0.48859028967E+02  0.00000000000E+00 0. -1.
         25    1    1    2    0    0 -0.23119163711E+02  0.15226021387E+02  0.80235654386E+02  0.14698329052E+03  0.12000000000E+03 0.  0.
         25    1    1    2    0    0  0.23119163711E+02 -0.15226021387E+02  0.22936659572E+03  0.26033701752E+03  0.12000000000E+03 0.  0.
<mgrwt>
<rscale>  0 0.26468147E+03</rscale>
<asrwt>0</asrwt>
<pdfrwt beam="1">  1        1 0.55147887E-01 0.26468147E+03</pdfrwt>
<pdfrwt beam="2">  1       -1 0.75167739E-02 0.26468147E+03</pdfrwt>
<totfact> 0.65580496E+03</totfact>
</mgrwt>
</event>
<event>
 4    1  0.1866622E-004  0.2564475E+03  0.7818608E-02  0.1109297E+00
          2   -1    0    0  501    0  0.00000000000E+00  0.00000000000E+00  0.10848419624E+04  0.10848419624E+04  0.00000000000E+00 0.  1.
         -2   -1    0    0    0  501 -0.00000000000E+00 -0.00000000000E+00 -0.15155506330E+02  0.15155506330E+02  0.00000000000E+00 0.  1.
         25    1    1    2    0    0  0.43399926029E+02 -0.12378334566E+02  0.52569119889E+03  0.54109889423E+03  0.12000000000E+03 0.  0.
         25    1    1    2    0    0 -0.43399926029E+02  0.12378334566E+02  0.54399525719E+03  0.55889857451E+03  0.12000000000E+03 0.  0.
<mgrwt>
<rscale>  0 0.25644749E+03</rscale>
<asrwt>0</asrwt>
<pdfrwt beam="1">  1        2 0.16689870E+00 0.25644749E+03</pdfrwt>
<pdfrwt beam="2">  1       -2 0.23316172E-02 0.25644749E+03</pdfrwt>
<totfact> 0.14300182E+04</totfact>
</mgrwt>
</event>
<event>
 4    1  0.1866622E-004  0.3175437E+03  0.7818608E-02  0.1076785E+00
          2   -1    0    0  501    0  0.00000000000E+00  0.00000000000E+00  0.70527370006E+03  0.70527370006E+03  0.00000000000E+00 0.  1.
         -2   -1    0    0    0  501 -0.00000000000E+00 -0.00000000000E+00 -0.35742860206E+02  0.35742860206E+02  0.00000000000E+00 0.  1.
         25    1    1    2    0    0 -0.99236780914E+02 -0.17818544647E+01  0.26256032183E+03  0.30526879351E+03  0.12000000000E+03 0.  0.
         25    1    1    2    0    0  0.99236780914E+02  0.17818544647E+01  0.40697051802E+03  0.43574776676E+03  0.12000000000E+03 0.  0.
<mgrwt>
<rscale>  0 0.31754369E+03</rscale>
<asrwt>0</asrwt>
<pdfrwt beam="1">  1        2 0.10850364E+00 0.31754369E+03</pdfrwt>
<pdfrwt beam="2">  1       -2 0.54989021E-02 0.31754369E+03</pdfrwt>
<totfact> 0.70468113E+03</totfact>
</mgrwt>
</event>
<event>
 4    1  0.1866622E-004  0.2791441E+03  0.7818608E-02  0.1096157E+00
         -2   -1    0    0    0  501 -0.00000000000E+00  0.00000000000E+00  0.69445394141E+02  0.69445394141E+02  0.00000000000E+00 0.  1.
          2   -1    0    0  501    0  0.00000000000E+00 -0.00000000000E+00 -0.28051335605E+03  0.28051335605E+03  0.00000000000E+00 0.  1.
         25    1    1    2    0    0  0.21208124087E+02  0.61932331541E+02 -0.14088172059E+03  0.19629838872E+03  0.12000000000E+03 0.  0.
         25    1    1    2    0    0 -0.21208124087E+02 -0.61932331541E+02 -0.70186241322E+02  0.15366036147E+03  0.12000000000E+03 0.  0.
<mgrwt>
<rscale>  0 0.27914412E+03</rscale>
<asrwt>0</asrwt>
<pdfrwt beam="1">  1        2 0.43155901E-01 0.27914412E+03</pdfrwt>
<pdfrwt beam="2">  1       -2 0.10683907E-01 0.27914412E+03</pdfrwt>
<totfact> 0.69723487E+03</totfact>
</mgrwt>
</event>
<event>
 4    1  0.1866622E-004  0.2729824E+03  0.7818608E-02  0.1099585E+00
         -1   -1    0    0    0  501 -0.00000000000E+00  0.00000000000E+00  0.17780973186E+03  0.17780973186E+03  0.00000000000E+00 0. -1.
          1   -1    0    0  501    0  0.00000000000E+00 -0.00000000000E+00 -0.10477408699E+03  0.10477408699E+03  0.00000000000E+00 0. -1.
         25    1    1    2    0    0  0.21805856193E+02  0.44037510498E+02  0.80619736372E+02  0.15269033888E+03  0.12000000000E+03 0.  0.
         25    1    1    2    0    0 -0.21805856193E+02 -0.44037510498E+02 -0.75840914993E+01  0.12989347997E+03  0.12000000000E+03 0.  0.
<mgrwt>
<rscale>  0 0.27298243E+03</rscale>
<asrwt>0</asrwt>
<pdfrwt beam="1">  1        1 0.16119090E-01 0.27298243E+03</pdfrwt>
<pdfrwt beam="2">  1       -1 0.27355343E-01 0.27298243E+03</pdfrwt>
<totfact> 0.40278049E+03</totfact>
</mgrwt>
</event>
<event>
 4    1  0.1866622E-004  0.3480263E+03  0.7818608E-02  0.1063428E+00
         -2   -1    0    0    0  501 -0.00000000000E+00  0.00000000000E+00  0.30783015658E+02  0.30783015658E+02  0.00000000000E+00 0.  1.
          2   -1    0    0  501    0  0.00000000000E+00 -0.00000000000E+00 -0.98367786641E+03  0.98367786641E+03  0.00000000000E+00 0.  1.
         25    1    1    2    0    0  0.19775119217E+02 -0.40202278170E+02 -0.81977845188E+03  0.82972524891E+03  0.12000000000E+03 0.  0.
         25    1    1    2    0    0 -0.19775119217E+02  0.40202278170E+02 -0.13311639887E+03  0.18473563316E+03  0.12000000000E+03 0.  0.
<mgrwt>
<rscale>  0 0.34802627E+03</rscale>
<asrwt>0</asrwt>
<pdfrwt beam="1">  1        2 0.15133508E+00 0.34802627E+03</pdfrwt>
<pdfrwt beam="2">  1       -2 0.47358479E-02 0.34802627E+03</pdfrwt>
<totfact> 0.57396056E+03</totfact>
</mgrwt>
</event>
<event>
 4    1  0.1866622E-004  0.3171480E+03  0.7818608E-02  0.1076969E+00
         -2   -1    0    0    0  501 -0.00000000000E+00  0.00000000000E+00  0.20239242279E+03  0.20239242279E+03  0.00000000000E+00 0.  1.
          2   -1    0    0  501    0  0.00000000000E+00 -0.00000000000E+00 -0.12424236964E+03  0.12424236964E+03  0.00000000000E+00 0.  1.
         25    1    1    2    0    0  0.65776935953E+02 -0.54580226043E+02 -0.21331864855E+02  0.14886455198E+03  0.12000000000E+03 0.  0.
         25    1    1    2    0    0 -0.65776935953E+02  0.54580226043E+02  0.99481918009E+02  0.17777024045E+03  0.12000000000E+03 0.  0.
<mgrwt>
<rscale>  0 0.31714800E+03</rscale>
<asrwt>0</asrwt>
<pdfrwt beam="1">  1        2 0.19114211E-01 0.31714800E+03</pdfrwt>
<pdfrwt beam="2">  1       -2 0.31137296E-01 0.31714800E+03</pdfrwt>
<totfact> 0.27987373E+03</totfact>
</mgrwt>
</event>
<event>
 4    1  0.1866622E-004  0.2826325E+03  0.7818608E-02  0.1094260E+00
          2   -1    0    0  501    0  0.00000000000E+00  0.00000000000E+00  0.54065058316E+02  0.54065058316E+02  0.00000000000E+00 0. -1.
         -2   -1    0    0    0  501 -0.00000000000E+00 -0.00000000000E+00 -0.36937513082E+03  0.36937513082E+03  0.00000000000E+00 0. -1.
         25    1    1    2    0    0  0.80002237091E+01 -0.62454935214E+02 -0.21768905966E+03  0.25642376880E+03  0.12000000000E+03 0.  0.
         25    1    1    2    0    0 -0.80002237091E+01  0.62454935214E+02 -0.97621012846E+02  0.16701642033E+03  0.12000000000E+03 0.  0.
<mgrwt>
<rscale>  0 0.28263254E+03</rscale>
<asrwt>0</asrwt>
<pdfrwt beam="1">  1        2 0.83177013E-02 0.28263254E+03</pdfrwt>
<pdfrwt beam="2">  1       -2 0.56826943E-01 0.28263254E+03</pdfrwt>
<totfact> 0.23904199E+03</totfact>
</mgrwt>
</event>
<event>
 4    1  0.1866622E-004  0.2997758E+03  0.7818608E-02  0.1085353E+00
          1   -1    0    0  501    0  0.00000000000E+00  0.00000000000E+00  0.18838522018E+04  0.18838522018E+04  0.00000000000E+00 0. -1.
         -1   -1    0    0    0  501 -0.00000000000E+00 -0.00000000000E+00 -0.11925765785E+02  0.11925765785E+02  0.00000000000E+00 0. -1.
         25    1    1    2    0    0 -0.21573077611E+02 -0.54441462015E+02  0.50532297874E+03  0.52266679951E+03  0.12000000000E+03 0.  0.
         25    1    1    2    0    0  0.21573077611E+02  0.54441462015E+02  0.13666034573E+04  0.13731111681E+04  0.12000000000E+03 0.  0.
<mgrwt>
<rscale>  0 0.29977578E+03</rscale>
<asrwt>0</asrwt>
<pdfrwt beam="1">  1        1 0.28982318E+00 0.29977578E+03</pdfrwt>
<pdfrwt beam="2">  1       -1 0.18347347E-02 0.29977578E+03</pdfrwt>
<totfact> 0.31211913E+03</totfact>
</mgrwt>
</event>
<event>
 4    1  0.1866622E-004  0.3055072E+03  0.7818608E-02  0.1082520E+00
          2   -1    0    0  501    0  0.00000000000E+00  0.00000000000E+00  0.33529231685E+03  0.33529231685E+03  0.00000000000E+00 0.  1.
         -2   -1    0    0    0  501 -0.00000000000E+00 -0.00000000000E+00 -0.69592003721E+02  0.69592003721E+02  0.00000000000E+00 0.  1.
         25    1    1    2    0    0  0.63100139281E+01 -0.94224319585E+02  0.12761142384E+03  0.19900430692E+03  0.12000000000E+03 0.  0.
         25    1    1    2    0    0 -0.63100139281E+01  0.94224319585E+02  0.13808888929E+03  0.20588001365E+03  0.12000000000E+03 0.  0.
<mgrwt>
<rscale>  0 0.30550721E+03</rscale>
<asrwt>0</asrwt>
<pdfrwt beam="1">  1        2 0.51583432E-01 0.30550721E+03</pdfrwt>
<pdfrwt beam="2">  1       -2 0.10706462E-01 0.30550721E+03</pdfrwt>
<totfact> 0.57497511E+03</totfact>
</mgrwt>
</event>
<event>
 4    1  0.1866622E-004  0.2465315E+03  0.7818608E-02  0.1115517E+00
          2   -1    0    0  501    0  0.00000000000E+00  0.00000000000E+00  0.13269912605E+04  0.13269912605E+04  0.00000000000E+00 0. -1.
         -2   -1    0    0    0  501 -0.00000000000E+00 -0.00000000000E+00 -0.11450301994E+02  0.11450301994E+02  0.00000000000E+00 0. -1.
         25    1    1    2    0    0 -0.25940072513E+02  0.69830315582E+01  0.61144772780E+03  0.62369060754E+03  0.12000000000E+03 0.  0.
         25    1    1    2    0    0  0.25940072513E+02 -0.69830315582E+01  0.70409323068E+03  0.71475095493E+03  0.12000000000E+03 0.  0.
<mgrwt>
<rscale>  0 0.24653155E+03</rscale>
<asrwt>0</asrwt>
<pdfrwt beam="1">  1        2 0.20415238E+00 0.24653155E+03</pdfrwt>
<pdfrwt beam="2">  1       -2 0.17615860E-02 0.24653155E+03</pdfrwt>
<totfact> 0.15717454E+04</totfact>
</mgrwt>
</event>
<event>
 4    1  0.1866622E-004  0.2638450E+03  0.7818608E-02  0.1104855E+00
         -1   -1    0    0    0  501 -0.00000000000E+00  0.00000000000E+00  0.41539165046E+02  0.41539165046E+02  0.00000000000E+00 0. -1.
          1   -1    0    0  501    0  0.00000000000E+00 -0.00000000000E+00 -0.41896724778E+03  0.41896724778E+03  0.00000000000E+00 0. -1.
         25    1    1    2    0    0 -0.31048775115E+02 -0.99009588663E+01 -0.11180899813E+03  0.16722232950E+03  0.12000000000E+03 0.  0.
         25    1    1    2    0    0  0.31048775115E+02  0.99009588663E+01 -0.26561908460E+03  0.29328408332E+03  0.12000000000E+03 0.  0.
<mgrwt>
<rscale>  0 0.26384503E+03</rscale>
<asrwt>0</asrwt>
<pdfrwt beam="1">  1        1 0.64456499E-01 0.26384503E+03</pdfrwt>
<pdfrwt beam="2">  1       -1 0.63906409E-02 0.26384503E+03</pdfrwt>
<totfact> 0.68715869E+03</totfact>
</mgrwt>
</event>
<event>
 4    1  0.1866622E-004  0.3919618E+03  0.7818608E-02  0.1046599E+00
          2   -1    0    0  501    0  0.00000000000E+00  0.00000000000E+00  0.18417420917E+04  0.18417420917E+04  0.00000000000E+00 0.  1.
         -2   -1    0    0    0  501 -0.00000000000E+00 -0.00000000000E+00 -0.20854448828E+02  0.20854448828E+02  0.00000000000E+00 0.  1.
         25    1    1    2    0    0  0.15288305076E+02  0.58834102893E+02  0.23316792838E+03  0.26918853385E+03  0.12000000000E+03 0.  0.
         25    1    1    2    0    0 -0.15288305076E+02 -0.58834102893E+02  0.15877197145E+04  0.15934080067E+04  0.12000000000E+03 0.  0.
<mgrwt>
<rscale>  0 0.39196182E+03</rscale>
<asrwt>0</asrwt>
<pdfrwt beam="1">  1        2 0.28334481E+00 0.39196182E+03</pdfrwt>
<pdfrwt beam="2">  1       -2 0.32083782E-02 0.39196182E+03</pdfrwt>
<totfact> 0.34385176E+03</totfact>
</mgrwt>
</event>
<event>
 4    1  0.1866622E-004  0.3695958E+03  0.7818608E-02  0.1054848E+00
          1   -1    0    0  501    0  0.00000000000E+00  0.00000000000E+00  0.13710908668E+04  0.13710908668E+04  0.00000000000E+00 0. -1.
         -1   -1    0    0    0  501 -0.00000000000E+00 -0.00000000000E+00 -0.24907369937E+02  0.24907369937E+02  0.00000000000E+00 0. -1.
         25    1    1    2    0    0 -0.10091036288E+03 -0.30709869931E+02  0.10238589610E+04  0.10362495691E+04  0.12000000000E+03 0.  0.
         25    1    1    2    0    0  0.10091036288E+03  0.30709869931E+02  0.32232453592E+03  0.35974866769E+03  0.12000000000E+03 0.  0.
<mgrwt>
<rscale>  0 0.36959582E+03</rscale>
<asrwt>0</asrwt>
<pdfrwt beam="1">  1        1 0.21093700E+00 0.36959582E+03</pdfrwt>
<pdfrwt beam="2">  1       -1 0.38319041E-02 0.36959582E+03</pdfrwt>
<totfact> 0.22891469E+03</totfact>
</mgrwt>
</event>
<event>
 4    1  0.1866622E-004  0.5675261E+03  0.7818608E-02  0.9975168E-01
         -2   -1    0    0    0  501 -0.00000000000E+00  0.00000000000E+00  0.10701499770E+03  0.10701499770E+03  0.00000000000E+00 0. -1.
          2   -1    0    0  501    0  0.00000000000E+00 -0.00000000000E+00 -0.75243172850E+03  0.75243172850E+03  0.00000000000E+00 0. -1.
         25    1    1    2    0    0  0.18201796813E+03  0.14759266614E+03 -0.48302716088E+03  0.55011760013E+03  0.12000000000E+03 0.  0.
         25    1    1    2    0    0 -0.18201796813E+03 -0.14759266614E+03 -0.16238956992E+03  0.30932912607E+03  0.12000000000E+03 0.  0.
<mgrwt>
<rscale>  0 0.56752614E+03</rscale>
<asrwt>0</asrwt>
<pdfrwt beam="1">  1        2 0.11575873E+00 0.56752614E+03</pdfrwt>
<pdfrwt beam="2">  1       -2 0.16463846E-01 0.56752614E+03</pdfrwt>
<totfact> 0.11212815E+03</totfact>
</mgrwt>
</event>
<event>
 4    1  0.1866622E-004  0.2552944E+03  0.7818608E-02  0.1110004E+00
          3   -1    0    0  501    0  0.00000000000E+00  0.00000000000E+00  0.55188138841E+03  0.55188138841E+03  0.00000000000E+00 0. -1.
         -3   -1    0    0    0  501 -0.00000000000E+00 -0.00000000000E+00 -0.29524119822E+02  0.29524119822E+02  0.00000000000E+00 0. -1.
         25    1    1    2    0    0 -0.25921892997E+02 -0.20760422065E+02  0.19713277582E+03  0.23316146972E+03  0.12000000000E+03 0.  0.
         25    1    1    2    0    0  0.25921892997E+02  0.20760422065E+02  0.32522449277E+03  0.34824403851E+03  0.12000000000E+03 0.  0.
<mgrwt>
<rscale>  0 0.25529444E+03</rscale>
<asrwt>0</asrwt>
<pdfrwt beam="1">  1        3 0.84904821E-01 0.25529444E+03</pdfrwt>
<pdfrwt beam="2">  1       -3 0.45421727E-02 0.25529444E+03</pdfrwt>
<totfact> 0.87684151E+02</totfact>
</mgrwt>
</event>
<event>
 4    1  0.1866622E-004  0.2723480E+03  0.7818608E-02  0.1099943E+00
          2   -1    0    0  501    0  0.00000000000E+00  0.00000000000E+00  0.19606565242E+04  0.19606565242E+04  0.00000000000E+00 0. -1.
         -2   -1    0    0    0  501 -0.00000000000E+00 -0.00000000000E+00 -0.94577269985E+01  0.94577269985E+01  0.00000000000E+00 0. -1.
         25    1    1    2    0    0  0.55932644159E+02 -0.27941793926E+02  0.86490796995E+03  0.87542846711E+03  0.12000000000E+03 0.  0.
         25    1    1    2    0    0 -0.55932644159E+02  0.27941793926E+02  0.10862908272E+04  0.10946857841E+04  0.12000000000E+03 0.  0.
<mgrwt>
<rscale>  0 0.27234797E+03</rscale>
<asrwt>0</asrwt>
<pdfrwt beam="1">  1        2 0.30163914E+00 0.27234797E+03</pdfrwt>
<pdfrwt beam="2">  1       -2 0.14550365E-02 0.27234797E+03</pdfrwt>
<totfact> 0.96107337E+03</totfact>
</mgrwt>
</event>
<event>
 4    1  0.1866622E-004  0.2656814E+03  0.7818608E-02  0.1103777E+00
         -1   -1    0    0    0  501 -0.00000000000E+00  0.00000000000E+00  0.44508288638E+02  0.44508288638E+02  0.00000000000E+00 0.  1.
          1   -1    0    0  501    0  0.00000000000E+00 -0.00000000000E+00 -0.39647999610E+03  0.39647999610E+03  0.00000000000E+00 0.  1.
         25    1    1    2    0    0 -0.40992401601E+02  0.15186894154E+02 -0.11532498547E+03  0.17207809569E+03  0.12000000000E+03 0.  0.
         25    1    1    2    0    0  0.40992401601E+02 -0.15186894154E+02 -0.23664672199E+03  0.26891018905E+03  0.12000000000E+03 0.  0.
<mgrwt>
<rscale>  0 0.26568136E+03</rscale>
<asrwt>0</asrwt>
<pdfrwt beam="1">  1        1 0.60996923E-01 0.26568136E+03</pdfrwt>
<pdfrwt beam="2">  1       -1 0.68474290E-02 0.26568136E+03</pdfrwt>
<totfact> 0.66459970E+03</totfact>
</mgrwt>
</event>
<event>
 4    1  0.1866622E-004  0.2899119E+03  0.7818608E-02  0.1090395E+00
          1   -1    0    0  501    0  0.00000000000E+00  0.00000000000E+00  0.20474953580E+04  0.20474953580E+04  0.00000000000E+00 0.  1.
         -1   -1    0    0    0  501 -0.00000000000E+00 -0.00000000000E+00 -0.10262402142E+02  0.10262402142E+02  0.00000000000E+00 0.  1.
         25    1    1    2    0    0  0.14308837020E+02 -0.72788261233E+02  0.78220858439E+03  0.79482900255E+03  0.12000000000E+03 0.  0.
         25    1    1    2    0    0 -0.14308837020E+02  0.72788261233E+02  0.12550243715E+04  0.12629287576E+04  0.12000000000E+03 0.  0.
<mgrwt>
<rscale>  0 0.28991185E+03</rscale>
<asrwt>0</asrwt>
<pdfrwt beam="1">  1        1 0.31499896E+00 0.28991185E+03</pdfrwt>
<pdfrwt beam="2">  1       -1 0.15788327E-02 0.28991185E+03</pdfrwt>
<totfact> 0.30428615E+03</totfact>
</mgrwt>
</event>
<event>
 4    1  0.1866622E-004  0.2786507E+03  0.7818608E-02  0.1096428E+00
         -1   -1    0    0    0  501 -0.00000000000E+00  0.00000000000E+00  0.12729724658E+03  0.12729724658E+03  0.00000000000E+00 0.  1.
          1   -1    0    0  501    0  0.00000000000E+00 -0.00000000000E+00 -0.15248997447E+03  0.15248997447E+03  0.00000000000E+00 0.  1.
         25    1    1    2    0    0 -0.38032502235E+02  0.39868272281E+02 -0.57225412062E+02  0.14391211953E+03  0.12000000000E+03 0.  0.
         25    1    1    2    0    0  0.38032502235E+02 -0.39868272281E+02  0.32032684172E+02  0.13587510153E+03  0.12000000000E+03 0.  0.
<mgrwt>
<rscale>  0 0.27865071E+03</rscale>
<asrwt>0</asrwt>
<pdfrwt beam="1">  1        1 0.23459996E-01 0.27865071E+03</pdfrwt>
<pdfrwt beam="2">  1       -1 0.19584192E-01 0.27865071E+03</pdfrwt>
<totfact> 0.43092893E+03</totfact>
</mgrwt>
</event>
<event>
 4    1  0.1866622E-004  0.3059383E+03  0.7818608E-02  0.1082309E+00
          1   -1    0    0  501    0  0.00000000000E+00  0.00000000000E+00  0.13100742742E+03  0.13100742742E+03  0.00000000000E+00 0.  1.
         -1   -1    0    0    0  501 -0.00000000000E+00 -0.00000000000E+00 -0.17861246111E+03  0.17861246111E+03  0.00000000000E+00 0.  1.
         25    1    1    2    0    0  0.75372476331E+02 -0.21070086705E+02 -0.78063011727E+02  0.16315266636E+03  0.12000000000E+03 0.  0.
         25    1    1    2    0    0 -0.75372476331E+02  0.21070086705E+02  0.30457978031E+02  0.14646722216E+03  0.12000000000E+03 0.  0.
<mgrwt>
<rscale>  0 0.30593829E+03</rscale>
<asrwt>0</asrwt>
<pdfrwt beam="1">  1        1 0.20154989E-01 0.30593829E+03</pdfrwt>
<pdfrwt beam="2">  1       -1 0.27478840E-01 0.30593829E+03</pdfrwt>
<totfact> 0.29987012E+03</totfact>
</mgrwt>
</event>
<event>
 4    1  0.1866622E-004  0.2812108E+03  0.7818608E-02  0.1095029E+00
          2   -1    0    0  501    0  0.00000000000E+00  0.00000000000E+00  0.31906747176E+03  0.31906747176E+03  0.00000000000E+00 0.  1.
         -2   -1    0    0    0  501 -0.00000000000E+00 -0.00000000000E+00 -0.61961440203E+02  0.61961440203E+02  0.00000000000E+00 0.  1.
         25    1    1    2    0    0 -0.28230572247E+02  0.91951091433E+01  0.21932879653E+03  0.25176702768E+03  0.12000000000E+03 0.  0.
         25    1    1    2    0    0  0.28230572247E+02 -0.91951091433E+01  0.37777235029E+02  0.12926188428E+03  0.12000000000E+03 0.  0.
<mgrwt>
<rscale>  0 0.28121081E+03</rscale>
<asrwt>0</asrwt>
<pdfrwt beam="1">  1        2 0.49087302E-01 0.28121081E+03</pdfrwt>
<pdfrwt beam="2">  1       -2 0.95325294E-02 0.28121081E+03</pdfrwt>
<totfact> 0.72797006E+03</totfact>
</mgrwt>
</event>
<event>
 4    1  0.1866622E-004  0.2606986E+03  0.7818608E-02  0.1106724E+00
         -3   -1    0    0    0  501 -0.00000000000E+00  0.00000000000E+00  0.39729024856E+03  0.39729024856E+03  0.00000000000E+00 0. -1.
          3   -1    0    0  501    0  0.00000000000E+00 -0.00000000000E+00 -0.42767054013E+02  0.42767054013E+02  0.00000000000E+00 0. -1.
         25    1    1    2    0    0 -0.49921218587E+02  0.92502511355E+01  0.18340327261E+03  0.22497656681E+03  0.12000000000E+03 0.  0.
         25    1    1    2    0    0  0.49921218587E+02 -0.92502511355E+01  0.17111992194E+03  0.21508073576E+03  0.12000000000E+03 0.  0.
<mgrwt>
<rscale>  0 0.26069855E+03</rscale>
<asrwt>0</asrwt>
<pdfrwt beam="1">  1        3 0.65795470E-02 0.26069855E+03</pdfrwt>
<pdfrwt beam="2">  1       -3 0.61121574E-01 0.26069855E+03</pdfrwt>
<totfact> 0.98193686E+02</totfact>
</mgrwt>
</event>
<event>
 4    1  0.1866622E-004  0.3350453E+03  0.7818608E-02  0.1068926E+00
          1   -1    0    0  501    0  0.00000000000E+00  0.00000000000E+00  0.55100934788E+03  0.55100934788E+03  0.00000000000E+00 0. -1.
         -1   -1    0    0    0  501 -0.00000000000E+00 -0.00000000000E+00 -0.50931681733E+02  0.50931681733E+02  0.00000000000E+00 0. -1.
         25    1    1    2    0    0 -0.44555087961E+02 -0.66265834806E+02  0.40340876347E+03  0.42838644607E+03  0.12000000000E+03 0.  0.
         25    1    1    2    0    0  0.44555087961E+02  0.66265834806E+02  0.96668902670E+02  0.17355458354E+03  0.12000000000E+03 0.  0.
<mgrwt>
<rscale>  0 0.33504527E+03</rscale>
<asrwt>0</asrwt>
<pdfrwt beam="1">  1        1 0.84770665E-01 0.33504527E+03</pdfrwt>
<pdfrwt beam="2">  1       -1 0.78356437E-02 0.33504527E+03</pdfrwt>
<totfact> 0.35261537E+03</totfact>
</mgrwt>
</event>
<event>
 4    1  0.1866622E-004  0.3074187E+03  0.7818608E-02  0.1081590E+00
          2   -1    0    0  501    0  0.00000000000E+00  0.00000000000E+00  0.10249441467E+04  0.10249441467E+04  0.00000000000E+00 0. -1.
         -2   -1    0    0    0  501 -0.00000000000E+00 -0.00000000000E+00 -0.23051569765E+02  0.23051569765E+02  0.00000000000E+00 0. -1.
         25    1    1    2    0    0 -0.27615737488E+02 -0.91837943755E+02  0.51953547799E+03  0.54176927724E+03  0.12000000000E+03 0.  0.
         25    1    1    2    0    0  0.27615737488E+02  0.91837943755E+02  0.48235709897E+03  0.50622643925E+03  0.12000000000E+03 0.  0.
<mgrwt>
<rscale>  0 0.30741875E+03</rscale>
<asrwt>0</asrwt>
<pdfrwt beam="1">  1        2 0.15768368E+00 0.30741875E+03</pdfrwt>
<pdfrwt beam="2">  1       -2 0.35463961E-02 0.30741875E+03</pdfrwt>
<totfact> 0.83664333E+03</totfact>
</mgrwt>
</event>
<event>
 4    1  0.1866622E-004  0.2497209E+03  0.7818608E-02  0.1113481E+00
         -1   -1    0    0    0  501 -0.00000000000E+00  0.00000000000E+00  0.13798186575E+04  0.13798186575E+04  0.00000000000E+00 0.  1.
          1   -1    0    0  501    0  0.00000000000E+00 -0.00000000000E+00 -0.11298677720E+02  0.11298677720E+02  0.00000000000E+00 0.  1.
         25    1    1    2    0    0  0.32930524175E+02  0.42316209476E+01  0.63206162373E+03  0.64420821341E+03  0.12000000000E+03 0.  0.
         25    1    1    2    0    0 -0.32930524175E+02 -0.42316209476E+01  0.73645835601E+03  0.74690912176E+03  0.12000000000E+03 0.  0.
<mgrwt>
<rscale>  0 0.24972085E+03</rscale>
<asrwt>0</asrwt>
<pdfrwt beam="1">  1        1 0.17382592E-02 0.24972085E+03</pdfrwt>
<pdfrwt beam="2">  1       -1 0.21227966E+00 0.24972085E+03</pdfrwt>
<totfact> 0.10203081E+03</totfact>
</mgrwt>
</event>
<event>
 4    1  0.1866622E-004  0.2959469E+03  0.7818608E-02  0.1087284E+00
         -2   -1    0    0    0  501 -0.00000000000E+00  0.00000000000E+00  0.18156151711E+02  0.18156151711E+02  0.00000000000E+00 0. -1.
          2   -1    0    0  501    0  0.00000000000E+00 -0.00000000000E+00 -0.12059899813E+04  0.12059899813E+04  0.00000000000E+00 0. -1.
         25    1    1    2    0    0 -0.50548913334E+02 -0.45594822492E+02 -0.81520530321E+03  0.82679729491E+03  0.12000000000E+03 0.  0.
         25    1    1    2    0    0  0.50548913334E+02  0.45594822492E+02 -0.37262852642E+03  0.39734883815E+03  0.12000000000E+03 0.  0.
<mgrwt>
<rscale>  0 0.29594687E+03</rscale>
<asrwt>0</asrwt>
<pdfrwt beam="1">  1        2 0.18553695E+00 0.29594687E+03</pdfrwt>
<pdfrwt beam="2">  1       -2 0.27932537E-02 0.29594687E+03</pdfrwt>
<totfact> 0.93507439E+03</totfact>
</mgrwt>
</event>
<event>
 4    1  0.1866622E-004  0.3191446E+03  0.7818608E-02  0.1076044E+00
          2   -1    0    0  501    0  0.00000000000E+00  0.00000000000E+00  0.26850738335E+03  0.26850738335E+03  0.00000000000E+00 0. -1.
         -2   -1    0    0    0  501 -0.00000000000E+00 -0.00000000000E+00 -0.94832816812E+02  0.94832816812E+02  0.00000000000E+00 0. -1.
         25    1    1    2    0    0  0.36544719008E+02 -0.62550409164E+01  0.19889920973E+03  0.23523506893E+03  0.12000000000E+03 0.  0.
         25    1    1    2    0    0 -0.36544719008E+02  0.62550409164E+01 -0.25224643189E+02  0.12810513123E+03  0.12000000000E+03 0.  0.
<mgrwt>
<rscale>  0 0.31914455E+03</rscale>
<asrwt>0</asrwt>
<pdfrwt beam="1">  1        2 0.41308828E-01 0.31914455E+03</pdfrwt>
<pdfrwt beam="2">  1       -2 0.14589664E-01 0.31914455E+03</pdfrwt>
<totfact> 0.44235906E+03</totfact>
</mgrwt>
</event>
<event>
 4    1  0.1866622E-004  0.3103833E+03  0.7818608E-02  0.1080162E+00
          1   -1    0    0  501    0  0.00000000000E+00  0.00000000000E+00  0.50424597617E+02  0.50424597617E+02  0.00000000000E+00 0.  1.
         -1   -1    0    0    0  501 -0.00000000000E+00 -0.00000000000E+00 -0.47763306491E+03  0.47763306491E+03  0.00000000000E+00 0.  1.
         25    1    1    2    0    0  0.20594292154E+02 -0.96164391378E+02 -0.20753171554E+03  0.25911605121E+03  0.12000000000E+03 0.  0.
         25    1    1    2    0    0 -0.20594292154E+02  0.96164391378E+02 -0.21967675175E+03  0.26894161132E+03  0.12000000000E+03 0.  0.
<mgrwt>
<rscale>  0 0.31038334E+03</rscale>
<asrwt>0</asrwt>
<pdfrwt beam="1">  1        1 0.77576306E-02 0.31038334E+03</pdfrwt>
<pdfrwt beam="2">  1       -1 0.73482008E-01 0.31038334E+03</pdfrwt>
<totfact> 0.17650530E+03</totfact>
</mgrwt>
</event>
<event>
 4    1  0.1866622E-004  0.3262569E+03  0.7818608E-02  0.1072805E+00
         -2   -1    0    0    0  501 -0.00000000000E+00  0.00000000000E+00  0.10367672169E+02  0.10367672169E+02  0.00000000000E+00 0.  1.
          2   -1    0    0  501    0  0.00000000000E+00 -0.00000000000E+00 -0.25667180212E+04  0.25667180212E+04  0.00000000000E+00 0.  1.
         25    1    1    2    0    0 -0.76938716369E+02 -0.14638620436E+02 -0.66241010304E+03  0.67773224793E+03  0.12000000000E+03 0.  0.
         25    1    1    2    0    0  0.76938716369E+02  0.14638620436E+02 -0.18939402460E+04  0.18993534454E+04  0.12000000000E+03 0.  0.
<mgrwt>
<rscale>  0 0.32625690E+03</rscale>
<asrwt>0</asrwt>
<pdfrwt beam="1">  1        2 0.39487950E+00 0.32625690E+03</pdfrwt>
<pdfrwt beam="2">  1       -2 0.15950273E-02 0.32625690E+03</pdfrwt>
<totfact> 0.39632646E+03</totfact>
</mgrwt>
</event>
<event>
 4    1  0.1866622E-004  0.3210644E+03  0.7818608E-02  0.1075160E+00
         -3   -1    0    0    0  501 -0.00000000000E+00  0.00000000000E+00  0.69266462949E+02  0.69266462949E+02  0.00000000000E+00 0. -1.
          3   -1    0    0  501    0  0.00000000000E+00 -0.00000000000E+00 -0.37205004739E+03  0.37205004739E+03  0.00000000000E+00 0. -1.
         25    1    1    2    0    0 -0.44206481319E+02 -0.62628214436E+02 -0.49507868305E+02  0.15075654300E+03  0.12000000000E+03 0.  0.
         25    1    1    2    0    0  0.44206481319E+02  0.62628214436E+02 -0.25327571614E+03  0.29055996734E+03  0.12000000000E+03 0.  0.
<mgrwt>
<rscale>  0 0.32106442E+03</rscale>
<asrwt>0</asrwt>
<pdfrwt beam="1">  1        3 0.57238469E-01 0.32106442E+03</pdfrwt>
<pdfrwt beam="2">  1       -3 0.10656379E-01 0.32106442E+03</pdfrwt>
<totfact> 0.51858056E+02</totfact>
</mgrwt>
</event>
<event>
 4    1  0.1866622E-004  0.2913768E+03  0.7818608E-02  0.1089632E+00
         -2   -1    0    0    0  501 -0.00000000000E+00  0.00000000000E+00  0.26062018284E+03  0.26062018284E+03  0.00000000000E+00 0. -1.
          2   -1    0    0  501    0  0.00000000000E+00 -0.00000000000E+00 -0.81440772044E+02  0.81440772044E+02  0.00000000000E+00 0. -1.
         25    1    1    2    0    0 -0.79155305197E+02  0.78848222665E+01  0.11577099396E+03  0.18474483973E+03  0.12000000000E+03 0.  0.
         25    1    1    2    0    0  0.79155305197E+02 -0.78848222665E+01  0.63408416833E+02  0.15731611516E+03  0.12000000000E+03 0.  0.
<mgrwt>
<rscale>  0 0.29137679E+03</rscale>
<asrwt>0</asrwt>
<pdfrwt beam="1">  1        2 0.12529350E-01 0.29137679E+03</pdfrwt>
<pdfrwt beam="2">  1       -2 0.40095412E-01 0.29137679E+03</pdfrwt>
<totfact> 0.28695187E+03</totfact>
</mgrwt>
</event>
<event>
 4    1  0.1866622E-004  0.2787254E+03  0.7818608E-02  0.1096387E+00
         -3   -1    0    0    0  501 -0.00000000000E+00  0.00000000000E+00  0.49906376075E+02  0.49906376075E+02  0.00000000000E+00 0.  1.
          3   -1    0    0  501    0  0.00000000000E+00 -0.00000000000E+00 -0.38916801156E+03  0.38916801156E+03  0.00000000000E+00 0.  1.
         25    1    1    2    0    0  0.54300044618E+02  0.16285650757E+02 -0.10264382132E+03  0.16777804183E+03  0.12000000000E+03 0.  0.
         25    1    1    2    0    0 -0.54300044618E+02 -0.16285650757E+02 -0.23661781417E+03  0.27129634581E+03  0.12000000000E+03 0.  0.
<mgrwt>
<rscale>  0 0.27872542E+03</rscale>
<asrwt>0</asrwt>
<pdfrwt beam="1">  1        3 0.59871999E-01 0.27872542E+03</pdfrwt>
<pdfrwt beam="2">  1       -3 0.76779044E-02 0.27872542E+03</pdfrwt>
<totfact> 0.80339740E+02</totfact>
</mgrwt>
</event>
<event>
 4    1  0.1866622E-004  0.3243779E+03  0.7818608E-02  0.1073652E+00
          1   -1    0    0  501    0  0.00000000000E+00  0.00000000000E+00  0.64638165784E+03  0.64638165784E+03  0.00000000000E+00 0. -1.
         -1   -1    0    0    0  501 -0.00000000000E+00 -0.00000000000E+00 -0.40696158230E+02  0.40696158230E+02  0.00000000000E+00 0. -1.
         25    1    1    2    0    0  0.37689178653E+02 -0.78035296854E+02  0.16241678493E+03  0.21974802336E+03  0.12000000000E+03 0.  0.
         25    1    1    2    0    0 -0.37689178653E+02  0.78035296854E+02  0.44326871467E+03  0.46732979271E+03  0.12000000000E+03 0.  0.
<mgrwt>
<rscale>  0 0.32437787E+03</rscale>
<asrwt>0</asrwt>
<pdfrwt beam="1">  1        1 0.99443325E-01 0.32437787E+03</pdfrwt>
<pdfrwt beam="2">  1       -1 0.62609479E-02 0.32437787E+03</pdfrwt>
<totfact> 0.39709905E+03</totfact>
</mgrwt>
</event>
<event>
 4    1  0.1866622E-004  0.2918496E+03  0.7818608E-02  0.1089387E+00
         -1   -1    0    0    0  501 -0.00000000000E+00  0.00000000000E+00  0.18950751214E+02  0.18950751214E+02  0.00000000000E+00 0. -1.
          1   -1    0    0  501    0  0.00000000000E+00 -0.00000000000E+00 -0.11236520928E+04  0.11236520928E+04  0.00000000000E+00 0. -1.
         25    1    1    2    0    0 -0.14537032491E+02 -0.48650417139E+02 -0.80955008524E+03  0.81996922437E+03  0.12000000000E+03 0.  0.
         25    1    1    2    0    0  0.14537032491E+02  0.48650417139E+02 -0.29515125633E+03  0.32263361963E+03  0.12000000000E+03 0.  0.
<mgrwt>
<rscale>  0 0.29184963E+03</rscale>
<asrwt>0</asrwt>
<pdfrwt beam="1">  1        1 0.17286953E+00 0.29184963E+03</pdfrwt>
<pdfrwt beam="2">  1       -1 0.29155006E-02 0.29184963E+03</pdfrwt>
<totfact> 0.51106258E+03</totfact>
</mgrwt>
</event>
<event>
 4    1  0.1866622E-004  0.3695226E+03  0.7818608E-02  0.1054876E+00
          2   -1    0    0  501    0  0.00000000000E+00  0.00000000000E+00  0.60080611608E+03  0.60080611608E+03  0.00000000000E+00 0. -1.
         -2   -1    0    0    0  501 -0.00000000000E+00 -0.00000000000E+00 -0.56818220684E+02  0.56818220684E+02  0.00000000000E+00 0. -1.
         25    1    1    2    0    0  0.45515381548E+02  0.59090337848E+02  0.48386624170E+03  0.50407326634E+03  0.12000000000E+03 0.  0.
         25    1    1    2    0    0 -0.45515381548E+02 -0.59090337848E+02  0.60121653697E+02  0.15355107042E+03  0.12000000000E+03 0.  0.
<mgrwt>
<rscale>  0 0.36952258E+03</rscale>
<asrwt>0</asrwt>
<pdfrwt beam="1">  1        2 0.92431705E-01 0.36952258E+03</pdfrwt>
<pdfrwt beam="2">  1       -2 0.87412652E-02 0.36952258E+03</pdfrwt>
<totfact> 0.41621008E+03</totfact>
</mgrwt>
</event>
<event>
 4    1  0.1866622E-004  0.3563224E+03  0.7818608E-02  0.1060050E+00
         -1   -1    0    0    0  501 -0.00000000000E+00  0.00000000000E+00  0.15877950539E+02  0.15877950539E+02  0.00000000000E+00 0.  1.
          1   -1    0    0  501    0  0.00000000000E+00 -0.00000000000E+00 -0.19990874261E+04  0.19990874261E+04  0.00000000000E+00 0.  1.
         25    1    1    2    0    0 -0.11916565309E+03  0.32005243702E+02 -0.73144133238E+03  0.75141946422E+03  0.12000000000E+03 0.  0.
         25    1    1    2    0    0  0.11916565309E+03 -0.32005243702E+02 -0.12517681432E+04  0.12635459124E+04  0.12000000000E+03 0.  0.
<mgrwt>
<rscale>  0 0.35632239E+03</rscale>
<asrwt>0</asrwt>
<pdfrwt beam="1">  1        1 0.30755176E+00 0.35632239E+03</pdfrwt>
<pdfrwt beam="2">  1       -1 0.24427628E-02 0.35632239E+03</pdfrwt>
<totfact> 0.17185012E+03</totfact>
</mgrwt>
</event>
<event>
 4    1  0.1866622E-004  0.2515099E+03  0.7818608E-02  0.1112354E+00
         -2   -1    0    0    0  501 -0.00000000000E+00  0.00000000000E+00  0.29092867140E+02  0.29092867140E+02  0.00000000000E+00 0.  1.
          2   -1    0    0  501    0  0.00000000000E+00 -0.00000000000E+00 -0.54358032765E+03  0.54358032765E+03  0.00000000000E+00 0.  1.
         25    1    1    2    0    0 -0.19630820316E+01  0.34667759000E+01 -0.34239151329E+03  0.36283304783E+03  0.12000000000E+03 0.  0.
         25    1    1    2    0    0  0.19630820316E+01 -0.34667759000E+01 -0.17209594723E+03  0.20984014696E+03  0.12000000000E+03 0.  0.
<mgrwt>
<rscale>  0 0.25150992E+03</rscale>
<asrwt>0</asrwt>
<pdfrwt beam="1">  1        2 0.83627739E-01 0.25150992E+03</pdfrwt>
<pdfrwt beam="2">  1       -2 0.44758259E-02 0.25150992E+03</pdfrwt>
<totfact> 0.12977020E+04</totfact>
</mgrwt>
</event>
<event>
 4    1  0.1866622E-004  0.3017853E+03  0.7818608E-02  0.1084352E+00
         -2   -1    0    0    0  501 -0.00000000000E+00  0.00000000000E+00  0.23605037880E+02  0.23605037880E+02  0.00000000000E+00 0.  1.
          2   -1    0    0  501    0  0.00000000000E+00 -0.00000000000E+00 -0.96456486284E+03  0.96456486284E+03  0.00000000000E+00 0.  1.
         25    1    1    2    0    0  0.51157342483E+02  0.64249786180E+02 -0.33854576468E+03  0.36845399101E+03  0.12000000000E+03 0.  0.
         25    1    1    2    0    0 -0.51157342483E+02 -0.64249786180E+02 -0.60241406029E+03  0.61971590971E+03  0.12000000000E+03 0.  0.
<mgrwt>
<rscale>  0 0.30178529E+03</rscale>
<asrwt>0</asrwt>
<pdfrwt beam="1">  1        2 0.14839463E+00 0.30178529E+03</pdfrwt>
<pdfrwt beam="2">  1       -2 0.36315435E-02 0.30178529E+03</pdfrwt>
<totfact> 0.87926925E+03</totfact>
</mgrwt>
</event>
<event>
 4    1  0.1866622E-004  0.4435212E+03  0.7818608E-02  0.1029672E+00
         -2   -1    0    0    0  501 -0.00000000000E+00  0.00000000000E+00  0.16324203732E+03  0.16324203732E+03  0.00000000000E+00 0.  1.
          2   -1    0    0  501    0  0.00000000000E+00 -0.00000000000E+00 -0.30125668975E+03  0.30125668975E+03  0.00000000000E+00 0.  1.
         25    1    1    2    0    0 -0.16175511751E+03 -0.87805293377E+02 -0.10048325406E+03  0.24160168032E+03  0.12000000000E+03 0.  0.
         25    1    1    2    0    0  0.16175511751E+03  0.87805293377E+02 -0.37531398375E+02  0.22289704675E+03  0.12000000000E+03 0.  0.
<mgrwt>
<rscale>  0 0.44352116E+03</rscale>
<asrwt>0</asrwt>
<pdfrwt beam="1">  1        2 0.46347182E-01 0.44352116E+03</pdfrwt>
<pdfrwt beam="2">  1       -2 0.25114160E-01 0.44352116E+03</pdfrwt>
<totfact> 0.15454406E+03</totfact>
</mgrwt>
</event>
<event>
 4    1  0.1866622E-004  0.3980290E+03  0.7818608E-02  0.1044464E+00
         -2   -1    0    0    0  501 -0.00000000000E+00  0.00000000000E+00  0.12652135034E+03  0.12652135034E+03  0.00000000000E+00 0.  1.
          2   -1    0    0  501    0  0.00000000000E+00 -0.00000000000E+00 -0.31304418988E+03  0.31304418988E+03  0.00000000000E+00 0.  1.
         25    1    1    2    0    0  0.70945590049E+02 -0.14110628863E+03 -0.75368399994E+02  0.21219014387E+03  0.12000000000E+03 0.  0.
         25    1    1    2    0    0 -0.70945590049E+02  0.14110628863E+03 -0.11115443955E+03  0.22737539636E+03  0.12000000000E+03 0.  0.
<mgrwt>
<rscale>  0 0.39802901E+03</rscale>
<asrwt>0</asrwt>
<pdfrwt beam="1">  1        2 0.48160644E-01 0.39802901E+03</pdfrwt>
<pdfrwt beam="2">  1       -2 0.19464824E-01 0.39802901E+03</pdfrwt>
<totfact> 0.23135989E+03</totfact>
</mgrwt>
</event>
<event>
 4    1  0.1866622E-004  0.2510815E+03  0.7818608E-02  0.1112623E+00
          2   -1    0    0  501    0  0.00000000000E+00  0.00000000000E+00  0.76115043484E+03  0.76115043484E+03  0.00000000000E+00 0. -1.
         -2   -1    0    0    0  501 -0.00000000000E+00 -0.00000000000E+00 -0.20706131901E+02  0.20706131901E+02  0.00000000000E+00 0. -1.
         25    1    1    2    0    0  0.27376606131E+02 -0.22608980620E+02  0.33910803065E+03  0.36146217093E+03  0.12000000000E+03 0.  0.
         25    1    1    2    0    0 -0.27376606131E+02  0.22608980620E+02  0.40133627229E+03  0.42039439580E+03  0.12000000000E+03 0.  0.
<mgrwt>
<rscale>  0 0.25108151E+03</rscale>
<asrwt>0</asrwt>
<pdfrwt beam="1">  1        2 0.11710005E+00 0.25108151E+03</pdfrwt>
<pdfrwt beam="2">  1       -2 0.31855593E-02 0.25108151E+03</pdfrwt>
<totfact> 0.14504042E+04</totfact>
</mgrwt>
</event>
<event>
 4    1  0.1866622E-004  0.2421856E+03  0.7818608E-02  0.1118345E+00
          2   -1    0    0  501    0  0.00000000000E+00  0.00000000000E+00  0.26088092109E+02  0.26088092109E+02  0.00000000000E+00 0. -1.
         -2   -1    0    0    0  501 -0.00000000000E+00 -0.00000000000E+00 -0.56207519316E+03  0.56207519316E+03  0.00000000000E+00 0. -1.
         25    1    1    2    0    0  0.55377716861E+01  0.18862128626E+01 -0.30476402179E+03  0.32759019169E+03  0.12000000000E+03 0.  0.
         25    1    1    2    0    0 -0.55377716861E+01 -0.18862128626E+01 -0.23122307926E+03  0.26057309358E+03  0.12000000000E+03 0.  0.
<mgrwt>
<rscale>  0 0.24218563E+03</rscale>
<asrwt>0</asrwt>
<pdfrwt beam="1">  1        2 0.40135527E-02 0.24218563E+03</pdfrwt>
<pdfrwt beam="2">  1       -2 0.86473104E-01 0.24218563E+03</pdfrwt>
<totfact> 0.25052379E+03</totfact>
</mgrwt>
</event>
<event>
 4    1  0.1866622E-004  0.3002938E+03  0.7818608E-02  0.1085094E+00
          4   -1    0    0  501    0  0.00000000000E+00  0.00000000000E+00  0.18104861710E+04  0.18104861710E+04  0.00000000000E+00 0.  1.
         -4   -1    0    0    0  501 -0.00000000000E+00 -0.00000000000E+00 -0.12451958483E+02  0.12451958483E+02  0.00000000000E+00 0.  1.
         25    1    1    2    0    0  0.27358126667E+02 -0.68711948712E+02  0.12129454499E+04  0.12211087026E+04  0.12000000000E+03 0.  0.
         25    1    1    2    0    0 -0.27358126667E+02  0.68711948712E+02  0.58508876260E+03  0.60182942692E+03  0.12000000000E+03 0.  0.
<mgrwt>
<rscale>  0 0.30029385E+03</rscale>
<asrwt>0</asrwt>
<pdfrwt beam="1">  1        4 0.27853612E+00 0.30029385E+03</pdfrwt>
<pdfrwt beam="2">  1       -4 0.19156874E-02 0.30029385E+03</pdfrwt>
<totfact> 0.99082876E+01</totfact>
</mgrwt>
</event>
<event>
 4    1  0.1866622E-004  0.3434745E+03  0.7818608E-02  0.1065326E+00
         -1   -1    0    0    0  501 -0.00000000000E+00  0.00000000000E+00  0.21235608979E+03  0.21235608979E+03  0.00000000000E+00 0. -1.
          1   -1    0    0  501    0  0.00000000000E+00 -0.00000000000E+00 -0.13888790112E+03  0.13888790112E+03  0.00000000000E+00 0. -1.
         25    1    1    2    0    0  0.96449102093E+02 -0.55608631837E+02  0.89860587038E+02  0.18673423449E+03  0.12000000000E+03 0.  0.
         25    1    1    2    0    0 -0.96449102093E+02  0.55608631837E+02 -0.16392398369E+02  0.16450975641E+03  0.12000000000E+03 0.  0.
<mgrwt>
<rscale>  0 0.34347455E+03</rscale>
<asrwt>0</asrwt>
<pdfrwt beam="1">  1        1 0.21367369E-01 0.34347455E+03</pdfrwt>
<pdfrwt beam="2">  1       -1 0.32670168E-01 0.34347455E+03</pdfrwt>
<totfact> 0.20731591E+03</totfact>
</mgrwt>
</event>
<event>
 4    1  0.1866622E-004  0.3527764E+03  0.7818608E-02  0.1061481E+00
         -2   -1    0    0    0  501 -0.00000000000E+00  0.00000000000E+00  0.87453420990E+01  0.87453420990E+01  0.00000000000E+00 0. -1.
          2   -1    0    0  501    0  0.00000000000E+00 -0.00000000000E+00 -0.35576424192E+04  0.35576424192E+04  0.00000000000E+00 0. -1.
         25    1    1    2    0    0 -0.10077875283E+03 -0.78385224604E+02 -0.19796983563E+04  0.19874370889E+04  0.12000000000E+03 0.  0.
         25    1    1    2    0    0  0.10077875283E+03  0.78385224604E+02 -0.15691987208E+04  0.15789506724E+04  0.12000000000E+03 0.  0.
<mgrwt>
<rscale>  0 0.35277642E+03</rscale>
<asrwt>0</asrwt>
<pdfrwt beam="1">  1        2 0.54732951E+00 0.35277642E+03</pdfrwt>
<pdfrwt beam="2">  1       -2 0.13454375E-02 0.35277642E+03</pdfrwt>
<totfact> 0.12665719E+03</totfact>
</mgrwt>
</event>
<event>
 4    1  0.1866622E-004  0.2447561E+03  0.7818608E-02  0.1116664E+00
         -1   -1    0    0    0  501 -0.00000000000E+00  0.00000000000E+00  0.69045328101E+02  0.69045328101E+02  0.00000000000E+00 0.  1.
          1   -1    0    0  501    0  0.00000000000E+00 -0.00000000000E+00 -0.21690664655E+03  0.21690664655E+03  0.00000000000E+00 0.  1.
         25    1    1    2    0    0 -0.39000934639E+01 -0.22997665367E+02 -0.67292082716E+02  0.13954328267E+03  0.12000000000E+03 0.  0.
         25    1    1    2    0    0  0.39000934639E+01  0.22997665367E+02 -0.80569235727E+02  0.14640869198E+03  0.12000000000E+03 0.  0.
<mgrwt>
<rscale>  0 0.24475613E+03</rscale>
<asrwt>0</asrwt>
<pdfrwt beam="1">  1        1 0.33370252E-01 0.24475613E+03</pdfrwt>
<pdfrwt beam="2">  1       -1 0.10622358E-01 0.24475613E+03</pdfrwt>
<totfact> 0.72296594E+03</totfact>
</mgrwt>
</event>
<event>
 4    1  0.1866622E-004  0.3723901E+03  0.7818608E-02  0.1053783E+00
         -2   -1    0    0    0  501 -0.00000000000E+00  0.00000000000E+00  0.61163225529E+02  0.61163225529E+02  0.00000000000E+00 0.  1.
          2   -1    0    0  501    0  0.00000000000E+00 -0.00000000000E+00 -0.56682088965E+03  0.56682088965E+03  0.00000000000E+00 0.  1.
         25    1    1    2    0    0  0.12156662039E+03 -0.54126829367E+02 -0.16749768161E+03  0.24528275560E+03  0.12000000000E+03 0.  0.
         25    1    1    2    0    0 -0.12156662039E+03  0.54126829367E+02 -0.33815998251E+03  0.38270135958E+03  0.12000000000E+03 0.  0.
<mgrwt>
<rscale>  0 0.37239009E+03</rscale>
<asrwt>0</asrwt>
<pdfrwt beam="1">  1        2 0.87203213E-01 0.37239009E+03</pdfrwt>
<pdfrwt beam="2">  1       -2 0.94097271E-02 0.37239009E+03</pdfrwt>
<totfact> 0.39630803E+03</totfact>
</mgrwt>
</event>
<event>
 4    1  0.1866622E-004  0.3002625E+03  0.7818608E-02  0.1085109E+00
         -2   -1    0    0    0  501 -0.00000000000E+00  0.00000000000E+00  0.13189695458E+02  0.13189695458E+02  0.00000000000E+00 0. -1.
          2   -1    0    0  501    0  0.00000000000E+00 -0.00000000000E+00 -0.17088633771E+04  0.17088633771E+04  0.00000000000E+00 0. -1.
         25    1    1    2    0    0  0.45249919079E+02  0.74743659728E+02 -0.71892739247E+03  0.73409179637E+03  0.12000000000E+03 0.  0.
         25    1    1    2    0    0 -0.45249919079E+02 -0.74743659728E+02 -0.97674628913E+03  0.98796127615E+03  0.12000000000E+03 0.  0.
<mgrwt>
<rscale>  0 0.30026247E+03</rscale>
<asrwt>0</asrwt>
<pdfrwt beam="1">  1        2 0.26290213E+00 0.30026247E+03</pdfrwt>
<pdfrwt beam="2">  1       -2 0.20291834E-02 0.30026247E+03</pdfrwt>
<totfact> 0.80084308E+03</totfact>
</mgrwt>
</event>
<event>
 4    1  0.1866622E-004  0.3189596E+03  0.7818608E-02  0.1076129E+00
         -1   -1    0    0    0  501 -0.00000000000E+00  0.00000000000E+00  0.37857163378E+02  0.37857163378E+02  0.00000000000E+00 0. -1.
          3   -1    0    0  501    0  0.00000000000E+00 -0.00000000000E+00 -0.67183582845E+03  0.67183582845E+03  0.00000000000E+00 0. -1.
         25    1    1    2    0    0 -0.25020805173E+01  0.43198471424E+02 -0.10402025549E+03  0.16459824389E+03  0.12000000000E+03 0.  0.
         25    1    1    2    0    0  0.25020805173E+01 -0.43198471424E+02 -0.52995840958E+03  0.54509474794E+03  0.12000000000E+03 0.  0.
<mgrwt>
<rscale>  0 0.31895955E+03</rscale>
<asrwt>0</asrwt>
<pdfrwt beam="1">  1        3 0.10335935E+00 0.31895955E+03</pdfrwt>
<pdfrwt beam="2">  1       -1 0.58241794E-02 0.31895955E+03</pdfrwt>
<totfact> 0.53254779E+02</totfact>
</mgrwt>
</event>
<event>
 4    1  0.1866622E-004  0.2999933E+03  0.7818608E-02  0.1085244E+00
          2   -1    0    0  501    0  0.00000000000E+00  0.00000000000E+00  0.81864357975E+03  0.81864357975E+03  0.00000000000E+00 0.  1.
         -2   -1    0    0    0  501 -0.00000000000E+00 -0.00000000000E+00 -0.27483258960E+02  0.27483258960E+02  0.00000000000E+00 0.  1.
         25    1    1    2    0    0 -0.10001773238E+02 -0.57108754893E+02  0.58971377836E+03  0.60458563144E+03  0.12000000000E+03 0.  0.
         25    1    1    2    0    0  0.10001773238E+02  0.57108754893E+02  0.20144654242E+03  0.24154120727E+03  0.12000000000E+03 0.  0.
<mgrwt>
<rscale>  0 0.29999329E+03</rscale>
<asrwt>0</asrwt>
<pdfrwt beam="1">  1        2 0.12594515E+00 0.29999329E+03</pdfrwt>
<pdfrwt beam="2">  1       -2 0.42281943E-02 0.29999329E+03</pdfrwt>
<totfact> 0.87051590E+03</totfact>
</mgrwt>
</event>
<event>
 4    1  0.1866622E-004  0.3916992E+03  0.7818608E-02  0.1046692E+00
         -4   -1    0    0    0  501 -0.00000000000E+00  0.00000000000E+00  0.12558070249E+03  0.12558070249E+03  0.00000000000E+00 0. -1.
          4   -1    0    0  501    0  0.00000000000E+00 -0.00000000000E+00 -0.30543763034E+03  0.30543763034E+03  0.00000000000E+00 0. -1.
         25    1    1    2    0    0 -0.91369135104E+02 -0.19122330436E+02  0.45927755943E+02  0.15881857932E+03  0.12000000000E+03 0.  0.
         25    1    1    2    0    0  0.91369135104E+02  0.19122330436E+02 -0.22578468380E+03  0.27219975350E+03  0.12000000000E+03 0.  0.
<mgrwt>
<rscale>  0 0.39169923E+03</rscale>
<asrwt>0</asrwt>
<pdfrwt beam="1">  1        4 0.46990404E-01 0.39169923E+03</pdfrwt>
<pdfrwt beam="2">  1       -4 0.19320108E-01 0.39169923E+03</pdfrwt>
<totfact> 0.20507134E+02</totfact>
</mgrwt>
</event>
<event>
 4    1  0.1866622E-004  0.3108726E+03  0.7818608E-02  0.1079928E+00
         -2   -1    0    0    0  501 -0.00000000000E+00  0.00000000000E+00  0.89295604612E+01  0.89295604612E+01  0.00000000000E+00 0.  1.
          2   -1    0    0  501    0  0.00000000000E+00 -0.00000000000E+00 -0.27056694557E+04  0.27056694557E+04  0.00000000000E+00 0.  1.
         25    1    1    2    0    0 -0.24040279701E+02  0.37786780657E+02 -0.21173317197E+04  0.21212023447E+04  0.12000000000E+03 0.  0.
         25    1    1    2    0    0  0.24040279701E+02 -0.37786780657E+02 -0.57940817555E+03  0.59339667149E+03  0.12000000000E+03 0.  0.
<mgrwt>
<rscale>  0 0.31087257E+03</rscale>
<asrwt>0</asrwt>
<pdfrwt beam="1">  1        2 0.41625662E+00 0.31087257E+03</pdfrwt>
<pdfrwt beam="2">  1       -2 0.13737793E-02 0.31087257E+03</pdfrwt>
<totfact> 0.41280904E+03</totfact>
</mgrwt>
</event>
<event>
 4    1  0.1866622E-004  0.3509839E+03  0.7818608E-02  0.1062212E+00
          2   -1    0    0  501    0  0.00000000000E+00  0.00000000000E+00  0.57505663487E+03  0.57505663487E+03  0.00000000000E+00 0.  1.
         -2   -1    0    0    0  501 -0.00000000000E+00 -0.00000000000E+00 -0.53555476940E+02  0.53555476940E+02  0.00000000000E+00 0.  1.
         25    1    1    2    0    0 -0.65449652065E+02  0.17125076310E+02  0.66029239201E+02  0.15276382302E+03  0.12000000000E+03 0.  0.
         25    1    1    2    0    0  0.65449652065E+02 -0.17125076310E+02  0.45547191873E+03  0.47584828879E+03  0.12000000000E+03 0.  0.
<mgrwt>
<rscale>  0 0.35098394E+03</rscale>
<asrwt>0</asrwt>
<pdfrwt beam="1">  1        2 0.88470247E-01 0.35098394E+03</pdfrwt>
<pdfrwt beam="2">  1       -2 0.82393046E-02 0.35098394E+03</pdfrwt>
<totfact> 0.48052912E+03</totfact>
</mgrwt>
</event>
<event>
 4    1  0.1866622E-004  0.2789407E+03  0.7818608E-02  0.1096269E+00
         -1   -1    0    0    0  501 -0.00000000000E+00  0.00000000000E+00  0.17849531230E+04  0.17849531230E+04  0.00000000000E+00 0.  1.
          1   -1    0    0  501    0  0.00000000000E+00 -0.00000000000E+00 -0.10897756291E+02  0.10897756291E+02  0.00000000000E+00 0.  1.
         25    1    1    2    0    0  0.35879454456E+02  0.47270346139E+02  0.11388691304E+04  0.11467103894E+04  0.12000000000E+03 0.  0.
         25    1    1    2    0    0 -0.35879454456E+02 -0.47270346139E+02  0.63518623626E+03  0.64914048988E+03  0.12000000000E+03 0.  0.
<mgrwt>
<rscale>  0 0.27894074E+03</rscale>
<asrwt>0</asrwt>
<pdfrwt beam="1">  1        1 0.16765793E-02 0.27894074E+03</pdfrwt>
<pdfrwt beam="2">  1       -1 0.27460794E+00 0.27894074E+03</pdfrwt>
<totfact> 0.43213638E+02</totfact>
</mgrwt>
</event>
<event>
 4    1  0.1866622E-004  0.2708620E+03  0.7818608E-02  0.1100787E+00
         -2   -1    0    0    0  501 -0.00000000000E+00  0.00000000000E+00  0.38105141225E+02  0.38105141225E+02  0.00000000000E+00 0.  1.
          2   -1    0    0  501    0  0.00000000000E+00 -0.00000000000E+00 -0.48134075209E+03  0.48134075209E+03  0.00000000000E+00 0.  1.
         25    1    1    2    0    0  0.95185537041E+01 -0.61917137276E+02 -0.21365911973E+03  0.25293191613E+03  0.12000000000E+03 0.  0.
         25    1    1    2    0    0 -0.95185537041E+01  0.61917137276E+02 -0.22957649114E+03  0.26651397719E+03  0.12000000000E+03 0.  0.
<mgrwt>
<rscale>  0 0.27086201E+03</rscale>
<asrwt>0</asrwt>
<pdfrwt beam="1">  1        2 0.74052416E-01 0.27086201E+03</pdfrwt>
<pdfrwt beam="2">  1       -2 0.58623300E-02 0.27086201E+03</pdfrwt>
<totfact> 0.99004462E+03</totfact>
</mgrwt>
</event>
<event>
 4    1  0.1866622E-004  0.4740347E+03  0.7818608E-02  0.1020788E+00
          4   -1    0    0  501    0  0.00000000000E+00  0.00000000000E+00  0.49034000173E+03  0.49034000173E+03  0.00000000000E+00 0. -1.
         -4   -1    0    0    0  501 -0.00000000000E+00 -0.00000000000E+00 -0.11456790913E+03  0.11456790913E+03  0.00000000000E+00 0. -1.
         25    1    1    2    0    0  0.14140109471E+03  0.16111769742E+02  0.67380226719E+00  0.18615668862E+03  0.12000000000E+03 0.  0.
         25    1    1    2    0    0 -0.14140109471E+03 -0.16111769742E+02  0.37509829034E+03  0.41875122224E+03  0.12000000000E+03 0.  0.
<mgrwt>
<rscale>  0 0.47403472E+03</rscale>
<asrwt>0</asrwt>
<pdfrwt beam="1">  1        4 0.75436922E-01 0.47403472E+03</pdfrwt>
<pdfrwt beam="2">  1       -4 0.17625833E-01 0.47403472E+03</pdfrwt>
<totfact> 0.89469685E+01</totfact>
</mgrwt>
</event>
<event>
 4    1  0.1866622E-004  0.2563822E+03  0.7818608E-02  0.1109337E+00
         -2   -1    0    0    0  501 -0.00000000000E+00  0.00000000000E+00  0.93943093868E+01  0.93943093868E+01  0.00000000000E+00 0.  1.
          2   -1    0    0  501    0  0.00000000000E+00 -0.00000000000E+00 -0.17492453768E+04  0.17492453768E+04  0.00000000000E+00 0.  1.
         25    1    1    2    0    0 -0.12041876479E+02 -0.14283486935E+02 -0.58844344282E+03  0.60084499680E+03  0.12000000000E+03 0.  0.
         25    1    1    2    0    0  0.12041876479E+02  0.14283486935E+02 -0.11514076246E+04  0.11577946894E+04  0.12000000000E+03 0.  0.
<mgrwt>
<rscale>  0 0.25638215E+03</rscale>
<asrwt>0</asrwt>
<pdfrwt beam="1">  1        2 0.26911460E+00 0.25638215E+03</pdfrwt>
<pdfrwt beam="2">  1       -2 0.14452787E-02 0.25638215E+03</pdfrwt>
<totfact> 0.12514930E+04</totfact>
</mgrwt>
</event>
<event>
 4    1  0.1866622E-004  0.4874997E+03  0.7818608E-02  0.1017094E+00
         -2   -1    0    0    0  501 -0.00000000000E+00  0.00000000000E+00  0.19890256452E+03  0.19890256452E+03  0.00000000000E+00 0. -1.
          2   -1    0    0  501    0  0.00000000000E+00 -0.00000000000E+00 -0.29870900559E+03  0.29870900559E+03  0.00000000000E+00 0. -1.
         25    1    1    2    0    0 -0.64112341777E+01 -0.12060819286E+03 -0.22795341816E+03  0.28451748796E+03  0.12000000000E+03 0.  0.
         25    1    1    2    0    0  0.64112341777E+01  0.12060819286E+03  0.12814697709E+03  0.21309408215E+03  0.12000000000E+03 0.  0.
<mgrwt>
<rscale>  0 0.48749969E+03</rscale>
<asrwt>0</asrwt>
<pdfrwt beam="1">  1        2 0.45955231E-01 0.48749969E+03</pdfrwt>
<pdfrwt beam="2">  1       -2 0.30600395E-01 0.48749969E+03</pdfrwt>
<totfact> 0.10901613E+03</totfact>
</mgrwt>
</event>
<event>
 4    1  0.1866622E-004  0.2854921E+03  0.7818608E-02  0.1092727E+00
          1   -1    0    0  501    0  0.00000000000E+00  0.00000000000E+00  0.13738476892E+03  0.13738476892E+03  0.00000000000E+00 0.  1.
         -1   -1    0    0    0  501 -0.00000000000E+00 -0.00000000000E+00 -0.14831651026E+03  0.14831651026E+03  0.00000000000E+00 0.  1.
         25    1    1    2    0    0  0.62705324566E+02 -0.12220126797E+01 -0.50698313039E+02  0.14458136114E+03  0.12000000000E+03 0.  0.
         25    1    1    2    0    0 -0.62705324566E+02  0.12220126797E+01  0.39766571697E+02  0.14111991804E+03  0.12000000000E+03 0.  0.
<mgrwt>
<rscale>  0 0.28549206E+03</rscale>
<asrwt>0</asrwt>
<pdfrwt beam="1">  1        1 0.21136118E-01 0.28549206E+03</pdfrwt>
<pdfrwt beam="2">  1       -1 0.22817925E-01 0.28549206E+03</pdfrwt>
<totfact> 0.38388085E+03</totfact>
</mgrwt>
</event>
<event>
 4    1  0.1866622E-004  0.2718642E+03  0.7818608E-02  0.1100217E+00
          2   -1    0    0  501    0  0.00000000000E+00  0.00000000000E+00  0.81539753042E+03  0.81539753042E+03  0.00000000000E+00 0.  1.
         -2   -1    0    0    0  501 -0.00000000000E+00 -0.00000000000E+00 -0.22660771549E+02  0.22660771549E+02  0.00000000000E+00 0.  1.
         25    1    1    2    0    0 -0.57060740969E+02  0.28568132474E+02  0.38915817091E+03  0.41220886494E+03  0.12000000000E+03 0.  0.
         25    1    1    2    0    0  0.57060740969E+02 -0.28568132474E+02  0.40357858796E+03  0.42584943702E+03  0.12000000000E+03 0.  0.
<mgrwt>
<rscale>  0 0.27186421E+03</rscale>
<asrwt>0</asrwt>
<pdfrwt beam="1">  1        2 0.12544575E+00 0.27186421E+03</pdfrwt>
<pdfrwt beam="2">  1       -2 0.34862732E-02 0.27186421E+03</pdfrwt>
<totfact> 0.11658229E+04</totfact>
</mgrwt>
</event>
<event>
 4    1  0.1866622E-004  0.3128988E+03  0.7818608E-02  0.1078965E+00
          2   -1    0    0  501    0  0.00000000000E+00  0.00000000000E+00  0.15274392503E+02  0.15274392503E+02  0.00000000000E+00 0. -1.
         -2   -1    0    0    0  501 -0.00000000000E+00 -0.00000000000E+00 -0.16024474074E+04  0.16024474074E+04  0.00000000000E+00 0. -1.
         25    1    1    2    0    0 -0.14081894709E+02 -0.99273872491E+02 -0.81827840743E+03  0.83308652227E+03  0.12000000000E+03 0.  0.
         25    1    1    2    0    0  0.14081894709E+02  0.99273872491E+02 -0.76889460743E+03  0.78463527760E+03  0.12000000000E+03 0.  0.
<mgrwt>
<rscale>  0 0.31289877E+03</rscale>
<asrwt>0</asrwt>
<pdfrwt beam="1">  1        2 0.23499057E-02 0.31289877E+03</pdfrwt>
<pdfrwt beam="2">  1       -2 0.24653046E+00 0.31289877E+03</pdfrwt>
<totfact> 0.32949108E+02</totfact>
</mgrwt>
</event>
<event>
 4    1  0.1866622E-004  0.3366670E+03  0.7818608E-02  0.1068224E+00
         -1   -1    0    0    0  501 -0.00000000000E+00  0.00000000000E+00  0.15098918447E+02  0.15098918447E+02  0.00000000000E+00 0.  1.
          1   -1    0    0  501    0  0.00000000000E+00 -0.00000000000E+00 -0.18767014975E+04  0.18767014975E+04  0.00000000000E+00 0.  1.
         25    1    1    2    0    0 -0.10951266158E+03  0.88161895300E+01 -0.11734972169E+04  0.11847221051E+04  0.12000000000E+03 0.  0.
         25    1    1    2    0    0  0.10951266158E+03 -0.88161895300E+01 -0.68810536210E+03  0.70707831079E+03  0.12000000000E+03 0.  0.
<mgrwt>
<rscale>  0 0.33666697E+03</rscale>
<asrwt>0</asrwt>
<pdfrwt beam="1">  1        1 0.28872323E+00 0.33666697E+03</pdfrwt>
<pdfrwt beam="2">  1       -1 0.23229112E-02 0.33666697E+03</pdfrwt>
<totfact> 0.22277537E+03</totfact>
</mgrwt>
</event>
<event>
 4    1  0.1866622E-004  0.3744553E+03  0.7818608E-02  0.1053002E+00
         -1   -1    0    0    0  501 -0.00000000000E+00  0.00000000000E+00  0.29251415456E+03  0.29251415456E+03  0.00000000000E+00 0. -1.
          1   -1    0    0  501    0  0.00000000000E+00 -0.00000000000E+00 -0.11983759485E+03  0.11983759485E+03  0.00000000000E+00 0. -1.
         25    1    1    2    0    0 -0.13049549507E+03 -0.34322142208E+02  0.31863620486E+02  0.18336404770E+03  0.12000000000E+03 0.  0.
         25    1    1    2    0    0  0.13049549507E+03  0.34322142208E+02  0.14081293923E+03  0.22898770171E+03  0.12000000000E+03 0.  0.
<mgrwt>
<rscale>  0 0.37445530E+03</rscale>
<asrwt>0</asrwt>
<pdfrwt beam="1">  1        1 0.18436553E-01 0.37445530E+03</pdfrwt>
<pdfrwt beam="2">  1       -1 0.45002177E-01 0.37445530E+03</pdfrwt>
<totfact> 0.14230318E+03</totfact>
</mgrwt>
</event>
<event>
 4    1  0.1866622E-004  0.6817780E+03  0.7818608E-02  0.9748912E-01
         -2   -1    0    0    0  501 -0.00000000000E+00  0.00000000000E+00  0.30304456099E+03  0.30304456099E+03  0.00000000000E+00 0.  1.
          2   -1    0    0  501    0  0.00000000000E+00 -0.00000000000E+00 -0.38345950073E+03  0.38345950073E+03  0.00000000000E+00 0.  1.
         25    1    1    2    0    0 -0.16727875916E+03 -0.14482440236E+02 -0.31340610883E+03  0.37525366540E+03  0.12000000000E+03 0.  0.
         25    1    1    2    0    0  0.16727875916E+03  0.14482440236E+02  0.23299116909E+03  0.31125039633E+03  0.12000000000E+03 0.  0.
<mgrwt>
<rscale>  0 0.68177802E+03</rscale>
<asrwt>0</asrwt>
<pdfrwt beam="1">  1        2 0.58993769E-01 0.68177802E+03</pdfrwt>
<pdfrwt beam="2">  1       -2 0.46622240E-01 0.68177802E+03</pdfrwt>
<totfact> 0.36701783E+02</totfact>
</mgrwt>
</event>
<event>
 4    1  0.1866622E-004  0.2580593E+03  0.7818608E-02  0.1108315E+00
          2   -1    0    0  501    0  0.00000000000E+00  0.00000000000E+00  0.20917137054E+02  0.20917137054E+02  0.00000000000E+00 0.  1.
         -2   -1    0    0    0  501 -0.00000000000E+00 -0.00000000000E+00 -0.79593378369E+03  0.79593378369E+03  0.00000000000E+00 0.  1.
         25    1    1    2    0    0 -0.33340757943E+02  0.29197713189E+02 -0.44090294437E+03  0.45908552466E+03  0.12000000000E+03 0.  0.
         25    1    1    2    0    0  0.33340757943E+02 -0.29197713189E+02 -0.33411370227E+03  0.35776539609E+03  0.12000000000E+03 0.  0.
<mgrwt>
<rscale>  0 0.25805934E+03</rscale>
<asrwt>0</asrwt>
<pdfrwt beam="1">  1        2 0.32180209E-02 0.25805934E+03</pdfrwt>
<pdfrwt beam="2">  1       -2 0.12245136E+00 0.25805934E+03</pdfrwt>
<totfact> 0.15002873E+03</totfact>
</mgrwt>
</event>
<event>
 4    1  0.1866622E-004  0.4400560E+03  0.7818608E-02  0.1030730E+00
         -2   -1    0    0    0  501 -0.00000000000E+00  0.00000000000E+00  0.27231217194E+03  0.27231217194E+03  0.00000000000E+00 0.  1.
          2   -1    0    0  501    0  0.00000000000E+00 -0.00000000000E+00 -0.17778243227E+03  0.17778243227E+03  0.00000000000E+00 0.  1.
         25    1    1    2    0    0  0.43306014223E+01  0.15370635251E+03 -0.56880927942E+02  0.20317440014E+03  0.12000000000E+03 0.  0.
         25    1    1    2    0    0 -0.43306014223E+01 -0.15370635251E+03  0.15141066762E+03  0.24692020407E+03  0.12000000000E+03 0.  0.
<mgrwt>
<rscale>  0 0.44005600E+03</rscale>
<asrwt>0</asrwt>
<pdfrwt beam="1">  1        2 0.27351143E-01 0.44005600E+03</pdfrwt>
<pdfrwt beam="2">  1       -2 0.41894181E-01 0.44005600E+03</pdfrwt>
<totfact> 0.10669654E+03</totfact>
</mgrwt>
</event>
<event>
 4    1  0.1866622E-004  0.4042069E+03  0.7818608E-02  0.1042333E+00
          2   -1    0    0  501    0  0.00000000000E+00  0.00000000000E+00  0.26292668109E+04  0.26292668109E+04  0.00000000000E+00 0.  1.
         -2   -1    0    0    0  501 -0.00000000000E+00 -0.00000000000E+00 -0.15535056626E+02  0.15535056626E+02  0.00000000000E+00 0.  1.
         25    1    1    2    0    0  0.11788246387E+03  0.39333444718E+02  0.19931965070E+04  0.20006688159E+04  0.12000000000E+03 0.  0.
         25    1    1    2    0    0 -0.11788246387E+03 -0.39333444718E+02  0.62053524722E+03  0.64413305163E+03  0.12000000000E+03 0.  0.
<mgrwt>
<rscale>  0 0.40420692E+03</rscale>
<asrwt>0</asrwt>
<pdfrwt beam="1">  1        2 0.40450223E+00 0.40420692E+03</pdfrwt>
<pdfrwt beam="2">  1       -2 0.23900108E-02 0.40420692E+03</pdfrwt>
<totfact> 0.19955868E+03</totfact>
</mgrwt>
</event>
<event>
 4    1  0.1866622E-004  0.3013365E+03  0.7818608E-02  0.1084574E+00
         -2   -1    0    0    0  501 -0.00000000000E+00  0.00000000000E+00  0.11871353473E+02  0.11871353473E+02  0.00000000000E+00 0. -1.
          2   -1    0    0  501    0  0.00000000000E+00 -0.00000000000E+00 -0.19122436885E+04  0.19122436885E+04  0.00000000000E+00 0. -1.
         25    1    1    2    0    0  0.47770906318E+02 -0.74637320962E+02 -0.81501561831E+03  0.82855491505E+03  0.12000000000E+03 0.  0.
         25    1    1    2    0    0 -0.47770906318E+02  0.74637320962E+02 -0.10853567167E+04  0.10955601269E+04  0.12000000000E+03 0.  0.
<mgrwt>
<rscale>  0 0.30133649E+03</rscale>
<asrwt>0</asrwt>
<pdfrwt beam="1">  1        2 0.29419127E+00 0.30133649E+03</pdfrwt>
<pdfrwt beam="2">  1       -2 0.18263625E-02 0.30133649E+03</pdfrwt>
<totfact> 0.73076403E+03</totfact>
</mgrwt>
</event>
<event>
 4    1  0.1866622E-004  0.3458222E+03  0.7818608E-02  0.1064343E+00
         -2   -1    0    0    0  501 -0.00000000000E+00  0.00000000000E+00  0.40187625103E+02  0.40187625103E+02  0.00000000000E+00 0. -1.
          2   -1    0    0  501    0  0.00000000000E+00 -0.00000000000E+00 -0.74396645802E+03  0.74396645802E+03  0.00000000000E+00 0. -1.
         25    1    1    2    0    0  0.25898535244E+02  0.11377059275E+03 -0.45030451193E+03  0.48040465793E+03  0.12000000000E+03 0.  0.
         25    1    1    2    0    0 -0.25898535244E+02 -0.11377059275E+03 -0.25347432099E+03  0.30374942519E+03  0.12000000000E+03 0.  0.
<mgrwt>
<rscale>  0 0.34582218E+03</rscale>
<asrwt>0</asrwt>
<pdfrwt beam="1">  1        2 0.11445637E+00 0.34582218E+03</pdfrwt>
<pdfrwt beam="2">  1       -2 0.61827122E-02 0.34582218E+03</pdfrwt>
<totfact> 0.55178557E+03</totfact>
</mgrwt>
</event>
<event>
 4    1  0.1866622E-004  0.3013219E+03  0.7818608E-02  0.1084582E+00
         -2   -1    0    0    0  501 -0.00000000000E+00  0.00000000000E+00  0.21371045628E+02  0.21371045628E+02  0.00000000000E+00 0. -1.
          2   -1    0    0  501    0  0.00000000000E+00 -0.00000000000E+00 -0.10621249048E+04  0.10621249048E+04  0.00000000000E+00 0. -1.
         25    1    1    2    0    0 -0.27091867864E+02  0.63544086206E+02 -0.30683008250E+03  0.33662519175E+03  0.12000000000E+03 0.  0.
         25    1    1    2    0    0  0.27091867864E+02 -0.63544086206E+02 -0.73392377663E+03  0.74687075863E+03  0.12000000000E+03 0.  0.
<mgrwt>
<rscale>  0 0.30132189E+03</rscale>
<asrwt>0</asrwt>
<pdfrwt beam="1">  1        2 0.16340379E+00 0.30132189E+03</pdfrwt>
<pdfrwt beam="2">  1       -2 0.32878541E-02 0.30132189E+03</pdfrwt>
<totfact> 0.88960899E+03</totfact>
</mgrwt>
</event>
<event>
 4    1  0.1866622E-004  0.2806947E+03  0.7818608E-02  0.1095310E+00
          2   -1    0    0  501    0  0.00000000000E+00  0.00000000000E+00  0.20806836410E+03  0.20806836410E+03  0.00000000000E+00 0.  1.
         -2   -1    0    0    0  501 -0.00000000000E+00 -0.00000000000E+00 -0.94667815929E+02  0.94667815929E+02  0.00000000000E+00 0.  1.
         25    1    1    2    0    0 -0.29676477825E+02 -0.13680692629E+02 -0.13441349841E+02  0.12509406290E+03  0.12000000000E+03 0.  0.
         25    1    1    2    0    0  0.29676477825E+02  0.13680692629E+02  0.12684189801E+03  0.17764211713E+03  0.12000000000E+03 0.  0.
<mgrwt>
<rscale>  0 0.28069469E+03</rscale>
<asrwt>0</asrwt>
<pdfrwt beam="1">  1        2 0.32010517E-01 0.28069469E+03</pdfrwt>
<pdfrwt beam="2">  1       -2 0.14564279E-01 0.28069469E+03</pdfrwt>
<totfact> 0.58311473E+03</totfact>
</mgrwt>
</event>
<event>
 4    1  0.1866622E-004  0.3911788E+03  0.7818608E-02  0.1046878E+00
          4   -1    0    0  501    0  0.00000000000E+00  0.00000000000E+00  0.42991870188E+02  0.42991870188E+02  0.00000000000E+00 0.  1.
         -4   -1    0    0    0  501 -0.00000000000E+00 -0.00000000000E+00 -0.88982416568E+03  0.88982416568E+03  0.00000000000E+00 0.  1.
         25    1    1    2    0    0 -0.94540702257E+02 -0.79477468502E+02 -0.20226717325E+03  0.26564378735E+03  0.12000000000E+03 0.  0.
         25    1    1    2    0    0  0.94540702257E+02  0.79477468502E+02 -0.64456512224E+03  0.66717224852E+03  0.12000000000E+03 0.  0.
<mgrwt>
<rscale>  0 0.39117876E+03</rscale>
<asrwt>0</asrwt>
<pdfrwt beam="1">  1        4 0.66141339E-02 0.39117876E+03</pdfrwt>
<pdfrwt beam="2">  1       -4 0.13689603E+00 0.39117876E+03</pdfrwt>
<totfact> 0.11632774E+02</totfact>
</mgrwt>
</event>
<event>
 4    1  0.1866622E-004  0.2711028E+03  0.7818608E-02  0.1100650E+00
          3   -1    0    0  501    0  0.00000000000E+00  0.00000000000E+00  0.26240590059E+03  0.26240590059E+03  0.00000000000E+00 0.  1.
         -3   -1    0    0    0  501 -0.00000000000E+00 -0.00000000000E+00 -0.70022007416E+02  0.70022007416E+02  0.00000000000E+00 0.  1.
         25    1    1    2    0    0 -0.60185378288E+01 -0.62625539591E+02  0.91286063864E+02  0.16337480363E+03  0.12000000000E+03 0.  0.
         25    1    1    2    0    0  0.60185378288E+01  0.62625539591E+02  0.10109782931E+03  0.16905310437E+03  0.12000000000E+03 0.  0.
<mgrwt>
<rscale>  0 0.27110284E+03</rscale>
<asrwt>0</asrwt>
<pdfrwt beam="1">  1        3 0.40370138E-01 0.27110284E+03</pdfrwt>
<pdfrwt beam="2">  1       -3 0.10772617E-01 0.27110284E+03</pdfrwt>
<totfact> 0.10094093E+03</totfact>
</mgrwt>
</event>
<event>
 4    1  0.1866622E-004  0.2820199E+03  0.7818608E-02  0.1094591E+00
          2   -1    0    0  501    0  0.00000000000E+00  0.00000000000E+00  0.94648335516E+03  0.94648335516E+03  0.00000000000E+00 0.  1.
         -2   -1    0    0    0  501 -0.00000000000E+00 -0.00000000000E+00 -0.21008087898E+02  0.21008087898E+02  0.00000000000E+00 0.  1.
         25    1    1    2    0    0 -0.48256787414E+02 -0.50998653295E+02  0.38197498063E+03  0.40649042547E+03  0.12000000000E+03 0.  0.
         25    1    1    2    0    0  0.48256787414E+02  0.50998653295E+02  0.54350028663E+03  0.56100101759E+03  0.12000000000E+03 0.  0.
<mgrwt>
<rscale>  0 0.28201990E+03</rscale>
<asrwt>0</asrwt>
<pdfrwt beam="1">  1        2 0.14561279E+00 0.28201990E+03</pdfrwt>
<pdfrwt beam="2">  1       -2 0.32320142E-02 0.28201990E+03</pdfrwt>
<totfact> 0.10727367E+04</totfact>
</mgrwt>
</event>
<event>
 4    1  0.1866622E-004  0.2778961E+03  0.7818608E-02  0.1096844E+00
          1   -1    0    0  501    0  0.00000000000E+00  0.00000000000E+00  0.23017834738E+04  0.23017834738E+04  0.00000000000E+00 0. -1.
         -1   -1    0    0    0  501 -0.00000000000E+00 -0.00000000000E+00 -0.83876556399E+01  0.83876556399E+01  0.00000000000E+00 0. -1.
         25    1    1    2    0    0 -0.15327148898E+02 -0.39122646206E+02  0.68079005366E+03  0.69256089992E+03  0.12000000000E+03 0.  0.
         25    1    1    2    0    0  0.15327148898E+02  0.39122646206E+02  0.16126057645E+04  0.16176102295E+04  0.12000000000E+03 0.  0.
<mgrwt>
<rscale>  0 0.27789615E+03</rscale>
<asrwt>0</asrwt>
<pdfrwt beam="1">  1        1 0.35412003E+00 0.27789615E+03</pdfrwt>
<pdfrwt beam="2">  1       -1 0.12904104E-02 0.27789615E+03</pdfrwt>
<totfact> 0.27853850E+03</totfact>
</mgrwt>
</event>
<event>
 4    1  0.1866622E-004  0.2766581E+03  0.7818608E-02  0.1097528E+00
         -2   -1    0    0    0  501 -0.00000000000E+00  0.00000000000E+00  0.27498336294E+02  0.27498336294E+02  0.00000000000E+00 0.  1.
          2   -1    0    0  501    0  0.00000000000E+00 -0.00000000000E+00 -0.69585756845E+03  0.69585756845E+03  0.00000000000E+00 0.  1.
         25    1    1    2    0    0 -0.42567731816E+02 -0.13900108480E+02 -0.19757475386E+03  0.23545914331E+03  0.12000000000E+03 0.  0.
         25    1    1    2    0    0  0.42567731816E+02  0.13900108480E+02 -0.47078447830E+03  0.48789676143E+03  0.12000000000E+03 0.  0.
<mgrwt>
<rscale>  0 0.27665810E+03</rscale>
<asrwt>0</asrwt>
<pdfrwt beam="1">  1        2 0.10705500E+00 0.27665810E+03</pdfrwt>
<pdfrwt beam="2">  1       -2 0.42305136E-02 0.27665810E+03</pdfrwt>
<totfact> 0.10627549E+04</totfact>
</mgrwt>
</event>
<event>
 4    1  0.1866622E-004  0.2752421E+03  0.7818608E-02  0.1098316E+00
         -2   -1    0    0    0  501 -0.00000000000E+00  0.00000000000E+00  0.19673162677E+02  0.19673162677E+02  0.00000000000E+00 0.  1.
          2   -1    0    0  501    0  0.00000000000E+00 -0.00000000000E+00 -0.96271020779E+03  0.96271020779E+03  0.00000000000E+00 0.  1.
         25    1    1    2    0    0  0.34157875824E+02  0.21608097917E+02 -0.66391861433E+03  0.67588578682E+03  0.12000000000E+03 0.  0.
         25    1    1    2    0    0 -0.34157875824E+02 -0.21608097917E+02 -0.27911843078E+03  0.30649758364E+03  0.12000000000E+03 0.  0.
<mgrwt>
<rscale>  0 0.27524211E+03</rscale>
<asrwt>0</asrwt>
<pdfrwt beam="1">  1        2 0.14810922E+00 0.27524211E+03</pdfrwt>
<pdfrwt beam="2">  1       -2 0.30266412E-02 0.27524211E+03</pdfrwt>
<totfact> 0.11547838E+04</totfact>
</mgrwt>
</event>
<event>
 4    1  0.1866622E-004  0.3156051E+03  0.7818608E-02  0.1077690E+00
         -3   -1    0    0    0  501 -0.00000000000E+00  0.00000000000E+00  0.23162078700E+03  0.23162078700E+03  0.00000000000E+00 0.  1.
          3   -1    0    0  501    0  0.00000000000E+00 -0.00000000000E+00 -0.10751041289E+03  0.10751041289E+03  0.00000000000E+00 0.  1.
         25    1    1    2    0    0 -0.82188213677E+02  0.12280519740E+01  0.12781541445E+03  0.19363158510E+03  0.12000000000E+03 0.  0.
         25    1    1    2    0    0  0.82188213677E+02 -0.12280519740E+01 -0.37050403314E+01  0.14549961479E+03  0.12000000000E+03 0.  0.
<mgrwt>
<rscale>  0 0.31560511E+03</rscale>
<asrwt>0</asrwt>
<pdfrwt beam="1">  1        3 0.16540064E-01 0.31560511E+03</pdfrwt>
<pdfrwt beam="2">  1       -3 0.35633967E-01 0.31560511E+03</pdfrwt>
<totfact> 0.62564790E+02</totfact>
</mgrwt>
</event>
<event>
 4    1  0.1866622E-004  0.2804279E+03  0.7818608E-02  0.1095455E+00
         -1   -1    0    0    0  501 -0.00000000000E+00  0.00000000000E+00  0.18445011592E+02  0.18445011592E+02  0.00000000000E+00 0. -1.
          1   -1    0    0  501    0  0.00000000000E+00 -0.00000000000E+00 -0.10658678640E+04  0.10658678640E+04  0.00000000000E+00 0. -1.
         25    1    1    2    0    0 -0.90070308150E+01 -0.70313695785E+02 -0.46446188378E+03  0.48492265765E+03  0.12000000000E+03 0.  0.
         25    1    1    2    0    0  0.90070308150E+01  0.70313695785E+02 -0.58296096862E+03  0.59939021793E+03  0.12000000000E+03 0.  0.
<mgrwt>
<rscale>  0 0.28042785E+03</rscale>
<asrwt>0</asrwt>
<pdfrwt beam="1">  1        1 0.16397970E+00 0.28042785E+03</pdfrwt>
<pdfrwt beam="2">  1       -1 0.28376935E-02 0.28042785E+03</pdfrwt>
<totfact> 0.58523812E+03</totfact>
</mgrwt>
</event>
<event>
 4    1  0.1866622E-004  0.2457284E+03  0.7818608E-02  0.1116035E+00
          1   -1    0    0  501    0  0.00000000000E+00  0.00000000000E+00  0.91782741061E+03  0.91782741061E+03  0.00000000000E+00 0.  1.
         -1   -1    0    0    0  501 -0.00000000000E+00 -0.00000000000E+00 -0.16447112945E+02  0.16447112945E+02  0.00000000000E+00 0.  1.
         25    1    1    2    0    0 -0.62768584798E+01  0.23174420096E+02  0.40918695965E+03  0.42709532969E+03  0.12000000000E+03 0.  0.
         25    1    1    2    0    0  0.62768584798E+01 -0.23174420096E+02  0.49219333802E+03  0.50717919386E+03  0.12000000000E+03 0.  0.
<mgrwt>
<rscale>  0 0.24572840E+03</rscale>
<asrwt>0</asrwt>
<pdfrwt beam="1">  1        1 0.14120418E+00 0.24572840E+03</pdfrwt>
<pdfrwt beam="2">  1       -1 0.25303258E-02 0.24572840E+03</pdfrwt>
<totfact> 0.89176469E+03</totfact>
</mgrwt>
</event>
<event>
 4    1  0.1866622E-004  0.3309997E+03  0.7818608E-02  0.1070695E+00
         -2   -1    0    0    0  501 -0.00000000000E+00  0.00000000000E+00  0.30335432595E+02  0.30335432595E+02  0.00000000000E+00 0.  1.
          2   -1    0    0  501    0  0.00000000000E+00 -0.00000000000E+00 -0.90291140430E+03  0.90291140430E+03  0.00000000000E+00 0.  1.
         25    1    1    2    0    0 -0.31611276193E+02 -0.78183017275E+01 -0.74424182197E+03  0.75455701454E+03  0.12000000000E+03 0.  0.
         25    1    1    2    0    0  0.31611276193E+02  0.78183017275E+01 -0.12833414973E+03  0.17868982235E+03  0.12000000000E+03 0.  0.
<mgrwt>
<rscale>  0 0.33099975E+03</rscale>
<asrwt>0</asrwt>
<pdfrwt beam="1">  1        2 0.13890942E+00 0.33099975E+03</pdfrwt>
<pdfrwt beam="2">  1       -2 0.46669904E-02 0.33099975E+03</pdfrwt>
<totfact> 0.66007775E+03</totfact>
</mgrwt>
</event>
<event>
 4    1  0.1866622E-004  0.2945957E+03  0.7818608E-02  0.1087974E+00
          2   -1    0    0  501    0  0.00000000000E+00  0.00000000000E+00  0.94574523399E+03  0.94574523399E+03  0.00000000000E+00 0. -1.
         -2   -1    0    0    0  501 -0.00000000000E+00 -0.00000000000E+00 -0.22941339263E+02  0.22941339263E+02  0.00000000000E+00 0. -1.
         25    1    1    2    0    0 -0.41922028915E+02 -0.69811325415E+02  0.54623370279E+03  0.56515691249E+03  0.12000000000E+03 0.  0.
         25    1    1    2    0    0  0.41922028915E+02  0.69811325415E+02  0.37657019194E+03  0.40352966077E+03  0.12000000000E+03 0.  0.
<mgrwt>
<rscale>  0 0.29459574E+03</rscale>
<asrwt>0</asrwt>
<pdfrwt beam="1">  1        2 0.14549924E+00 0.29459574E+03</pdfrwt>
<pdfrwt beam="2">  1       -2 0.35294375E-02 0.29459574E+03</pdfrwt>
<totfact> 0.94248650E+03</totfact>
</mgrwt>
</event>
<event>
 4    1  0.1866622E-004  0.2736461E+03  0.7818608E-02  0.1099211E+00
         -1   -1    0    0    0  501 -0.00000000000E+00  0.00000000000E+00  0.99779650716E+01  0.99779650716E+01  0.00000000000E+00 0.  1.
          1   -1    0    0  501    0  0.00000000000E+00 -0.00000000000E+00 -0.18761883008E+04  0.18761883008E+04  0.00000000000E+00 0.  1.
         25    1    1    2    0    0 -0.54841106923E+02 -0.18748285234E+02 -0.71937563064E+03  0.73161488719E+03  0.12000000000E+03 0.  0.
         25    1    1    2    0    0  0.54841106923E+02  0.18748285234E+02 -0.11468347051E+04  0.11545513787E+04  0.12000000000E+03 0.  0.
<mgrwt>
<rscale>  0 0.27364606E+03</rscale>
<asrwt>0</asrwt>
<pdfrwt beam="1">  1        1 0.28864384E+00 0.27364606E+03</pdfrwt>
<pdfrwt beam="2">  1       -1 0.15350743E-02 0.27364606E+03</pdfrwt>
<totfact> 0.40971093E+03</totfact>
</mgrwt>
</event>
<event>
 4    1  0.1866622E-004  0.3153159E+03  0.7818608E-02  0.1077825E+00
         -1   -1    0    0    0  501 -0.00000000000E+00  0.00000000000E+00  0.41240840887E+02  0.41240840887E+02  0.00000000000E+00 0. -1.
          1   -1    0    0  501    0  0.00000000000E+00 -0.00000000000E+00 -0.60270420471E+03  0.60270420471E+03  0.00000000000E+00 0. -1.
         25    1    1    2    0    0  0.58748497407E+02 -0.34645647657E+01 -0.10995699430E+03  0.17307203631E+03  0.12000000000E+03 0.  0.
         25    1    1    2    0    0 -0.58748497407E+02  0.34645647657E+01 -0.45150636952E+03  0.47087300929E+03  0.12000000000E+03 0.  0.
<mgrwt>
<rscale>  0 0.31531589E+03</rscale>
<asrwt>0</asrwt>
<pdfrwt beam="1">  1        1 0.92723719E-01 0.31531589E+03</pdfrwt>
<pdfrwt beam="2">  1       -1 0.63447451E-02 0.31531589E+03</pdfrwt>
<totfact> 0.42939003E+03</totfact>
</mgrwt>
</event>
<event>
 4    1  0.1866622E-004  0.3228651E+03  0.7818608E-02  0.1074338E+00
         -2   -1    0    0    0  501 -0.00000000000E+00  0.00000000000E+00  0.52587157185E+02  0.52587157185E+02  0.00000000000E+00 0.  1.
          2   -1    0    0  501    0  0.00000000000E+00 -0.00000000000E+00 -0.49556726061E+03  0.49556726061E+03  0.00000000000E+00 0.  1.
         25    1    1    2    0    0 -0.42007902804E+02  0.87954516653E+02 -0.30039237673E+03  0.33784055543E+03  0.12000000000E+03 0.  0.
         25    1    1    2    0    0  0.42007902804E+02 -0.87954516653E+02 -0.14258772670E+03  0.21031386237E+03  0.12000000000E+03 0.  0.
<mgrwt>
<rscale>  0 0.32286513E+03</rscale>
<asrwt>0</asrwt>
<pdfrwt beam="1">  1        2 0.76241115E-01 0.32286513E+03</pdfrwt>
<pdfrwt beam="2">  1       -2 0.80903320E-02 0.32286513E+03</pdfrwt>
<totfact> 0.58492115E+03</totfact>
</mgrwt>
</event>
<event>
 4    1  0.1866622E-004  0.3332044E+03  0.7818608E-02  0.1069728E+00
         -1   -1    0    0    0  501 -0.00000000000E+00  0.00000000000E+00  0.27483618925E+03  0.27483618925E+03  0.00000000000E+00 0.  1.
          1   -1    0    0  501    0  0.00000000000E+00 -0.00000000000E+00 -0.10099210518E+03  0.10099210518E+03  0.00000000000E+00 0.  1.
         25    1    1    2    0    0  0.68558480610E+02  0.46495854815E+02 -0.39729904627E+01  0.14586951166E+03  0.12000000000E+03 0.  0.
         25    1    1    2    0    0 -0.68558480610E+02 -0.46495854815E+02  0.17781707453E+03  0.22995878277E+03  0.12000000000E+03 0.  0.
<mgrwt>
<rscale>  0 0.33320435E+03</rscale>
<asrwt>0</asrwt>
<pdfrwt beam="1">  1        1 0.15537247E-01 0.33320435E+03</pdfrwt>
<pdfrwt beam="2">  1       -1 0.42282490E-01 0.33320435E+03</pdfrwt>
<totfact> 0.19923347E+03</totfact>
</mgrwt>
</event>
<event>
 4    1  0.1866622E-004  0.2859660E+03  0.7818608E-02  0.1092474E+00
         -2   -1    0    0    0  501 -0.00000000000E+00  0.00000000000E+00  0.11849410697E+02  0.11849410697E+02  0.00000000000E+00 0.  1.
          2   -1    0    0  501    0  0.00000000000E+00 -0.00000000000E+00 -0.17253297931E+04  0.17253297931E+04  0.00000000000E+00 0.  1.
         25    1    1    2    0    0  0.62961197529E+02  0.19372946575E+02 -0.60592349454E+03  0.62119457877E+03  0.12000000000E+03 0.  0.
         25    1    1    2    0    0 -0.62961197529E+02 -0.19372946575E+02 -0.11075568879E+04  0.11159846251E+04  0.12000000000E+03 0.  0.
<mgrwt>
<rscale>  0 0.28596602E+03</rscale>
<asrwt>0</asrwt>
<pdfrwt beam="1">  1        2 0.26543539E+00 0.28596602E+03</pdfrwt>
<pdfrwt beam="2">  1       -2 0.18229860E-02 0.28596602E+03</pdfrwt>
<totfact> 0.91866819E+03</totfact>
</mgrwt>
</event>
<event>
 4    1  0.1866622E-004  0.3796036E+03  0.7818608E-02  0.1051080E+00
         -2   -1    0    0    0  501 -0.00000000000E+00  0.00000000000E+00  0.44599314477E+02  0.44599314477E+02  0.00000000000E+00 0. -1.
          2   -1    0    0  501    0  0.00000000000E+00 -0.00000000000E+00 -0.80774177987E+03  0.80774177987E+03  0.00000000000E+00 0. -1.
         25    1    1    2    0    0 -0.89741047111E+02  0.56988413422E+02 -0.60970971245E+03  0.63043403165E+03  0.12000000000E+03 0.  0.
         25    1    1    2    0    0  0.89741047111E+02 -0.56988413422E+02 -0.15343275294E+03  0.22190706270E+03  0.12000000000E+03 0.  0.
<mgrwt>
<rscale>  0 0.37960363E+03</rscale>
<asrwt>0</asrwt>
<pdfrwt beam="1">  1        2 0.12426797E+00 0.37960363E+03</pdfrwt>
<pdfrwt beam="2">  1       -2 0.68614328E-02 0.37960363E+03</pdfrwt>
<totfact> 0.42332855E+03</totfact>
</mgrwt>
</event>
<event>
 4    1  0.1866622E-004  0.2797715E+03  0.7818608E-02  0.1095814E+00
          1   -1    0    0  501    0  0.00000000000E+00  0.00000000000E+00  0.19280286884E+03  0.19280286884E+03  0.00000000000E+00 0. -1.
         -1   -1    0    0    0  501 -0.00000000000E+00 -0.00000000000E+00 -0.10149241149E+03  0.10149241149E+03  0.00000000000E+00 0. -1.
         25    1    1    2    0    0 -0.82383036925E+01 -0.71041274247E+02  0.53334611039E+02  0.14953030806E+03  0.12000000000E+03 0.  0.
         25    1    1    2    0    0  0.82383036925E+01  0.71041274247E+02  0.37975846309E+02  0.14476497227E+03  0.12000000000E+03 0.  0.
<mgrwt>
<rscale>  0 0.27977154E+03</rscale>
<asrwt>0</asrwt>
<pdfrwt beam="1">  1        1 0.29661980E-01 0.27977154E+03</pdfrwt>
<pdfrwt beam="2">  1       -1 0.15614217E-01 0.27977154E+03</pdfrwt>
<totfact> 0.46046664E+03</totfact>
</mgrwt>
</event>
<event>
 4    1  0.1866622E-004  0.3045861E+03  0.7818608E-02  0.1082970E+00
         -2   -1    0    0    0  501 -0.00000000000E+00  0.00000000000E+00  0.64865696410E+01  0.64865696410E+01  0.00000000000E+00 0. -1.
          2   -1    0    0  501    0  0.00000000000E+00 -0.00000000000E+00 -0.35755685645E+04  0.35755685645E+04  0.00000000000E+00 0. -1.
         25    1    1    2    0    0  0.54289051343E+02 -0.38904930978E+02 -0.10104706715E+04  0.10197606939E+04  0.12000000000E+03 0.  0.
         25    1    1    2    0    0 -0.54289051343E+02  0.38904930978E+02 -0.25586113233E+04  0.25622944402E+04  0.12000000000E+03 0.  0.
<mgrwt>
<rscale>  0 0.30458611E+03</rscale>
<asrwt>0</asrwt>
<pdfrwt beam="1">  1        2 0.55008681E+00 0.30458611E+03</pdfrwt>
<pdfrwt beam="2">  1       -2 0.99793500E-03 0.30458611E+03</pdfrwt>
<totfact> 0.19215510E+03</totfact>
</mgrwt>
</event>
<event>
 4    1  0.1866622E-004  0.3415826E+03  0.7818608E-02  0.1066124E+00
          2   -1    0    0  501    0  0.00000000000E+00  0.00000000000E+00  0.21684098335E+04  0.21684098335E+04  0.00000000000E+00 0.  1.
         -2   -1    0    0    0  501 -0.00000000000E+00 -0.00000000000E+00 -0.13452103541E+02  0.13452103541E+02  0.00000000000E+00 0.  1.
         25    1    1    2    0    0 -0.17769961797E+02  0.42268228080E+02  0.35857056831E+03  0.38088742052E+03  0.12000000000E+03 0.  0.
         25    1    1    2    0    0  0.17769961797E+02 -0.42268228080E+02  0.17963871617E+04  0.18009745166E+04  0.12000000000E+03 0.  0.
<mgrwt>
<rscale>  0 0.34158263E+03</rscale>
<asrwt>0</asrwt>
<pdfrwt beam="1">  1        2 0.33360124E+00 0.34158263E+03</pdfrwt>
<pdfrwt beam="2">  1       -2 0.20695561E-02 0.34158263E+03</pdfrwt>
<totfact> 0.44416065E+03</totfact>
</mgrwt>
</event>
<event>
 4    1  0.1866622E-004  0.3794859E+03  0.7818608E-02  0.1051124E+00
          2   -1    0    0  501    0  0.00000000000E+00  0.00000000000E+00  0.88521117946E+03  0.88521117946E+03  0.00000000000E+00 0. -1.
         -2   -1    0    0    0  501 -0.00000000000E+00 -0.00000000000E+00 -0.40670960394E+02  0.40670960394E+02  0.00000000000E+00 0. -1.
         25    1    1    2    0    0 -0.70780049369E+02 -0.18025516044E+02  0.11108234117E+03  0.17909221406E+03  0.12000000000E+03 0.  0.
         25    1    1    2    0    0  0.70780049369E+02  0.18025516044E+02  0.73345787790E+03  0.74678992580E+03  0.12000000000E+03 0.  0.
<mgrwt>
<rscale>  0 0.37948591E+03</rscale>
<asrwt>0</asrwt>
<pdfrwt beam="1">  1        2 0.13618632E+00 0.37948591E+03</pdfrwt>
<pdfrwt beam="2">  1       -2 0.62570715E-02 0.37948591E+03</pdfrwt>
<totfact> 0.43297157E+03</totfact>
</mgrwt>
</event>
<event>
 4    1  0.1866622E-004  0.2762679E+03  0.7818608E-02  0.1097745E+00
         -2   -1    0    0    0  501 -0.00000000000E+00  0.00000000000E+00  0.22243057998E+02  0.22243057998E+02  0.00000000000E+00 0.  1.
          2   -1    0    0  501    0  0.00000000000E+00 -0.00000000000E+00 -0.85784018050E+03  0.85784018050E+03  0.00000000000E+00 0.  1.
         25    1    1    2    0    0  0.66136831051E+02 -0.90152590465E+01 -0.36994710342E+03  0.39460893888E+03  0.12000000000E+03 0.  0.
         25    1    1    2    0    0 -0.66136831051E+02  0.90152590465E+01 -0.46565001908E+03  0.48547429962E+03  0.12000000000E+03 0.  0.
<mgrwt>
<rscale>  0 0.27626791E+03</rscale>
<asrwt>0</asrwt>
<pdfrwt beam="1">  1        2 0.13197543E+00 0.27626791E+03</pdfrwt>
<pdfrwt beam="2">  1       -2 0.34220085E-02 0.27626791E+03</pdfrwt>
<totfact> 0.11230459E+04</totfact>
</mgrwt>
</event>
<event>
 4    1  0.1866622E-004  0.3310452E+03  0.7818608E-02  0.1070675E+00
         -1   -1    0    0    0  501 -0.00000000000E+00  0.00000000000E+00  0.60567436667E+02  0.60567436667E+02  0.00000000000E+00 0. -1.
          1   -1    0    0  501    0  0.00000000000E+00 -0.00000000000E+00 -0.45235084898E+03  0.45235084898E+03  0.00000000000E+00 0. -1.
         25    1    1    2    0    0 -0.89080492145E+02  0.69323572678E+02 -0.22071290241E+03  0.27541836740E+03  0.12000000000E+03 0.  0.
         25    1    1    2    0    0  0.89080492145E+02 -0.69323572678E+02 -0.17107050990E+03  0.23749991824E+03  0.12000000000E+03 0.  0.
<mgrwt>
<rscale>  0 0.33104520E+03</rscale>
<asrwt>0</asrwt>
<pdfrwt beam="1">  1        1 0.69592441E-01 0.33104520E+03</pdfrwt>
<pdfrwt beam="2">  1       -1 0.93180668E-02 0.33104520E+03</pdfrwt>
<totfact> 0.35154630E+03</totfact>
</mgrwt>
</event>
<event>
 4    1  0.1866622E-004  0.3804943E+03  0.7818608E-02  0.1050751E+00
          1   -1    0    0  501    0  0.00000000000E+00  0.00000000000E+00  0.94359753164E+03  0.94359753164E+03  0.00000000000E+00 0. -1.
         -1   -1    0    0    0  501 -0.00000000000E+00 -0.00000000000E+00 -0.38357431879E+02  0.38357431879E+02  0.00000000000E+00 0. -1.
         25    1    1    2    0    0 -0.12856390731E+03 -0.48194703247E+02  0.59261321819E+03  0.62003373623E+03  0.12000000000E+03 0.  0.
         25    1    1    2    0    0  0.12856390731E+03  0.48194703247E+02  0.31262688157E+03  0.36192122730E+03  0.12000000000E+03 0.  0.
<mgrwt>
<rscale>  0 0.38049430E+03</rscale>
<asrwt>0</asrwt>
<pdfrwt beam="1">  1        1 0.14516883E+00 0.38049430E+03</pdfrwt>
<pdfrwt beam="2">  1       -1 0.59011441E-02 0.38049430E+03</pdfrwt>
<totfact> 0.24247975E+03</totfact>
</mgrwt>
</event>
<event>
 4    1  0.1866622E-004  0.3359107E+03  0.7818608E-02  0.1068551E+00
          2   -1    0    0  501    0  0.00000000000E+00  0.00000000000E+00  0.33228980578E+04  0.33228980578E+04  0.00000000000E+00 0.  1.
         -2   -1    0    0    0  501 -0.00000000000E+00 -0.00000000000E+00 -0.84892745420E+01  0.84892745420E+01  0.00000000000E+00 0.  1.
         25    1    1    2    0    0 -0.50799579899E+02  0.78118398174E+02  0.23672511148E+04  0.23721216077E+04  0.12000000000E+03 0.  0.
         25    1    1    2    0    0  0.50799579899E+02 -0.78118398174E+02  0.94715766848E+03  0.95926572461E+03  0.12000000000E+03 0.  0.
<mgrwt>
<rscale>  0 0.33591067E+03</rscale>
<asrwt>0</asrwt>
<pdfrwt beam="1">  1        2 0.51121405E+00 0.33591067E+03</pdfrwt>
<pdfrwt beam="2">  1       -2 0.13060449E-02 0.33591067E+03</pdfrwt>
<totfact> 0.18922495E+03</totfact>
</mgrwt>
</event>
<event>
 4    1  0.1866622E-004  0.3438598E+03  0.7818608E-02  0.1065164E+00
          1   -1    0    0  501    0  0.00000000000E+00  0.00000000000E+00  0.10682176251E+03  0.10682176251E+03  0.00000000000E+00 0. -1.
         -1   -1    0    0    0  501 -0.00000000000E+00 -0.00000000000E+00 -0.27672161100E+03  0.27672161100E+03  0.00000000000E+00 0. -1.
         25    1    1    2    0    0 -0.40233024039E+02  0.70113899717E+02  0.18640246628E+02  0.14588390573E+03  0.12000000000E+03 0.  0.
         25    1    1    2    0    0  0.40233024039E+02 -0.70113899717E+02 -0.18854009512E+03  0.23765946778E+03  0.12000000000E+03 0.  0.
<mgrwt>
<rscale>  0 0.34385980E+03</rscale>
<asrwt>0</asrwt>
<pdfrwt beam="1">  1        1 0.16434117E-01 0.34385980E+03</pdfrwt>
<pdfrwt beam="2">  1       -1 0.42572555E-01 0.34385980E+03</pdfrwt>
<totfact> 0.18286225E+03</totfact>
</mgrwt>
</event>
<event>
 4    1  0.1866622E-004  0.2612779E+03  0.7818608E-02  0.1106378E+00
          1   -1    0    0  501    0  0.00000000000E+00  0.00000000000E+00  0.49882135431E+03  0.49882135431E+03  0.00000000000E+00 0.  1.
         -1   -1    0    0    0  501 -0.00000000000E+00 -0.00000000000E+00 -0.34213711864E+02  0.34213711864E+02  0.00000000000E+00 0.  1.
         25    1    1    2    0    0 -0.96046197626E+01  0.48523546555E+02  0.26254609537E+03  0.29287750935E+03  0.12000000000E+03 0.  0.
         25    1    1    2    0    0  0.96046197626E+01 -0.48523546555E+02  0.20206154707E+03  0.24015755682E+03  0.12000000000E+03 0.  0.
<mgrwt>
<rscale>  0 0.26127786E+03</rscale>
<asrwt>0</asrwt>
<pdfrwt beam="1">  1        1 0.76741741E-01 0.26127786E+03</pdfrwt>
<pdfrwt beam="2">  1       -1 0.52636484E-02 0.26127786E+03</pdfrwt>
<totfact> 0.73242339E+03</totfact>
</mgrwt>
</event>
<event>
 4    1  0.1866622E-004  0.4516740E+03  0.7818608E-02  0.1027224E+00
         -1   -1    0    0    0  501 -0.00000000000E+00  0.00000000000E+00  0.83565263535E+03  0.83565263535E+03  0.00000000000E+00 0.  1.
          1   -1    0    0  501    0  0.00000000000E+00 -0.00000000000E+00 -0.61032954662E+02  0.61032954662E+02  0.00000000000E+00 0.  1.
         25    1    1    2    0    0  0.18176045724E+03  0.43634355302E+02  0.30638739125E+03  0.37843632793E+03  0.12000000000E+03 0.  0.
         25    1    1    2    0    0 -0.18176045724E+03 -0.43634355302E+02  0.46823228944E+03  0.51824926208E+03  0.12000000000E+03 0.  0.
<mgrwt>
<rscale>  0 0.45167399E+03</rscale>
<asrwt>0</asrwt>
<pdfrwt beam="1">  1        1 0.93896859E-02 0.45167399E+03</pdfrwt>
<pdfrwt beam="2">  1       -1 0.12856194E+00 0.45167399E+03</pdfrwt>
<totfact> 0.38974890E+02</totfact>
</mgrwt>
</event>
<event>
 4    1  0.1866622E-004  0.2729612E+03  0.7818608E-02  0.1099597E+00
         -2   -1    0    0    0  501 -0.00000000000E+00  0.00000000000E+00  0.77184890564E+01  0.77184890564E+01  0.00000000000E+00 0.  1.
          2   -1    0    0  501    0  0.00000000000E+00 -0.00000000000E+00 -0.24132903291E+04  0.24132903291E+04  0.00000000000E+00 0.  1.
         25    1    1    2    0    0  0.47714315778E+02 -0.40886385457E+02 -0.10547428830E+04  0.10634053328E+04  0.12000000000E+03 0.  0.
         25    1    1    2    0    0 -0.47714315778E+02  0.40886385457E+02 -0.13508289570E+04  0.13576034854E+04  0.12000000000E+03 0.  0.
<mgrwt>
<rscale>  0 0.27296121E+03</rscale>
<asrwt>0</asrwt>
<pdfrwt beam="1">  1        2 0.37127515E+00 0.27296121E+03</pdfrwt>
<pdfrwt beam="2">  1       -2 0.11874608E-02 0.27296121E+03</pdfrwt>
<totfact> 0.74243707E+03</totfact>
</mgrwt>
</event>
<event>
 4    1  0.1866622E-004  0.3165802E+03  0.7818608E-02  0.1077234E+00
         -2   -1    0    0    0  501 -0.00000000000E+00  0.00000000000E+00  0.71003839154E+02  0.71003839154E+02  0.00000000000E+00 0. -1.
          2   -1    0    0  501    0  0.00000000000E+00 -0.00000000000E+00 -0.35287885339E+03  0.35287885339E+03  0.00000000000E+00 0. -1.
         25    1    1    2    0    0 -0.66761786952E+02 -0.68214920802E+02 -0.19357245804E+03  0.24694272236E+03  0.12000000000E+03 0.  0.
         25    1    1    2    0    0  0.66761786952E+02  0.68214920802E+02 -0.88302556199E+02  0.17693997018E+03  0.12000000000E+03 0.  0.
<mgrwt>
<rscale>  0 0.31658018E+03</rscale>
<asrwt>0</asrwt>
<pdfrwt beam="1">  1        2 0.54289054E-01 0.31658018E+03</pdfrwt>
<pdfrwt beam="2">  1       -2 0.10923668E-01 0.31658018E+03</pdfrwt>
<totfact> 0.52727979E+03</totfact>
</mgrwt>
</event>
<event>
 4    1  0.1866622E-004  0.2541728E+03  0.7818608E-02  0.1110696E+00
          1   -1    0    0  501    0  0.00000000000E+00  0.00000000000E+00  0.40753842118E+02  0.40753842118E+02  0.00000000000E+00 0. -1.
         -1   -1    0    0    0  501 -0.00000000000E+00 -0.00000000000E+00 -0.39630514544E+03  0.39630514544E+03  0.00000000000E+00 0. -1.
         25    1    1    2    0    0 -0.28762248470E+02  0.24220171736E+02 -0.20934556144E+03  0.24421189109E+03  0.12000000000E+03 0.  0.
         25    1    1    2    0    0  0.28762248470E+02 -0.24220171736E+02 -0.14620574187E+03  0.19284709646E+03  0.12000000000E+03 0.  0.
<mgrwt>
<rscale>  0 0.25417283E+03</rscale>
<asrwt>0</asrwt>
<pdfrwt beam="1">  1        1 0.62698216E-02 0.25417283E+03</pdfrwt>
<pdfrwt beam="2">  1       -1 0.60970025E-01 0.25417283E+03</pdfrwt>
<totfact> 0.34024176E+03</totfact>
</mgrwt>
</event>
<event>
 4    1  0.1866622E-004  0.3163310E+03  0.7818608E-02  0.1077350E+00
         -2   -1    0    0    0  501 -0.00000000000E+00  0.00000000000E+00  0.17294836956E+02  0.17294836956E+02  0.00000000000E+00 0.  1.
          2   -1    0    0  501    0  0.00000000000E+00 -0.00000000000E+00 -0.14464617946E+04  0.14464617946E+04  0.00000000000E+00 0.  1.
         25    1    1    2    0    0 -0.50986198274E+02 -0.72812231131E+02 -0.95569650498E+03  0.96729365916E+03  0.12000000000E+03 0.  0.
         25    1    1    2    0    0  0.50986198274E+02  0.72812231131E+02 -0.47347045267E+03  0.49646297240E+03  0.12000000000E+03 0.  0.
<mgrwt>
<rscale>  0 0.31633097E+03</rscale>
<asrwt>0</asrwt>
<pdfrwt beam="1">  1        2 0.22253264E+00 0.31633097E+03</pdfrwt>
<pdfrwt beam="2">  1       -2 0.26607435E-02 0.31633097E+03</pdfrwt>
<totfact> 0.74048704E+03</totfact>
</mgrwt>
</event>
<event>
 4    1  0.1866622E-004  0.3765127E+03  0.7818608E-02  0.1052230E+00
         -2   -1    0    0    0  501 -0.00000000000E+00  0.00000000000E+00  0.17504696135E+02  0.17504696135E+02  0.00000000000E+00 0.  1.
          2   -1    0    0  501    0  0.00000000000E+00 -0.00000000000E+00 -0.20246259869E+04  0.20246259869E+04  0.00000000000E+00 0.  1.
         25    1    1    2    0    0  0.50997143583E+02 -0.85866147857E+02 -0.43298390518E+03  0.46027031856E+03  0.12000000000E+03 0.  0.
         25    1    1    2    0    0 -0.50997143583E+02  0.85866147857E+02 -0.15741373856E+04  0.15818603645E+04  0.12000000000E+03 0.  0.
<mgrwt>
<rscale>  0 0.37651275E+03</rscale>
<asrwt>0</asrwt>
<pdfrwt beam="1">  1        2 0.31148087E+00 0.37651275E+03</pdfrwt>
<pdfrwt beam="2">  1       -2 0.26930306E-02 0.37651275E+03</pdfrwt>
<totfact> 0.35765578E+03</totfact>
</mgrwt>
</event>
<event>
 4    1  0.1866622E-004  0.3359043E+03  0.7818608E-02  0.1068554E+00
         -2   -1    0    0    0  501 -0.00000000000E+00  0.00000000000E+00  0.19420551572E+02  0.19420551572E+02  0.00000000000E+00 0. -1.
          2   -1    0    0  501    0  0.00000000000E+00 -0.00000000000E+00 -0.14524779291E+04  0.14524779291E+04  0.00000000000E+00 0. -1.
         25    1    1    2    0    0 -0.83276054931E+02  0.78398293869E+02 -0.83465549783E+03  0.85095886732E+03  0.12000000000E+03 0.  0.
         25    1    1    2    0    0  0.83276054931E+02 -0.78398293869E+02 -0.59840187966E+03  0.62093961331E+03  0.12000000000E+03 0.  0.
<mgrwt>
<rscale>  0 0.33590429E+03</rscale>
<asrwt>0</asrwt>
<pdfrwt beam="1">  1        2 0.22345808E+00 0.33590429E+03</pdfrwt>
<pdfrwt beam="2">  1       -2 0.29877780E-02 0.33590429E+03</pdfrwt>
<totfact> 0.61853455E+03</totfact>
</mgrwt>
</event>
<event>
 4    1  0.1866622E-004  0.2845442E+03  0.7818608E-02  0.1093233E+00
         -1   -1    0    0    0  501 -0.00000000000E+00  0.00000000000E+00  0.68115141294E+01  0.68115141294E+01  0.00000000000E+00 0. -1.
          1   -1    0    0  501    0  0.00000000000E+00 -0.00000000000E+00 -0.29716379791E+04  0.29716379791E+04  0.00000000000E+00 0. -1.
         25    1    1    2    0    0  0.75191186377E+02 -0.19613168883E+01 -0.13405059376E+04  0.13479665166E+04  0.12000000000E+03 0.  0.
         25    1    1    2    0    0 -0.75191186377E+02  0.19613168883E+01 -0.16243205274E+04  0.16304829766E+04  0.12000000000E+03 0.  0.
<mgrwt>
<rscale>  0 0.28454423E+03</rscale>
<asrwt>0</asrwt>
<pdfrwt beam="1">  1        1 0.45717418E+00 0.28454423E+03</pdfrwt>
<pdfrwt beam="2">  1       -1 0.10479273E-02 0.28454423E+03</pdfrwt>
<totfact> 0.13301891E+03</totfact>
</mgrwt>
</event>
<event>
 4    1  0.1866622E-004  0.2877611E+03  0.7818608E-02  0.1091524E+00
         -3   -1    0    0    0  501 -0.00000000000E+00  0.00000000000E+00  0.59659087999E+02  0.59659087999E+02  0.00000000000E+00 0.  1.
          3   -1    0    0  501    0  0.00000000000E+00 -0.00000000000E+00 -0.34699849210E+03  0.34699849210E+03  0.00000000000E+00 0.  1.
         25    1    1    2    0    0  0.16718377719E+02  0.16808581841E+02 -0.25073207676E+03  0.27897778924E+03  0.12000000000E+03 0.  0.
         25    1    1    2    0    0 -0.16718377719E+02 -0.16808581841E+02 -0.36607327343E+02  0.12767979085E+03  0.12000000000E+03 0.  0.
<mgrwt>
<rscale>  0 0.28776111E+03</rscale>
<asrwt>0</asrwt>
<pdfrwt beam="1">  1        3 0.53384385E-01 0.28776111E+03</pdfrwt>
<pdfrwt beam="2">  1       -3 0.91783210E-02 0.28776111E+03</pdfrwt>
<totfact> 0.76035521E+02</totfact>
</mgrwt>
</event>
<event>
 4    1  0.1866622E-004  0.3232854E+03  0.7818608E-02  0.1074147E+00
         -4   -1    0    0    0  501 -0.00000000000E+00  0.00000000000E+00  0.37689600010E+02  0.37689600010E+02  0.00000000000E+00 0. -1.
          4   -1    0    0  501    0  0.00000000000E+00 -0.00000000000E+00 -0.69325141258E+03  0.69325141258E+03  0.00000000000E+00 0. -1.
         25    1    1    2    0    0 -0.30967411471E+02  0.13305606873E+02 -0.56047873112E+03  0.57417107885E+03  0.12000000000E+03 0.  0.
         25    1    1    2    0    0  0.30967411471E+02 -0.13305606873E+02 -0.95083081449E+02  0.15676993374E+03  0.12000000000E+03 0.  0.
<mgrwt>
<rscale>  0 0.32328544E+03</rscale>
<asrwt>0</asrwt>
<pdfrwt beam="1">  1        4 0.10665406E+00 0.32328544E+03</pdfrwt>
<pdfrwt beam="2">  1       -4 0.57984003E-02 0.32328544E+03</pdfrwt>
<totfact> 0.26221989E+02</totfact>
</mgrwt>
</event>
<event>
 4    1  0.1866622E-004  0.2570302E+03  0.7818608E-02  0.1108941E+00
         -2   -1    0    0    0  501 -0.00000000000E+00  0.00000000000E+00  0.20784796025E+03  0.20784796025E+03  0.00000000000E+00 0.  1.
          2   -1    0    0  501    0  0.00000000000E+00 -0.00000000000E+00 -0.79462530217E+02  0.79462530217E+02  0.00000000000E+00 0.  1.
         25    1    1    2    0    0  0.31638026149E+02  0.32713930803E+02  0.56697656446E+02  0.14030605908E+03  0.12000000000E+03 0.  0.
         25    1    1    2    0    0 -0.31638026149E+02 -0.32713930803E+02  0.71687773592E+02  0.14700443140E+03  0.12000000000E+03 0.  0.
<mgrwt>
<rscale>  0 0.25703015E+03</rscale>
<asrwt>0</asrwt>
<pdfrwt beam="1">  1        2 0.12225005E-01 0.25703015E+03</pdfrwt>
<pdfrwt beam="2">  1       -2 0.31976609E-01 0.25703015E+03</pdfrwt>
<totfact> 0.44981324E+03</totfact>
</mgrwt>
</event>
<event>
 4    1  0.1866622E-004  0.2571975E+03  0.7818608E-02  0.1108839E+00
          1   -1    0    0  501    0  0.00000000000E+00  0.00000000000E+00  0.32661162540E+03  0.32661162540E+03  0.00000000000E+00 0. -1.
         -1   -1    0    0    0  501 -0.00000000000E+00 -0.00000000000E+00 -0.50633970769E+02  0.50633970769E+02  0.00000000000E+00 0. -1.
         25    1    1    2    0    0  0.23906022931E+02 -0.86615227643E+01  0.81350008215E+02  0.14718812366E+03  0.12000000000E+03 0.  0.
         25    1    1    2    0    0 -0.23906022931E+02  0.86615227643E+01  0.19462764642E+03  0.23005747251E+03  0.12000000000E+03 0.  0.
<mgrwt>
<rscale>  0 0.25719754E+03</rscale>
<asrwt>0</asrwt>
<pdfrwt beam="1">  1        1 0.50247941E-01 0.25719754E+03</pdfrwt>
<pdfrwt beam="2">  1       -1 0.77898419E-02 0.25719754E+03</pdfrwt>
<totfact> 0.69794444E+03</totfact>
</mgrwt>
</event>
<event>
 4    1  0.1866622E-004  0.4091045E+03  0.7818608E-02  0.1040672E+00
          2   -1    0    0  501    0  0.00000000000E+00  0.00000000000E+00  0.13489139343E+04  0.13489139343E+04  0.00000000000E+00 0.  1.
         -2   -1    0    0    0  501 -0.00000000000E+00 -0.00000000000E+00 -0.31018744949E+02  0.31018744949E+02  0.00000000000E+00 0.  1.
         25    1    1    2    0    0 -0.39914194259E+01 -0.15500037380E+03  0.46224978190E+03  0.50211144996E+03  0.12000000000E+03 0.  0.
         25    1    1    2    0    0  0.39914194259E+01  0.15500037380E+03  0.85564540740E+03  0.87782122924E+03  0.12000000000E+03 0.  0.
<mgrwt>
<rscale>  0 0.40910447E+03</rscale>
<asrwt>0</asrwt>
<pdfrwt beam="1">  1        2 0.20752518E+00 0.40910447E+03</pdfrwt>
<pdfrwt beam="2">  1       -2 0.47721157E-02 0.40910447E+03</pdfrwt>
<totfact> 0.34725131E+03</totfact>
</mgrwt>
</event>
<event>
 4    1  0.1866622E-004  0.3590966E+03  0.7818608E-02  0.1058942E+00
         -2   -1    0    0    0  501 -0.00000000000E+00  0.00000000000E+00  0.36733861191E+02  0.36733861191E+02  0.00000000000E+00 0. -1.
          2   -1    0    0  501    0  0.00000000000E+00 -0.00000000000E+00 -0.87759856381E+03  0.87759856381E+03  0.00000000000E+00 0. -1.
         25    1    1    2    0    0 -0.44375552425E+02  0.60199623231E+02 -0.13868384023E+03  0.19805653696E+03  0.12000000000E+03 0.  0.
         25    1    1    2    0    0  0.44375552425E+02 -0.60199623231E+02 -0.70218086238E+03  0.71627588804E+03  0.12000000000E+03 0.  0.
<mgrwt>
<rscale>  0 0.35909655E+03</rscale>
<asrwt>0</asrwt>
<pdfrwt beam="1">  1        2 0.13501516E+00 0.35909655E+03</pdfrwt>
<pdfrwt beam="2">  1       -2 0.56513635E-02 0.35909655E+03</pdfrwt>
<totfact> 0.51231775E+03</totfact>
</mgrwt>
</event>
<event>
 4    1  0.1866622E-004  0.3096588E+03  0.7818608E-02  0.1080510E+00
          4   -1    0    0  501    0  0.00000000000E+00  0.00000000000E+00  0.65544154256E+02  0.65544154256E+02  0.00000000000E+00 0. -1.
         -4   -1    0    0    0  501 -0.00000000000E+00 -0.00000000000E+00 -0.36574039399E+03  0.36574039399E+03  0.00000000000E+00 0. -1.
         25    1    1    2    0    0  0.95037970066E+02  0.21579332485E+02 -0.13809588311E+03  0.20728809970E+03  0.12000000000E+03 0.  0.
         25    1    1    2    0    0 -0.95037970066E+02 -0.21579332485E+02 -0.16210035663E+03  0.22399644855E+03  0.12000000000E+03 0.  0.
<mgrwt>
<rscale>  0 0.30965881E+03</rscale>
<asrwt>0</asrwt>
<pdfrwt beam="1">  1        4 0.10083716E-01 0.30965881E+03</pdfrwt>
<pdfrwt beam="2">  1       -4 0.56267751E-01 0.30965881E+03</pdfrwt>
<totfact> 0.43163076E+02</totfact>
</mgrwt>
</event>
<event>
 4    1  0.1866622E-004  0.2751007E+03  0.7818608E-02  0.1098395E+00
         -4   -1    0    0    0  501 -0.00000000000E+00  0.00000000000E+00  0.60496274974E+02  0.60496274974E+02  0.00000000000E+00 0.  1.
          4   -1    0    0  501    0  0.00000000000E+00 -0.00000000000E+00 -0.31274821403E+03  0.31274821403E+03  0.00000000000E+00 0.  1.
         25    1    1    2    0    0  0.24739425149E+02 -0.99177816753E+01 -0.20986869364E+03  0.24321856451E+03  0.12000000000E+03 0.  0.
         25    1    1    2    0    0 -0.24739425149E+02  0.99177816753E+01 -0.42383245417E+02  0.13002592450E+03  0.12000000000E+03 0.  0.
<mgrwt>
<rscale>  0 0.27510072E+03</rscale>
<asrwt>0</asrwt>
<pdfrwt beam="1">  1        4 0.48115110E-01 0.27510072E+03</pdfrwt>
<pdfrwt beam="2">  1       -4 0.93071192E-02 0.27510072E+03</pdfrwt>
<totfact> 0.67392223E+02</totfact>
</mgrwt>
</event>
<event>
 4    1  0.1866622E-004  0.3820776E+03  0.7818608E-02  0.1050169E+00
          2   -1    0    0  501    0  0.00000000000E+00  0.00000000000E+00  0.10918869692E+04  0.10918869692E+04  0.00000000000E+00 0. -1.
         -2   -1    0    0    0  501 -0.00000000000E+00 -0.00000000000E+00 -0.33424543192E+02  0.33424543192E+02  0.00000000000E+00 0. -1.
         25    1    1    2    0    0  0.12288510711E+03  0.22411208910E+02  0.29190944451E+03  0.33943207808E+03  0.12000000000E+03 0.  0.
         25    1    1    2    0    0 -0.12288510711E+03 -0.22411208910E+02  0.76655298150E+03  0.78587943432E+03  0.12000000000E+03 0.  0.
<mgrwt>
<rscale>  0 0.38207760E+03</rscale>
<asrwt>0</asrwt>
<pdfrwt beam="1">  1        2 0.16798258E+00 0.38207760E+03</pdfrwt>
<pdfrwt beam="2">  1       -2 0.51422383E-02 0.38207760E+03</pdfrwt>
<totfact> 0.43510690E+03</totfact>
</mgrwt>
</event>
<event>
 4    1  0.1866622E-004  0.2922859E+03  0.7818608E-02  0.1089162E+00
          2   -1    0    0  501    0  0.00000000000E+00  0.00000000000E+00  0.19415205030E+04  0.19415205030E+04  0.00000000000E+00 0. -1.
         -2   -1    0    0    0  501 -0.00000000000E+00 -0.00000000000E+00 -0.11000535908E+02  0.11000535908E+02  0.00000000000E+00 0. -1.
         25    1    1    2    0    0 -0.48144398172E+02  0.87304301467E+01  0.14165384129E+04  0.14224539285E+04  0.12000000000E+03 0.  0.
         25    1    1    2    0    0  0.48144398172E+02 -0.87304301467E+01  0.51398155421E+03  0.53006711043E+03  0.12000000000E+03 0.  0.
<mgrwt>
<rscale>  0 0.29228593E+03</rscale>
<asrwt>0</asrwt>
<pdfrwt beam="1">  1        2 0.29869519E+00 0.29228593E+03</pdfrwt>
<pdfrwt beam="2">  1       -2 0.16923917E-02 0.29228593E+03</pdfrwt>
<totfact> 0.78874831E+03</totfact>
</mgrwt>
</event>
<event>
 4    1  0.1866622E-004  0.2696973E+03  0.7818608E-02  0.1101453E+00
          1   -1    0    0  501    0  0.00000000000E+00  0.00000000000E+00  0.10550243475E+04  0.10550243475E+04  0.00000000000E+00 0.  1.
         -1   -1    0    0    0  501 -0.00000000000E+00 -0.00000000000E+00 -0.17235777612E+02  0.17235777612E+02  0.00000000000E+00 0.  1.
         25    1    1    2    0    0 -0.29379406199E+02 -0.45407301374E+02  0.63543259542E+03  0.64892184110E+03  0.12000000000E+03 0.  0.
         25    1    1    2    0    0  0.29379406199E+02  0.45407301374E+02  0.40235597451E+03  0.42333828406E+03  0.12000000000E+03 0.  0.
<mgrwt>
<rscale>  0 0.26969735E+03</rscale>
<asrwt>0</asrwt>
<pdfrwt beam="1">  1        1 0.16231139E+00 0.26969735E+03</pdfrwt>
<pdfrwt beam="2">  1       -1 0.26516589E-02 0.26969735E+03</pdfrwt>
<totfact> 0.65808340E+03</totfact>
</mgrwt>
</event>
<event>
 4    1  0.1866622E-004  0.3175009E+03  0.7818608E-02  0.1076805E+00
         -2   -1    0    0    0  501 -0.00000000000E+00  0.00000000000E+00  0.14354337572E+04  0.14354337572E+04  0.00000000000E+00 0.  1.
          2   -1    0    0  501    0  0.00000000000E+00 -0.00000000000E+00 -0.17556857344E+02  0.17556857344E+02  0.00000000000E+00 0.  1.
         25    1    1    2    0    0 -0.79527604731E+02 -0.58761397231E+02  0.85539290757E+03  0.86941047154E+03  0.12000000000E+03 0.  0.
         25    1    1    2    0    0  0.79527604731E+02  0.58761397231E+02  0.56248399227E+03  0.58358014298E+03  0.12000000000E+03 0.  0.
<mgrwt>
<rscale>  0 0.31750090E+03</rscale>
<asrwt>0</asrwt>
<pdfrwt beam="1">  1        2 0.27010561E-02 0.31750090E+03</pdfrwt>
<pdfrwt beam="2">  1       -2 0.22083587E+00 0.31750090E+03</pdfrwt>
<totfact> 0.38783642E+02</totfact>
</mgrwt>
</event>
<event>
 4    1  0.1866622E-004  0.2445577E+03  0.7818608E-02  0.1116793E+00
          2   -1    0    0  501    0  0.00000000000E+00  0.00000000000E+00  0.36362031900E+03  0.36362031900E+03  0.00000000000E+00 0. -1.
         -2   -1    0    0    0  501 -0.00000000000E+00 -0.00000000000E+00 -0.41120143043E+02  0.41120143043E+02  0.00000000000E+00 0. -1.
         25    1    1    2    0    0 -0.79882698467E-01 -0.21001564910E+02  0.17869020863E+03  0.21626664738E+03  0.12000000000E+03 0.  0.
         25    1    1    2    0    0  0.79882698467E-01  0.21001564910E+02  0.14380996733E+03  0.18847381466E+03  0.12000000000E+03 0.  0.
<mgrwt>
<rscale>  0 0.24455772E+03</rscale>
<asrwt>0</asrwt>
<pdfrwt beam="1">  1        2 0.55941585E-01 0.24455772E+03</pdfrwt>
<pdfrwt beam="2">  1       -2 0.63261761E-02 0.24455772E+03</pdfrwt>
<totfact> 0.11909574E+04</totfact>
</mgrwt>
</event>
<event>
 4    1  0.1866622E-004  0.3684251E+03  0.7818608E-02  0.1055297E+00
          2   -1    0    0  501    0  0.00000000000E+00  0.00000000000E+00  0.43072948376E+03  0.43072948376E+03  0.00000000000E+00 0. -1.
         -2   -1    0    0    0  501 -0.00000000000E+00 -0.00000000000E+00 -0.78783218429E+02  0.78783218429E+02  0.00000000000E+00 0. -1.
         25    1    1    2    0    0  0.10395974637E+03  0.68000468038E+02  0.26455268119E+03  0.31594273792E+03  0.12000000000E+03 0.  0.
         25    1    1    2    0    0 -0.10395974637E+03 -0.68000468038E+02  0.87393584141E+02  0.19356996427E+03  0.12000000000E+03 0.  0.
<mgrwt>
<rscale>  0 0.36842505E+03</rscale>
<asrwt>0</asrwt>
<pdfrwt beam="1">  1        2 0.66266073E-01 0.36842505E+03</pdfrwt>
<pdfrwt beam="2">  1       -2 0.12120495E-01 0.36842505E+03</pdfrwt>
<totfact> 0.35951768E+03</totfact>
</mgrwt>
</event>
<event>
 4    1  0.1866622E-004  0.3067191E+03  0.7818608E-02  0.1081929E+00
          2   -1    0    0  501    0  0.00000000000E+00  0.00000000000E+00  0.68375052582E+02  0.68375052582E+02  0.00000000000E+00 0. -1.
         -2   -1    0    0    0  501 -0.00000000000E+00 -0.00000000000E+00 -0.34397278505E+03  0.34397278505E+03  0.00000000000E+00 0. -1.
         25    1    1    2    0    0 -0.95030001847E+02 -0.75669534363E+01 -0.13028988774E+03  0.20115520098E+03  0.12000000000E+03 0.  0.
         25    1    1    2    0    0  0.95030001847E+02  0.75669534363E+01 -0.14530784473E+03  0.21119263665E+03  0.12000000000E+03 0.  0.
<mgrwt>
<rscale>  0 0.30671914E+03</rscale>
<asrwt>0</asrwt>
<pdfrwt beam="1">  1        2 0.10519239E-01 0.30671914E+03</pdfrwt>
<pdfrwt beam="2">  1       -2 0.52918891E-01 0.30671914E+03</pdfrwt>
<totfact> 0.20627623E+03</totfact>
</mgrwt>
</event>
<event>
 4    1  0.1866622E-004  0.2926347E+03  0.7818608E-02  0.1088981E+00
         -2   -1    0    0    0  501 -0.00000000000E+00  0.00000000000E+00  0.48970520785E+02  0.48970520785E+02  0.00000000000E+00 0. -1.
          2   -1    0    0  501    0  0.00000000000E+00 -0.00000000000E+00 -0.43717674546E+03  0.43717674546E+03  0.00000000000E+00 0. -1.
         25    1    1    2    0    0 -0.66401385070E+02  0.22315721034E+02 -0.11794417512E+03  0.18225795947E+03  0.12000000000E+03 0.  0.
         25    1    1    2    0    0  0.66401385070E+02 -0.22315721034E+02 -0.27026204955E+03  0.30388930678E+03  0.12000000000E+03 0.  0.
<mgrwt>
<rscale>  0 0.29263474E+03</rscale>
<asrwt>0</asrwt>
<pdfrwt beam="1">  1        2 0.67257962E-01 0.29263474E+03</pdfrwt>
<pdfrwt beam="2">  1       -2 0.75339261E-02 0.29263474E+03</pdfrwt>
<totfact> 0.74945892E+03</totfact>
</mgrwt>
</event>
<event>
 4    1  0.1866622E-004  0.2882124E+03  0.7818608E-02  0.1091286E+00
         -2   -1    0    0    0  501 -0.00000000000E+00  0.00000000000E+00  0.22602454994E+02  0.22602454994E+02  0.00000000000E+00 0. -1.
          2   -1    0    0  501    0  0.00000000000E+00 -0.00000000000E+00 -0.91877588310E+03  0.91877588310E+03  0.00000000000E+00 0. -1.
         25    1    1    2    0    0 -0.64449462300E+02  0.46663384001E+02 -0.42865697195E+03  0.45219244156E+03  0.12000000000E+03 0.  0.
         25    1    1    2    0    0  0.64449462300E+02 -0.46663384001E+02 -0.46751645615E+03  0.48918589654E+03  0.12000000000E+03 0.  0.
<mgrwt>
<rscale>  0 0.28821236E+03</rscale>
<asrwt>0</asrwt>
<pdfrwt beam="1">  1        2 0.14135015E+00 0.28821236E+03</pdfrwt>
<pdfrwt beam="2">  1       -2 0.34773003E-02 0.28821236E+03</pdfrwt>
<totfact> 0.10019534E+04</totfact>
</mgrwt>
</event>
<event>
 4    1  0.1866622E-004  0.3122289E+03  0.7818608E-02  0.1079282E+00
          4   -1    0    0  501    0  0.00000000000E+00  0.00000000000E+00  0.95435740752E+02  0.95435740752E+02  0.00000000000E+00 0.  1.
         -4   -1    0    0    0  501 -0.00000000000E+00 -0.00000000000E+00 -0.25537309817E+03  0.25537309817E+03  0.00000000000E+00 0.  1.
         25    1    1    2    0    0 -0.35350108390E+02  0.66996910468E+02 -0.68636161034E+01  0.14207506960E+03  0.12000000000E+03 0.  0.
         25    1    1    2    0    0  0.35350108390E+02 -0.66996910468E+02 -0.15307374131E+03  0.20873376932E+03  0.12000000000E+03 0.  0.
<mgrwt>
<rscale>  0 0.31222890E+03</rscale>
<asrwt>0</asrwt>
<pdfrwt beam="1">  1        4 0.14682422E-01 0.31222890E+03</pdfrwt>
<pdfrwt beam="2">  1       -4 0.39288169E-01 0.31222890E+03</pdfrwt>
<totfact> 0.46933659E+02</totfact>
</mgrwt>
</event>
<event>
 4    1  0.1866622E-004  0.2731989E+03  0.7818608E-02  0.1099463E+00
         -2   -1    0    0    0  501 -0.00000000000E+00  0.00000000000E+00  0.74103134249E+03  0.74103134249E+03  0.00000000000E+00 0. -1.
          2   -1    0    0  501    0  0.00000000000E+00 -0.00000000000E+00 -0.25180330414E+02  0.25180330414E+02  0.00000000000E+00 0. -1.
         25    1    1    2    0    0 -0.50000940712E+02 -0.41894600087E+02  0.36364746764E+03  0.38845171169E+03  0.12000000000E+03 0.  0.
         25    1    1    2    0    0  0.50000940712E+02  0.41894600087E+02  0.35220354444E+03  0.37775996122E+03  0.12000000000E+03 0.  0.
<mgrwt>
<rscale>  0 0.27319893E+03</rscale>
<asrwt>0</asrwt>
<pdfrwt beam="1">  1        2 0.38738976E-02 0.27319893E+03</pdfrwt>
<pdfrwt beam="2">  1       -2 0.11400480E+00 0.27319893E+03</pdfrwt>
<totfact> 0.13902932E+03</totfact>
</mgrwt>
</event>
<event>
 4    1  0.1866622E-004  0.2455834E+03  0.7818608E-02  0.1116128E+00
         -3   -1    0    0    0  501 -0.00000000000E+00  0.00000000000E+00  0.21729499183E+02  0.21729499183E+02  0.00000000000E+00 0.  1.
          3   -1    0    0  501    0  0.00000000000E+00 -0.00000000000E+00 -0.69388632834E+03  0.69388632834E+03  0.00000000000E+00 0.  1.
         25    1    1    2    0    0 -0.99027071472E+01  0.18256672420E+02 -0.38182198847E+03  0.40077350284E+03  0.12000000000E+03 0.  0.
         25    1    1    2    0    0  0.99027071472E+01 -0.18256672420E+02 -0.29033484068E+03  0.31484232468E+03  0.12000000000E+03 0.  0.
<mgrwt>
<rscale>  0 0.24558341E+03</rscale>
<asrwt>0</asrwt>
<pdfrwt beam="1">  1        3 0.10675174E+00 0.24558341E+03</pdfrwt>
<pdfrwt beam="2">  1       -3 0.33429999E-02 0.24558341E+03</pdfrwt>
<totfact> 0.84215104E+02</totfact>
</mgrwt>
</event>
<event>
 4    1  0.1866622E-004  0.2643225E+03  0.7818608E-02  0.1104574E+00
          1   -1    0    0  501    0  0.00000000000E+00  0.00000000000E+00  0.62749672657E+03  0.62749672657E+03  0.00000000000E+00 0.  1.
         -1   -1    0    0    0  501 -0.00000000000E+00 -0.00000000000E+00 -0.27835363764E+02  0.27835363764E+02  0.00000000000E+00 0.  1.
         25    1    1    2    0    0 -0.13706117151E+02  0.25358647865E+02  0.41705890178E+03  0.43493568056E+03  0.12000000000E+03 0.  0.
         25    1    1    2    0    0  0.13706117151E+02 -0.25358647865E+02  0.18260246103E+03  0.22039640977E+03  0.12000000000E+03 0.  0.
<mgrwt>
<rscale>  0 0.26432253E+03</rscale>
<asrwt>0</asrwt>
<pdfrwt beam="1">  1        1 0.96537948E-01 0.26432253E+03</pdfrwt>
<pdfrwt beam="2">  1       -1 0.42823641E-02 0.26432253E+03</pdfrwt>
<totfact> 0.72943810E+03</totfact>
</mgrwt>
</event>
<event>
 4    1  0.1866622E-004  0.2444252E+03  0.7818608E-02  0.1116879E+00
         -3   -1    0    0    0  501 -0.00000000000E+00  0.00000000000E+00  0.58933311769E+02  0.58933311769E+02  0.00000000000E+00 0. -1.
          3   -1    0    0  501    0  0.00000000000E+00 -0.00000000000E+00 -0.25343767368E+03  0.25343767368E+03  0.00000000000E+00 0. -1.
         25    1    1    2    0    0 -0.47279047631E+01  0.14288750476E+02 -0.11973158588E+03  0.17018276685E+03  0.12000000000E+03 0.  0.
         25    1    1    2    0    0  0.47279047631E+01 -0.14288750476E+02 -0.74772776026E+02  0.14218821860E+03  0.12000000000E+03 0.  0.
<mgrwt>
<rscale>  0 0.24442522E+03</rscale>
<asrwt>0</asrwt>
<pdfrwt beam="1">  1        3 0.38990412E-01 0.24442522E+03</pdfrwt>
<pdfrwt beam="2">  1       -3 0.90666633E-02 0.24442522E+03</pdfrwt>
<totfact> 0.14225646E+03</totfact>
</mgrwt>
</event>
<event>
 4    1  0.1866622E-004  0.3101341E+03  0.7818608E-02  0.1080282E+00
         -1   -1    0    0    0  501 -0.00000000000E+00  0.00000000000E+00  0.11131573032E+03  0.11131573032E+03  0.00000000000E+00 0.  1.
          1   -1    0    0  501    0  0.00000000000E+00 -0.00000000000E+00 -0.21601425616E+03  0.21601425616E+03  0.00000000000E+00 0.  1.
         25    1    1    2    0    0 -0.67051477446E+02 -0.59361467996E+02 -0.94910081094E+02  0.17727833484E+03  0.12000000000E+03 0.  0.
         25    1    1    2    0    0  0.67051477446E+02  0.59361467996E+02 -0.97884447464E+01  0.15005165164E+03  0.12000000000E+03 0.  0.
<mgrwt>
<rscale>  0 0.31013407E+03</rscale>
<asrwt>0</asrwt>
<pdfrwt beam="1">  1        1 0.33232963E-01 0.31013407E+03</pdfrwt>
<pdfrwt beam="2">  1       -1 0.17125497E-01 0.31013407E+03</pdfrwt>
<totfact> 0.34497140E+03</totfact>
</mgrwt>
</event>
<event>
 4    1  0.1866622E-004  0.2472171E+03  0.7818608E-02  0.1115076E+00
         -2   -1    0    0    0  501 -0.00000000000E+00  0.00000000000E+00  0.62778750430E+01  0.62778750430E+01  0.00000000000E+00 0. -1.
          2   -1    0    0  501    0  0.00000000000E+00 -0.00000000000E+00 -0.24337969943E+04  0.24337969943E+04  0.00000000000E+00 0. -1.
         25    1    1    2    0    0 -0.87050673319E+01 -0.28341691416E+02 -0.12158238286E+04  0.12220910816E+04  0.12000000000E+03 0.  0.
         25    1    1    2    0    0  0.87050673319E+01  0.28341691416E+02 -0.12116952906E+04  0.12179837877E+04  0.12000000000E+03 0.  0.
<mgrwt>
<rscale>  0 0.24721710E+03</rscale>
<asrwt>0</asrwt>
<pdfrwt beam="1">  1        2 0.37443039E+00 0.24721710E+03</pdfrwt>
<pdfrwt beam="2">  1       -2 0.96582672E-03 0.24721710E+03</pdfrwt>
<totfact> 0.97660936E+03</totfact>
</mgrwt>
</event>
<event>
 4    1  0.1866622E-004  0.2533641E+03  0.7818608E-02  0.1111197E+00
          2   -1    0    0  501    0  0.00000000000E+00  0.00000000000E+00  0.13438413775E+04  0.13438413775E+04  0.00000000000E+00 0. -1.
         -2   -1    0    0    0  501 -0.00000000000E+00 -0.00000000000E+00 -0.11942140073E+02  0.11942140073E+02  0.00000000000E+00 0. -1.
         25    1    1    2    0    0  0.25482290189E+01  0.19445795714E+02  0.47572404684E+03  0.49101731251E+03  0.12000000000E+03 0.  0.
         25    1    1    2    0    0 -0.25482290189E+01 -0.19445795714E+02  0.85617519058E+03  0.86476620506E+03  0.12000000000E+03 0.  0.
<mgrwt>
<rscale>  0 0.25336410E+03</rscale>
<asrwt>0</asrwt>
<pdfrwt beam="1">  1        2 0.20674471E+00 0.25336410E+03</pdfrwt>
<pdfrwt beam="2">  1       -2 0.18372534E-02 0.25336410E+03</pdfrwt>
<totfact> 0.14481188E+04</totfact>
</mgrwt>
</event>
<event>
 4    1  0.1866622E-004  0.2858511E+03  0.7818608E-02  0.1092535E+00
          3   -1    0    0  501    0  0.00000000000E+00  0.00000000000E+00  0.27155831450E+03  0.27155831450E+03  0.00000000000E+00 0. -1.
         -3   -1    0    0    0  501 -0.00000000000E+00 -0.00000000000E+00 -0.75224022640E+02  0.75224022640E+02  0.00000000000E+00 0. -1.
         25    1    1    2    0    0 -0.19037135894E+02 -0.45495741160E+02  0.17091041132E+03  0.21457549651E+03  0.12000000000E+03 0.  0.
         25    1    1    2    0    0  0.19037135894E+02  0.45495741160E+02  0.25423880541E+02  0.13220684063E+03  0.12000000000E+03 0.  0.
<mgrwt>
<rscale>  0 0.28585107E+03</rscale>
<asrwt>0</asrwt>
<pdfrwt beam="1">  1        3 0.41778202E-01 0.28585107E+03</pdfrwt>
<pdfrwt beam="2">  1       -3 0.11572927E-01 0.28585107E+03</pdfrwt>
<totfact> 0.84129508E+02</totfact>
</mgrwt>
</event>
<event>
 4    1  0.1866622E-004  0.3126346E+03  0.7818608E-02  0.1079090E+00
          1   -1    0    0  501    0  0.00000000000E+00  0.00000000000E+00  0.66868212986E+03  0.66868212986E+03  0.00000000000E+00 0.  1.
         -1   -1    0    0    0  501 -0.00000000000E+00 -0.00000000000E+00 -0.36542183951E+02  0.36542183951E+02  0.00000000000E+00 0.  1.
         25    1    1    2    0    0  0.49065787540E+02  0.69146470696E+02  0.43641817992E+03  0.46048834261E+03  0.12000000000E+03 0.  0.
         25    1    1    2    0    0 -0.49065787540E+02 -0.69146470696E+02  0.19572176599E+03  0.24473597120E+03  0.12000000000E+03 0.  0.
<mgrwt>
<rscale>  0 0.31263465E+03</rscale>
<asrwt>0</asrwt>
<pdfrwt beam="1">  1        1 0.10287416E+00 0.31263465E+03</pdfrwt>
<pdfrwt beam="2">  1       -1 0.56218749E-02 0.31263465E+03</pdfrwt>
<totfact> 0.44488223E+03</totfact>
</mgrwt>
</event>
<event>
 4    1  0.1866622E-004  0.3565152E+03  0.7818608E-02  0.1059972E+00
         -4   -1    0    0    0  501 -0.00000000000E+00  0.00000000000E+00  0.20534271743E+03  0.20534271743E+03  0.00000000000E+00 0. -1.
          4   -1    0    0  501    0  0.00000000000E+00 -0.00000000000E+00 -0.15474504473E+03  0.15474504473E+03  0.00000000000E+00 0. -1.
         25    1    1    2    0    0 -0.25644963136E+02 -0.72544075661E+02 -0.82803883956E+02  0.16485384511E+03  0.12000000000E+03 0.  0.
         25    1    1    2    0    0  0.25644963136E+02  0.72544075661E+02  0.13340155666E+03  0.19523391705E+03  0.12000000000E+03 0.  0.
<mgrwt>
<rscale>  0 0.35651518E+03</rscale>
<asrwt>0</asrwt>
<pdfrwt beam="1">  1        4 0.23806930E-01 0.35651518E+03</pdfrwt>
<pdfrwt beam="2">  1       -4 0.31591187E-01 0.35651518E+03</pdfrwt>
<totfact> 0.30452459E+02</totfact>
</mgrwt>
</event>
<event>
 4    1  0.1866622E-004  0.2485649E+03  0.7818608E-02  0.1114215E+00
         -2   -1    0    0    0  501 -0.00000000000E+00  0.00000000000E+00  0.11250604236E+02  0.11250604236E+02  0.00000000000E+00 0. -1.
          2   -1    0    0  501    0  0.00000000000E+00 -0.00000000000E+00 -0.13729157152E+04  0.13729157152E+04  0.00000000000E+00 0. -1.
         25    1    1    2    0    0  0.98624360215E+01 -0.21872759910E+02 -0.56005023982E+03  0.57326429890E+03  0.12000000000E+03 0.  0.
         25    1    1    2    0    0 -0.98624360215E+01  0.21872759910E+02 -0.80161487117E+03  0.81090202056E+03  0.12000000000E+03 0.  0.
<mgrwt>
<rscale>  0 0.24856493E+03</rscale>
<asrwt>0</asrwt>
<pdfrwt beam="1">  1        2 0.21121783E+00 0.24856493E+03</pdfrwt>
<pdfrwt beam="2">  1       -2 0.17308620E-02 0.24856493E+03</pdfrwt>
<totfact> 0.15226915E+04</totfact>
</mgrwt>
</event>
<event>
 4    1  0.1866622E-004  0.2484435E+03  0.7818608E-02  0.1114292E+00
          1   -1    0    0  501    0  0.00000000000E+00  0.00000000000E+00  0.29843220211E+04  0.29843220211E+04  0.00000000000E+00 0.  1.
         -1   -1    0    0    0  501 -0.00000000000E+00 -0.00000000000E+00 -0.51707034722E+01  0.51707034722E+01  0.00000000000E+00 0.  1.
         25    1    1    2    0    0  0.14433036270E+01 -0.14466693086E+02  0.11450743067E+04  0.11514367270E+04  0.12000000000E+03 0.  0.
         25    1    1    2    0    0 -0.14433036270E+01  0.14466693086E+02  0.18340770110E+04  0.18380559976E+04  0.12000000000E+03 0.  0.
<mgrwt>
<rscale>  0 0.24844351E+03</rscale>
<asrwt>0</asrwt>
<pdfrwt beam="1">  1        1 0.45912509E+00 0.24844351E+03</pdfrwt>
<pdfrwt beam="2">  1       -1 0.79549523E-03 0.24844351E+03</pdfrwt>
<totfact> 0.19478978E+03</totfact>
</mgrwt>
</event>
<event>
 4    1  0.1866622E-004  0.2950756E+03  0.7818608E-02  0.1087728E+00
         -2   -1    0    0    0  501 -0.00000000000E+00  0.00000000000E+00  0.11086849955E+03  0.11086849955E+03  0.00000000000E+00 0. -1.
          2   -1    0    0  501    0  0.00000000000E+00 -0.00000000000E+00 -0.19633538611E+03  0.19633538611E+03  0.00000000000E+00 0. -1.
         25    1    1    2    0    0 -0.52471411333E+02  0.49283804915E+02 -0.91401679842E+02  0.16714188437E+03  0.12000000000E+03 0.  0.
         25    1    1    2    0    0  0.52471411333E+02 -0.49283804915E+02  0.59347932855E+01  0.14006200129E+03  0.12000000000E+03 0.  0.
<mgrwt>
<rscale>  0 0.29507565E+03</rscale>
<asrwt>0</asrwt>
<pdfrwt beam="1">  1        2 0.30205444E-01 0.29507565E+03</pdfrwt>
<pdfrwt beam="2">  1       -2 0.17056692E-01 0.29507565E+03</pdfrwt>
<totfact> 0.47858406E+03</totfact>
</mgrwt>
</event>
<event>
 4    1  0.1866622E-004  0.2510135E+03  0.7818608E-02  0.1112666E+00
          2   -1    0    0  501    0  0.00000000000E+00  0.00000000000E+00  0.85660262502E+03  0.85660262502E+03  0.00000000000E+00 0.  1.
         -2   -1    0    0    0  501 -0.00000000000E+00 -0.00000000000E+00 -0.18388854903E+02  0.18388854903E+02  0.00000000000E+00 0.  1.
         25    1    1    2    0    0 -0.77797499977E+01 -0.17003416786E+02  0.52946538773E+03  0.54321564548E+03  0.12000000000E+03 0.  0.
         25    1    1    2    0    0  0.77797499977E+01  0.17003416786E+02  0.30874838238E+03  0.33177583444E+03  0.12000000000E+03 0.  0.
<mgrwt>
<rscale>  0 0.25101348E+03</rscale>
<asrwt>0</asrwt>
<pdfrwt beam="1">  1        2 0.13178499E+00 0.25101348E+03</pdfrwt>
<pdfrwt beam="2">  1       -2 0.28290553E-02 0.25101348E+03</pdfrwt>
<totfact> 0.14882473E+04</totfact>
</mgrwt>
</event>
<event>
 4    1  0.1866622E-004  0.3603160E+03  0.7818608E-02  0.1058459E+00
          1   -1    0    0  501    0  0.00000000000E+00  0.00000000000E+00  0.78551278678E+03  0.78551278678E+03  0.00000000000E+00 0. -1.
         -1   -1    0    0    0  501 -0.00000000000E+00 -0.00000000000E+00 -0.41319383642E+02  0.41319383642E+02  0.00000000000E+00 0. -1.
         25    1    1    2    0    0  0.38961771237E+02  0.18142169623E+02  0.79935910572E+02  0.15045566701E+03  0.12000000000E+03 0.  0.
         25    1    1    2    0    0 -0.38961771237E+02 -0.18142169623E+02  0.66425749257E+03  0.67637650341E+03  0.12000000000E+03 0.  0.
<mgrwt>
<rscale>  0 0.36031600E+03</rscale>
<asrwt>0</asrwt>
<pdfrwt beam="1">  1        1 0.12084811E+00 0.36031600E+03</pdfrwt>
<pdfrwt beam="2">  1       -1 0.63568288E-02 0.36031600E+03</pdfrwt>
<totfact> 0.29096256E+03</totfact>
</mgrwt>
</event>
<event>
 4    1  0.1866622E-004  0.2859229E+03  0.7818608E-02  0.1092497E+00
         -2   -1    0    0    0  501 -0.00000000000E+00  0.00000000000E+00  0.38635114450E+02  0.38635114450E+02  0.00000000000E+00 0. -1.
          2   -1    0    0  501    0  0.00000000000E+00 -0.00000000000E+00 -0.52900000829E+03  0.52900000829E+03  0.00000000000E+00 0. -1.
         25    1    1    2    0    0 -0.58760643839E+02 -0.47767441107E+02 -0.21060025107E+03  0.25394292163E+03  0.12000000000E+03 0.  0.
         25    1    1    2    0    0  0.58760643839E+02  0.47767441107E+02 -0.27976464277E+03  0.31369220111E+03  0.12000000000E+03 0.  0.
<mgrwt>
<rscale>  0 0.28592290E+03</rscale>
<asrwt>0</asrwt>
<pdfrwt beam="1">  1        2 0.81384620E-01 0.28592290E+03</pdfrwt>
<pdfrwt beam="2">  1       -2 0.59438635E-02 0.28592290E+03</pdfrwt>
<totfact> 0.87367882E+03</totfact>
</mgrwt>
</event>
<event>
 4    1  0.1866622E-004  0.3839849E+03  0.7818608E-02  0.1049471E+00
         -1   -1    0    0    0  501 -0.00000000000E+00  0.00000000000E+00  0.67018944614E+02  0.67018944614E+02  0.00000000000E+00 0. -1.
          1   -1    0    0  501    0  0.00000000000E+00 -0.00000000000E+00 -0.55001027878E+03  0.55001027878E+03  0.00000000000E+00 0. -1.
         25    1    1    2    0    0  0.13844605584E+03 -0.47468861825E+01 -0.33340284119E+03  0.38045669638E+03  0.12000000000E+03 0.  0.
         25    1    1    2    0    0 -0.13844605584E+03  0.47468861825E+01 -0.14958849298E+03  0.23657252702E+03  0.12000000000E+03 0.  0.
<mgrwt>
<rscale>  0 0.38398494E+03</rscale>
<asrwt>0</asrwt>
<pdfrwt beam="1">  1        1 0.84616966E-01 0.38398494E+03</pdfrwt>
<pdfrwt beam="2">  1       -1 0.10310607E-01 0.38398494E+03</pdfrwt>
<totfact> 0.23148033E+03</totfact>
</mgrwt>
</event>
<event>
 4    1  0.1866622E-004  0.3379133E+03  0.7818608E-02  0.1067688E+00
         -1   -1    0    0    0  501 -0.00000000000E+00  0.00000000000E+00  0.11201177703E+03  0.11201177703E+03  0.00000000000E+00 0. -1.
          1   -1    0    0  501    0  0.00000000000E+00 -0.00000000000E+00 -0.25485136013E+03  0.25485136013E+03  0.00000000000E+00 0. -1.
         25    1    1    2    0    0  0.14852564478E+02  0.86315692001E+02  0.15943823328E+02  0.14941620682E+03  0.12000000000E+03 0.  0.
         25    1    1    2    0    0 -0.14852564478E+02 -0.86315692001E+02 -0.15878340644E+03  0.21744693034E+03  0.12000000000E+03 0.  0.
<mgrwt>
<rscale>  0 0.33791332E+03</rscale>
<asrwt>0</asrwt>
<pdfrwt beam="1">  1        1 0.39207902E-01 0.33791332E+03</pdfrwt>
<pdfrwt beam="2">  1       -1 0.17232581E-01 0.33791332E+03</pdfrwt>
<totfact> 0.27764255E+03</totfact>
</mgrwt>
</event>
<event>
 4    1  0.1866622E-004  0.4591367E+03  0.7818608E-02  0.1025032E+00
          1   -1    0    0  501    0  0.00000000000E+00  0.00000000000E+00  0.69953386782E+03  0.69953386782E+03  0.00000000000E+00 0. -1.
         -1   -1    0    0    0  501 -0.00000000000E+00 -0.00000000000E+00 -0.75338222380E+02  0.75338222380E+02  0.00000000000E+00 0. -1.
         25    1    1    2    0    0 -0.90044764289E+00  0.84799760014E+02  0.60976899006E+03  0.62722406790E+03  0.12000000000E+03 0.  0.
         25    1    1    2    0    0  0.90044764289E+00 -0.84799760014E+02  0.14426655374E+02  0.14764802230E+03  0.12000000000E+03 0.  0.
<mgrwt>
<rscale>  0 0.45913675E+03</rscale>
<asrwt>0</asrwt>
<pdfrwt beam="1">  1        1 0.10762059E+00 0.45913675E+03</pdfrwt>
<pdfrwt beam="2">  1       -1 0.11590496E-01 0.45913675E+03</pdfrwt>
<totfact> 0.13667209E+03</totfact>
</mgrwt>
</event>
<event>
 4    1  0.1866622E-004  0.3231680E+03  0.7818608E-02  0.1074200E+00
         -1   -1    0    0    0  501 -0.00000000000E+00  0.00000000000E+00  0.35774303878E+02  0.35774303878E+02  0.00000000000E+00 0. -1.
          1   -1    0    0  501    0  0.00000000000E+00 -0.00000000000E+00 -0.72983646294E+03  0.72983646294E+03  0.00000000000E+00 0. -1.
         25    1    1    2    0    0 -0.94661499691E+02  0.45629063281E+02 -0.28586566070E+03  0.32735605525E+03  0.12000000000E+03 0.  0.
         25    1    1    2    0    0  0.94661499691E+02 -0.45629063281E+02 -0.40819649837E+03  0.43825471158E+03  0.12000000000E+03 0.  0.
<mgrwt>
<rscale>  0 0.32316801E+03</rscale>
<asrwt>0</asrwt>
<pdfrwt beam="1">  1        1 0.11228253E+00 0.32316801E+03</pdfrwt>
<pdfrwt beam="2">  1       -1 0.55037391E-02 0.32316801E+03</pdfrwt>
<totfact> 0.40426451E+03</totfact>
</mgrwt>
</event>
<event>
 4    1  0.1866622E-004  0.2698354E+03  0.7818608E-02  0.1101374E+00
          1   -1    0    0  501    0  0.00000000000E+00  0.00000000000E+00  0.30568062336E+02  0.30568062336E+02  0.00000000000E+00 0.  1.
         -1   -1    0    0    0  501 -0.00000000000E+00 -0.00000000000E+00 -0.59548367244E+03  0.59548367244E+03  0.00000000000E+00 0.  1.
         25    1    1    2    0    0  0.36556111774E+01  0.60871868806E+02 -0.30372641745E+03  0.33221752597E+03  0.12000000000E+03 0.  0.
         25    1    1    2    0    0 -0.36556111774E+01 -0.60871868806E+02 -0.26118919265E+03  0.29383420880E+03  0.12000000000E+03 0.  0.
<mgrwt>
<rscale>  0 0.26983537E+03</rscale>
<asrwt>0</asrwt>
<pdfrwt beam="1">  1        1 0.47027791E-02 0.26983537E+03</pdfrwt>
<pdfrwt beam="2">  1       -1 0.91612867E-01 0.26983537E+03</pdfrwt>
<totfact> 0.22120985E+03</totfact>
</mgrwt>
</event>
<event>
 4    1  0.1866622E-004  0.2770124E+03  0.7818608E-02  0.1097332E+00
          1   -1    0    0  501    0  0.00000000000E+00  0.00000000000E+00  0.13861428866E+03  0.13861428866E+03  0.00000000000E+00 0.  1.
         -1   -1    0    0    0  501 -0.00000000000E+00 -0.00000000000E+00 -0.13839822534E+03  0.13839822534E+03  0.00000000000E+00 0.  1.
         25    1    1    2    0    0 -0.11769327405E+02 -0.41851400927E+02 -0.53687102796E+02  0.13846429805E+03  0.12000000000E+03 0.  0.
         25    1    1    2    0    0  0.11769327405E+02  0.41851400927E+02  0.53903166117E+02  0.13854821596E+03  0.12000000000E+03 0.  0.
<mgrwt>
<rscale>  0 0.27701243E+03</rscale>
<asrwt>0</asrwt>
<pdfrwt beam="1">  1        1 0.21325275E-01 0.27701243E+03</pdfrwt>
<pdfrwt beam="2">  1       -1 0.21292035E-01 0.27701243E+03</pdfrwt>
<totfact> 0.42483851E+03</totfact>
</mgrwt>
</event>
<event>
 4    1  0.1866622E-004  0.2420008E+03  0.7818608E-02  0.1118467E+00
          1   -1    0    0  501    0  0.00000000000E+00  0.00000000000E+00  0.27895720738E+02  0.27895720738E+02  0.00000000000E+00 0.  1.
         -1   -1    0    0    0  501 -0.00000000000E+00 -0.00000000000E+00 -0.52485081243E+03  0.52485081243E+03  0.00000000000E+00 0.  1.
         25    1    1    2    0    0  0.80597757177E+01  0.95760126824E+01 -0.22748998151E+03  0.25750408092E+03  0.12000000000E+03 0.  0.
         25    1    1    2    0    0 -0.80597757177E+01 -0.95760126824E+01 -0.26946511018E+03  0.29524245224E+03  0.12000000000E+03 0.  0.
<mgrwt>
<rscale>  0 0.24200076E+03</rscale>
<asrwt>0</asrwt>
<pdfrwt beam="1">  1        1 0.42916500E-02 0.24200076E+03</pdfrwt>
<pdfrwt beam="2">  1       -1 0.80746267E-01 0.24200076E+03</pdfrwt>
<totfact> 0.32711141E+03</totfact>
</mgrwt>
</event>
<event>
 4    1  0.1866622E-004  0.3626496E+03  0.7818608E-02  0.1057540E+00
          1   -1    0    0  501    0  0.00000000000E+00  0.00000000000E+00  0.75028316489E+03  0.75028316489E+03  0.00000000000E+00 0. -1.
         -1   -1    0    0    0  501 -0.00000000000E+00 -0.00000000000E+00 -0.43821701717E+02  0.43821701717E+02  0.00000000000E+00 0. -1.
         25    1    1    2    0    0  0.11208058163E+03  0.70712028868E+01  0.52095073273E+03  0.54626158992E+03  0.12000000000E+03 0.  0.
         25    1    1    2    0    0 -0.11208058163E+03 -0.70712028868E+01  0.18551073045E+03  0.24784327669E+03  0.12000000000E+03 0.  0.
<mgrwt>
<rscale>  0 0.36264961E+03</rscale>
<asrwt>0</asrwt>
<pdfrwt beam="1">  1        1 0.11542817E+00 0.36264961E+03</pdfrwt>
<pdfrwt beam="2">  1       -1 0.67418008E-02 0.36264961E+03</pdfrwt>
<totfact> 0.28533803E+03</totfact>
</mgrwt>
</event>
<event>
 4    1  0.1866622E-004  0.2738135E+03  0.7818608E-02  0.1099117E+00
          1   -1    0    0  501    0  0.00000000000E+00  0.00000000000E+00  0.69254124964E+03  0.69254124964E+03  0.00000000000E+00 0. -1.
         -1   -1    0    0    0  501 -0.00000000000E+00 -0.00000000000E+00 -0.27064760333E+02  0.27064760333E+02  0.00000000000E+00 0. -1.
         25    1    1    2    0    0  0.53910659179E+02  0.28725562358E+02  0.26772582016E+03  0.29968088342E+03  0.12000000000E+03 0.  0.
         25    1    1    2    0    0 -0.53910659179E+02 -0.28725562358E+02  0.39775066915E+03  0.41992512656E+03  0.12000000000E+03 0.  0.
<mgrwt>
<rscale>  0 0.27381353E+03</rscale>
<asrwt>0</asrwt>
<pdfrwt beam="1">  1        1 0.10654479E+00 0.27381353E+03</pdfrwt>
<pdfrwt beam="2">  1       -1 0.41638098E-02 0.27381353E+03</pdfrwt>
<totfact> 0.66127914E+03</totfact>
</mgrwt>
</event>
<event>
 4    1  0.1866622E-004  0.2527897E+03  0.7818608E-02  0.1111554E+00
         -1   -1    0    0    0  501 -0.00000000000E+00  0.00000000000E+00  0.43789612014E+03  0.43789612014E+03  0.00000000000E+00 0.  1.
          1   -1    0    0  501    0  0.00000000000E+00 -0.00000000000E+00 -0.36482756320E+02  0.36482756320E+02  0.00000000000E+00 0.  1.
         25    1    1    2    0    0 -0.12757703197E+02 -0.92657813830E+01  0.13234565201E+03  0.17934320534E+03  0.12000000000E+03 0.  0.
         25    1    1    2    0    0  0.12757703197E+02  0.92657813830E+01  0.26906771180E+03  0.29503567112E+03  0.12000000000E+03 0.  0.
<mgrwt>
<rscale>  0 0.25278969E+03</rscale>
<asrwt>0</asrwt>
<pdfrwt beam="1">  1        1 0.56127321E-02 0.25278969E+03</pdfrwt>
<pdfrwt beam="2">  1       -1 0.67368630E-01 0.25278969E+03</pdfrwt>
<totfact> 0.32600299E+03</totfact>
</mgrwt>
</event>
<event>
 4    1  0.1866622E-004  0.2600957E+03  0.7818608E-02  0.1107086E+00
         -2   -1    0    0    0  501 -0.00000000000E+00  0.00000000000E+00  0.49532856260E+02  0.49532856260E+02  0.00000000000E+00 0. -1.
          2   -1    0    0  501    0  0.00000000000E+00 -0.00000000000E+00 -0.34143884604E+03  0.34143884604E+03  0.00000000000E+00 0. -1.
         25    1    1    2    0    0  0.91449376184E+01  0.43372230117E+02 -0.18113074887E+03  0.22175014863E+03  0.12000000000E+03 0.  0.
         25    1    1    2    0    0 -0.91449376184E+01 -0.43372230117E+02 -0.11077524091E+03  0.16922155367E+03  0.12000000000E+03 0.  0.
<mgrwt>
<rscale>  0 0.26009568E+03</rscale>
<asrwt>0</asrwt>
<pdfrwt beam="1">  1        2 0.52529053E-01 0.26009568E+03</pdfrwt>
<pdfrwt beam="2">  1       -2 0.76204395E-02 0.26009568E+03</pdfrwt>
<totfact> 0.95862089E+03</totfact>
</mgrwt>
</event>
<event>
 4    1  0.1866622E-004  0.2648190E+03  0.7818608E-02  0.1104282E+00
          3   -1    0    0  501    0  0.00000000000E+00  0.00000000000E+00  0.26373375239E+02  0.26373375239E+02  0.00000000000E+00 0. -1.
         -3   -1    0    0    0  501 -0.00000000000E+00 -0.00000000000E+00 -0.66477185655E+03  0.66477185655E+03  0.00000000000E+00 0. -1.
         25    1    1    2    0    0 -0.10438964101E+02 -0.30952952716E+02 -0.43780433703E+03  0.45512602077E+03  0.12000000000E+03 0.  0.
         25    1    1    2    0    0  0.10438964101E+02  0.30952952716E+02 -0.20059414428E+03  0.23601921103E+03  0.12000000000E+03 0.  0.
<mgrwt>
<rscale>  0 0.26481901E+03</rscale>
<asrwt>0</asrwt>
<pdfrwt beam="1">  1        3 0.40574421E-02 0.26481901E+03</pdfrwt>
<pdfrwt beam="2">  1       -3 0.10227260E+00 0.26481901E+03</pdfrwt>
<totfact> 0.68988059E+02</totfact>
</mgrwt>
</event>
<event>
 4    1  0.1866622E-004  0.3459452E+03  0.7818608E-02  0.1064292E+00
         -2   -1    0    0    0  501 -0.00000000000E+00  0.00000000000E+00  0.48024396370E+02  0.48024396370E+02  0.00000000000E+00 0. -1.
          2   -1    0    0  501    0  0.00000000000E+00 -0.00000000000E+00 -0.62300653507E+03  0.62300653507E+03  0.00000000000E+00 0. -1.
         25    1    1    2    0    0  0.17777127676E+02  0.10230806091E+03 -0.15399569439E+03  0.22112810650E+03  0.12000000000E+03 0.  0.
         25    1    1    2    0    0 -0.17777127676E+02 -0.10230806091E+03 -0.42098644431E+03  0.44990282494E+03  0.12000000000E+03 0.  0.
<mgrwt>
<rscale>  0 0.34594516E+03</rscale>
<asrwt>0</asrwt>
<pdfrwt beam="1">  1        2 0.95847154E-01 0.34594516E+03</pdfrwt>
<pdfrwt beam="2">  1       -2 0.73883691E-02 0.34594516E+03</pdfrwt>
<totfact> 0.51895386E+03</totfact>
</mgrwt>
</event>
<event>
 4    1  0.1866622E-004  0.3994708E+03  0.7818608E-02  0.1043963E+00
          1   -1    0    0  501    0  0.00000000000E+00  0.00000000000E+00  0.71909518105E+02  0.71909518105E+02  0.00000000000E+00 0. -1.
         -1   -1    0    0    0  501 -0.00000000000E+00 -0.00000000000E+00 -0.55478376241E+03  0.55478376241E+03  0.00000000000E+00 0. -1.
         25    1    1    2    0    0  0.14097143109E+03 -0.73573489728E+02 -0.21879892309E+03  0.29590365243E+03  0.12000000000E+03 0.  0.
         25    1    1    2    0    0 -0.14097143109E+03  0.73573489728E+02 -0.26407532122E+03  0.33078962809E+03  0.12000000000E+03 0.  0.
<mgrwt>
<rscale>  0 0.39947081E+03</rscale>
<asrwt>0</asrwt>
<pdfrwt beam="1">  1        1 0.11063003E-01 0.39947081E+03</pdfrwt>
<pdfrwt beam="2">  1       -1 0.85351348E-01 0.39947081E+03</pdfrwt>
<totfact> 0.79884349E+02</totfact>
</mgrwt>
</event>
<event>
 4    1  0.1866622E-004  0.2989220E+03  0.7818608E-02  0.1085781E+00
          1   -1    0    0  501    0  0.00000000000E+00  0.00000000000E+00  0.47623298082E+02  0.47623298082E+02  0.00000000000E+00 0.  1.
         -1   -1    0    0    0  501 -0.00000000000E+00 -0.00000000000E+00 -0.46906853472E+03  0.46906853472E+03  0.00000000000E+00 0.  1.
         25    1    1    2    0    0 -0.57561568078E+02 -0.43261022209E+01 -0.32803968730E+03  0.35403684233E+03  0.12000000000E+03 0.  0.
         25    1    1    2    0    0  0.57561568078E+02  0.43261022209E+01 -0.93405549341E+02  0.16265499048E+03  0.12000000000E+03 0.  0.
<mgrwt>
<rscale>  0 0.29892200E+03</rscale>
<asrwt>0</asrwt>
<pdfrwt beam="1">  1        1 0.73266613E-02 0.29892200E+03</pdfrwt>
<pdfrwt beam="2">  1       -1 0.72164389E-01 0.29892200E+03</pdfrwt>
<totfact> 0.19786560E+03</totfact>
</mgrwt>
</event>
<event>
 4    1  0.1866622E-004  0.3272211E+03  0.7818608E-02  0.1072373E+00
          2   -1    0    0  501    0  0.00000000000E+00  0.00000000000E+00  0.40697089527E+03  0.40697089527E+03  0.00000000000E+00 0. -1.
         -2   -1    0    0    0  501 -0.00000000000E+00 -0.00000000000E+00 -0.65774761816E+02  0.65774761816E+02  0.00000000000E+00 0. -1.
         25    1    1    2    0    0 -0.44629487634E+02 -0.29560760562E+02  0.31143341193E+03  0.33801834240E+03  0.12000000000E+03 0.  0.
         25    1    1    2    0    0  0.44629487634E+02  0.29560760562E+02  0.29762721529E+02  0.13472731469E+03  0.12000000000E+03 0.  0.
<mgrwt>
<rscale>  0 0.32722111E+03</rscale>
<asrwt>0</asrwt>
<pdfrwt beam="1">  1        2 0.62610906E-01 0.32722111E+03</pdfrwt>
<pdfrwt beam="2">  1       -2 0.10119194E-01 0.32722111E+03</pdfrwt>
<totfact> 0.51070828E+03</totfact>
</mgrwt>
</event>
<event>
 4    1  0.1866622E-004  0.3471649E+03  0.7818608E-02  0.1063785E+00
         -2   -1    0    0    0  501 -0.00000000000E+00  0.00000000000E+00  0.41041318825E+02  0.41041318825E+02  0.00000000000E+00 0. -1.
          2   -1    0    0  501    0  0.00000000000E+00 -0.00000000000E+00 -0.73415934731E+03  0.73415934731E+03  0.00000000000E+00 0. -1.
         25    1    1    2    0    0 -0.73243140037E+02 -0.63306220679E+02 -0.16850154725E+03  0.22839659928E+03  0.12000000000E+03 0.  0.
         25    1    1    2    0    0  0.73243140037E+02  0.63306220679E+02 -0.52461648124E+03  0.54680406686E+03  0.12000000000E+03 0.  0.
<mgrwt>
<rscale>  0 0.34716491E+03</rscale>
<asrwt>0</asrwt>
<pdfrwt beam="1">  1        2 0.11294759E+00 0.34716491E+03</pdfrwt>
<pdfrwt beam="2">  1       -2 0.63140493E-02 0.34716491E+03</pdfrwt>
<totfact> 0.54307923E+03</totfact>
</mgrwt>
</event>
<event>
 4    1  0.1866622E-004  0.2851292E+03  0.7818608E-02  0.1092920E+00
         -2   -1    0    0    0  501 -0.00000000000E+00  0.00000000000E+00  0.23034992987E+02  0.23034992987E+02  0.00000000000E+00 0.  1.
          2   -1    0    0  501    0  0.00000000000E+00 -0.00000000000E+00 -0.88233860270E+03  0.88233860270E+03  0.00000000000E+00 0.  1.
         25    1    1    2    0    0 -0.39163391746E+01 -0.76486465432E+02 -0.40523153980E+03  0.42950915934E+03  0.12000000000E+03 0.  0.
         25    1    1    2    0    0  0.39163391746E+01  0.76486465432E+02 -0.45407206991E+03  0.47586443635E+03  0.12000000000E+03 0.  0.
<mgrwt>
<rscale>  0 0.28512919E+03</rscale>
<asrwt>0</asrwt>
<pdfrwt beam="1">  1        2 0.13574442E+00 0.28512919E+03</pdfrwt>
<pdfrwt beam="2">  1       -2 0.35438446E-02 0.28512919E+03</pdfrwt>
<totfact> 0.10279051E+04</totfact>
</mgrwt>
</event>
<event>
 4    1  0.1866622E-004  0.2865459E+03  0.7818608E-02  0.1092166E+00
          1   -1    0    0  501    0  0.00000000000E+00  0.00000000000E+00  0.69417450035E+03  0.69417450035E+03  0.00000000000E+00 0.  1.
         -1   -1    0    0    0  501 -0.00000000000E+00 -0.00000000000E+00 -0.29570574152E+02  0.29570574152E+02  0.00000000000E+00 0.  1.
         25    1    1    2    0    0  0.68153447195E+02 -0.32482563088E+02  0.38450203300E+03  0.40980705539E+03  0.12000000000E+03 0.  0.
         25    1    1    2    0    0 -0.68153447195E+02  0.32482563088E+02  0.28010189321E+03  0.31393801912E+03  0.12000000000E+03 0.  0.
<mgrwt>
<rscale>  0 0.28654590E+03</rscale>
<asrwt>0</asrwt>
<pdfrwt beam="1">  1        1 0.10679606E+00 0.28654590E+03</pdfrwt>
<pdfrwt beam="2">  1       -1 0.45493196E-02 0.28654590E+03</pdfrwt>
<totfact> 0.57812390E+03</totfact>
</mgrwt>
</event>
<event>
 4    1  0.1866622E-004  0.2953971E+03  0.7818608E-02  0.1087564E+00
          2   -1    0    0  501    0  0.00000000000E+00  0.00000000000E+00  0.41006514272E+03  0.41006514272E+03  0.00000000000E+00 0.  1.
         -2   -1    0    0    0  501 -0.00000000000E+00 -0.00000000000E+00 -0.53198520230E+02  0.53198520230E+02  0.00000000000E+00 0.  1.
         25    1    1    2    0    0  0.32438050260E+02  0.39269847065E+02  0.28731843975E+03  0.31550948292E+03  0.12000000000E+03 0.  0.
         25    1    1    2    0    0 -0.32438050260E+02 -0.39269847065E+02  0.69548182738E+02  0.14775418003E+03  0.12000000000E+03 0.  0.
<mgrwt>
<rscale>  0 0.29539708E+03</rscale>
<asrwt>0</asrwt>
<pdfrwt beam="1">  1        2 0.63086943E-01 0.29539708E+03</pdfrwt>
<pdfrwt beam="2">  1       -2 0.81843880E-02 0.29539708E+03</pdfrwt>
<totfact> 0.70653771E+03</totfact>
</mgrwt>
</event>
<event>
 4    1  0.1866622E-004  0.2741131E+03  0.7818608E-02  0.1098948E+00
          1   -1    0    0  501    0  0.00000000000E+00  0.00000000000E+00  0.15865156511E+04  0.15865156511E+04  0.00000000000E+00 0. -1.
         -1   -1    0    0    0  501 -0.00000000000E+00 -0.00000000000E+00 -0.11840099459E+02  0.11840099459E+02  0.00000000000E+00 0. -1.
         25    1    1    2    0    0 -0.38701894076E+02  0.46554798334E+02  0.63094962871E+03  0.64510667322E+03  0.12000000000E+03 0.  0.
         25    1    1    2    0    0  0.38701894076E+02 -0.46554798334E+02  0.94372592292E+03  0.95324907734E+03  0.12000000000E+03 0.  0.
<mgrwt>
<rscale>  0 0.27411314E+03</rscale>
<asrwt>0</asrwt>
<pdfrwt beam="1">  1        1 0.24407916E+00 0.27411314E+03</pdfrwt>
<pdfrwt beam="2">  1       -1 0.18215550E-02 0.27411314E+03</pdfrwt>
<totfact> 0.49321831E+03</totfact>
</mgrwt>
</event>
<event>
 4    1  0.1866622E-004  0.2981565E+03  0.7818608E-02  0.1086166E+00
         -2   -1    0    0    0  501 -0.00000000000E+00  0.00000000000E+00  0.77927918042E+02  0.77927918042E+02  0.00000000000E+00 0.  1.
          2   -1    0    0  501    0  0.00000000000E+00 -0.00000000000E+00 -0.28519088577E+03  0.28519088577E+03  0.00000000000E+00 0.  1.
         25    1    1    2    0    0  0.77778023142E+02 -0.28282105589E+02 -0.14166041989E+03  0.20326576924E+03  0.12000000000E+03 0.  0.
         25    1    1    2    0    0 -0.77778023142E+02  0.28282105589E+02 -0.65602547842E+02  0.15985303458E+03  0.12000000000E+03 0.  0.
<mgrwt>
<rscale>  0 0.29815655E+03</rscale>
<asrwt>0</asrwt>
<pdfrwt beam="1">  1        2 0.43875521E-01 0.29815655E+03</pdfrwt>
<pdfrwt beam="2">  1       -2 0.11988911E-01 0.29815655E+03</pdfrwt>
<totfact> 0.57027660E+03</totfact>
</mgrwt>
</event>
<event>
 4    1  0.1866622E-004  0.2894779E+03  0.7818608E-02  0.1090622E+00
          1   -1    0    0  501    0  0.00000000000E+00  0.00000000000E+00  0.37393806475E+02  0.37393806475E+02  0.00000000000E+00 0. -1.
         -1   -1    0    0    0  501 -0.00000000000E+00 -0.00000000000E+00 -0.56023609270E+03  0.56023609270E+03  0.00000000000E+00 0. -1.
         25    1    1    2    0    0  0.36427180055E+01 -0.50620919008E+01 -0.42800118770E+03  0.44454910960E+03  0.12000000000E+03 0.  0.
         25    1    1    2    0    0 -0.36427180055E+01  0.50620919008E+01 -0.94841098521E+02  0.15308078958E+03  0.12000000000E+03 0.  0.
<mgrwt>
<rscale>  0 0.28947788E+03</rscale>
<asrwt>0</asrwt>
<pdfrwt beam="1">  1        1 0.57528934E-02 0.28947788E+03</pdfrwt>
<pdfrwt beam="2">  1       -1 0.86190167E-01 0.28947788E+03</pdfrwt>
<totfact> 0.19096336E+03</totfact>
</mgrwt>
</event>
<event>
 4    1  0.1866622E-004  0.3816083E+03  0.7818608E-02  0.1050341E+00
         -1   -1    0    0    0  501 -0.00000000000E+00  0.00000000000E+00  0.31269816972E+02  0.31269816972E+02  0.00000000000E+00 0. -1.
          1   -1    0    0  501    0  0.00000000000E+00 -0.00000000000E+00 -0.11642607139E+04  0.11642607139E+04  0.00000000000E+00 0. -1.
         25    1    1    2    0    0  0.49810800847E+02  0.92197703831E+02 -0.89544251509E+03  0.90950471703E+03  0.12000000000E+03 0.  0.
         25    1    1    2    0    0 -0.49810800847E+02 -0.92197703831E+02 -0.23754838188E+03  0.28602581388E+03  0.12000000000E+03 0.  0.
<mgrwt>
<rscale>  0 0.38160828E+03</rscale>
<asrwt>0</asrwt>
<pdfrwt beam="1">  1        1 0.17911705E+00 0.38160828E+03</pdfrwt>
<pdfrwt beam="2">  1       -1 0.48107407E-02 0.38160828E+03</pdfrwt>
<totfact> 0.22654486E+03</totfact>
</mgrwt>
</event>
<event>
 4    1  0.1866622E-004  0.3620516E+03  0.7818608E-02  0.1057774E+00
          1   -1    0    0  501    0  0.00000000000E+00  0.00000000000E+00  0.14312033471E+03  0.14312033471E+03  0.00000000000E+00 0.  1.
         -1   -1    0    0    0  501 -0.00000000000E+00 -0.00000000000E+00 -0.22897048084E+03  0.22897048084E+03  0.00000000000E+00 0.  1.
         25    1    1    2    0    0  0.18856257681E+02  0.13156299191E+03 -0.15618556963E+02  0.17974514908E+03  0.12000000000E+03 0.  0.
         25    1    1    2    0    0 -0.18856257681E+02 -0.13156299191E+03 -0.70231589164E+02  0.19234566647E+03  0.12000000000E+03 0.  0.
<mgrwt>
<rscale>  0 0.36205155E+03</rscale>
<asrwt>0</asrwt>
<pdfrwt beam="1">  1        1 0.22018513E-01 0.36205155E+03</pdfrwt>
<pdfrwt beam="2">  1       -1 0.35226227E-01 0.36205155E+03</pdfrwt>
<totfact> 0.17500919E+03</totfact>
</mgrwt>
</event>
<event>
 4    1  0.1866622E-004  0.2623260E+03  0.7818608E-02  0.1105754E+00
         -1   -1    0    0    0  501 -0.00000000000E+00  0.00000000000E+00  0.16044194289E+02  0.16044194289E+02  0.00000000000E+00 0.  1.
          1   -1    0    0  501    0  0.00000000000E+00 -0.00000000000E+00 -0.10722716011E+04  0.10722716011E+04  0.00000000000E+00 0.  1.
         25    1    1    2    0    0  0.20277526509E+02 -0.48875987482E+02 -0.53608708057E+03  0.55189618425E+03  0.12000000000E+03 0.  0.
         25    1    1    2    0    0 -0.20277526509E+02  0.48875987482E+02 -0.52014032622E+03  0.53641961112E+03  0.12000000000E+03 0.  0.
<mgrwt>
<rscale>  0 0.26232601E+03</rscale>
<asrwt>0</asrwt>
<pdfrwt beam="1">  1        1 0.16496486E+00 0.26232601E+03</pdfrwt>
<pdfrwt beam="2">  1       -1 0.24683376E-02 0.26232601E+03</pdfrwt>
<totfact> 0.70979329E+03</totfact>
</mgrwt>
</event>
<event>
 4    1  0.1866622E-004  0.4418573E+03  0.7818608E-02  0.1030178E+00
         -2   -1    0    0    0  501 -0.00000000000E+00  0.00000000000E+00  0.12973068567E+03  0.12973068567E+03  0.00000000000E+00 0. -1.
          2   -1    0    0  501    0  0.00000000000E+00 -0.00000000000E+00 -0.37623683252E+03  0.37623683252E+03  0.00000000000E+00 0. -1.
         25    1    1    2    0    0 -0.18041663849E+02 -0.14339862736E+02 -0.33401959123E+03  0.35566869503E+03  0.12000000000E+03 0.  0.
         25    1    1    2    0    0  0.18041663849E+02  0.14339862736E+02  0.87513444382E+02  0.15029882317E+03  0.12000000000E+03 0.  0.
<mgrwt>
<rscale>  0 0.44185727E+03</rscale>
<asrwt>0</asrwt>
<pdfrwt beam="1">  1        2 0.57882589E-01 0.44185727E+03</pdfrwt>
<pdfrwt beam="2">  1       -2 0.19958567E-01 0.44185727E+03</pdfrwt>
<totfact> 0.18133366E+03</totfact>
</mgrwt>
</event>
<event>
 4    1  0.1866622E-004  0.2493970E+03  0.7818608E-02  0.1113686E+00
         -3   -1    0    0    0  501 -0.00000000000E+00  0.00000000000E+00  0.57492075893E+02  0.57492075893E+02  0.00000000000E+00 0.  1.
          3   -1    0    0  501    0  0.00000000000E+00 -0.00000000000E+00 -0.27046713853E+03  0.27046713853E+03  0.00000000000E+00 0.  1.
         25    1    1    2    0    0 -0.23007999938E+02 -0.21963616777E+02 -0.91042547779E+02  0.15394971266E+03  0.12000000000E+03 0.  0.
         25    1    1    2    0    0  0.23007999938E+02  0.21963616777E+02 -0.12193251486E+03  0.17400950176E+03  0.12000000000E+03 0.  0.
<mgrwt>
<rscale>  0 0.24939701E+03</rscale>
<asrwt>0</asrwt>
<pdfrwt beam="1">  1        3 0.41610329E-01 0.24939701E+03</pdfrwt>
<pdfrwt beam="2">  1       -3 0.88449347E-02 0.24939701E+03</pdfrwt>
<totfact> 0.13090090E+03</totfact>
</mgrwt>
</event>
<event>
 4    1  0.1866622E-004  0.5381645E+03  0.7818608E-02  0.1004271E+00
         -2   -1    0    0    0  501 -0.00000000000E+00  0.00000000000E+00  0.17904252998E+03  0.17904252998E+03  0.00000000000E+00 0. -1.
          2   -1    0    0  501    0  0.00000000000E+00 -0.00000000000E+00 -0.40440254747E+03  0.40440254747E+03  0.00000000000E+00 0. -1.
         25    1    1    2    0    0  0.74626224179E+02  0.12285124292E+03 -0.32218478422E+03  0.37264532253E+03  0.12000000000E+03 0.  0.
         25    1    1    2    0    0 -0.74626224179E+02 -0.12285124292E+03  0.96824766726E+02  0.21079975492E+03  0.12000000000E+03 0.  0.
<mgrwt>
<rscale>  0 0.53816449E+03</rscale>
<asrwt>0</asrwt>
<pdfrwt beam="1">  1        2 0.62215776E-01 0.53816449E+03</pdfrwt>
<pdfrwt beam="2">  1       -2 0.27545005E-01 0.53816449E+03</pdfrwt>
<totfact> 0.94587901E+02</totfact>
</mgrwt>
</event>
<event>
 4    1  0.1866622E-004  0.3520907E+03  0.7818608E-02  0.1061760E+00
         -1   -1    0    0    0  501 -0.00000000000E+00  0.00000000000E+00  0.87625680867E+03  0.87625680867E+03  0.00000000000E+00 0.  1.
          1   -1    0    0  501    0  0.00000000000E+00 -0.00000000000E+00 -0.35368580920E+02  0.35368580920E+02  0.00000000000E+00 0.  1.
         25    1    1    2    0    0  0.10022569117E+03 -0.38756087842E+02  0.60434386107E+03  0.62544282387E+03  0.12000000000E+03 0.  0.
         25    1    1    2    0    0 -0.10022569117E+03  0.38756087842E+02  0.23654436669E+03  0.28618256573E+03  0.12000000000E+03 0.  0.
<mgrwt>
<rscale>  0 0.35209067E+03</rscale>
<asrwt>0</asrwt>
<pdfrwt beam="1">  1        1 0.54413208E-02 0.35209067E+03</pdfrwt>
<pdfrwt beam="2">  1       -1 0.13480872E+00 0.35209067E+03</pdfrwt>
<totfact> 0.73749716E+02</totfact>
</mgrwt>
</event>
<event>
 4    1  0.1866622E-004  0.2480756E+03  0.7818608E-02  0.1114527E+00
         -2   -1    0    0    0  501 -0.00000000000E+00  0.00000000000E+00  0.39402057322E+02  0.39402057322E+02  0.00000000000E+00 0. -1.
          2   -1    0    0  501    0  0.00000000000E+00 -0.00000000000E+00 -0.39047144812E+03  0.39047144812E+03  0.00000000000E+00 0. -1.
         25    1    1    2    0    0  0.14435021516E+02 -0.27571636861E+02 -0.18264002222E+03  0.22073953593E+03  0.12000000000E+03 0.  0.
         25    1    1    2    0    0 -0.14435021516E+02  0.27571636861E+02 -0.16842936858E+03  0.20913396952E+03  0.12000000000E+03 0.  0.
<mgrwt>
<rscale>  0 0.24807562E+03</rscale>
<asrwt>0</asrwt>
<pdfrwt beam="1">  1        2 0.60072533E-01 0.24807562E+03</pdfrwt>
<pdfrwt beam="2">  1       -2 0.60618548E-02 0.24807562E+03</pdfrwt>
<totfact> 0.11782109E+04</totfact>
</mgrwt>
</event>
<event>
 4    1  0.1866622E-004  0.2645989E+03  0.7818608E-02  0.1104411E+00
          1   -1    0    0  501    0  0.00000000000E+00  0.00000000000E+00  0.57785546287E+03  0.57785546287E+03  0.00000000000E+00 0. -1.
         -1   -1    0    0    0  501 -0.00000000000E+00 -0.00000000000E+00 -0.30289839613E+02  0.30289839613E+02  0.00000000000E+00 0. -1.
         25    1    1    2    0    0 -0.37665274482E+02 -0.23699043672E+02  0.19676758491E+03  0.23472920578E+03  0.12000000000E+03 0.  0.
         25    1    1    2    0    0  0.37665274482E+02  0.23699043672E+02  0.35079803834E+03  0.37341609670E+03  0.12000000000E+03 0.  0.
<mgrwt>
<rscale>  0 0.26459894E+03</rscale>
<asrwt>0</asrwt>
<pdfrwt beam="1">  1        1 0.88900832E-01 0.26459894E+03</pdfrwt>
<pdfrwt beam="2">  1       -1 0.46599758E-02 0.26459894E+03</pdfrwt>
<totfact> 0.72107542E+03</totfact>
</mgrwt>
</event>
<event>
 4    1  0.1866622E-004  0.3839648E+03  0.7818608E-02  0.1049478E+00
          2   -1    0    0  501    0  0.00000000000E+00  0.00000000000E+00  0.32926038199E+04  0.32926038199E+04  0.00000000000E+00 0. -1.
         -2   -1    0    0    0  501 -0.00000000000E+00 -0.00000000000E+00 -0.11193951750E+02  0.11193951750E+02  0.00000000000E+00 0. -1.
         25    1    1    2    0    0  0.10537457657E+03 -0.10556504478E+03  0.15161728998E+04  0.15282107323E+04  0.12000000000E+03 0.  0.
         25    1    1    2    0    0 -0.10537457657E+03  0.10556504478E+03  0.17652369683E+04  0.17755870393E+04  0.12000000000E+03 0.  0.
<mgrwt>
<rscale>  0 0.38396483E+03</rscale>
<asrwt>0</asrwt>
<pdfrwt beam="1">  1        2 0.50655366E+00 0.38396483E+03</pdfrwt>
<pdfrwt beam="2">  1       -2 0.17221491E-02 0.38396483E+03</pdfrwt>
<totfact> 0.13077153E+03</totfact>
</mgrwt>
</event>
<event>
 4    1  0.1866622E-004  0.2598562E+03  0.7818608E-02  0.1107230E+00
         -1   -1    0    0    0  501 -0.00000000000E+00  0.00000000000E+00  0.95905250379E+01  0.95905250379E+01  0.00000000000E+00 0. -1.
          1   -1    0    0  501    0  0.00000000000E+00 -0.00000000000E+00 -0.17602070659E+04  0.17602070659E+04  0.00000000000E+00 0. -1.
         25    1    1    2    0    0  0.39898025031E+01 -0.39961338429E+02 -0.10760192609E+04  0.10834344820E+04  0.12000000000E+03 0.  0.
         25    1    1    2    0    0 -0.39898025031E+01  0.39961338429E+02 -0.67459727995E+03  0.68636310887E+03  0.12000000000E+03 0.  0.
<mgrwt>
<rscale>  0 0.25985619E+03</rscale>
<asrwt>0</asrwt>
<pdfrwt beam="1">  1        1 0.27080147E+00 0.25985619E+03</pdfrwt>
<pdfrwt beam="2">  1       -1 0.14754633E-02 0.25985619E+03</pdfrwt>
<totfact> 0.51608002E+03</totfact>
</mgrwt>
</event>
<event>
 4    1  0.1866622E-004  0.2846040E+03  0.7818608E-02  0.1093201E+00
         -2   -1    0    0    0  501 -0.00000000000E+00  0.00000000000E+00  0.35867755143E+02  0.35867755143E+02  0.00000000000E+00 0.  1.
          2   -1    0    0  501    0  0.00000000000E+00 -0.00000000000E+00 -0.56456986065E+03  0.56456986065E+03  0.00000000000E+00 0.  1.
         25    1    1    2    0    0 -0.59522750737E+02 -0.14550708392E+02 -0.16778224910E+03  0.21518727677E+03  0.12000000000E+03 0.  0.
         25    1    1    2    0    0  0.59522750737E+02  0.14550708392E+02 -0.36091985641E+03  0.38525033902E+03  0.12000000000E+03 0.  0.
<mgrwt>
<rscale>  0 0.28460396E+03</rscale>
<asrwt>0</asrwt>
<pdfrwt beam="1">  1        2 0.86856899E-01 0.28460396E+03</pdfrwt>
<pdfrwt beam="2">  1       -2 0.55181163E-02 0.28460396E+03</pdfrwt>
<totfact> 0.90894222E+03</totfact>
</mgrwt>
</event>
<event>
 4    1  0.1866622E-004  0.2809970E+03  0.7818608E-02  0.1095146E+00
         -2   -1    0    0    0  501 -0.00000000000E+00  0.00000000000E+00  0.79061381945E+01  0.79061381945E+01  0.00000000000E+00 0.  1.
          2   -1    0    0  501    0  0.00000000000E+00 -0.00000000000E+00 -0.24967731604E+04  0.24967731604E+04  0.00000000000E+00 0.  1.
         25    1    1    2    0    0  0.79894064897E+01  0.10811642187E+02 -0.60420082849E+03  0.61614881593E+03  0.12000000000E+03 0.  0.
         25    1    1    2    0    0 -0.79894064897E+01 -0.10811642187E+02 -0.18846661938E+04  0.18885304827E+04  0.12000000000E+03 0.  0.
<mgrwt>
<rscale>  0 0.28099704E+03</rscale>
<asrwt>0</asrwt>
<pdfrwt beam="1">  1        2 0.38411973E+00 0.28099704E+03</pdfrwt>
<pdfrwt beam="2">  1       -2 0.12163265E-02 0.28099704E+03</pdfrwt>
<totfact> 0.64547074E+03</totfact>
</mgrwt>
</event>
<event>
 4    1  0.1866622E-004  0.3405353E+03  0.7818608E-02  0.1066568E+00
         -1   -1    0    0    0  501 -0.00000000000E+00  0.00000000000E+00  0.14988557710E+03  0.14988557710E+03  0.00000000000E+00 0. -1.
          1   -1    0    0  501    0  0.00000000000E+00 -0.00000000000E+00 -0.19342134215E+03  0.19342134215E+03  0.00000000000E+00 0. -1.
         25    1    1    2    0    0 -0.50275117305E+02  0.43770991057E+02  0.79787216980E+02  0.15877495732E+03  0.12000000000E+03 0.  0.
         25    1    1    2    0    0  0.50275117305E+02 -0.43770991057E+02 -0.12332298202E+03  0.18453196193E+03  0.12000000000E+03 0.  0.
<mgrwt>
<rscale>  0 0.34053528E+03</rscale>
<asrwt>0</asrwt>
<pdfrwt beam="1">  1        1 0.29757130E-01 0.34053528E+03</pdfrwt>
<pdfrwt beam="2">  1       -1 0.23059320E-01 0.34053528E+03</pdfrwt>
<totfact> 0.24458008E+03</totfact>
</mgrwt>
</event>
<event>
 4    1  0.1866622E-004  0.2721595E+03  0.7818608E-02  0.1100050E+00
          2   -1    0    0  501    0  0.00000000000E+00  0.00000000000E+00  0.34286888804E+03  0.34286888804E+03  0.00000000000E+00 0. -1.
         -2   -1    0    0    0  501 -0.00000000000E+00 -0.00000000000E+00 -0.54008119813E+02  0.54008119813E+02  0.00000000000E+00 0. -1.
         25    1    1    2    0    0 -0.43098708150E+02  0.76442892958E+01  0.76004822850E+02  0.14863602154E+03  0.12000000000E+03 0.  0.
         25    1    1    2    0    0  0.43098708150E+02 -0.76442892958E+01  0.21285594537E+03  0.24824098631E+03  0.12000000000E+03 0.  0.
<mgrwt>
<rscale>  0 0.27215954E+03</rscale>
<asrwt>0</asrwt>
<pdfrwt beam="1">  1        2 0.52749058E-01 0.27215954E+03</pdfrwt>
<pdfrwt beam="2">  1       -2 0.83089417E-02 0.27215954E+03</pdfrwt>
<totfact> 0.83535844E+03</totfact>
</mgrwt>
</event>
<event>
 4    1  0.1866622E-004  0.2587050E+03  0.7818608E-02  0.1107924E+00
         -1   -1    0    0    0  501 -0.00000000000E+00  0.00000000000E+00  0.42800680880E+02  0.42800680880E+02  0.00000000000E+00 0. -1.
          1   -1    0    0  501    0  0.00000000000E+00 -0.00000000000E+00 -0.39092999820E+03  0.39092999820E+03  0.00000000000E+00 0. -1.
         25    1    1    2    0    0 -0.38277107381E+02  0.29349379933E+02 -0.17011603038E+03  0.21369601504E+03  0.12000000000E+03 0.  0.
         25    1    1    2    0    0  0.38277107381E+02 -0.29349379933E+02 -0.17801328694E+03  0.22003466404E+03  0.12000000000E+03 0.  0.
<mgrwt>
<rscale>  0 0.25870501E+03</rscale>
<asrwt>0</asrwt>
<pdfrwt beam="1">  1        1 0.60143077E-01 0.25870501E+03</pdfrwt>
<pdfrwt beam="2">  1       -1 0.65847201E-02 0.25870501E+03</pdfrwt>
<totfact> 0.71729697E+03</totfact>
</mgrwt>
</event>
<event>
 4    1  0.1866622E-004  0.3465235E+03  0.7818608E-02  0.1064051E+00
          2   -1    0    0  501    0  0.00000000000E+00  0.00000000000E+00  0.23819601368E+04  0.23819601368E+04  0.00000000000E+00 0. -1.
         -2   -1    0    0    0  501 -0.00000000000E+00 -0.00000000000E+00 -0.12602912979E+02  0.12602912979E+02  0.00000000000E+00 0. -1.
         25    1    1    2    0    0  0.36987773545E+02 -0.69938329911E+02  0.51612620331E+03  0.53576648190E+03  0.12000000000E+03 0.  0.
         25    1    1    2    0    0 -0.36987773545E+02  0.69938329911E+02  0.18532310205E+04  0.18587965679E+04  0.12000000000E+03 0.  0.
<mgrwt>
<rscale>  0 0.34652351E+03</rscale>
<asrwt>0</asrwt>
<pdfrwt beam="1">  1        2 0.36645505E+00 0.34652351E+03</pdfrwt>
<pdfrwt beam="2">  1       -2 0.19389116E-02 0.34652351E+03</pdfrwt>
<totfact> 0.37508344E+03</totfact>
</mgrwt>
</event>
<event>
 4    1  0.1866622E-004  0.2925241E+03  0.7818608E-02  0.1089039E+00
         -2   -1    0    0    0  501 -0.00000000000E+00  0.00000000000E+00  0.52720479780E+02  0.52720479780E+02  0.00000000000E+00 0. -1.
          2   -1    0    0  501    0  0.00000000000E+00 -0.00000000000E+00 -0.40577379268E+03  0.40577379268E+03  0.00000000000E+00 0. -1.
         25    1    1    2    0    0 -0.24455515060E+02  0.44577638022E+02 -0.28058120390E+03  0.30937202526E+03  0.12000000000E+03 0.  0.
         25    1    1    2    0    0  0.24455515060E+02 -0.44577638022E+02 -0.72472108998E+02  0.14912224720E+03  0.12000000000E+03 0.  0.
<mgrwt>
<rscale>  0 0.29252411E+03</rscale>
<asrwt>0</asrwt>
<pdfrwt beam="1">  1        2 0.62426735E-01 0.29252411E+03</pdfrwt>
<pdfrwt beam="2">  1       -2 0.81108433E-02 0.29252411E+03</pdfrwt>
<totfact> 0.72465239E+03</totfact>
</mgrwt>
</event>
<event>
 4    1  0.1866622E-004  0.3014545E+03  0.7818608E-02  0.1084516E+00
         -2   -1    0    0    0  501 -0.00000000000E+00  0.00000000000E+00  0.60876394744E+02  0.60876394744E+02  0.00000000000E+00 0.  1.
          2   -1    0    0  501    0  0.00000000000E+00 -0.00000000000E+00 -0.37319387207E+03  0.37319387207E+03  0.00000000000E+00 0.  1.
         25    1    1    2    0    0 -0.53063405995E+02  0.55348838193E+02 -0.22727793303E+03  0.26820603607E+03  0.12000000000E+03 0.  0.
         25    1    1    2    0    0  0.53063405995E+02 -0.55348838193E+02 -0.85039544302E+02  0.16586423074E+03  0.12000000000E+03 0.  0.
<mgrwt>
<rscale>  0 0.30145446E+03</rscale>
<asrwt>0</asrwt>
<pdfrwt beam="1">  1        2 0.57414440E-01 0.30145446E+03</pdfrwt>
<pdfrwt beam="2">  1       -2 0.93655995E-02 0.30145446E+03</pdfrwt>
<totfact> 0.63338761E+03</totfact>
</mgrwt>
</event>
<event>
 4    1  0.1866622E-004  0.3129599E+03  0.7818608E-02  0.1078936E+00
         -2   -1    0    0    0  501 -0.00000000000E+00  0.00000000000E+00  0.10591568440E+03  0.10591568440E+03  0.00000000000E+00 0. -1.
          2   -1    0    0  501    0  0.00000000000E+00 -0.00000000000E+00 -0.23118360505E+03  0.23118360505E+03  0.00000000000E+00 0. -1.
         25    1    1    2    0    0 -0.77372260815E+02 -0.62972302676E+02 -0.50165615942E+02  0.16391634046E+03  0.12000000000E+03 0.  0.
         25    1    1    2    0    0  0.77372260815E+02  0.62972302676E+02 -0.75102304708E+02  0.17318294899E+03  0.12000000000E+03 0.  0.
<mgrwt>
<rscale>  0 0.31295987E+03</rscale>
<asrwt>0</asrwt>
<pdfrwt beam="1">  1        2 0.35566708E-01 0.31295987E+03</pdfrwt>
<pdfrwt beam="2">  1       -2 0.16294721E-01 0.31295987E+03</pdfrwt>
<totfact> 0.43281687E+03</totfact>
</mgrwt>
</event>
<event>
 4    1  0.1866622E-004  0.4179691E+03  0.7818608E-02  0.1037729E+00
         -2   -1    0    0    0  501 -0.00000000000E+00  0.00000000000E+00  0.20199946473E+02  0.20199946473E+02  0.00000000000E+00 0. -1.
          2   -1    0    0  501    0  0.00000000000E+00 -0.00000000000E+00 -0.21621113539E+04  0.21621113539E+04  0.00000000000E+00 0. -1.
         25    1    1    2    0    0  0.84321693542E+02  0.12732826850E+03 -0.66814565584E+03  0.69580259656E+03  0.12000000000E+03 0.  0.
         25    1    1    2    0    0 -0.84321693542E+02 -0.12732826850E+03 -0.14737657516E+04  0.14865087038E+04  0.12000000000E+03 0.  0.
<mgrwt>
<rscale>  0 0.41796906E+03</rscale>
<asrwt>0</asrwt>
<pdfrwt beam="1">  1        2 0.33263222E+00 0.41796906E+03</pdfrwt>
<pdfrwt beam="2">  1       -2 0.31076868E-02 0.41796906E+03</pdfrwt>
<totfact> 0.24294882E+03</totfact>
</mgrwt>
</event>
<event>
 4    1  0.1866622E-004  0.2475985E+03  0.7818608E-02  0.1114832E+00
          1   -1    0    0  501    0  0.00000000000E+00  0.00000000000E+00  0.13371606729E+04  0.13371606729E+04  0.00000000000E+00 0.  1.
         -1   -1    0    0    0  501 -0.00000000000E+00 -0.00000000000E+00 -0.11461791442E+02  0.11461791442E+02  0.00000000000E+00 0.  1.
         25    1    1    2    0    0  0.37032131558E+01  0.28284845762E+02  0.60507459247E+03  0.61751842786E+03  0.12000000000E+03 0.  0.
         25    1    1    2    0    0 -0.37032131558E+01 -0.28284845762E+02  0.72062428895E+03  0.73110403645E+03  0.12000000000E+03 0.  0.
<mgrwt>
<rscale>  0 0.24759852E+03</rscale>
<asrwt>0</asrwt>
<pdfrwt beam="1">  1        1 0.20571690E+00 0.24759852E+03</pdfrwt>
<pdfrwt beam="2">  1       -1 0.17633536E-02 0.24759852E+03</pdfrwt>
<totfact> 0.75670097E+03</totfact>
</mgrwt>
</event>
<event>
 4    1  0.1866622E-004  0.3550385E+03  0.7818608E-02  0.1060566E+00
          2   -1    0    0  501    0  0.00000000000E+00  0.00000000000E+00  0.26624899710E+04  0.26624899710E+04  0.00000000000E+00 0. -1.
         -2   -1    0    0    0  501 -0.00000000000E+00 -0.00000000000E+00 -0.11835946497E+02  0.11835946497E+02  0.00000000000E+00 0. -1.
         25    1    1    2    0    0  0.11053687999E+03  0.62484859397E+02  0.15623708539E+04  0.15721085983E+04  0.12000000000E+03 0.  0.
         25    1    1    2    0    0 -0.11053687999E+03 -0.62484859397E+02  0.10882831706E+04  0.11022173192E+04  0.12000000000E+03 0.  0.
<mgrwt>
<rscale>  0 0.35503853E+03</rscale>
<asrwt>0</asrwt>
<pdfrwt beam="1">  1        2 0.40961337E+00 0.35503853E+03</pdfrwt>
<pdfrwt beam="2">  1       -2 0.18209170E-02 0.35503853E+03</pdfrwt>
<totfact> 0.28751415E+03</totfact>
</mgrwt>
</event>
<event>
 4    1  0.1866622E-004  0.4456033E+03  0.7818608E-02  0.1029041E+00
          2   -1    0    0  501    0  0.00000000000E+00  0.00000000000E+00  0.18794722651E+04  0.18794722651E+04  0.00000000000E+00 0.  1.
         -2   -1    0    0    0  501 -0.00000000000E+00 -0.00000000000E+00 -0.26411977500E+02  0.26411977500E+02  0.00000000000E+00 0.  1.
         25    1    1    2    0    0 -0.12950173445E+03 -0.13487488821E+03  0.99792605253E+03  0.10223592035E+04  0.12000000000E+03 0.  0.
         25    1    1    2    0    0  0.12950173445E+03  0.13487488821E+03  0.85513423502E+03  0.88352503904E+03  0.12000000000E+03 0.  0.
<mgrwt>
<rscale>  0 0.44560332E+03</rscale>
<asrwt>0</asrwt>
<pdfrwt beam="1">  1        2 0.28914948E+00 0.44560332E+03</pdfrwt>
<pdfrwt beam="2">  1       -2 0.40633826E-02 0.44560332E+03</pdfrwt>
<totfact> 0.22898076E+03</totfact>
</mgrwt>
</event>
<event>
 4    1  0.1866622E-004  0.2523730E+03  0.7818608E-02  0.1111814E+00
         -3   -1    0    0    0  501 -0.00000000000E+00  0.00000000000E+00  0.93082783020E+02  0.93082783020E+02  0.00000000000E+00 0.  1.
          3   -1    0    0  501    0  0.00000000000E+00 -0.00000000000E+00 -0.17106307921E+03  0.17106307921E+03  0.00000000000E+00 0.  1.
         25    1    1    2    0    0  0.19687700576E+02  0.18317450828E+02 -0.68591866430E+02  0.14081185568E+03  0.12000000000E+03 0.  0.
         25    1    1    2    0    0 -0.19687700576E+02 -0.18317450828E+02 -0.93884297577E+01  0.12333400655E+03  0.12000000000E+03 0.  0.
<mgrwt>
<rscale>  0 0.25237296E+03</rscale>
<asrwt>0</asrwt>
<pdfrwt beam="1">  1        3 0.26317396E-01 0.25237296E+03</pdfrwt>
<pdfrwt beam="2">  1       -3 0.14320428E-01 0.25237296E+03</pdfrwt>
<totfact> 0.13856976E+03</totfact>
</mgrwt>
</event>
<event>
 4    1  0.1866622E-004  0.3178609E+03  0.7818608E-02  0.1076638E+00
         -2   -1    0    0    0  501 -0.00000000000E+00  0.00000000000E+00  0.10996276057E+02  0.10996276057E+02  0.00000000000E+00 0.  1.
          2   -1    0    0  501    0  0.00000000000E+00 -0.00000000000E+00 -0.22970408488E+04  0.22970408488E+04  0.00000000000E+00 0.  1.
         25    1    1    2    0    0  0.72089216960E+02  0.86134271500E+01 -0.60023714865E+03  0.61640545175E+03  0.12000000000E+03 0.  0.
         25    1    1    2    0    0 -0.72089216960E+02 -0.86134271500E+01 -0.16858074241E+04  0.16916316731E+04  0.12000000000E+03 0.  0.
<mgrwt>
<rscale>  0 0.31786095E+03</rscale>
<asrwt>0</asrwt>
<pdfrwt beam="1">  1        2 0.35339050E+00 0.31786095E+03</pdfrwt>
<pdfrwt beam="2">  1       -2 0.16917367E-02 0.31786095E+03</pdfrwt>
<totfact> 0.51063642E+03</totfact>
</mgrwt>
</event>
<event>
 4    1  0.1866622E-004  0.3817912E+03  0.7818608E-02  0.1050274E+00
          4   -1    0    0  501    0  0.00000000000E+00  0.00000000000E+00  0.25526834379E+02  0.25526834379E+02  0.00000000000E+00 0.  1.
         -4   -1    0    0    0  501 -0.00000000000E+00 -0.00000000000E+00 -0.14275613917E+04  0.14275613917E+04  0.00000000000E+00 0.  1.
         25    1    1    2    0    0 -0.69449326864E+01  0.12285768517E+03 -0.10171397848E+04  0.10315597824E+04  0.12000000000E+03 0.  0.
         25    1    1    2    0    0  0.69449326864E+01 -0.12285768517E+03 -0.38489477252E+03  0.42152844365E+03  0.12000000000E+03 0.  0.
<mgrwt>
<rscale>  0 0.38179116E+03</rscale>
<asrwt>0</asrwt>
<pdfrwt beam="1">  1        4 0.39272050E-02 0.38179116E+03</pdfrwt>
<pdfrwt beam="2">  1       -4 0.21962484E+00 0.38179116E+03</pdfrwt>
<totfact> 0.72887526E+01</totfact>
</mgrwt>
</event>
<event>
 4    1  0.1866622E-004  0.2709895E+03  0.7818608E-02  0.1100715E+00
          1   -1    0    0  501    0  0.00000000000E+00  0.00000000000E+00  0.20160981754E+02  0.20160981754E+02  0.00000000000E+00 0. -1.
         -1   -1    0    0    0  501 -0.00000000000E+00 -0.00000000000E+00 -0.91061147160E+03  0.91061147160E+03  0.00000000000E+00 0. -1.
         25    1    1    2    0    0 -0.26585944546E+01 -0.51088367181E+02 -0.57103780461E+03  0.58574846452E+03  0.12000000000E+03 0.  0.
         25    1    1    2    0    0  0.26585944546E+01  0.51088367181E+02 -0.31941268523E+03  0.34502398884E+03  0.12000000000E+03 0.  0.
<mgrwt>
<rscale>  0 0.27098946E+03</rscale>
<asrwt>0</asrwt>
<pdfrwt beam="1">  1        1 0.31016913E-02 0.27098946E+03</pdfrwt>
<pdfrwt beam="2">  1       -1 0.14009399E+00 0.27098946E+03</pdfrwt>
<totfact> 0.14663771E+03</totfact>
</mgrwt>
</event>
<event>
 4    1  0.1866622E-004  0.2521132E+03  0.7818608E-02  0.1111977E+00
          2   -1    0    0  501    0  0.00000000000E+00  0.00000000000E+00  0.24166252416E+02  0.24166252416E+02  0.00000000000E+00 0. -1.
         -2   -1    0    0    0  501 -0.00000000000E+00 -0.00000000000E+00 -0.65753947917E+03  0.65753947917E+03  0.00000000000E+00 0. -1.
         25    1    1    2    0    0  0.19141337096E+02 -0.74415533026E+00 -0.40731269787E+03  0.42505361827E+03  0.12000000000E+03 0.  0.
         25    1    1    2    0    0 -0.19141337096E+02  0.74415533026E+00 -0.22606052888E+03  0.25665211332E+03  0.12000000000E+03 0.  0.
<mgrwt>
<rscale>  0 0.25211319E+03</rscale>
<asrwt>0</asrwt>
<pdfrwt beam="1">  1        2 0.37178849E-02 0.25211319E+03</pdfrwt>
<pdfrwt beam="2">  1       -2 0.10115992E+00 0.25211319E+03</pdfrwt>
<totfact> 0.19436685E+03</totfact>
</mgrwt>
</event>
<event>
 4    1  0.1866622E-004  0.3046077E+03  0.7818608E-02  0.1082960E+00
          2   -1    0    0  501    0  0.00000000000E+00  0.00000000000E+00  0.27645014706E+03  0.27645014706E+03  0.00000000000E+00 0.  1.
         -2   -1    0    0    0  501 -0.00000000000E+00 -0.00000000000E+00 -0.83908283093E+02  0.83908283093E+02  0.00000000000E+00 0.  1.
         25    1    1    2    0    0 -0.44996042549E+02  0.81933276884E+02  0.87203103043E+02  0.17533421482E+03  0.12000000000E+03 0.  0.
         25    1    1    2    0    0  0.44996042549E+02 -0.81933276884E+02  0.10533876092E+03  0.18502421533E+03  0.12000000000E+03 0.  0.
<mgrwt>
<rscale>  0 0.30460766E+03</rscale>
<asrwt>0</asrwt>
<pdfrwt beam="1">  1        2 0.42530791E-01 0.30460766E+03</pdfrwt>
<pdfrwt beam="2">  1       -2 0.12908967E-01 0.30460766E+03</pdfrwt>
<totfact> 0.52336133E+03</totfact>
</mgrwt>
</event>
<event>
 4    1  0.1866622E-004  0.2984014E+03  0.7818608E-02  0.1086042E+00
         -1   -1    0    0    0  501 -0.00000000000E+00  0.00000000000E+00  0.58048657866E+02  0.58048657866E+02  0.00000000000E+00 0. -1.
          1   -1    0    0  501    0  0.00000000000E+00 -0.00000000000E+00 -0.38348608464E+03  0.38348608464E+03  0.00000000000E+00 0. -1.
         25    1    1    2    0    0  0.84680207734E+02  0.23985523159E+02 -0.17857323457E+03  0.23245309852E+03  0.12000000000E+03 0.  0.
         25    1    1    2    0    0 -0.84680207734E+02 -0.23985523159E+02 -0.14686419220E+03  0.20908164399E+03  0.12000000000E+03 0.  0.
<mgrwt>
<rscale>  0 0.29840142E+03</rscale>
<asrwt>0</asrwt>
<pdfrwt beam="1">  1        1 0.58997857E-01 0.29840142E+03</pdfrwt>
<pdfrwt beam="2">  1       -1 0.89305630E-02 0.29840142E+03</pdfrwt>
<totfact> 0.46390945E+03</totfact>
</mgrwt>
</event>
<event>
 4    1  0.1866622E-004  0.4407767E+03  0.7818608E-02  0.1030509E+00
          3   -1    0    0  501    0  0.00000000000E+00  0.00000000000E+00  0.60727148670E+02  0.60727148670E+02  0.00000000000E+00 0.  1.
         -3   -1    0    0    0  501 -0.00000000000E+00 -0.00000000000E+00 -0.79982403187E+03  0.79982403187E+03  0.00000000000E+00 0.  1.
         25    1    1    2    0    0 -0.40561258547E+02  0.11602131556E+03 -0.63912056596E+03  0.66180152552E+03  0.12000000000E+03 0.  0.
         25    1    1    2    0    0  0.40561258547E+02 -0.11602131556E+03 -0.99976317245E+02  0.19874965502E+03  0.12000000000E+03 0.  0.
<mgrwt>
<rscale>  0 0.44077674E+03</rscale>
<asrwt>0</asrwt>
<pdfrwt beam="1">  1        3 0.93426389E-02 0.44077674E+03</pdfrwt>
<pdfrwt beam="2">  1       -3 0.12304984E+00 0.44077674E+03</pdfrwt>
<totfact> 0.11924396E+02</totfact>
</mgrwt>
</event>
<event>
 4    1  0.1866622E-004  0.3013198E+03  0.7818608E-02  0.1084583E+00
          3   -1    0    0  501    0  0.00000000000E+00  0.00000000000E+00  0.17926066711E+02  0.17926066711E+02  0.00000000000E+00 0. -1.
         -3   -1    0    0    0  501 -0.00000000000E+00 -0.00000000000E+00 -0.12662238309E+04  0.12662238309E+04  0.00000000000E+00 0. -1.
         25    1    1    2    0    0 -0.48965944605E+02  0.52481283389E+02 -0.86320472652E+03  0.87445660197E+03  0.12000000000E+03 0.  0.
         25    1    1    2    0    0  0.48965944605E+02 -0.52481283389E+02 -0.38509303771E+03  0.40969329569E+03  0.12000000000E+03 0.  0.
<mgrwt>
<rscale>  0 0.30131985E+03</rscale>
<asrwt>0</asrwt>
<pdfrwt beam="1">  1        3 0.27578567E-02 0.30131985E+03</pdfrwt>
<pdfrwt beam="2">  1       -3 0.19480365E+00 0.30131985E+03</pdfrwt>
<totfact> 0.25368150E+02</totfact>
</mgrwt>
</event>
<event>
 4    1  0.1866622E-004  0.3150106E+03  0.7818608E-02  0.1077969E+00
         -2   -1    0    0    0  501 -0.00000000000E+00  0.00000000000E+00  0.40479467842E+02  0.40479467842E+02  0.00000000000E+00 0. -1.
          2   -1    0    0  501    0  0.00000000000E+00 -0.00000000000E+00 -0.61285199852E+03  0.61285199852E+03  0.00000000000E+00 0. -1.
         25    1    1    2    0    0 -0.81494655823E+02  0.17494965787E+02 -0.16418174432E+03  0.21977965766E+03  0.12000000000E+03 0.  0.
         25    1    1    2    0    0  0.81494655823E+02 -0.17494965787E+02 -0.40819078636E+03  0.43355180870E+03  0.12000000000E+03 0.  0.
<mgrwt>
<rscale>  0 0.31501062E+03</rscale>
<asrwt>0</asrwt>
<pdfrwt beam="1">  1        2 0.94284908E-01 0.31501062E+03</pdfrwt>
<pdfrwt beam="2">  1       -2 0.62276114E-02 0.31501062E+03</pdfrwt>
<totfact> 0.68843043E+03</totfact>
</mgrwt>
</event>
<event>
 4    1  0.1866622E-004  0.3269257E+03  0.7818608E-02  0.1072505E+00
         -2   -1    0    0    0  501 -0.00000000000E+00  0.00000000000E+00  0.56360016609E+02  0.56360016609E+02  0.00000000000E+00 0.  1.
          2   -1    0    0  501    0  0.00000000000E+00 -0.00000000000E+00 -0.47409680922E+03  0.47409680922E+03  0.00000000000E+00 0.  1.
         25    1    1    2    0    0 -0.72185994320E+02  0.70618383863E+02 -0.28361775028E+03  0.32409381696E+03  0.12000000000E+03 0.  0.
         25    1    1    2    0    0  0.72185994320E+02 -0.70618383863E+02 -0.13411904233E+03  0.20636300887E+03  0.12000000000E+03 0.  0.
<mgrwt>
<rscale>  0 0.32692570E+03</rscale>
<asrwt>0</asrwt>
<pdfrwt beam="1">  1        2 0.72937974E-01 0.32692570E+03</pdfrwt>
<pdfrwt beam="2">  1       -2 0.86707714E-02 0.32692570E+03</pdfrwt>
<totfact> 0.55133994E+03</totfact>
</mgrwt>
</event>
<event>
 4    1  0.1866622E-004  0.2890390E+03  0.7818608E-02  0.1090852E+00
          1   -1    0    0  501    0  0.00000000000E+00  0.00000000000E+00  0.60350310020E+03  0.60350310020E+03  0.00000000000E+00 0. -1.
         -1   -1    0    0    0  501 -0.00000000000E+00 -0.00000000000E+00 -0.34607750458E+02  0.34607750458E+02  0.00000000000E+00 0. -1.
         25    1    1    2    0    0 -0.22153511173E+02  0.67797813404E+02  0.36700977542E+03  0.39266206439E+03  0.12000000000E+03 0.  0.
         25    1    1    2    0    0  0.22153511173E+02 -0.67797813404E+02  0.20188557433E+03  0.24544878627E+03  0.12000000000E+03 0.  0.
<mgrwt>
<rscale>  0 0.28903899E+03</rscale>
<asrwt>0</asrwt>
<pdfrwt beam="1">  1        1 0.92846623E-01 0.28903899E+03</pdfrwt>
<pdfrwt beam="2">  1       -1 0.53242697E-02 0.28903899E+03</pdfrwt>
<totfact> 0.55752856E+03</totfact>
</mgrwt>
</event>
<event>
 4    1  0.1866622E-004  0.2684204E+03  0.7818608E-02  0.1102187E+00
         -1   -1    0    0    0  501 -0.00000000000E+00  0.00000000000E+00  0.13315342631E+02  0.13315342631E+02  0.00000000000E+00 0. -1.
          1   -1    0    0  501    0  0.00000000000E+00 -0.00000000000E+00 -0.13527531646E+04  0.13527531646E+04  0.00000000000E+00 0. -1.
         25    1    1    2    0    0 -0.20312483043E+02  0.11128703712E+02 -0.95197611432E+03  0.95978902226E+03  0.12000000000E+03 0.  0.
         25    1    1    2    0    0  0.20312483043E+02 -0.11128703712E+02 -0.38746170762E+03  0.40627948494E+03  0.12000000000E+03 0.  0.
<mgrwt>
<rscale>  0 0.26842036E+03</rscale>
<asrwt>0</asrwt>
<pdfrwt beam="1">  1        1 0.20811581E+00 0.26842036E+03</pdfrwt>
<pdfrwt beam="2">  1       -1 0.20485149E-02 0.26842036E+03</pdfrwt>
<totfact> 0.59436242E+03</totfact>
</mgrwt>
</event>
<event>
 4    1  0.1866622E-004  0.3514951E+03  0.7818608E-02  0.1062003E+00
         -2   -1    0    0    0  501 -0.00000000000E+00  0.00000000000E+00  0.12046914534E+02  0.12046914534E+02  0.00000000000E+00 0. -1.
          2   -1    0    0  501    0  0.00000000000E+00 -0.00000000000E+00 -0.25639090207E+04  0.25639090207E+04  0.00000000000E+00 0. -1.
         25    1    1    2    0    0  0.29025826824E+02  0.11575900873E+03 -0.92872804369E+03  0.94402247105E+03  0.12000000000E+03 0.  0.
         25    1    1    2    0    0 -0.29025826824E+02 -0.11575900873E+03 -0.16231340625E+04  0.16319334642E+04  0.12000000000E+03 0.  0.
<mgrwt>
<rscale>  0 0.35149505E+03</rscale>
<asrwt>0</asrwt>
<pdfrwt beam="1">  1        2 0.39444801E+00 0.35149505E+03</pdfrwt>
<pdfrwt beam="2">  1       -2 0.18533693E-02 0.35149505E+03</pdfrwt>
<totfact> 0.31822565E+03</totfact>
</mgrwt>
</event>
<event>
 4    1  0.1866622E-004  0.2805614E+03  0.7818608E-02  0.1095383E+00
         -2   -1    0    0    0  501 -0.00000000000E+00  0.00000000000E+00  0.19416730725E+04  0.19416730725E+04  0.00000000000E+00 0.  1.
          2   -1    0    0  501    0  0.00000000000E+00 -0.00000000000E+00 -0.10134908022E+02  0.10134908022E+02  0.00000000000E+00 0.  1.
         25    1    1    2    0    0  0.31963651822E+02  0.64446028926E+02  0.10366165449E+04  0.10460156915E+04  0.12000000000E+03 0.  0.
         25    1    1    2    0    0 -0.31963651822E+02 -0.64446028926E+02  0.89492161960E+03  0.90579228905E+03  0.12000000000E+03 0.  0.
<mgrwt>
<rscale>  0 0.28056142E+03</rscale>
<asrwt>0</asrwt>
<pdfrwt beam="1">  1        2 0.15592182E-02 0.28056142E+03</pdfrwt>
<pdfrwt beam="2">  1       -2 0.29871864E+00 0.28056142E+03</pdfrwt>
<totfact> 0.28829191E+02</totfact>
</mgrwt>
</event>
<event>
 4    1  0.1866622E-004  0.2449710E+03  0.7818608E-02  0.1116525E+00
          2   -1    0    0  501    0  0.00000000000E+00  0.00000000000E+00  0.67772863129E+02  0.67772863129E+02  0.00000000000E+00 0. -1.
         -2   -1    0    0    0  501 -0.00000000000E+00 -0.00000000000E+00 -0.22136725298E+03  0.22136725298E+03  0.00000000000E+00 0. -1.
         25    1    1    2    0    0  0.17520467601E+02 -0.16852619410E+02 -0.72757353061E+02  0.14242404990E+03  0.12000000000E+03 0.  0.
         25    1    1    2    0    0 -0.17520467601E+02  0.16852619410E+02 -0.80837036786E+02  0.14671606620E+03  0.12000000000E+03 0.  0.
<mgrwt>
<rscale>  0 0.24497096E+03</rscale>
<asrwt>0</asrwt>
<pdfrwt beam="1">  1        2 0.10426594E-01 0.24497096E+03</pdfrwt>
<pdfrwt beam="2">  1       -2 0.34056501E-01 0.24497096E+03</pdfrwt>
<totfact> 0.48568139E+03</totfact>
</mgrwt>
</event>
<event>
 4    1  0.1866622E-004  0.3235851E+03  0.7818608E-02  0.1074011E+00
         -2   -1    0    0    0  501 -0.00000000000E+00  0.00000000000E+00  0.25749504931E+02  0.25749504931E+02  0.00000000000E+00 0.  1.
          2   -1    0    0  501    0  0.00000000000E+00 -0.00000000000E+00 -0.10165952716E+04  0.10165952716E+04  0.00000000000E+00 0.  1.
         25    1    1    2    0    0 -0.28100756593E+02 -0.48447738217E+01 -0.15813441134E+03  0.20054828946E+03  0.12000000000E+03 0.  0.
         25    1    1    2    0    0  0.28100756593E+02  0.48447738217E+01 -0.83271135535E+03  0.84179648709E+03  0.12000000000E+03 0.  0.
<mgrwt>
<rscale>  0 0.32358507E+03</rscale>
<asrwt>0</asrwt>
<pdfrwt beam="1">  1        2 0.15639928E+00 0.32358507E+03</pdfrwt>
<pdfrwt beam="2">  1       -2 0.39614622E-02 0.32358507E+03</pdfrwt>
<totfact> 0.71730983E+03</totfact>
</mgrwt>
</event>
<event>
 4    1  0.1866622E-004  0.2738720E+03  0.7818608E-02  0.1099084E+00
         -2   -1    0    0    0  501 -0.00000000000E+00  0.00000000000E+00  0.28009760238E+02  0.28009760238E+02  0.00000000000E+00 0.  1.
          2   -1    0    0  501    0  0.00000000000E+00 -0.00000000000E+00 -0.66946175557E+03  0.66946175557E+03  0.00000000000E+00 0.  1.
         25    1    1    2    0    0  0.47079838837E+02  0.15345904649E+02 -0.20973354928E+03  0.24665800151E+03  0.12000000000E+03 0.  0.
         25    1    1    2    0    0 -0.47079838837E+02 -0.15345904649E+02 -0.43171844605E+03  0.45081351430E+03  0.12000000000E+03 0.  0.
<mgrwt>
<rscale>  0 0.27387196E+03</rscale>
<asrwt>0</asrwt>
<pdfrwt beam="1">  1        2 0.10299411E+00 0.27387196E+03</pdfrwt>
<pdfrwt beam="2">  1       -2 0.43091943E-02 0.27387196E+03</pdfrwt>
<totfact> 0.10824779E+04</totfact>
</mgrwt>
</event>
<event>
 4    1  0.1866622E-004  0.2641201E+03  0.7818608E-02  0.1104693E+00
          2   -1    0    0  501    0  0.00000000000E+00  0.00000000000E+00  0.23769522600E+04  0.23769522600E+04  0.00000000000E+00 0. -1.
         -2   -1    0    0    0  501 -0.00000000000E+00 -0.00000000000E+00 -0.73370679781E+01  0.73370679781E+01  0.00000000000E+00 0. -1.
         25    1    1    2    0    0 -0.20410214959E+02 -0.77560274268E+01  0.16418353363E+04  0.16463596218E+04  0.12000000000E+03 0.  0.
         25    1    1    2    0    0  0.20410214959E+02  0.77560274268E+01  0.72777985573E+03  0.73792970616E+03  0.12000000000E+03 0.  0.
<mgrwt>
<rscale>  0 0.26412013E+03</rscale>
<asrwt>0</asrwt>
<pdfrwt beam="1">  1        2 0.36568435E+00 0.26412013E+03</pdfrwt>
<pdfrwt beam="2">  1       -2 0.11287816E-02 0.26412013E+03</pdfrwt>
<totfact> 0.83626705E+03</totfact>
</mgrwt>
</event>
<event>
 4    1  0.1866622E-004  0.2886635E+03  0.7818608E-02  0.1091049E+00
          1   -1    0    0  501    0  0.00000000000E+00  0.00000000000E+00  0.13617636843E+03  0.13617636843E+03  0.00000000000E+00 0.  1.
         -1   -1    0    0    0  501 -0.00000000000E+00 -0.00000000000E+00 -0.15297551280E+03  0.15297551280E+03  0.00000000000E+00 0.  1.
         25    1    1    2    0    0  0.26669682390E+02  0.58370354680E+02  0.39778370522E+02  0.14177689877E+03  0.12000000000E+03 0.  0.
         25    1    1    2    0    0 -0.26669682390E+02 -0.58370354680E+02 -0.56577514885E+02  0.14737498246E+03  0.12000000000E+03 0.  0.
<mgrwt>
<rscale>  0 0.28866347E+03</rscale>
<asrwt>0</asrwt>
<pdfrwt beam="1">  1        1 0.20950211E-01 0.28866347E+03</pdfrwt>
<pdfrwt beam="2">  1       -1 0.23534694E-01 0.28866347E+03</pdfrwt>
<totfact> 0.36903506E+03</totfact>
</mgrwt>
</event>
<event>
 4    1  0.1866622E-004  0.2564333E+03  0.7818608E-02  0.1109305E+00
         -3   -1    0    0    0  501 -0.00000000000E+00  0.00000000000E+00  0.11042201949E+04  0.11042201949E+04  0.00000000000E+00 0. -1.
          3   -1    0    0  501    0  0.00000000000E+00 -0.00000000000E+00 -0.14887885858E+02  0.14887885858E+02  0.00000000000E+00 0. -1.
         25    1    1    2    0    0 -0.79797746287E+01  0.31450796400E+02  0.40758280673E+03  0.42611802794E+03  0.12000000000E+03 0.  0.
         25    1    1    2    0    0  0.79797746287E+01 -0.31450796400E+02  0.68174950234E+03  0.69299005284E+03  0.12000000000E+03 0.  0.
<mgrwt>
<rscale>  0 0.25643326E+03</rscale>
<asrwt>0</asrwt>
<pdfrwt beam="1">  1        3 0.22904448E-02 0.25643326E+03</pdfrwt>
<pdfrwt beam="2">  1       -3 0.16987997E+00 0.25643326E+03</pdfrwt>
<totfact> 0.48390894E+02</totfact>
</mgrwt>
</event>
<event>
 4    1  0.1866622E-004  0.2457719E+03  0.7818608E-02  0.1116006E+00
         -2   -1    0    0    0  501 -0.00000000000E+00  0.00000000000E+00  0.18477933755E+03  0.18477933755E+03  0.00000000000E+00 0.  1.
          2   -1    0    0  501    0  0.00000000000E+00 -0.00000000000E+00 -0.81724241537E+02  0.81724241537E+02  0.00000000000E+00 0.  1.
         25    1    1    2    0    0 -0.21371300871E+02 -0.15149716990E+02  0.55685699186E+02  0.13485971793E+03  0.12000000000E+03 0.  0.
         25    1    1    2    0    0  0.21371300871E+02  0.15149716990E+02  0.47369396830E+02  0.13164386116E+03  0.12000000000E+03 0.  0.
<mgrwt>
<rscale>  0 0.24577186E+03</rscale>
<asrwt>0</asrwt>
<pdfrwt beam="1">  1        2 0.12572960E-01 0.24577186E+03</pdfrwt>
<pdfrwt beam="2">  1       -2 0.28427590E-01 0.24577186E+03</pdfrwt>
<totfact> 0.53734975E+03</totfact>
</mgrwt>
</event>
<event>
 4    1  0.1866622E-004  0.2836632E+03  0.7818608E-02  0.1093705E+00
          2   -1    0    0  501    0  0.00000000000E+00  0.00000000000E+00  0.30953666616E+04  0.30953666616E+04  0.00000000000E+00 0. -1.
         -2   -1    0    0    0  501 -0.00000000000E+00 -0.00000000000E+00 -0.64988113923E+01  0.64988113923E+01  0.00000000000E+00 0. -1.
         25    1    1    2    0    0  0.51227583619E+02 -0.52244916531E+02  0.17526041122E+04  0.17582306364E+04  0.12000000000E+03 0.  0.
         25    1    1    2    0    0 -0.51227583619E+02  0.52244916531E+02  0.13362637380E+04  0.13436348366E+04  0.12000000000E+03 0.  0.
<mgrwt>
<rscale>  0 0.28366321E+03</rscale>
<asrwt>0</asrwt>
<pdfrwt beam="1">  1        2 0.47620908E+00 0.28366321E+03</pdfrwt>
<pdfrwt beam="2">  1       -2 0.99981961E-03 0.28366321E+03</pdfrwt>
<totfact> 0.38934449E+03</totfact>
</mgrwt>
</event>
<event>
 4    1  0.1866622E-004  0.2921537E+03  0.7818608E-02  0.1089230E+00
         -1   -1    0    0    0  501 -0.00000000000E+00  0.00000000000E+00  0.10608290921E+02  0.10608290921E+02  0.00000000000E+00 0.  1.
          1   -1    0    0  501    0  0.00000000000E+00 -0.00000000000E+00 -0.20114873956E+04  0.20114873956E+04  0.00000000000E+00 0.  1.
         25    1    1    2    0    0 -0.65384078740E+02 -0.51295325372E+02 -0.96119162292E+03  0.97221171775E+03  0.12000000000E+03 0.  0.
         25    1    1    2    0    0  0.65384078740E+02  0.51295325372E+02 -0.10396874818E+04  0.10498839688E+04  0.12000000000E+03 0.  0.
<mgrwt>
<rscale>  0 0.29215368E+03</rscale>
<asrwt>0</asrwt>
<pdfrwt beam="1">  1        1 0.30945981E+00 0.29215368E+03</pdfrwt>
<pdfrwt beam="2">  1       -1 0.16320436E-02 0.29215368E+03</pdfrwt>
<totfact> 0.30596959E+03</totfact>
</mgrwt>
</event>
<event>
 4    1  0.1866622E-004  0.2566542E+03  0.7818608E-02  0.1109170E+00
         -1   -1    0    0    0  501 -0.00000000000E+00  0.00000000000E+00  0.74972755273E+03  0.74972755273E+03  0.00000000000E+00 0. -1.
          1   -1    0    0  501    0  0.00000000000E+00 -0.00000000000E+00 -0.21965103293E+02  0.21965103293E+02  0.00000000000E+00 0. -1.
         25    1    1    2    0    0 -0.78695005604E+00 -0.43589480875E+02  0.32500451740E+03  0.34918275797E+03  0.12000000000E+03 0.  0.
         25    1    1    2    0    0  0.78695005604E+00  0.43589480875E+02  0.40275793203E+03  0.42250989805E+03  0.12000000000E+03 0.  0.
<mgrwt>
<rscale>  0 0.25665419E+03</rscale>
<asrwt>0</asrwt>
<pdfrwt beam="1">  1        1 0.33792472E-02 0.25665419E+03</pdfrwt>
<pdfrwt beam="2">  1       -1 0.11534268E+00 0.25665419E+03</pdfrwt>
<totfact> 0.20866378E+03</totfact>
</mgrwt>
</event>
<event>
 4    1  0.1866622E-004  0.3586593E+03  0.7818608E-02  0.1059116E+00
          2   -1    0    0  501    0  0.00000000000E+00  0.00000000000E+00  0.12277020676E+04  0.12277020676E+04  0.00000000000E+00 0. -1.
         -2   -1    0    0    0  501 -0.00000000000E+00 -0.00000000000E+00 -0.26194566953E+02  0.26194566953E+02  0.00000000000E+00 0. -1.
         25    1    1    2    0    0 -0.74993169647E+02  0.47332435032E+02  0.25299112396E+03  0.29371558301E+03  0.12000000000E+03 0.  0.
         25    1    1    2    0    0  0.74993169647E+02 -0.47332435032E+02  0.94851637664E+03  0.96018105150E+03  0.12000000000E+03 0.  0.
<mgrwt>
<rscale>  0 0.35865930E+03</rscale>
<asrwt>0</asrwt>
<pdfrwt beam="1">  1        2 0.18887720E+00 0.35865930E+03</pdfrwt>
<pdfrwt beam="2">  1       -2 0.40299343E-02 0.35865930E+03</pdfrwt>
<totfact> 0.52563911E+03</totfact>
</mgrwt>
</event>
<event>
 4    1  0.1866622E-004  0.2540287E+03  0.7818608E-02  0.1110785E+00
         -2   -1    0    0    0  501 -0.00000000000E+00  0.00000000000E+00  0.89774644936E+02  0.89774644936E+02  0.00000000000E+00 0. -1.
          2   -1    0    0  501    0  0.00000000000E+00 -0.00000000000E+00 -0.17970160407E+03  0.17970160407E+03  0.00000000000E+00 0. -1.
         25    1    1    2    0    0 -0.76288240967E+00  0.43929085518E+01 -0.10612120989E+01  0.12008749230E+03  0.12000000000E+03 0.  0.
         25    1    1    2    0    0  0.76288240967E+00 -0.43929085518E+01 -0.88865747035E+02  0.14938875671E+03  0.12000000000E+03 0.  0.
<mgrwt>
<rscale>  0 0.25402872E+03</rscale>
<asrwt>0</asrwt>
<pdfrwt beam="1">  1        2 0.27646401E-01 0.25402872E+03</pdfrwt>
<pdfrwt beam="2">  1       -2 0.13811484E-01 0.25402872E+03</pdfrwt>
<totfact> 0.74435570E+03</totfact>
</mgrwt>
</event>
<event>
 4    1  0.1866622E-004  0.2770509E+03  0.7818608E-02  0.1097311E+00
          1   -1    0    0  501    0  0.00000000000E+00  0.00000000000E+00  0.41505310382E+03  0.41505310382E+03  0.00000000000E+00 0. -1.
         -1   -1    0    0    0  501 -0.00000000000E+00 -0.00000000000E+00 -0.46233352125E+02  0.46233352125E+02  0.00000000000E+00 0. -1.
         25    1    1    2    0    0  0.39567658646E+02  0.56777261836E+02  0.18473964090E+03  0.23090689031E+03  0.12000000000E+03 0.  0.
         25    1    1    2    0    0 -0.39567658646E+02 -0.56777261836E+02  0.18408011080E+03  0.23037956564E+03  0.12000000000E+03 0.  0.
<mgrwt>
<rscale>  0 0.27705087E+03</rscale>
<asrwt>0</asrwt>
<pdfrwt beam="1">  1        1 0.63854321E-01 0.27705087E+03</pdfrwt>
<pdfrwt beam="2">  1       -1 0.71128237E-02 0.27705087E+03</pdfrwt>
<totfact> 0.59232154E+03</totfact>
</mgrwt>
</event>
<event>
 4    1  0.1866622E-004  0.3067761E+03  0.7818608E-02  0.1081902E+00
          1   -1    0    0  501    0  0.00000000000E+00  0.00000000000E+00  0.23401007425E+02  0.23401007425E+02  0.00000000000E+00 0. -1.
         -1   -1    0    0    0  501 -0.00000000000E+00 -0.00000000000E+00 -0.10054221438E+04  0.10054221438E+04  0.00000000000E+00 0. -1.
         25    1    1    2    0    0  0.74888154852E+02  0.56415734633E+02 -0.42945281532E+03  0.45565413576E+03  0.12000000000E+03 0.  0.
         25    1    1    2    0    0 -0.74888154852E+02 -0.56415734633E+02 -0.55256832104E+03  0.57316901544E+03  0.12000000000E+03 0.  0.
<mgrwt>
<rscale>  0 0.30677608E+03</rscale>
<asrwt>0</asrwt>
<pdfrwt beam="1">  1        1 0.36001554E-02 0.30677608E+03</pdfrwt>
<pdfrwt beam="2">  1       -1 0.15468031E+00 0.30677608E+03</pdfrwt>
<totfact> 0.92017553E+02</totfact>
</mgrwt>
</event>
<event>
 4    1  0.1866622E-004  0.2874579E+03  0.7818608E-02  0.1091684E+00
          2   -1    0    0  501    0  0.00000000000E+00  0.00000000000E+00  0.91360298891E+03  0.91360298891E+03  0.00000000000E+00 0. -1.
         -2   -1    0    0    0  501 -0.00000000000E+00 -0.00000000000E+00 -0.22611584258E+02  0.22611584258E+02  0.00000000000E+00 0. -1.
         25    1    1    2    0    0 -0.57982586896E+01 -0.69984292175E+01  0.18955806371E+03  0.22453253068E+03  0.12000000000E+03 0.  0.
         25    1    1    2    0    0  0.57982586896E+01  0.69984292175E+01  0.70143334094E+03  0.71168204249E+03  0.12000000000E+03 0.  0.
<mgrwt>
<rscale>  0 0.28745790E+03</rscale>
<asrwt>0</asrwt>
<pdfrwt beam="1">  1        2 0.14055428E+00 0.28745790E+03</pdfrwt>
<pdfrwt beam="2">  1       -2 0.34787060E-02 0.28745790E+03</pdfrwt>
<totfact> 0.10089488E+04</totfact>
</mgrwt>
</event>
<event>
 4    1  0.1866622E-004  0.2627224E+03  0.7818608E-02  0.1105519E+00
          2   -1    0    0  501    0  0.00000000000E+00  0.00000000000E+00  0.40917830363E+04  0.40917830363E+04  0.00000000000E+00 0. -1.
         -2   -1    0    0    0  501 -0.00000000000E+00 -0.00000000000E+00 -0.42171748443E+01  0.42171748443E+01  0.00000000000E+00 0. -1.
         25    1    1    2    0    0  0.26355391413E+02 -0.77007223761E+00  0.27684633428E+04  0.27711882794E+04  0.12000000000E+03 0.  0.
         25    1    1    2    0    0 -0.26355391413E+02  0.77007223761E+00  0.13191025187E+04  0.13248119317E+04  0.12000000000E+03 0.  0.
<mgrwt>
<rscale>  0 0.26272240E+03</rscale>
<asrwt>0</asrwt>
<pdfrwt beam="1">  1        2 0.62950191E+00 0.26272240E+03</pdfrwt>
<pdfrwt beam="2">  1       -2 0.64879940E-03 0.26272240E+03</pdfrwt>
<totfact> 0.15179889E+03</totfact>
</mgrwt>
</event>
<event>
 4    1  0.1866622E-004  0.2493781E+03  0.7818608E-02  0.1113699E+00
          1   -1    0    0  501    0  0.00000000000E+00  0.00000000000E+00  0.13495601075E+04  0.13495601075E+04  0.00000000000E+00 0.  1.
         -1   -1    0    0    0  501 -0.00000000000E+00 -0.00000000000E+00 -0.11520312037E+02  0.11520312037E+02  0.00000000000E+00 0.  1.
         25    1    1    2    0    0 -0.33800927425E+02  0.15096334127E+01  0.66026704772E+03  0.67193552964E+03  0.12000000000E+03 0.  0.
         25    1    1    2    0    0  0.33800927425E+02 -0.15096334127E+01  0.67777274773E+03  0.68914488989E+03  0.12000000000E+03 0.  0.
<mgrwt>
<rscale>  0 0.24937805E+03</rscale>
<asrwt>0</asrwt>
<pdfrwt beam="1">  1        1 0.20762451E+00 0.24937805E+03</pdfrwt>
<pdfrwt beam="2">  1       -1 0.17723568E-02 0.24937805E+03</pdfrwt>
<totfact> 0.73687022E+03</totfact>
</mgrwt>
</event>
<event>
 4    1  0.1866622E-004  0.3005234E+03  0.7818608E-02  0.1084979E+00
         -2   -1    0    0    0  501 -0.00000000000E+00  0.00000000000E+00  0.22615780950E+03  0.22615780950E+03  0.00000000000E+00 0.  1.
          2   -1    0    0  501    0  0.00000000000E+00 -0.00000000000E+00 -0.99835505731E+02  0.99835505731E+02  0.00000000000E+00 0.  1.
         25    1    1    2    0    0  0.57060020155E+02  0.51628967839E+01  0.13906338476E+03  0.19240874820E+03  0.12000000000E+03 0.  0.
         25    1    1    2    0    0 -0.57060020155E+02 -0.51628967839E+01 -0.12741080993E+02  0.13358456703E+03  0.12000000000E+03 0.  0.
<mgrwt>
<rscale>  0 0.30052341E+03</rscale>
<asrwt>0</asrwt>
<pdfrwt beam="1">  1        2 0.15359309E-01 0.30052341E+03</pdfrwt>
<pdfrwt beam="2">  1       -2 0.34793509E-01 0.30052341E+03</pdfrwt>
<totfact> 0.29406911E+03</totfact>
</mgrwt>
</event>
<event>
 4    1  0.1866622E-004  0.2743152E+03  0.7818608E-02  0.1098835E+00
         -4   -1    0    0    0  501 -0.00000000000E+00  0.00000000000E+00  0.11811838047E+03  0.11811838047E+03  0.00000000000E+00 0. -1.
          4   -1    0    0  501    0  0.00000000000E+00 -0.00000000000E+00 -0.15926571946E+03  0.15926571946E+03  0.00000000000E+00 0. -1.
         25    1    1    2    0    0 -0.15924151776E+02  0.34415667189E+02  0.34572605050E+02  0.13051161549E+03  0.12000000000E+03 0.  0.
         25    1    1    2    0    0  0.15924151776E+02 -0.34415667189E+02 -0.75719944042E+02  0.14687248443E+03  0.12000000000E+03 0.  0.
<mgrwt>
<rscale>  0 0.27431521E+03</rscale>
<asrwt>0</asrwt>
<pdfrwt beam="1">  1        4 0.24502418E-01 0.27431521E+03</pdfrwt>
<pdfrwt beam="2">  1       -4 0.18172059E-01 0.27431521E+03</pdfrwt>
<totfact> 0.78184625E+02</totfact>
</mgrwt>
</event>
<event>
 4    1  0.1866622E-004  0.2511833E+03  0.7818608E-02  0.1112559E+00
         -1   -1    0    0    0  501 -0.00000000000E+00  0.00000000000E+00  0.11820584542E+04  0.11820584542E+04  0.00000000000E+00 0.  1.
          1   -1    0    0  501    0  0.00000000000E+00 -0.00000000000E+00 -0.13343889743E+02  0.13343889743E+02  0.00000000000E+00 0.  1.
         25    1    1    2    0    0 -0.29483811536E+02 -0.21211710490E+02  0.54937691840E+03  0.56350175712E+03  0.12000000000E+03 0.  0.
         25    1    1    2    0    0  0.29483811536E+02  0.21211710490E+02  0.61933764603E+03  0.63190058679E+03  0.12000000000E+03 0.  0.
<mgrwt>
<rscale>  0 0.25118326E+03</rscale>
<asrwt>0</asrwt>
<pdfrwt beam="1">  1        1 0.20529070E-02 0.25118326E+03</pdfrwt>
<pdfrwt beam="2">  1       -1 0.18185506E+00 0.25118326E+03</pdfrwt>
<totfact> 0.12910376E+03</totfact>
</mgrwt>
</event>
<event>
 4    1  0.1866622E-004  0.3610812E+03  0.7818608E-02  0.1058157E+00
         -1   -1    0    0    0  501 -0.00000000000E+00  0.00000000000E+00  0.35932231295E+02  0.35932231295E+02  0.00000000000E+00 0. -1.
          1   -1    0    0  501    0  0.00000000000E+00 -0.00000000000E+00 -0.90712170386E+03  0.90712170386E+03  0.00000000000E+00 0. -1.
         25    1    1    2    0    0  0.74266535913E+02 -0.11240713605E+03 -0.45292390827E+03  0.48753558770E+03  0.12000000000E+03 0.  0.
         25    1    1    2    0    0 -0.74266535913E+02  0.11240713605E+03 -0.41826556430E+03  0.45551834746E+03  0.12000000000E+03 0.  0.
<mgrwt>
<rscale>  0 0.36108119E+03</rscale>
<asrwt>0</asrwt>
<pdfrwt beam="1">  1        1 0.13955718E+00 0.36108119E+03</pdfrwt>
<pdfrwt beam="2">  1       -1 0.55280359E-02 0.36108119E+03</pdfrwt>
<totfact> 0.28594939E+03</totfact>
</mgrwt>
</event>
<event>
 4    1  0.1866622E-004  0.2574455E+03  0.7818608E-02  0.1108688E+00
         -1   -1    0    0    0  501 -0.00000000000E+00  0.00000000000E+00  0.53817482246E+02  0.53817482246E+02  0.00000000000E+00 0.  1.
          1   -1    0    0  501    0  0.00000000000E+00 -0.00000000000E+00 -0.30788410205E+03  0.30788410205E+03  0.00000000000E+00 0.  1.
         25    1    1    2    0    0 -0.26036488871E+02  0.34131208468E+02 -0.10163845833E+03  0.16301292696E+03  0.12000000000E+03 0.  0.
         25    1    1    2    0    0  0.26036488871E+02 -0.34131208468E+02 -0.15242816147E+03  0.19868865734E+03  0.12000000000E+03 0.  0.
<mgrwt>
<rscale>  0 0.25744551E+03</rscale>
<asrwt>0</asrwt>
<pdfrwt beam="1">  1        1 0.47366785E-01 0.25744551E+03</pdfrwt>
<pdfrwt beam="2">  1       -1 0.82796126E-02 0.25744551E+03</pdfrwt>
<totfact> 0.68502489E+03</totfact>
</mgrwt>
</event>
<event>
 4    1  0.1866622E-004  0.2890256E+03  0.7818608E-02  0.1090859E+00
         -2   -1    0    0    0  501 -0.00000000000E+00  0.00000000000E+00  0.58590027047E+02  0.58590027047E+02  0.00000000000E+00 0. -1.
          2   -1    0    0  501    0  0.00000000000E+00 -0.00000000000E+00 -0.35644216042E+03  0.35644216042E+03  0.00000000000E+00 0. -1.
         25    1    1    2    0    0  0.44146663018E+02  0.41603798681E+02 -0.22496677760E+03  0.26208749483E+03  0.12000000000E+03 0.  0.
         25    1    1    2    0    0 -0.44146663018E+02 -0.41603798681E+02 -0.72885355769E+02  0.15294469264E+03  0.12000000000E+03 0.  0.
<mgrwt>
<rscale>  0 0.28902564E+03</rscale>
<asrwt>0</asrwt>
<pdfrwt beam="1">  1        2 0.54837255E-01 0.28902564E+03</pdfrwt>
<pdfrwt beam="2">  1       -2 0.90138503E-02 0.28902564E+03</pdfrwt>
<totfact> 0.70633665E+03</totfact>
</mgrwt>
</event>
<event>
 4    1  0.1866622E-004  0.2426088E+03  0.7818608E-02  0.1118067E+00
          1   -1    0    0  501    0  0.00000000000E+00  0.00000000000E+00  0.86103084658E+03  0.86103084658E+03  0.00000000000E+00 0. -1.
         -1   -1    0    0    0  501 -0.00000000000E+00 -0.00000000000E+00 -0.17089697807E+02  0.17089697807E+02  0.00000000000E+00 0. -1.
         25    1    1    2    0    0 -0.16760382072E+02  0.38766497959E+01  0.40626925822E+03  0.42397010389E+03  0.12000000000E+03 0.  0.
         25    1    1    2    0    0  0.16760382072E+02 -0.38766497959E+01  0.43767189055E+03  0.45415044049E+03  0.12000000000E+03 0.  0.
<mgrwt>
<rscale>  0 0.24260880E+03</rscale>
<asrwt>0</asrwt>
<pdfrwt beam="1">  1        1 0.13246625E+00 0.24260880E+03</pdfrwt>
<pdfrwt beam="2">  1       -1 0.26291849E-02 0.24260880E+03</pdfrwt>
<totfact> 0.93407574E+03</totfact>
</mgrwt>
</event>
<event>
 4    1  0.1866622E-004  0.4720941E+03  0.7818608E-02  0.1021331E+00
         -2   -1    0    0    0  501 -0.00000000000E+00  0.00000000000E+00  0.36836500958E+03  0.36836500958E+03  0.00000000000E+00 0.  1.
          2   -1    0    0  501    0  0.00000000000E+00 -0.00000000000E+00 -0.15125817065E+03  0.15125817065E+03  0.00000000000E+00 0.  1.
         25    1    1    2    0    0 -0.15440031963E+02  0.91571413756E+02 -0.90466826081E+02  0.17665776243E+03  0.12000000000E+03 0.  0.
         25    1    1    2    0    0  0.15440031963E+02 -0.91571413756E+02  0.30757366501E+03  0.34296541781E+03  0.12000000000E+03 0.  0.
<mgrwt>
<rscale>  0 0.47209413E+03</rscale>
<asrwt>0</asrwt>
<pdfrwt beam="1">  1        2 0.23270488E-01 0.47209413E+03</pdfrwt>
<pdfrwt beam="2">  1       -2 0.56671540E-01 0.47209413E+03</pdfrwt>
<totfact> 0.69903556E+02</totfact>
</mgrwt>
</event>
<event>
 4    1  0.1866622E-004  0.3260827E+03  0.7818608E-02  0.1072883E+00
          2   -1    0    0  501    0  0.00000000000E+00  0.00000000000E+00  0.42972029007E+03  0.42972029007E+03  0.00000000000E+00 0.  1.
         -2   -1    0    0    0  501 -0.00000000000E+00 -0.00000000000E+00 -0.61859964970E+02  0.61859964970E+02  0.00000000000E+00 0.  1.
         25    1    1    2    0    0  0.36085542572E+02 -0.91424224401E+02  0.10822370643E+03  0.18913732002E+03  0.12000000000E+03 0.  0.
         25    1    1    2    0    0 -0.36085542572E+02  0.91424224401E+02  0.25963661868E+03  0.30244293503E+03  0.12000000000E+03 0.  0.
<mgrwt>
<rscale>  0 0.32608270E+03</rscale>
<asrwt>0</asrwt>
<pdfrwt beam="1">  1        2 0.66110812E-01 0.32608270E+03</pdfrwt>
<pdfrwt beam="2">  1       -2 0.95169179E-02 0.32608270E+03</pdfrwt>
<totfact> 0.53046507E+03</totfact>
</mgrwt>
</event>
<event>
 4    1  0.1866622E-004  0.3486717E+03  0.7818608E-02  0.1063162E+00
          2   -1    0    0  501    0  0.00000000000E+00  0.00000000000E+00  0.94393285553E+02  0.94393285553E+02  0.00000000000E+00 0. -1.
         -2   -1    0    0    0  501 -0.00000000000E+00 -0.00000000000E+00 -0.32198246310E+03  0.32198246310E+03  0.00000000000E+00 0. -1.
         25    1    1    2    0    0 -0.34979354811E+02 -0.87390509527E+02 -0.12942622937E+02  0.15306262740E+03  0.12000000000E+03 0.  0.
         25    1    1    2    0    0  0.34979354811E+02  0.87390509527E+02 -0.21464655461E+03  0.26331312126E+03  0.12000000000E+03 0.  0.
<mgrwt>
<rscale>  0 0.34867167E+03</rscale>
<asrwt>0</asrwt>
<pdfrwt beam="1">  1        2 0.14522044E-01 0.34867167E+03</pdfrwt>
<pdfrwt beam="2">  1       -2 0.49535764E-01 0.34867167E+03</pdfrwt>
<totfact> 0.15937672E+03</totfact>
</mgrwt>
</event>
<event>
 4    1  0.1866622E-004  0.2815683E+03  0.7818608E-02  0.1094835E+00
         -2   -1    0    0    0  501 -0.00000000000E+00  0.00000000000E+00  0.43312820970E+02  0.43312820970E+02  0.00000000000E+00 0.  1.
          2   -1    0    0  501    0  0.00000000000E+00 -0.00000000000E+00 -0.45760529693E+03  0.45760529693E+03  0.00000000000E+00 0.  1.
         25    1    1    2    0    0  0.37127367035E+02  0.63287041046E+02 -0.21789212491E+03  0.25934661949E+03  0.12000000000E+03 0.  0.
         25    1    1    2    0    0 -0.37127367035E+02 -0.63287041046E+02 -0.19640035105E+03  0.24157149840E+03  0.12000000000E+03 0.  0.
<mgrwt>
<rscale>  0 0.28156830E+03</rscale>
<asrwt>0</asrwt>
<pdfrwt beam="1">  1        2 0.70400812E-01 0.28156830E+03</pdfrwt>
<pdfrwt beam="2">  1       -2 0.66635112E-02 0.28156830E+03</pdfrwt>
<totfact> 0.86110666E+03</totfact>
</mgrwt>
</event>
<event>
 4    1  0.1866622E-004  0.2585663E+03  0.7818608E-02  0.1108008E+00
          1   -1    0    0  501    0  0.00000000000E+00  0.00000000000E+00  0.89871361311E+02  0.89871361311E+02  0.00000000000E+00 0. -1.
         -1   -1    0    0    0  501 -0.00000000000E+00 -0.00000000000E+00 -0.18597836497E+03  0.18597836497E+03  0.00000000000E+00 0. -1.
         25    1    1    2    0    0  0.39428112110E+02  0.23190664137E+01 -0.77351414500E+02  0.14813235777E+03  0.12000000000E+03 0.  0.
         25    1    1    2    0    0 -0.39428112110E+02 -0.23190664137E+01 -0.18755589154E+02  0.12771736851E+03  0.12000000000E+03 0.  0.
<mgrwt>
<rscale>  0 0.25856627E+03</rscale>
<asrwt>0</asrwt>
<pdfrwt beam="1">  1        1 0.13826363E-01 0.25856627E+03</pdfrwt>
<pdfrwt beam="2">  1       -1 0.28612056E-01 0.25856627E+03</pdfrwt>
<totfact> 0.45585624E+03</totfact>
</mgrwt>
</event>
<event>
 4    1  0.1866622E-004  0.2897261E+03  0.7818608E-02  0.1090492E+00
         -2   -1    0    0    0  501 -0.00000000000E+00  0.00000000000E+00  0.27913017442E+02  0.27913017442E+02  0.00000000000E+00 0. -1.
          2   -1    0    0  501    0  0.00000000000E+00 -0.00000000000E+00 -0.75181065965E+03  0.75181065965E+03  0.00000000000E+00 0. -1.
         25    1    1    2    0    0 -0.65518467009E+02  0.35869498302E+02 -0.44730894279E+03  0.46911041421E+03  0.12000000000E+03 0.  0.
         25    1    1    2    0    0  0.65518467009E+02 -0.35869498302E+02 -0.27658869942E+03  0.31061326288E+03  0.12000000000E+03 0.  0.
<mgrwt>
<rscale>  0 0.28972611E+03</rscale>
<asrwt>0</asrwt>
<pdfrwt beam="1">  1        2 0.11566319E+00 0.28972611E+03</pdfrwt>
<pdfrwt beam="2">  1       -2 0.42943098E-02 0.28972611E+03</pdfrwt>
<totfact> 0.94628906E+03</totfact>
</mgrwt>
</event>
<event>
 4    1  0.1866622E-004  0.2522110E+03  0.7818608E-02  0.1111915E+00
          3   -1    0    0  501    0  0.00000000000E+00  0.00000000000E+00  0.99241729332E+03  0.99241729332E+03  0.00000000000E+00 0.  1.
         -3   -1    0    0    0  501 -0.00000000000E+00 -0.00000000000E+00 -0.16024103845E+02  0.16024103845E+02  0.00000000000E+00 0.  1.
         25    1    1    2    0    0  0.36370884041E+02  0.31308842985E+01  0.43607082446E+03  0.45375148219E+03  0.12000000000E+03 0.  0.
         25    1    1    2    0    0 -0.36370884041E+02 -0.31308842985E+01  0.54032236501E+03  0.55468991497E+03  0.12000000000E+03 0.  0.
<mgrwt>
<rscale>  0 0.25221101E+03</rscale>
<asrwt>0</asrwt>
<pdfrwt beam="1">  1        3 0.15267953E+00 0.25221101E+03</pdfrwt>
<pdfrwt beam="2">  1       -3 0.24652475E-02 0.25221101E+03</pdfrwt>
<totfact> 0.57068618E+02</totfact>
</mgrwt>
</event>
<event>
 4    1  0.1866622E-004  0.3076502E+03  0.7818608E-02  0.1081478E+00
          2   -1    0    0  501    0  0.00000000000E+00  0.00000000000E+00  0.15177478411E+04  0.15177478411E+04  0.00000000000E+00 0.  1.
         -2   -1    0    0    0  501 -0.00000000000E+00 -0.00000000000E+00 -0.15590315735E+02  0.15590315735E+02  0.00000000000E+00 0.  1.
         25    1    1    2    0    0  0.39720605064E+02  0.87499769232E+02  0.72459673439E+03  0.74072556562E+03  0.12000000000E+03 0.  0.
         25    1    1    2    0    0 -0.39720605064E+02 -0.87499769232E+02  0.77756079094E+03  0.79261259118E+03  0.12000000000E+03 0.  0.
<mgrwt>
<rscale>  0 0.30765024E+03</rscale>
<asrwt>0</asrwt>
<pdfrwt beam="1">  1        2 0.23349955E+00 0.30765024E+03</pdfrwt>
<pdfrwt beam="2">  1       -2 0.23985113E-02 0.30765024E+03</pdfrwt>
<totfact> 0.79045245E+03</totfact>
</mgrwt>
</event>
<event>
 4    1  0.1866622E-004  0.3769843E+03  0.7818608E-02  0.1052054E+00
          2   -1    0    0  501    0  0.00000000000E+00  0.00000000000E+00  0.87717484255E+03  0.87717484255E+03  0.00000000000E+00 0.  1.
         -2   -1    0    0    0  501 -0.00000000000E+00 -0.00000000000E+00 -0.40504226284E+02  0.40504226284E+02  0.00000000000E+00 0.  1.
         25    1    1    2    0    0 -0.13329304993E+03 -0.55851425554E+02  0.38039909361E+03  0.42425215299E+03  0.12000000000E+03 0.  0.
         25    1    1    2    0    0  0.13329304993E+03  0.55851425554E+02  0.45627152265E+03  0.49342691584E+03  0.12000000000E+03 0.  0.
<mgrwt>
<rscale>  0 0.37698429E+03</rscale>
<asrwt>0</asrwt>
<pdfrwt beam="1">  1        2 0.13494996E+00 0.37698429E+03</pdfrwt>
<pdfrwt beam="2">  1       -2 0.62314201E-02 0.37698429E+03</pdfrwt>
<totfact> 0.44107994E+03</totfact>
</mgrwt>
</event>
<event>
 4    1  0.1866622E-004  0.3282026E+03  0.7818608E-02  0.1071935E+00
         -2   -1    0    0    0  501 -0.00000000000E+00  0.00000000000E+00  0.40325816890E+02  0.40325816890E+02  0.00000000000E+00 0. -1.
          2   -1    0    0  501    0  0.00000000000E+00 -0.00000000000E+00 -0.66779160785E+03  0.66779160785E+03  0.00000000000E+00 0. -1.
         25    1    1    2    0    0  0.39897151563E+02 -0.17846783404E+02 -0.53606595447E+03  0.55106895932E+03  0.12000000000E+03 0.  0.
         25    1    1    2    0    0 -0.39897151563E+02  0.17846783404E+02 -0.91399836487E+02  0.15704846542E+03  0.12000000000E+03 0.  0.
<mgrwt>
<rscale>  0 0.32820263E+03</rscale>
<asrwt>0</asrwt>
<pdfrwt beam="1">  1        2 0.10273716E+00 0.32820263E+03</pdfrwt>
<pdfrwt beam="2">  1       -2 0.62039724E-02 0.32820263E+03</pdfrwt>
<totfact> 0.62594019E+03</totfact>
</mgrwt>
</event>
<event>
 4    1  0.1866622E-004  0.2762237E+03  0.7818608E-02  0.1097770E+00
          1   -1    0    0  501    0  0.00000000000E+00  0.00000000000E+00  0.23539840762E+03  0.23539840762E+03  0.00000000000E+00 0.  1.
         -1   -1    0    0    0  501 -0.00000000000E+00 -0.00000000000E+00 -0.81032314681E+02  0.81032314681E+02  0.00000000000E+00 0.  1.
         25    1    1    2    0    0  0.12363754760E+02  0.67093055276E+02  0.82374511036E+02  0.16074794110E+03  0.12000000000E+03 0.  0.
         25    1    1    2    0    0 -0.12363754760E+02 -0.67093055276E+02  0.71991581898E+02  0.15568278120E+03  0.12000000000E+03 0.  0.
<mgrwt>
<rscale>  0 0.27622366E+03</rscale>
<asrwt>0</asrwt>
<pdfrwt beam="1">  1        1 0.36215139E-01 0.27622366E+03</pdfrwt>
<pdfrwt beam="2">  1       -1 0.12466510E-01 0.27622366E+03</pdfrwt>
<totfact> 0.51080193E+03</totfact>
</mgrwt>
</event>
<event>
 4    1  0.1866622E-004  0.3568461E+03  0.7818608E-02  0.1059840E+00
          1   -1    0    0  501    0  0.00000000000E+00  0.00000000000E+00  0.19132330699E+04  0.19132330699E+04  0.00000000000E+00 0. -1.
         -1   -1    0    0    0  501 -0.00000000000E+00 -0.00000000000E+00 -0.16639260192E+02  0.16639260192E+02  0.00000000000E+00 0. -1.
         25    1    1    2    0    0 -0.44692168810E+02 -0.69429425623E+02  0.15055435699E+04  0.15125737258E+04  0.12000000000E+03 0.  0.
         25    1    1    2    0    0  0.44692168810E+02  0.69429425623E+02  0.39105023983E+03  0.41729860432E+03  0.12000000000E+03 0.  0.
<mgrwt>
<rscale>  0 0.35684609E+03</rscale>
<asrwt>0</asrwt>
<pdfrwt beam="1">  1        1 0.29434337E+00 0.35684609E+03</pdfrwt>
<pdfrwt beam="2">  1       -1 0.25598877E-02 0.35684609E+03</pdfrwt>
<totfact> 0.18247735E+03</totfact>
</mgrwt>
</event>
<event>
 4    1  0.1866622E-004  0.3145877E+03  0.7818608E-02  0.1078168E+00
         -1   -1    0    0    0  501 -0.00000000000E+00  0.00000000000E+00  0.85443022914E+01  0.85443022914E+01  0.00000000000E+00 0. -1.
          1   -1    0    0  501    0  0.00000000000E+00 -0.00000000000E+00 -0.28956555262E+04  0.28956555262E+04  0.00000000000E+00 0. -1.
         25    1    1    2    0    0  0.51950839793E+02  0.14941279481E+01 -0.63662149333E+03  0.64991387733E+03  0.12000000000E+03 0.  0.
         25    1    1    2    0    0 -0.51950839793E+02 -0.14941279481E+01 -0.22504897305E+04  0.22542859511E+04  0.12000000000E+03 0.  0.
<mgrwt>
<rscale>  0 0.31458771E+03</rscale>
<asrwt>0</asrwt>
<pdfrwt beam="1">  1        1 0.44548490E+00 0.31458771E+03</pdfrwt>
<pdfrwt beam="2">  1       -1 0.13145097E-02 0.31458771E+03</pdfrwt>
<totfact> 0.10771161E+03</totfact>
</mgrwt>
</event>
<event>
 4    1  0.1866622E-004  0.2733725E+03  0.7818608E-02  0.1099365E+00
         -2   -1    0    0    0  501 -0.00000000000E+00  0.00000000000E+00  0.44564967250E+02  0.44564967250E+02  0.00000000000E+00 0.  1.
          2   -1    0    0  501    0  0.00000000000E+00 -0.00000000000E+00 -0.41923361205E+03  0.41923361205E+03  0.00000000000E+00 0.  1.
         25    1    1    2    0    0 -0.99659862912E+01 -0.18948620286E+02 -0.82409865074E+02  0.14713856379E+03  0.12000000000E+03 0.  0.
         25    1    1    2    0    0  0.99659862912E+01  0.18948620286E+02 -0.29225877972E+03  0.31666001550E+03  0.12000000000E+03 0.  0.
<mgrwt>
<rscale>  0 0.27337251E+03</rscale>
<asrwt>0</asrwt>
<pdfrwt beam="1">  1        2 0.64497478E-01 0.27337251E+03</pdfrwt>
<pdfrwt beam="2">  1       -2 0.68561489E-02 0.27337251E+03</pdfrwt>
<totfact> 0.90614339E+03</totfact>
</mgrwt>
</event>
<event>
 4    1  0.1866622E-004  0.3101849E+03  0.7818608E-02  0.1080257E+00
         -1   -1    0    0    0  501 -0.00000000000E+00  0.00000000000E+00  0.65132003596E+02  0.65132003596E+02  0.00000000000E+00 0.  1.
          1   -1    0    0  501    0  0.00000000000E+00 -0.00000000000E+00 -0.36930646437E+03  0.36930646437E+03  0.00000000000E+00 0.  1.
         25    1    1    2    0    0  0.35400688064E+02 -0.11129508922E+02 -0.24668444241E+02  0.12800627651E+03  0.12000000000E+03 0.  0.
         25    1    1    2    0    0 -0.35400688064E+02  0.11129508922E+02 -0.27950601654E+03  0.30643219146E+03  0.12000000000E+03 0.  0.
<mgrwt>
<rscale>  0 0.31018491E+03</rscale>
<asrwt>0</asrwt>
<pdfrwt beam="1">  1        1 0.56816379E-01 0.31018491E+03</pdfrwt>
<pdfrwt beam="2">  1       -1 0.10020308E-01 0.31018491E+03</pdfrwt>
<totfact> 0.40786376E+03</totfact>
</mgrwt>
</event>
<event>
 4    1  0.1866622E-004  0.2702109E+03  0.7818608E-02  0.1101159E+00
         -1   -1    0    0    0  501 -0.00000000000E+00  0.00000000000E+00  0.12005380913E+03  0.12005380913E+03  0.00000000000E+00 0.  1.
          1   -1    0    0  501    0  0.00000000000E+00 -0.00000000000E+00 -0.15204421777E+03  0.15204421777E+03  0.00000000000E+00 0.  1.
         25    1    1    2    0    0  0.24275531169E+02  0.56539980441E+02 -0.77270950127E+01  0.13507693659E+03  0.12000000000E+03 0.  0.
         25    1    1    2    0    0 -0.24275531169E+02 -0.56539980441E+02 -0.24263313628E+02  0.13702109031E+03  0.12000000000E+03 0.  0.
<mgrwt>
<rscale>  0 0.27021094E+03</rscale>
<asrwt>0</asrwt>
<pdfrwt beam="1">  1        1 0.23391418E-01 0.27021094E+03</pdfrwt>
<pdfrwt beam="2">  1       -1 0.18469817E-01 0.27021094E+03</pdfrwt>
<totfact> 0.47509548E+03</totfact>
</mgrwt>
</event>
<event>
 4    1  0.1866622E-004  0.2973826E+03  0.7818608E-02  0.1086556E+00
         -2   -1    0    0    0  501 -0.00000000000E+00  0.00000000000E+00  0.39658190938E+02  0.39658190938E+02  0.00000000000E+00 0. -1.
          2   -1    0    0  501    0  0.00000000000E+00 -0.00000000000E+00 -0.55749134839E+03  0.55749134839E+03  0.00000000000E+00 0. -1.
         25    1    1    2    0    0  0.64948150526E+02  0.47883104509E+02 -0.18941349970E+03  0.23830343645E+03  0.12000000000E+03 0.  0.
         25    1    1    2    0    0 -0.64948150526E+02 -0.47883104509E+02 -0.32841965776E+03  0.35884610288E+03  0.12000000000E+03 0.  0.
<mgrwt>
<rscale>  0 0.29738257E+03</rscale>
<asrwt>0</asrwt>
<pdfrwt beam="1">  1        2 0.85767891E-01 0.29738257E+03</pdfrwt>
<pdfrwt beam="2">  1       -2 0.61012608E-02 0.29738257E+03</pdfrwt>
<totfact> 0.79162764E+03</totfact>
</mgrwt>
</event>
<event>
 4    1  0.1866622E-004  0.2808542E+03  0.7818608E-02  0.1095223E+00
         -2   -1    0    0    0  501 -0.00000000000E+00  0.00000000000E+00  0.33874680163E+03  0.33874680163E+03  0.00000000000E+00 0.  1.
          2   -1    0    0  501    0  0.00000000000E+00 -0.00000000000E+00 -0.58213882217E+02  0.58213882217E+02  0.00000000000E+00 0.  1.
         25    1    1    2    0    0  0.22599940461E+02 -0.36770061062E+02  0.22336904394E+03  0.25720910655E+03  0.12000000000E+03 0.  0.
         25    1    1    2    0    0 -0.22599940461E+02  0.36770061062E+02  0.57163875474E+02  0.13975157730E+03  0.12000000000E+03 0.  0.
<mgrwt>
<rscale>  0 0.28085417E+03</rscale>
<asrwt>0</asrwt>
<pdfrwt beam="1">  1        2 0.89559821E-02 0.28085417E+03</pdfrwt>
<pdfrwt beam="2">  1       -2 0.52114891E-01 0.28085417E+03</pdfrwt>
<totfact> 0.25954752E+03</totfact>
</mgrwt>
</event>
<event>
 4    1  0.1866622E-004  0.2620056E+03  0.7818608E-02  0.1105944E+00
         -2   -1    0    0    0  501 -0.00000000000E+00  0.00000000000E+00  0.33556432111E+03  0.33556432111E+03  0.00000000000E+00 0. -1.
          2   -1    0    0  501    0  0.00000000000E+00 -0.00000000000E+00 -0.51142901368E+02  0.51142901368E+02  0.00000000000E+00 0. -1.
         25    1    1    2    0    0 -0.18149884615E+02  0.34671216060E+02  0.90442474221E+02  0.15527830717E+03  0.12000000000E+03 0.  0.
         25    1    1    2    0    0  0.18149884615E+02 -0.34671216060E+02  0.19397894552E+03  0.23142891531E+03  0.12000000000E+03 0.  0.
<mgrwt>
<rscale>  0 0.26200560E+03</rscale>
<asrwt>0</asrwt>
<pdfrwt beam="1">  1        2 0.78681389E-02 0.26200560E+03</pdfrwt>
<pdfrwt beam="2">  1       -2 0.51625279E-01 0.26200560E+03</pdfrwt>
<totfact> 0.31093217E+03</totfact>
</mgrwt>
</event>
<event>
 4    1  0.1866622E-004  0.4731914E+03  0.7818608E-02  0.1021023E+00
          2   -1    0    0  501    0  0.00000000000E+00  0.00000000000E+00  0.47902079706E+03  0.47902079706E+03  0.00000000000E+00 0. -1.
         -2   -1    0    0    0  501 -0.00000000000E+00 -0.00000000000E+00 -0.11685825656E+03  0.11685825656E+03  0.00000000000E+00 0. -1.
         25    1    1    2    0    0 -0.43230306032E+02 -0.18789519332E+03  0.26465089488E+03  0.34873135677E+03  0.12000000000E+03 0.  0.
         25    1    1    2    0    0  0.43230306032E+02  0.18789519332E+03  0.97511645620E+02  0.24714769686E+03  0.12000000000E+03 0.  0.
<mgrwt>
<rscale>  0 0.47319144E+03</rscale>
<asrwt>0</asrwt>
<pdfrwt beam="1">  1        2 0.73695506E-01 0.47319144E+03</pdfrwt>
<pdfrwt beam="2">  1       -2 0.17978194E-01 0.47319144E+03</pdfrwt>
<totfact> 0.16581718E+03</totfact>
</mgrwt>
</event>
<event>
 4    1  0.1866622E-004  0.2829657E+03  0.7818608E-02  0.1094080E+00
          1   -1    0    0  501    0  0.00000000000E+00  0.00000000000E+00  0.68997258416E+03  0.68997258416E+03  0.00000000000E+00 0.  1.
         -1   -1    0    0    0  501 -0.00000000000E+00 -0.00000000000E+00 -0.29011881154E+02  0.29011881154E+02  0.00000000000E+00 0.  1.
         25    1    1    2    0    0  0.65645277907E+02 -0.35588790560E+02  0.31410431150E+03  0.34443777816E+03  0.12000000000E+03 0.  0.
         25    1    1    2    0    0 -0.65645277907E+02  0.35588790560E+02  0.34685639150E+03  0.37454668715E+03  0.12000000000E+03 0.  0.
<mgrwt>
<rscale>  0 0.28296574E+03</rscale>
<asrwt>0</asrwt>
<pdfrwt beam="1">  1        1 0.10614962E+00 0.28296574E+03</pdfrwt>
<pdfrwt beam="2">  1       -1 0.44633668E-02 0.28296574E+03</pdfrwt>
<totfact> 0.59994465E+03</totfact>
</mgrwt>
</event>
<event>
 4    1  0.1866622E-004  0.3753806E+03  0.7818608E-02  0.1052654E+00
         -1   -1    0    0    0  501 -0.00000000000E+00  0.00000000000E+00  0.15280500897E+03  0.15280500897E+03  0.00000000000E+00 0.  1.
          1   -1    0    0  501    0  0.00000000000E+00 -0.00000000000E+00 -0.23053991009E+03  0.23053991009E+03  0.00000000000E+00 0.  1.
         25    1    1    2    0    0  0.21815970906E+02 -0.12403903968E+03 -0.11083267176E+03  0.20626560809E+03  0.12000000000E+03 0.  0.
         25    1    1    2    0    0 -0.21815970906E+02  0.12403903968E+03  0.33097770641E+02  0.17707931097E+03  0.12000000000E+03 0.  0.
<mgrwt>
<rscale>  0 0.37538062E+03</rscale>
<asrwt>0</asrwt>
<pdfrwt beam="1">  1        1 0.35467678E-01 0.37538062E+03</pdfrwt>
<pdfrwt beam="2">  1       -1 0.23508463E-01 0.37538062E+03</pdfrwt>
<totfact> 0.18976281E+03</totfact>
</mgrwt>
</event>
<event>
 4    1  0.1866622E-004  0.2969915E+03  0.7818608E-02  0.1086754E+00
         -1   -1    0    0    0  501 -0.00000000000E+00  0.00000000000E+00  0.14131059811E+02  0.14131059811E+02  0.00000000000E+00 0.  1.
          1   -1    0    0  501    0  0.00000000000E+00 -0.00000000000E+00 -0.15604622481E+04  0.15604622481E+04  0.00000000000E+00 0.  1.
         25    1    1    2    0    0  0.20560720907E+02 -0.83539304988E+02 -0.85689843422E+03  0.86952658688E+03  0.12000000000E+03 0.  0.
         25    1    1    2    0    0 -0.20560720907E+02  0.83539304988E+02 -0.68943275409E+03  0.70506672105E+03  0.12000000000E+03 0.  0.
<mgrwt>
<rscale>  0 0.29699148E+03</rscale>
<asrwt>0</asrwt>
<pdfrwt beam="1">  1        1 0.24007098E+00 0.29699148E+03</pdfrwt>
<pdfrwt beam="2">  1       -1 0.21740105E-02 0.29699148E+03</pdfrwt>
<totfact> 0.39619194E+03</totfact>
</mgrwt>
</event>
<event>
 4    1  0.1866622E-004  0.2963663E+03  0.7818608E-02  0.1087071E+00
          1   -1    0    0  501    0  0.00000000000E+00  0.00000000000E+00  0.21457036532E+02  0.21457036532E+02  0.00000000000E+00 0.  1.
         -1   -1    0    0    0  501 -0.00000000000E+00 -0.00000000000E+00 -0.10233586054E+04  0.10233586054E+04  0.00000000000E+00 0.  1.
         25    1    1    2    0    0  0.76899335956E+01 -0.21809650908E+02 -0.20549939780E+03  0.23909161100E+03  0.12000000000E+03 0.  0.
         25    1    1    2    0    0 -0.76899335956E+01  0.21809650908E+02 -0.79640217109E+03  0.80572403096E+03  0.12000000000E+03 0.  0.
<mgrwt>
<rscale>  0 0.29636628E+03</rscale>
<asrwt>0</asrwt>
<pdfrwt beam="1">  1        1 0.33010821E-02 0.29636628E+03</pdfrwt>
<pdfrwt beam="2">  1       -1 0.15743980E+00 0.29636628E+03</pdfrwt>
<totfact> 0.99101458E+02</totfact>
</mgrwt>
</event>
<event>
 4    1  0.1866622E-004  0.2580293E+03  0.7818608E-02  0.1108333E+00
          2   -1    0    0  501    0  0.00000000000E+00  0.00000000000E+00  0.87172815199E+03  0.87172815199E+03  0.00000000000E+00 0. -1.
         -2   -1    0    0    0  501 -0.00000000000E+00 -0.00000000000E+00 -0.19094001547E+02  0.19094001547E+02  0.00000000000E+00 0. -1.
         25    1    1    2    0    0 -0.44117574790E+02 -0.13493070527E+02  0.46355754349E+03  0.48105511065E+03  0.12000000000E+03 0.  0.
         25    1    1    2    0    0  0.44117574790E+02  0.13493070527E+02  0.38907660696E+03  0.40976704289E+03  0.12000000000E+03 0.  0.
<mgrwt>
<rscale>  0 0.25802929E+03</rscale>
<asrwt>0</asrwt>
<pdfrwt beam="1">  1        2 0.13411199E+00 0.25802929E+03</pdfrwt>
<pdfrwt beam="2">  1       -2 0.29375394E-02 0.25802929E+03</pdfrwt>
<totfact> 0.13770526E+04</totfact>
</mgrwt>
</event>
<event>
 4    1  0.1866622E-004  0.2753876E+03  0.7818608E-02  0.1098235E+00
         -2   -1    0    0    0  501 -0.00000000000E+00  0.00000000000E+00  0.17175682641E+03  0.17175682641E+03  0.00000000000E+00 0. -1.
          2   -1    0    0  501    0  0.00000000000E+00 -0.00000000000E+00 -0.11038617455E+03  0.11038617455E+03  0.00000000000E+00 0. -1.
         25    1    1    2    0    0 -0.52827217036E+01  0.67285034014E+02  0.32833439553E+02  0.14153874983E+03  0.12000000000E+03 0.  0.
         25    1    1    2    0    0  0.52827217036E+01 -0.67285034014E+02  0.28537212309E+02  0.14060425114E+03  0.12000000000E+03 0.  0.
<mgrwt>
<rscale>  0 0.27538757E+03</rscale>
<asrwt>0</asrwt>
<pdfrwt beam="1">  1        2 0.16982488E-01 0.27538757E+03</pdfrwt>
<pdfrwt beam="2">  1       -2 0.26424127E-01 0.27538757E+03</pdfrwt>
<totfact> 0.43027420E+03</totfact>
</mgrwt>
</event>
<event>
 4    1  0.1866622E-004  0.3014653E+03  0.7818608E-02  0.1084510E+00
         -3   -1    0    0    0  501 -0.00000000000E+00  0.00000000000E+00  0.24226522365E+03  0.24226522365E+03  0.00000000000E+00 0.  1.
          3   -1    0    0  501    0  0.00000000000E+00 -0.00000000000E+00 -0.93782855879E+02  0.93782855879E+02  0.00000000000E+00 0.  1.
         25    1    1    2    0    0  0.37402385780E+02 -0.82219023331E+02  0.60078663958E+02  0.16176635040E+03  0.12000000000E+03 0.  0.
         25    1    1    2    0    0 -0.37402385780E+02  0.82219023331E+02  0.88403703813E+02  0.17428172913E+03  0.12000000000E+03 0.  0.
<mgrwt>
<rscale>  0 0.30146525E+03</rscale>
<asrwt>0</asrwt>
<pdfrwt beam="1">  1        3 0.14428132E-01 0.30146525E+03</pdfrwt>
<pdfrwt beam="2">  1       -3 0.37271573E-01 0.30146525E+03</pdfrwt>
<totfact> 0.72437756E+02</totfact>
</mgrwt>
</event>
<event>
 4    1  0.1866622E-004  0.3111294E+03  0.7818608E-02  0.1079806E+00
          2   -1    0    0  501    0  0.00000000000E+00  0.00000000000E+00  0.23030795800E+03  0.23030795800E+03  0.00000000000E+00 0. -1.
         -2   -1    0    0    0  501 -0.00000000000E+00 -0.00000000000E+00 -0.10507834855E+03  0.10507834855E+03  0.00000000000E+00 0. -1.
         25    1    1    2    0    0 -0.34854488254E+02 -0.24338976557E+02 -0.33759988404E+02  0.13170785075E+03  0.12000000000E+03 0.  0.
         25    1    1    2    0    0  0.34854488254E+02  0.24338976557E+02  0.15898959785E+03  0.20367845580E+03  0.12000000000E+03 0.  0.
<mgrwt>
<rscale>  0 0.31112943E+03</rscale>
<asrwt>0</asrwt>
<pdfrwt beam="1">  1        2 0.35431994E-01 0.31112943E+03</pdfrwt>
<pdfrwt beam="2">  1       -2 0.16165900E-01 0.31112943E+03</pdfrwt>
<totfact> 0.44034538E+03</totfact>
</mgrwt>
</event>
<event>
 4    1  0.1866622E-004  0.2813436E+03  0.7818608E-02  0.1094957E+00
          1   -1    0    0  501    0  0.00000000000E+00  0.00000000000E+00  0.10663076475E+04  0.10663076475E+04  0.00000000000E+00 0.  1.
         -1   -1    0    0    0  501 -0.00000000000E+00 -0.00000000000E+00 -0.18558020031E+02  0.18558020031E+02  0.00000000000E+00 0.  1.
         25    1    1    2    0    0 -0.10343621816E+02 -0.29788735486E+02  0.26826426727E+03  0.29556738042E+03  0.12000000000E+03 0.  0.
         25    1    1    2    0    0  0.10343621816E+02  0.29788735486E+02  0.77948536024E+03  0.78929828715E+03  0.12000000000E+03 0.  0.
<mgrwt>
<rscale>  0 0.28134362E+03</rscale>
<asrwt>0</asrwt>
<pdfrwt beam="1">  1        1 0.16404728E+00 0.28134362E+03</pdfrwt>
<pdfrwt beam="2">  1       -1 0.28550808E-02 0.28134362E+03</pdfrwt>
<totfact> 0.57959653E+03</totfact>
</mgrwt>
</event>
<event>
 4    1  0.1866622E-004  0.3429265E+03  0.7818608E-02  0.1065556E+00
         -2   -1    0    0    0  501 -0.00000000000E+00  0.00000000000E+00  0.12983259614E+02  0.12983259614E+02  0.00000000000E+00 0. -1.
          2   -1    0    0  501    0  0.00000000000E+00 -0.00000000000E+00 -0.22644273967E+04  0.22644273967E+04  0.00000000000E+00 0. -1.
         25    1    1    2    0    0 -0.29158567866E+02 -0.70276727101E+02 -0.17630815325E+04  0.17687977642E+04  0.12000000000E+03 0.  0.
         25    1    1    2    0    0  0.29158567866E+02  0.70276727101E+02 -0.48836260460E+03  0.50861289211E+03  0.12000000000E+03 0.  0.
<mgrwt>
<rscale>  0 0.34292652E+03</rscale>
<asrwt>0</asrwt>
<pdfrwt beam="1">  1        2 0.34837362E+00 0.34292652E+03</pdfrwt>
<pdfrwt beam="2">  1       -2 0.19974236E-02 0.34292652E+03</pdfrwt>
<totfact> 0.41570572E+03</totfact>
</mgrwt>
</event>
<event>
 4    1  0.1866622E-004  0.2947038E+03  0.7818608E-02  0.1087918E+00
          2   -1    0    0  501    0  0.00000000000E+00  0.00000000000E+00  0.74614002949E+03  0.74614002949E+03  0.00000000000E+00 0.  1.
         -2   -1    0    0    0  501 -0.00000000000E+00 -0.00000000000E+00 -0.29099877459E+02  0.29099877459E+02  0.00000000000E+00 0.  1.
         25    1    1    2    0    0 -0.40710234301E+02 -0.68444431094E+02  0.44047499317E+03  0.46342225122E+03  0.12000000000E+03 0.  0.
         25    1    1    2    0    0  0.40710234301E+02  0.68444431094E+02  0.27656515887E+03  0.31181765573E+03  0.12000000000E+03 0.  0.
<mgrwt>
<rscale>  0 0.29470381E+03</rscale>
<asrwt>0</asrwt>
<pdfrwt beam="1">  1        2 0.11479076E+00 0.29470381E+03</pdfrwt>
<pdfrwt beam="2">  1       -2 0.44769048E-02 0.29470381E+03</pdfrwt>
<totfact> 0.89738430E+03</totfact>
</mgrwt>
</event>
<event>
 4    1  0.1866622E-004  0.2908530E+03  0.7818608E-02  0.1089905E+00
         -1   -1    0    0    0  501 -0.00000000000E+00  0.00000000000E+00  0.59795817484E+02  0.59795817484E+02  0.00000000000E+00 0.  1.
          1   -1    0    0  501    0  0.00000000000E+00 -0.00000000000E+00 -0.35368480581E+03  0.35368480581E+03  0.00000000000E+00 0.  1.
         25    1    1    2    0    0  0.74602078008E+02  0.32174676250E+02 -0.16425039944E+03  0.21904080340E+03  0.12000000000E+03 0.  0.
         25    1    1    2    0    0 -0.74602078008E+02 -0.32174676250E+02 -0.12963858889E+03  0.19443981990E+03  0.12000000000E+03 0.  0.
<mgrwt>
<rscale>  0 0.29085304E+03</rscale>
<asrwt>0</asrwt>
<pdfrwt beam="1">  1        1 0.54413046E-01 0.29085304E+03</pdfrwt>
<pdfrwt beam="2">  1       -1 0.91993567E-02 0.29085304E+03</pdfrwt>
<totfact> 0.49107355E+03</totfact>
</mgrwt>
</event>
<event>
 4    1  0.1866622E-004  0.3921877E+03  0.7818608E-02  0.1046519E+00
         -2   -1    0    0    0  501 -0.00000000000E+00  0.00000000000E+00  0.50656830911E+02  0.50656830911E+02  0.00000000000E+00 0.  1.
          2   -1    0    0  501    0  0.00000000000E+00 -0.00000000000E+00 -0.75908410021E+03  0.75908410021E+03  0.00000000000E+00 0.  1.
         25    1    1    2    0    0 -0.41832613206E+02 -0.11817091926E+03 -0.54274998595E+03  0.56981741017E+03  0.12000000000E+03 0.  0.
         25    1    1    2    0    0  0.41832613206E+02  0.11817091926E+03 -0.16567728335E+03  0.23992352095E+03  0.12000000000E+03 0.  0.
<mgrwt>
<rscale>  0 0.39218768E+03</rscale>
<asrwt>0</asrwt>
<pdfrwt beam="1">  1        2 0.11678216E+00 0.39218768E+03</pdfrwt>
<pdfrwt beam="2">  1       -2 0.77933592E-02 0.39218768E+03</pdfrwt>
<totfact> 0.37559866E+03</totfact>
</mgrwt>
</event>
<event>
 4    1  0.1866622E-004  0.2671288E+03  0.7818608E-02  0.1102934E+00
         -1   -1    0    0    0  501 -0.00000000000E+00  0.00000000000E+00  0.24203716497E+02  0.24203716497E+02  0.00000000000E+00 0. -1.
          1   -1    0    0  501    0  0.00000000000E+00 -0.00000000000E+00 -0.73705414841E+03  0.73705414841E+03  0.00000000000E+00 0. -1.
         25    1    1    2    0    0  0.86139781025E+01  0.61428984570E+01 -0.52081355425E+03  0.53456402246E+03  0.12000000000E+03 0.  0.
         25    1    1    2    0    0 -0.86139781025E+01 -0.61428984570E+01 -0.19203687767E+03  0.22669384245E+03  0.12000000000E+03 0.  0.
<mgrwt>
<rscale>  0 0.26712881E+03</rscale>
<asrwt>0</asrwt>
<pdfrwt beam="1">  1        1 0.11339292E+00 0.26712881E+03</pdfrwt>
<pdfrwt beam="2">  1       -1 0.37236496E-02 0.26712881E+03</pdfrwt>
<totfact> 0.71189788E+03</totfact>
</mgrwt>
</event>
<event>
 4    1  0.1866622E-004  0.2786480E+03  0.7818608E-02  0.1096430E+00
         -1   -1    0    0    0  501 -0.00000000000E+00  0.00000000000E+00  0.28380040746E+02  0.28380040746E+02  0.00000000000E+00 0. -1.
          1   -1    0    0  501    0  0.00000000000E+00 -0.00000000000E+00 -0.68397288858E+03  0.68397288858E+03  0.00000000000E+00 0. -1.
         25    1    1    2    0    0  0.12162336104E+02 -0.69485190222E+02 -0.31265829245E+03  0.34224453526E+03  0.12000000000E+03 0.  0.
         25    1    1    2    0    0 -0.12162336104E+02  0.69485190222E+02 -0.34293455539E+03  0.37010839407E+03  0.12000000000E+03 0.  0.
<mgrwt>
<rscale>  0 0.27864801E+03</rscale>
<asrwt>0</asrwt>
<pdfrwt beam="1">  1        1 0.10522660E+00 0.27864801E+03</pdfrwt>
<pdfrwt beam="2">  1       -1 0.43661602E-02 0.27864801E+03</pdfrwt>
<totfact> 0.62765596E+03</totfact>
</mgrwt>
</event>
<event>
 4    1  0.1866622E-004  0.2873784E+03  0.7818608E-02  0.1091726E+00
          1   -1    0    0  501    0  0.00000000000E+00  0.00000000000E+00  0.19717565350E+04  0.19717565350E+04  0.00000000000E+00 0. -1.
         -1   -1    0    0    0  501 -0.00000000000E+00 -0.00000000000E+00 -0.10471165560E+02  0.10471165560E+02  0.00000000000E+00 0. -1.
         25    1    1    2    0    0 -0.37884826666E+02  0.37139756745E+02  0.57655932091E+03  0.59129964667E+03  0.12000000000E+03 0.  0.
         25    1    1    2    0    0  0.37884826666E+02 -0.37139756745E+02  0.13847260485E+04  0.13909280539E+04  0.12000000000E+03 0.  0.
<mgrwt>
<rscale>  0 0.28737842E+03</rscale>
<asrwt>0</asrwt>
<pdfrwt beam="1">  1        1 0.30334686E+00 0.28737842E+03</pdfrwt>
<pdfrwt beam="2">  1       -1 0.16109501E-02 0.28737842E+03</pdfrwt>
<totfact> 0.33098454E+03</totfact>
</mgrwt>
</event>
<event>
 4    1  0.1866622E-004  0.3715870E+03  0.7818608E-02  0.1054088E+00
          4   -1    0    0  501    0  0.00000000000E+00  0.00000000000E+00  0.23107840600E+03  0.23107840600E+03  0.00000000000E+00 0.  1.
         -4   -1    0    0    0  501 -0.00000000000E+00 -0.00000000000E+00 -0.14938319265E+03  0.14938319265E+03  0.00000000000E+00 0.  1.
         25    1    1    2    0    0  0.17976190988E+01  0.12718428002E+03  0.10511742542E+03  0.20403123693E+03  0.12000000000E+03 0.  0.
         25    1    1    2    0    0 -0.17976190988E+01 -0.12718428002E+03 -0.23422212075E+02  0.17643036172E+03  0.12000000000E+03 0.  0.
<mgrwt>
<rscale>  0 0.37158703E+03</rscale>
<asrwt>0</asrwt>
<pdfrwt beam="1">  1        4 0.35550524E-01 0.37158703E+03</pdfrwt>
<pdfrwt beam="2">  1       -4 0.22982030E-01 0.37158703E+03</pdfrwt>
<totfact> 0.25949449E+02</totfact>
</mgrwt>
</event>
<event>
 4    1  0.1866622E-004  0.2967459E+03  0.7818608E-02  0.1086879E+00
          3   -1    0    0  501    0  0.00000000000E+00  0.00000000000E+00  0.91836915683E+03  0.91836915683E+03  0.00000000000E+00 0.  1.
         -3   -1    0    0    0  501 -0.00000000000E+00 -0.00000000000E+00 -0.23971336642E+02  0.23971336642E+02  0.00000000000E+00 0.  1.
         25    1    1    2    0    0 -0.53596284969E+02 -0.38884661454E+02  0.62767575737E+03  0.64246512360E+03  0.12000000000E+03 0.  0.
         25    1    1    2    0    0  0.53596284969E+02  0.38884661454E+02  0.26672206282E+03  0.29987536987E+03  0.12000000000E+03 0.  0.
<mgrwt>
<rscale>  0 0.29674593E+03</rscale>
<asrwt>0</asrwt>
<pdfrwt beam="1">  1        3 0.14128754E+00 0.29674593E+03</pdfrwt>
<pdfrwt beam="2">  1       -3 0.36878987E-02 0.29674593E+03</pdfrwt>
<totfact> 0.37511685E+02</totfact>
</mgrwt>
</event>
<event>
 4    1  0.1866622E-004  0.2866305E+03  0.7818608E-02  0.1092122E+00
          2   -1    0    0  501    0  0.00000000000E+00  0.00000000000E+00  0.28893615699E+03  0.28893615699E+03  0.00000000000E+00 0.  1.
         -2   -1    0    0    0  501 -0.00000000000E+00 -0.00000000000E+00 -0.71085786147E+02  0.71085786147E+02  0.00000000000E+00 0.  1.
         25    1    1    2    0    0  0.57821410587E+02  0.50593440042E+02  0.12823087658E+03  0.19169290390E+03  0.12000000000E+03 0.  0.
         25    1    1    2    0    0 -0.57821410587E+02 -0.50593440042E+02  0.89619494258E+02  0.16832903923E+03  0.12000000000E+03 0.  0.
<mgrwt>
<rscale>  0 0.28663045E+03</rscale>
<asrwt>0</asrwt>
<pdfrwt beam="1">  1        2 0.44451716E-01 0.28663045E+03</pdfrwt>
<pdfrwt beam="2">  1       -2 0.10936275E-01 0.28663045E+03</pdfrwt>
<totfact> 0.65119188E+03</totfact>
</mgrwt>
</event>
<event>
 4    1  0.1866622E-004  0.2426977E+03  0.7818608E-02  0.1118009E+00
          2   -1    0    0  501    0  0.00000000000E+00  0.00000000000E+00  0.91903204638E+02  0.91903204638E+02  0.00000000000E+00 0. -1.
         -2   -1    0    0    0  501 -0.00000000000E+00 -0.00000000000E+00 -0.16022889131E+03  0.16022889131E+03  0.00000000000E+00 0. -1.
         25    1    1    2    0    0  0.86536479472E+00  0.17977298016E+02 -0.32842008727E+02  0.12570811285E+03  0.12000000000E+03 0.  0.
         25    1    1    2    0    0 -0.86536479472E+00 -0.17977298016E+02 -0.35483677940E+02  0.12642398309E+03  0.12000000000E+03 0.  0.
<mgrwt>
<rscale>  0 0.24269774E+03</rscale>
<asrwt>0</asrwt>
<pdfrwt beam="1">  1        2 0.14138955E-01 0.24269774E+03</pdfrwt>
<pdfrwt beam="2">  1       -2 0.24650598E-01 0.24269774E+03</pdfrwt>
<totfact> 0.60100367E+03</totfact>
</mgrwt>
</event>
<event>
 4    1  0.1866622E-004  0.3422199E+03  0.7818608E-02  0.1065854E+00
          1   -1    0    0  501    0  0.00000000000E+00  0.00000000000E+00  0.69091230525E+03  0.69091230525E+03  0.00000000000E+00 0.  1.
         -1   -1    0    0    0  501 -0.00000000000E+00 -0.00000000000E+00 -0.42376739044E+02  0.42376739044E+02  0.00000000000E+00 0.  1.
         25    1    1    2    0    0 -0.10792700586E+03  0.40317910700E+01  0.20278890312E+03  0.25920615958E+03  0.12000000000E+03 0.  0.
         25    1    1    2    0    0  0.10792700586E+03 -0.40317910700E+01  0.44574666308E+03  0.47408288471E+03  0.12000000000E+03 0.  0.
<mgrwt>
<rscale>  0 0.34221987E+03</rscale>
<asrwt>0</asrwt>
<pdfrwt beam="1">  1        1 0.10629419E+00 0.34221987E+03</pdfrwt>
<pdfrwt beam="2">  1       -1 0.65194988E-02 0.34221987E+03</pdfrwt>
<totfact> 0.33934547E+03</totfact>
</mgrwt>
</event>
<event>
 4    1  0.1866622E-004  0.3478703E+03  0.7818608E-02  0.1063493E+00
          2   -1    0    0  501    0  0.00000000000E+00  0.00000000000E+00  0.25502427651E+04  0.25502427651E+04  0.00000000000E+00 0.  1.
         -2   -1    0    0    0  501 -0.00000000000E+00 -0.00000000000E+00 -0.11862966270E+02  0.11862966270E+02  0.00000000000E+00 0.  1.
         25    1    1    2    0    0 -0.14835447255E+02  0.13687441003E+01  0.21900203903E+04  0.21933561666E+04  0.12000000000E+03 0.  0.
         25    1    1    2    0    0  0.14835447255E+02 -0.13687441003E+01  0.34835940860E+03  0.36874956477E+03  0.12000000000E+03 0.  0.
<mgrwt>
<rscale>  0 0.34787034E+03</rscale>
<asrwt>0</asrwt>
<pdfrwt beam="1">  1        2 0.39234460E+00 0.34787034E+03</pdfrwt>
<pdfrwt beam="2">  1       -2 0.18250738E-02 0.34787034E+03</pdfrwt>
<totfact> 0.33138181E+03</totfact>
</mgrwt>
</event>
<event>
 4    1  0.1866622E-004  0.3176771E+03  0.7818608E-02  0.1076723E+00
         -2   -1    0    0    0  501 -0.00000000000E+00  0.00000000000E+00  0.28699341751E+02  0.28699341751E+02  0.00000000000E+00 0. -1.
          2   -1    0    0  501    0  0.00000000000E+00 -0.00000000000E+00 -0.87910337583E+03  0.87910337583E+03  0.00000000000E+00 0. -1.
         25    1    1    2    0    0 -0.73735560764E+02 -0.67369848673E+02 -0.34168991342E+03  0.37566957072E+03  0.12000000000E+03 0.  0.
         25    1    1    2    0    0  0.73735560764E+02  0.67369848673E+02 -0.50871412065E+03  0.53213314685E+03  0.12000000000E+03 0.  0.
<mgrwt>
<rscale>  0 0.31767712E+03</rscale>
<asrwt>0</asrwt>
<pdfrwt beam="1">  1        2 0.13524668E+00 0.31767712E+03</pdfrwt>
<pdfrwt beam="2">  1       -2 0.44152833E-02 0.31767712E+03</pdfrwt>
<totfact> 0.74365981E+03</totfact>
</mgrwt>
</event>
<event>
 4    1  0.1866622E-004  0.3742693E+03  0.7818608E-02  0.1053072E+00
         -1   -1    0    0    0  501 -0.00000000000E+00  0.00000000000E+00  0.83641422322E+02  0.83641422322E+02  0.00000000000E+00 0. -1.
          1   -1    0    0  501    0  0.00000000000E+00 -0.00000000000E+00 -0.41868453438E+03  0.41868453438E+03  0.00000000000E+00 0. -1.
         25    1    1    2    0    0 -0.23249564896E+02 -0.11993740501E+03 -0.66246068998E+02  0.18361390210E+03  0.12000000000E+03 0.  0.
         25    1    1    2    0    0  0.23249564896E+02  0.11993740501E+03 -0.26879704306E+03  0.31871205460E+03  0.12000000000E+03 0.  0.
<mgrwt>
<rscale>  0 0.37426926E+03</rscale>
<asrwt>0</asrwt>
<pdfrwt beam="1">  1        1 0.64413006E-01 0.37426926E+03</pdfrwt>
<pdfrwt beam="2">  1       -1 0.12867911E-01 0.37426926E+03</pdfrwt>
<totfact> 0.23517386E+03</totfact>
</mgrwt>
</event>
<event>
 4    1  0.1866622E-004  0.2439396E+03  0.7818608E-02  0.1117196E+00
         -4   -1    0    0    0  501 -0.00000000000E+00  0.00000000000E+00  0.32363268150E+02  0.32363268150E+02  0.00000000000E+00 0. -1.
          4   -1    0    0  501    0  0.00000000000E+00 -0.00000000000E+00 -0.45967648302E+03  0.45967648302E+03  0.00000000000E+00 0. -1.
         25    1    1    2    0    0  0.16505707564E+02 -0.83170007245E+01 -0.19021859528E+03  0.22566507233E+03  0.12000000000E+03 0.  0.
         25    1    1    2    0    0 -0.16505707564E+02  0.83170007245E+01 -0.23709461959E+03  0.26637467883E+03  0.12000000000E+03 0.  0.
<mgrwt>
<rscale>  0 0.24393961E+03</rscale>
<asrwt>0</asrwt>
<pdfrwt beam="1">  1        4 0.70719452E-01 0.24393961E+03</pdfrwt>
<pdfrwt beam="2">  1       -4 0.49789648E-02 0.24393961E+03</pdfrwt>
<totfact> 0.82629891E+02</totfact>
</mgrwt>
</event>
<event>
 4    1  0.1866622E-004  0.4162764E+03  0.7818608E-02  0.1038285E+00
          1   -1    0    0  501    0  0.00000000000E+00  0.00000000000E+00  0.37642537403E+03  0.37642537403E+03  0.00000000000E+00 0.  1.
         -1   -1    0    0    0  501 -0.00000000000E+00 -0.00000000000E+00 -0.11508655814E+03  0.11508655814E+03  0.00000000000E+00 0.  1.
         25    1    1    2    0    0 -0.12136763581E+03  0.70635800426E+02  0.17405120199E+02  0.18553290149E+03  0.12000000000E+03 0.  0.
         25    1    1    2    0    0  0.12136763581E+03 -0.70635800426E+02  0.24393369569E+03  0.30597903068E+03  0.12000000000E+03 0.  0.
<mgrwt>
<rscale>  0 0.41627635E+03</rscale>
<asrwt>0</asrwt>
<pdfrwt beam="1">  1        1 0.57911595E-01 0.41627635E+03</pdfrwt>
<pdfrwt beam="2">  1       -1 0.17705625E-01 0.41627635E+03</pdfrwt>
<totfact> 0.16198715E+03</totfact>
</mgrwt>
</event>
<event>
 4    1  0.1866622E-004  0.2530353E+03  0.7818608E-02  0.1111401E+00
         -2   -1    0    0    0  501 -0.00000000000E+00  0.00000000000E+00  0.20004238107E+02  0.20004238107E+02  0.00000000000E+00 0.  1.
          2   -1    0    0  501    0  0.00000000000E+00 -0.00000000000E+00 -0.80016643875E+03  0.80016643875E+03  0.00000000000E+00 0.  1.
         25    1    1    2    0    0 -0.18121634736E+02  0.35702127358E+02 -0.39630278164E+03  0.41600352195E+03  0.12000000000E+03 0.  0.
         25    1    1    2    0    0  0.18121634736E+02 -0.35702127358E+02 -0.38385941900E+03  0.40416715490E+03  0.12000000000E+03 0.  0.
<mgrwt>
<rscale>  0 0.25303533E+03</rscale>
<asrwt>0</asrwt>
<pdfrwt beam="1">  1        2 0.12310252E+00 0.25303533E+03</pdfrwt>
<pdfrwt beam="2">  1       -2 0.30775753E-02 0.25303533E+03</pdfrwt>
<totfact> 0.14342469E+04</totfact>
</mgrwt>
</event>
<event>
 4    1  0.1866622E-004  0.3025339E+03  0.7818608E-02  0.1083981E+00
         -1   -1    0    0    0  501 -0.00000000000E+00  0.00000000000E+00  0.18644432802E+02  0.18644432802E+02  0.00000000000E+00 0. -1.
          1   -1    0    0  501    0  0.00000000000E+00 -0.00000000000E+00 -0.12272664767E+04  0.12272664767E+04  0.00000000000E+00 0. -1.
         25    1    1    2    0    0  0.66121693616E+02  0.32093799164E+02 -0.83284980810E+03  0.84465430394E+03  0.12000000000E+03 0.  0.
         25    1    1    2    0    0 -0.66121693616E+02 -0.32093799164E+02 -0.37577223580E+03  0.40125660556E+03  0.12000000000E+03 0.  0.
<mgrwt>
<rscale>  0 0.30253388E+03</rscale>
<asrwt>0</asrwt>
<pdfrwt beam="1">  1        1 0.18881016E+00 0.30253388E+03</pdfrwt>
<pdfrwt beam="2">  1       -1 0.28683753E-02 0.30253388E+03</pdfrwt>
<totfact> 0.44247003E+03</totfact>
</mgrwt>
</event>
<event>
 4    1  0.1866622E-004  0.2881508E+03  0.7818608E-02  0.1091319E+00
         -1   -1    0    0    0  501 -0.00000000000E+00  0.00000000000E+00  0.21669384814E+02  0.21669384814E+02  0.00000000000E+00 0. -1.
          1   -1    0    0  501    0  0.00000000000E+00 -0.00000000000E+00 -0.95792878245E+03  0.95792878245E+03  0.00000000000E+00 0. -1.
         25    1    1    2    0    0 -0.62815055990E+02  0.30372008328E+02 -0.33692368179E+03  0.36439780117E+03  0.12000000000E+03 0.  0.
         25    1    1    2    0    0  0.62815055990E+02 -0.30372008328E+02 -0.59933571584E+03  0.61520036609E+03  0.12000000000E+03 0.  0.
<mgrwt>
<rscale>  0 0.28815085E+03</rscale>
<asrwt>0</asrwt>
<pdfrwt beam="1">  1        1 0.14737368E+00 0.28815085E+03</pdfrwt>
<pdfrwt beam="2">  1       -1 0.33337510E-02 0.28815085E+03</pdfrwt>
<totfact> 0.55549525E+03</totfact>
</mgrwt>
</event>
<event>
 4    1  0.1866622E-004  0.2917386E+03  0.7818608E-02  0.1089445E+00
         -2   -1    0    0    0  501 -0.00000000000E+00  0.00000000000E+00  0.51322735148E+02  0.51322735148E+02  0.00000000000E+00 0.  1.
          2   -1    0    0  501    0  0.00000000000E+00 -0.00000000000E+00 -0.41458918673E+03  0.41458918673E+03  0.00000000000E+00 0.  1.
         25    1    1    2    0    0 -0.25225212194E+02  0.74609122186E+02 -0.22312555452E+03  0.26530707779E+03  0.12000000000E+03 0.  0.
         25    1    1    2    0    0  0.25225212194E+02 -0.74609122186E+02 -0.14014089706E+03  0.20060484409E+03  0.12000000000E+03 0.  0.
<mgrwt>
<rscale>  0 0.29173859E+03</rscale>
<asrwt>0</asrwt>
<pdfrwt beam="1">  1        2 0.63782952E-01 0.29173859E+03</pdfrwt>
<pdfrwt beam="2">  1       -2 0.78958054E-02 0.29173859E+03</pdfrwt>
<totfact> 0.73817542E+03</totfact>
</mgrwt>
</event>
<event>
 4    1  0.1866622E-004  0.3608541E+03  0.7818608E-02  0.1058246E+00
         -2   -1    0    0    0  501 -0.00000000000E+00  0.00000000000E+00  0.57224069042E+02  0.57224069042E+02  0.00000000000E+00 0.  1.
          2   -1    0    0  501    0  0.00000000000E+00 -0.00000000000E+00 -0.56888517248E+03  0.56888517248E+03  0.00000000000E+00 0.  1.
         25    1    1    2    0    0  0.12847540993E+03 -0.37887921185E+02 -0.23053776136E+03  0.29238516539E+03  0.12000000000E+03 0.  0.
         25    1    1    2    0    0 -0.12847540993E+03  0.37887921185E+02 -0.28112334208E+03  0.33372407613E+03  0.12000000000E+03 0.  0.
<mgrwt>
<rscale>  0 0.36085412E+03</rscale>
<asrwt>0</asrwt>
<pdfrwt beam="1">  1        2 0.87520798E-01 0.36085412E+03</pdfrwt>
<pdfrwt beam="2">  1       -2 0.88037027E-02 0.36085412E+03</pdfrwt>
<totfact> 0.43844972E+03</totfact>
</mgrwt>
</event>
<event>
 4    1  0.1866622E-004  0.3752052E+03  0.7818608E-02  0.1052720E+00
          1   -1    0    0  501    0  0.00000000000E+00  0.00000000000E+00  0.10617701065E+04  0.10617701065E+04  0.00000000000E+00 0. -1.
         -1   -1    0    0    0  501 -0.00000000000E+00 -0.00000000000E+00 -0.33147223868E+02  0.33147223868E+02  0.00000000000E+00 0. -1.
         25    1    1    2    0    0  0.57242874035E+02 -0.81020119293E+02  0.20889428835E+03  0.26053374074E+03  0.12000000000E+03 0.  0.
         25    1    1    2    0    0 -0.57242874035E+02  0.81020119293E+02  0.81972859424E+03  0.83438358959E+03  0.12000000000E+03 0.  0.
<mgrwt>
<rscale>  0 0.37520518E+03</rscale>
<asrwt>0</asrwt>
<pdfrwt beam="1">  1        1 0.16334922E+00 0.37520518E+03</pdfrwt>
<pdfrwt beam="2">  1       -1 0.50995737E-02 0.37520518E+03</pdfrwt>
<totfact> 0.24624296E+03</totfact>
</mgrwt>
</event>
<event>
 4    1  0.1866622E-004  0.3790952E+03  0.7818608E-02  0.1051269E+00
         -4   -1    0    0    0  501 -0.00000000000E+00  0.00000000000E+00  0.92316888028E+02  0.92316888028E+02  0.00000000000E+00 0. -1.
          4   -1    0    0  501    0  0.00000000000E+00 -0.00000000000E+00 -0.38918448618E+03  0.38918448618E+03  0.00000000000E+00 0. -1.
         25    1    1    2    0    0 -0.44190830973E+02 -0.10083981592E+03 -0.25245286087E+02  0.16479934007E+03  0.12000000000E+03 0.  0.
         25    1    1    2    0    0  0.44190830973E+02  0.10083981592E+03 -0.27162231206E+03  0.31670203414E+03  0.12000000000E+03 0.  0.
<mgrwt>
<rscale>  0 0.37909524E+03</rscale>
<asrwt>0</asrwt>
<pdfrwt beam="1">  1        4 0.59874536E-01 0.37909524E+03</pdfrwt>
<pdfrwt beam="2">  1       -4 0.14202598E-01 0.37909524E+03</pdfrwt>
<totfact> 0.21369224E+02</totfact>
</mgrwt>
</event>
<event>
 4    1  0.1866622E-004  0.2570761E+03  0.7818608E-02  0.1108913E+00
         -2   -1    0    0    0  501 -0.00000000000E+00  0.00000000000E+00  0.27959183609E+02  0.27959183609E+02  0.00000000000E+00 0.  1.
          2   -1    0    0  501    0  0.00000000000E+00 -0.00000000000E+00 -0.59093403780E+03  0.59093403780E+03  0.00000000000E+00 0.  1.
         25    1    1    2    0    0 -0.45443017037E+02 -0.49560087327E+01 -0.26778335705E+03  0.29698073361E+03  0.12000000000E+03 0.  0.
         25    1    1    2    0    0  0.45443017037E+02  0.49560087327E+01 -0.29519149714E+03  0.32191248780E+03  0.12000000000E+03 0.  0.
<mgrwt>
<rscale>  0 0.25707612E+03</rscale>
<asrwt>0</asrwt>
<pdfrwt beam="1">  1        2 0.90912931E-01 0.25707612E+03</pdfrwt>
<pdfrwt beam="2">  1       -2 0.43014128E-02 0.25707612E+03</pdfrwt>
<totfact> 0.12535914E+04</totfact>
</mgrwt>
</event>
<event>
 4    1  0.1866622E-004  0.2755539E+03  0.7818608E-02  0.1098142E+00
          2   -1    0    0  501    0  0.00000000000E+00  0.00000000000E+00  0.23241441756E+03  0.23241441756E+03  0.00000000000E+00 0. -1.
         -2   -1    0    0    0  501 -0.00000000000E+00 -0.00000000000E+00 -0.81675178715E+02  0.81675178715E+02  0.00000000000E+00 0. -1.
         25    1    1    2    0    0 -0.27051700362E+02  0.23323613428E+02  0.98238578520E+01  0.12558779248E+03  0.12000000000E+03 0.  0.
         25    1    1    2    0    0  0.27051700362E+02 -0.23323613428E+02  0.14091538100E+03  0.18850180380E+03  0.12000000000E+03 0.  0.
<mgrwt>
<rscale>  0 0.27555391E+03</rscale>
<asrwt>0</asrwt>
<pdfrwt beam="1">  1        2 0.35756064E-01 0.27555391E+03</pdfrwt>
<pdfrwt beam="2">  1       -2 0.12565412E-01 0.27555391E+03</pdfrwt>
<totfact> 0.65759557E+03</totfact>
</mgrwt>
</event>
<event>
 4    1  0.1866622E-004  0.2799120E+03  0.7818608E-02  0.1095737E+00
          1   -1    0    0  501    0  0.00000000000E+00  0.00000000000E+00  0.47583463407E+03  0.47583463407E+03  0.00000000000E+00 0.  1.
         -1   -1    0    0    0  501 -0.00000000000E+00 -0.00000000000E+00 -0.41164896360E+02  0.41164896360E+02  0.00000000000E+00 0.  1.
         25    1    1    2    0    0 -0.52320571184E+02 -0.49396582495E+02  0.21143054817E+03  0.25353568039E+03  0.12000000000E+03 0.  0.
         25    1    1    2    0    0  0.52320571184E+02  0.49396582495E+02  0.22323918954E+03  0.26346385004E+03  0.12000000000E+03 0.  0.
<mgrwt>
<rscale>  0 0.27991201E+03</rscale>
<asrwt>0</asrwt>
<pdfrwt beam="1">  1        1 0.73205324E-01 0.27991201E+03</pdfrwt>
<pdfrwt beam="2">  1       -1 0.63330613E-02 0.27991201E+03</pdfrwt>
<totfact> 0.59136864E+03</totfact>
</mgrwt>
</event>
<event>
 4    1  0.1866622E-004  0.3745778E+03  0.7818608E-02  0.1052956E+00
          2   -1    0    0  501    0  0.00000000000E+00  0.00000000000E+00  0.23715295016E+03  0.23715295016E+03  0.00000000000E+00 0. -1.
         -2   -1    0    0    0  501 -0.00000000000E+00 -0.00000000000E+00 -0.14790933494E+03  0.14790933494E+03  0.00000000000E+00 0. -1.
         25    1    1    2    0    0 -0.12347430352E+03 -0.35131766823E+02 -0.21975691635E+02  0.17709623286E+03  0.12000000000E+03 0.  0.
         25    1    1    2    0    0  0.12347430352E+03  0.35131766823E+02  0.11121930686E+03  0.20796605225E+03  0.12000000000E+03 0.  0.
<mgrwt>
<rscale>  0 0.37457782E+03</rscale>
<asrwt>0</asrwt>
<pdfrwt beam="1">  1        2 0.36485069E-01 0.37457782E+03</pdfrwt>
<pdfrwt beam="2">  1       -2 0.22755282E-01 0.37457782E+03</pdfrwt>
<totfact> 0.23856228E+03</totfact>
</mgrwt>
</event>
<event>
 4    1  0.1866622E-004  0.3874404E+03  0.7818608E-02  0.1048218E+00
          1   -1    0    0  501    0  0.00000000000E+00  0.00000000000E+00  0.41282074132E+02  0.41282074132E+02  0.00000000000E+00 0.  1.
         -1   -1    0    0    0  501 -0.00000000000E+00 -0.00000000000E+00 -0.90905119042E+03  0.90905119042E+03  0.00000000000E+00 0.  1.
         25    1    1    2    0    0  0.98516459737E+02 -0.40605582233E+02 -0.70002967484E+03  0.71818928689E+03  0.12000000000E+03 0.  0.
         25    1    1    2    0    0 -0.98516459737E+02  0.40605582233E+02 -0.16773944145E+03  0.23214397767E+03  0.12000000000E+03 0.  0.
<mgrwt>
<rscale>  0 0.38744041E+03</rscale>
<asrwt>0</asrwt>
<pdfrwt beam="1">  1        1 0.63510878E-02 0.38744041E+03</pdfrwt>
<pdfrwt beam="2">  1       -1 0.13985404E+00 0.38744041E+03</pdfrwt>
<totfact> 0.54161707E+02</totfact>
</mgrwt>
</event>
<event>
 4    1  0.1866622E-004  0.2639894E+03  0.7818608E-02  0.1104770E+00
         -2   -1    0    0    0  501 -0.00000000000E+00  0.00000000000E+00  0.12502776075E+02  0.12502776075E+02  0.00000000000E+00 0.  1.
          2   -1    0    0  501    0  0.00000000000E+00 -0.00000000000E+00 -0.13934982974E+04  0.13934982974E+04  0.00000000000E+00 0.  1.
         25    1    1    2    0    0  0.42769272053E+02  0.10591997674E+02 -0.86562409176E+03  0.87501226807E+03  0.12000000000E+03 0.  0.
         25    1    1    2    0    0 -0.42769272053E+02 -0.10591997674E+02 -0.51537142954E+03  0.53098880538E+03  0.12000000000E+03 0.  0.
<mgrwt>
<rscale>  0 0.26398937E+03</rscale>
<asrwt>0</asrwt>
<pdfrwt beam="1">  1        2 0.21438447E+00 0.26398937E+03</pdfrwt>
<pdfrwt beam="2">  1       -2 0.19235030E-02 0.26398937E+03</pdfrwt>
<totfact> 0.12736415E+04</totfact>
</mgrwt>
</event>
<event>
 4    1  0.1866622E-004  0.3646508E+03  0.7818608E-02  0.1056757E+00
          2   -1    0    0  501    0  0.00000000000E+00  0.00000000000E+00  0.66658808713E+02  0.66658808713E+02  0.00000000000E+00 0.  1.
         -2   -1    0    0    0  501 -0.00000000000E+00 -0.00000000000E+00 -0.49869718499E+03  0.49869718499E+03  0.00000000000E+00 0.  1.
         25    1    1    2    0    0 -0.10094627846E+02  0.31186262345E+02 -0.42268325515E+03  0.44060823716E+03  0.12000000000E+03 0.  0.
         25    1    1    2    0    0  0.10094627846E+02 -0.31186262345E+02 -0.93551211244E+01  0.12474775654E+03  0.12000000000E+03 0.  0.
<mgrwt>
<rscale>  0 0.36465085E+03</rscale>
<asrwt>0</asrwt>
<pdfrwt beam="1">  1        2 0.10255201E-01 0.36465085E+03</pdfrwt>
<pdfrwt beam="2">  1       -2 0.76722645E-01 0.36465085E+03</pdfrwt>
<totfact> 0.97578300E+02</totfact>
</mgrwt>
</event>
<event>
 4    1  0.1866622E-004  0.2503088E+03  0.7818608E-02  0.1113110E+00
         -2   -1    0    0    0  501 -0.00000000000E+00  0.00000000000E+00  0.23353418855E+03  0.23353418855E+03  0.00000000000E+00 0.  1.
          2   -1    0    0  501    0  0.00000000000E+00 -0.00000000000E+00 -0.67072099536E+02  0.67072099536E+02  0.00000000000E+00 0.  1.
         25    1    1    2    0    0  0.14379831847E+02 -0.24325441840E+02  0.57330722702E+02  0.13596072392E+03  0.12000000000E+03 0.  0.
         25    1    1    2    0    0 -0.14379831847E+02  0.24325441840E+02  0.10913136631E+03  0.16464556416E+03  0.12000000000E+03 0.  0.
<mgrwt>
<rscale>  0 0.25030884E+03</rscale>
<asrwt>0</asrwt>
<pdfrwt beam="1">  1        2 0.10318785E-01 0.25030884E+03</pdfrwt>
<pdfrwt beam="2">  1       -2 0.35928336E-01 0.25030884E+03</pdfrwt>
<totfact> 0.44570767E+03</totfact>
</mgrwt>
</event>
<event>
 4    1  0.1866622E-004  0.2746106E+03  0.7818608E-02  0.1098669E+00
          2   -1    0    0  501    0  0.00000000000E+00  0.00000000000E+00  0.56049155296E+03  0.56049155296E+03  0.00000000000E+00 0. -1.
         -2   -1    0    0    0  501 -0.00000000000E+00 -0.00000000000E+00 -0.33636084864E+02  0.33636084864E+02  0.00000000000E+00 0. -1.
         25    1    1    2    0    0  0.38087615688E+02  0.11279074028E+02  0.37943111914E+03  0.39993231696E+03  0.12000000000E+03 0.  0.
         25    1    1    2    0    0 -0.38087615688E+02 -0.11279074028E+02  0.14742434896E+03  0.19419532087E+03  0.12000000000E+03 0.  0.
<mgrwt>
<rscale>  0 0.27461057E+03</rscale>
<asrwt>0</asrwt>
<pdfrwt beam="1">  1        2 0.86229463E-01 0.27461057E+03</pdfrwt>
<pdfrwt beam="2">  1       -2 0.51747827E-02 0.27461057E+03</pdfrwt>
<totfact> 0.10095621E+04</totfact>
</mgrwt>
</event>
<event>
 4    1  0.1866622E-004  0.2598796E+03  0.7818608E-02  0.1107216E+00
         -1   -1    0    0    0  501 -0.00000000000E+00  0.00000000000E+00  0.44933822328E+03  0.44933822328E+03  0.00000000000E+00 0.  1.
          1   -1    0    0  501    0  0.00000000000E+00 -0.00000000000E+00 -0.37576037229E+02  0.37576037229E+02  0.00000000000E+00 0.  1.
         25    1    1    2    0    0 -0.37238546293E+02  0.28453687398E+02  0.23767894588E+03  0.27034718968E+03  0.12000000000E+03 0.  0.
         25    1    1    2    0    0  0.37238546293E+02 -0.28453687398E+02  0.17408324017E+03  0.21656707082E+03  0.12000000000E+03 0.  0.
<mgrwt>
<rscale>  0 0.25987959E+03</rscale>
<asrwt>0</asrwt>
<pdfrwt beam="1">  1        1 0.57809291E-02 0.25987959E+03</pdfrwt>
<pdfrwt beam="2">  1       -1 0.69128954E-01 0.25987959E+03</pdfrwt>
<totfact> 0.29765044E+03</totfact>
</mgrwt>
</event>
<event>
 4    1  0.1866622E-004  0.3265573E+03  0.7818608E-02  0.1072670E+00
          2   -1    0    0  501    0  0.00000000000E+00  0.00000000000E+00  0.26036720625E+03  0.26036720625E+03  0.00000000000E+00 0.  1.
         -2   -1    0    0    0  501 -0.00000000000E+00 -0.00000000000E+00 -0.10239355048E+03  0.10239355048E+03  0.00000000000E+00 0.  1.
         25    1    1    2    0    0  0.46420338268E+02  0.88023573480E+02  0.13291724478E+03  0.20486578839E+03  0.12000000000E+03 0.  0.
         25    1    1    2    0    0 -0.46420338268E+02 -0.88023573480E+02  0.25056410992E+02  0.15789496833E+03  0.12000000000E+03 0.  0.
<mgrwt>
<rscale>  0 0.32655733E+03</rscale>
<asrwt>0</asrwt>
<pdfrwt beam="1">  1        2 0.40056493E-01 0.32655733E+03</pdfrwt>
<pdfrwt beam="2">  1       -2 0.15752854E-01 0.32655733E+03</pdfrwt>
<totfact> 0.40289413E+03</totfact>
</mgrwt>
</event>
<event>
 4    1  0.1866622E-004  0.3495837E+03  0.7818608E-02  0.1062786E+00
         -2   -1    0    0    0  501 -0.00000000000E+00  0.00000000000E+00  0.35474729887E+02  0.35474729887E+02  0.00000000000E+00 0.  1.
          2   -1    0    0  501    0  0.00000000000E+00 -0.00000000000E+00 -0.86123819253E+03  0.86123819253E+03  0.00000000000E+00 0.  1.
         25    1    1    2    0    0 -0.63046104435E+02 -0.10866203252E+03 -0.46221842416E+03  0.49378955055E+03  0.12000000000E+03 0.  0.
         25    1    1    2    0    0  0.63046104435E+02  0.10866203252E+03 -0.36354503849E+03  0.40292337187E+03  0.12000000000E+03 0.  0.
<mgrwt>
<rscale>  0 0.34958371E+03</rscale>
<asrwt>0</asrwt>
<pdfrwt beam="1">  1        2 0.13249820E+00 0.34958371E+03</pdfrwt>
<pdfrwt beam="2">  1       -2 0.54576500E-02 0.34958371E+03</pdfrwt>
<totfact> 0.55405200E+03</totfact>
</mgrwt>
</event>
<event>
 4    1  0.1866622E-004  0.2786260E+03  0.7818608E-02  0.1096442E+00
          2   -1    0    0  501    0  0.00000000000E+00  0.00000000000E+00  0.17942898011E+03  0.17942898011E+03  0.00000000000E+00 0. -1.
         -2   -1    0    0    0  501 -0.00000000000E+00 -0.00000000000E+00 -0.10816597899E+03  0.10816597899E+03  0.00000000000E+00 0. -1.
         25    1    1    2    0    0 -0.26238378947E+02  0.56669820054E+02  0.12704209373E+01  0.13528316600E+03  0.12000000000E+03 0.  0.
         25    1    1    2    0    0  0.26238378947E+02 -0.56669820054E+02  0.69992580179E+02  0.15231179309E+03  0.12000000000E+03 0.  0.
<mgrwt>
<rscale>  0 0.27862600E+03</rscale>
<asrwt>0</asrwt>
<pdfrwt beam="1">  1        2 0.27604458E-01 0.27862600E+03</pdfrwt>
<pdfrwt beam="2">  1       -2 0.16640920E-01 0.27862600E+03</pdfrwt>
<totfact> 0.54986259E+03</totfact>
</mgrwt>
</event>
<event>
 4    1  0.1866622E-004  0.2502978E+03  0.7818608E-02  0.1113117E+00
         -2   -1    0    0    0  501 -0.00000000000E+00  0.00000000000E+00  0.23405707129E+02  0.23405707129E+02  0.00000000000E+00 0. -1.
          2   -1    0    0  501    0  0.00000000000E+00 -0.00000000000E+00 -0.66916354468E+03  0.66916354468E+03  0.00000000000E+00 0. -1.
         25    1    1    2    0    0  0.71854588923E+01 -0.65888845812E+01 -0.22834685229E+03  0.25814207168E+03  0.12000000000E+03 0.  0.
         25    1    1    2    0    0 -0.71854588923E+01  0.65888845812E+01 -0.41741098526E+03  0.43442718013E+03  0.12000000000E+03 0.  0.
<mgrwt>
<rscale>  0 0.25029779E+03</rscale>
<asrwt>0</asrwt>
<pdfrwt beam="1">  1        2 0.10294824E+00 0.25029779E+03</pdfrwt>
<pdfrwt beam="2">  1       -2 0.36008781E-02 0.25029779E+03</pdfrwt>
<totfact> 0.14130781E+04</totfact>
</mgrwt>
</event>
<event>
 4    1  0.1866622E-004  0.2878973E+03  0.7818608E-02  0.1091452E+00
          2   -1    0    0  501    0  0.00000000000E+00  0.00000000000E+00  0.12112006613E+03  0.12112006613E+03  0.00000000000E+00 0. -1.
         -2   -1    0    0    0  501 -0.00000000000E+00 -0.00000000000E+00 -0.17107999201E+03  0.17107999201E+03  0.00000000000E+00 0. -1.
         25    1    1    2    0    0 -0.73863711047E+02 -0.11337413805E+02  0.25704314037E+01  0.14138950413E+03  0.12000000000E+03 0.  0.
         25    1    1    2    0    0  0.73863711047E+02  0.11337413805E+02 -0.52530357287E+02  0.15081055400E+03  0.12000000000E+03 0.  0.
<mgrwt>
<rscale>  0 0.28789734E+03</rscale>
<asrwt>0</asrwt>
<pdfrwt beam="1">  1        2 0.18633856E-01 0.28789734E+03</pdfrwt>
<pdfrwt beam="2">  1       -2 0.26319999E-01 0.28789734E+03</pdfrwt>
<totfact> 0.38952603E+03</totfact>
</mgrwt>
</event>
<event>
 4    1  0.1866622E-004  0.2774887E+03  0.7818608E-02  0.1097069E+00
         -1   -1    0    0    0  501 -0.00000000000E+00  0.00000000000E+00  0.37063573685E+02  0.37063573685E+02  0.00000000000E+00 0. -1.
          1   -1    0    0  501    0  0.00000000000E+00 -0.00000000000E+00 -0.51937754793E+03  0.51937754793E+03  0.00000000000E+00 0. -1.
         25    1    1    2    0    0  0.90655498862E+01 -0.62255306119E+02 -0.30104998581E+03  0.33013482290E+03  0.12000000000E+03 0.  0.
         25    1    1    2    0    0 -0.90655498862E+01  0.62255306119E+02 -0.18126398844E+03  0.22630629872E+03  0.12000000000E+03 0.  0.
<mgrwt>
<rscale>  0 0.27748865E+03</rscale>
<asrwt>0</asrwt>
<pdfrwt beam="1">  1        1 0.79904235E-01 0.27748865E+03</pdfrwt>
<pdfrwt beam="2">  1       -1 0.57020885E-02 0.27748865E+03</pdfrwt>
<totfact> 0.61663364E+03</totfact>
</mgrwt>
</event>
<event>
 4    1  0.1866622E-004  0.2645781E+03  0.7818608E-02  0.1104423E+00
          2   -1    0    0  501    0  0.00000000000E+00  0.00000000000E+00  0.10426239484E+04  0.10426239484E+04  0.00000000000E+00 0. -1.
         -2   -1    0    0    0  501 -0.00000000000E+00 -0.00000000000E+00 -0.16784946952E+02  0.16784946952E+02  0.00000000000E+00 0. -1.
         25    1    1    2    0    0 -0.23349671717E+02 -0.50446768027E+02  0.52577280004E+03  0.54215045959E+03  0.12000000000E+03 0.  0.
         25    1    1    2    0    0  0.23349671717E+02  0.50446768027E+02  0.50006620139E+03  0.51725843574E+03  0.12000000000E+03 0.  0.
<mgrwt>
<rscale>  0 0.26457806E+03</rscale>
<asrwt>0</asrwt>
<pdfrwt beam="1">  1        2 0.16040363E+00 0.26457806E+03</pdfrwt>
<pdfrwt beam="2">  1       -2 0.25823003E-02 0.26457806E+03</pdfrwt>
<totfact> 0.13043717E+04</totfact>
</mgrwt>
</event>
<event>
 4    1  0.1866622E-004  0.3002559E+03  0.7818608E-02  0.1085113E+00
          2   -1    0    0  501    0  0.00000000000E+00  0.00000000000E+00  0.24263767560E+04  0.24263767560E+04  0.00000000000E+00 0. -1.
         -2   -1    0    0    0  501 -0.00000000000E+00 -0.00000000000E+00 -0.92889126572E+01  0.92889126572E+01  0.00000000000E+00 0. -1.
         25    1    1    2    0    0 -0.36580231482E+02 -0.80247489713E+02  0.10544958253E+04  0.10649597263E+04  0.12000000000E+03 0.  0.
         25    1    1    2    0    0  0.36580231482E+02  0.80247489713E+02  0.13625920180E+04  0.13707059424E+04  0.12000000000E+03 0.  0.
<mgrwt>
<rscale>  0 0.30025590E+03</rscale>
<asrwt>0</asrwt>
<pdfrwt beam="1">  1        2 0.37328823E+00 0.30025590E+03</pdfrwt>
<pdfrwt beam="2">  1       -2 0.14290654E-02 0.30025590E+03</pdfrwt>
<totfact> 0.55701645E+03</totfact>
</mgrwt>
</event>
<event>
 4    1  0.1866622E-004  0.3074378E+03  0.7818608E-02  0.1081581E+00
          2   -1    0    0  501    0  0.00000000000E+00  0.00000000000E+00  0.39274430242E+03  0.39274430242E+03  0.00000000000E+00 0.  1.
         -2   -1    0    0    0  501 -0.00000000000E+00 -0.00000000000E+00 -0.60165086866E+02  0.60165086866E+02  0.00000000000E+00 0.  1.
         25    1    1    2    0    0 -0.73325139958E+02 -0.55052221483E+02  0.12404848976E+03  0.19543630945E+03  0.12000000000E+03 0.  0.
         25    1    1    2    0    0  0.73325139958E+02  0.55052221483E+02  0.20853072580E+03  0.25747307984E+03  0.12000000000E+03 0.  0.
<mgrwt>
<rscale>  0 0.30743777E+03</rscale>
<asrwt>0</asrwt>
<pdfrwt beam="1">  1        2 0.60422199E-01 0.30743777E+03</pdfrwt>
<pdfrwt beam="2">  1       -2 0.92561674E-02 0.30743777E+03</pdfrwt>
<totfact> 0.61080600E+03</totfact>
</mgrwt>
</event>
<event>
 4    1  0.1866622E-004  0.3469715E+03  0.7818608E-02  0.1063865E+00
          1   -1    0    0  501    0  0.00000000000E+00  0.00000000000E+00  0.23434030232E+03  0.23434030232E+03  0.00000000000E+00 0. -1.
         -1   -1    0    0    0  501 -0.00000000000E+00 -0.00000000000E+00 -0.12843421813E+03  0.12843421813E+03  0.00000000000E+00 0. -1.
         25    1    1    2    0    0  0.10536433608E+03 -0.12498052967E+02 -0.16710960237E+02  0.16104999484E+03  0.12000000000E+03 0.  0.
         25    1    1    2    0    0 -0.10536433608E+03  0.12498052967E+02  0.12261704443E+03  0.20172452561E+03  0.12000000000E+03 0.  0.
<mgrwt>
<rscale>  0 0.34697155E+03</rscale>
<asrwt>0</asrwt>
<pdfrwt beam="1">  1        1 0.36052354E-01 0.34697155E+03</pdfrwt>
<pdfrwt beam="2">  1       -1 0.19759111E-01 0.34697155E+03</pdfrwt>
<totfact> 0.24733907E+03</totfact>
</mgrwt>
</event>
<event>
 4    1  0.1866622E-004  0.3415518E+03  0.7818608E-02  0.1066137E+00
          2   -1    0    0  501    0  0.00000000000E+00  0.00000000000E+00  0.83928614886E+03  0.83928614886E+03  0.00000000000E+00 0. -1.
         -2   -1    0    0    0  501 -0.00000000000E+00 -0.00000000000E+00 -0.34749065168E+02  0.34749065168E+02  0.00000000000E+00 0. -1.
         25    1    1    2    0    0  0.10243831822E+03  0.38484407375E+02  0.53743066978E+03  0.56143243892E+03  0.12000000000E+03 0.  0.
         25    1    1    2    0    0 -0.10243831822E+03 -0.38484407375E+02  0.26710641391E+03  0.31260277511E+03  0.12000000000E+03 0.  0.
<mgrwt>
<rscale>  0 0.34155181E+03</rscale>
<asrwt>0</asrwt>
<pdfrwt beam="1">  1        2 0.12912093E+00 0.34155181E+03</pdfrwt>
<pdfrwt beam="2">  1       -2 0.53460107E-02 0.34155181E+03</pdfrwt>
<totfact> 0.59147483E+03</totfact>
</mgrwt>
</event>
<event>
 4    1  0.1866622E-004  0.6304537E+03  0.7818608E-02  0.9844164E-01
         -3   -1    0    0    0  501 -0.00000000000E+00  0.00000000000E+00  0.12923277831E+03  0.12923277831E+03  0.00000000000E+00 0. -1.
          3   -1    0    0  501    0  0.00000000000E+00 -0.00000000000E+00 -0.76890678640E+03  0.76890678640E+03  0.00000000000E+00 0. -1.
         25    1    1    2    0    0 -0.27786557752E+02  0.28859798895E+03 -0.27693173517E+03  0.41851174172E+03  0.12000000000E+03 0.  0.
         25    1    1    2    0    0  0.27786557752E+02 -0.28859798895E+03 -0.36274227292E+03  0.47962782298E+03  0.12000000000E+03 0.  0.
<mgrwt>
<rscale>  0 0.63045368E+03</rscale>
<asrwt>0</asrwt>
<pdfrwt beam="1">  1        3 0.11829335E+00 0.63045368E+03</pdfrwt>
<pdfrwt beam="2">  1       -3 0.19881966E-01 0.63045368E+03</pdfrwt>
<totfact> 0.35887212E+01</totfact>
</mgrwt>
</event>
<event>
 4    1  0.1866622E-004  0.2441775E+03  0.7818608E-02  0.1117041E+00
          2   -1    0    0  501    0  0.00000000000E+00  0.00000000000E+00  0.96960405450E+03  0.96960405450E+03  0.00000000000E+00 0. -1.
         -2   -1    0    0    0  501 -0.00000000000E+00 -0.00000000000E+00 -0.15372943739E+02  0.15372943739E+02  0.00000000000E+00 0. -1.
         25    1    1    2    0    0  0.74778535691E+01  0.39778296310E+01  0.56114447466E+03  0.57389447015E+03  0.12000000000E+03 0.  0.
         25    1    1    2    0    0 -0.74778535691E+01 -0.39778296310E+01  0.39308663609E+03  0.41108252809E+03  0.12000000000E+03 0.  0.
<mgrwt>
<rscale>  0 0.24417755E+03</rscale>
<asrwt>0</asrwt>
<pdfrwt beam="1">  1        2 0.14916981E+00 0.24417755E+03</pdfrwt>
<pdfrwt beam="2">  1       -2 0.23650690E-02 0.24417755E+03</pdfrwt>
<totfact> 0.16402477E+04</totfact>
</mgrwt>
</event>
<event>
 4    1  0.1866622E-004  0.2487371E+03  0.7818608E-02  0.1114106E+00
          2   -1    0    0  501    0  0.00000000000E+00  0.00000000000E+00  0.12642845301E+04  0.12642845301E+04  0.00000000000E+00 0. -1.
         -2   -1    0    0    0  501 -0.00000000000E+00 -0.00000000000E+00 -0.12234223407E+02  0.12234223407E+02  0.00000000000E+00 0. -1.
         25    1    1    2    0    0  0.54181358248E+00  0.10175603471E+02  0.46670959987E+03  0.48199760070E+03  0.12000000000E+03 0.  0.
         25    1    1    2    0    0 -0.54181358248E+00 -0.10175603471E+02  0.78534070679E+03  0.79452115277E+03  0.12000000000E+03 0.  0.
<mgrwt>
<rscale>  0 0.24873713E+03</rscale>
<asrwt>0</asrwt>
<pdfrwt beam="1">  1        2 0.19450521E+00 0.24873713E+03</pdfrwt>
<pdfrwt beam="2">  1       -2 0.18821892E-02 0.24873713E+03</pdfrwt>
<totfact> 0.15453682E+04</totfact>
</mgrwt>
</event>
<event>
 4    1  0.1866622E-004  0.3085688E+03  0.7818608E-02  0.1081034E+00
          2   -1    0    0  501    0  0.00000000000E+00  0.00000000000E+00  0.25191943673E+04  0.25191943673E+04  0.00000000000E+00 0.  1.
         -2   -1    0    0    0  501 -0.00000000000E+00 -0.00000000000E+00 -0.94489213124E+01  0.94489213124E+01  0.00000000000E+00 0.  1.
         25    1    1    2    0    0  0.36044862483E+02  0.12548326831E+02  0.19854002564E+04  0.19893895724E+04  0.12000000000E+03 0.  0.
         25    1    1    2    0    0 -0.36044862483E+02 -0.12548326831E+02  0.52434518961E+03  0.53925371625E+03  0.12000000000E+03 0.  0.
<mgrwt>
<rscale>  0 0.30856876E+03</rscale>
<asrwt>0</asrwt>
<pdfrwt beam="1">  1        2 0.38756783E+00 0.30856876E+03</pdfrwt>
<pdfrwt beam="2">  1       -2 0.14536822E-02 0.30856876E+03</pdfrwt>
<totfact> 0.48303446E+03</totfact>
</mgrwt>
</event>
<event>
 4    1  0.1866622E-004  0.3352154E+03  0.7818608E-02  0.1068852E+00
          2   -1    0    0  501    0  0.00000000000E+00  0.00000000000E+00  0.14672216577E+04  0.14672216577E+04  0.00000000000E+00 0. -1.
         -2   -1    0    0    0  501 -0.00000000000E+00 -0.00000000000E+00 -0.19146627433E+02  0.19146627433E+02  0.00000000000E+00 0. -1.
         25    1    1    2    0    0 -0.32373564097E+02 -0.21397154324E+02  0.12135245811E+04  0.12200605701E+04  0.12000000000E+03 0.  0.
         25    1    1    2    0    0  0.32373564097E+02  0.21397154324E+02  0.23455044920E+03  0.26630771504E+03  0.12000000000E+03 0.  0.
<mgrwt>
<rscale>  0 0.33521543E+03</rscale>
<asrwt>0</asrwt>
<pdfrwt beam="1">  1        2 0.22572632E+00 0.33521543E+03</pdfrwt>
<pdfrwt beam="2">  1       -2 0.29456362E-02 0.33521543E+03</pdfrwt>
<totfact> 0.62028134E+03</totfact>
</mgrwt>
</event>
<event>
 4    1  0.1866622E-004  0.2938433E+03  0.7818608E-02  0.1088359E+00
          3   -1    0    0  501    0  0.00000000000E+00  0.00000000000E+00  0.37585169451E+02  0.37585169451E+02  0.00000000000E+00 0.  1.
         -3   -1    0    0    0  501 -0.00000000000E+00 -0.00000000000E+00 -0.57432160325E+03  0.57432160325E+03  0.00000000000E+00 0.  1.
         25    1    1    2    0    0  0.81739356842E+02  0.22017451572E+02 -0.27765409356E+03  0.31409852961E+03  0.12000000000E+03 0.  0.
         25    1    1    2    0    0 -0.81739356842E+02 -0.22017451572E+02 -0.25908234023E+03  0.29780824309E+03  0.12000000000E+03 0.  0.
<mgrwt>
<rscale>  0 0.29384332E+03</rscale>
<asrwt>0</asrwt>
<pdfrwt beam="1">  1        3 0.57823338E-02 0.29384332E+03</pdfrwt>
<pdfrwt beam="2">  1       -3 0.88357169E-01 0.29384332E+03</pdfrwt>
<totfact> 0.55213511E+02</totfact>
</mgrwt>
</event>
<event>
 4    1  0.1866622E-004  0.2553381E+03  0.7818608E-02  0.1109977E+00
         -2   -1    0    0    0  501 -0.00000000000E+00  0.00000000000E+00  0.74198203992E+01  0.74198203992E+01  0.00000000000E+00 0. -1.
          2   -1    0    0  501    0  0.00000000000E+00 -0.00000000000E+00 -0.21967354171E+04  0.21967354171E+04  0.00000000000E+00 0. -1.
         25    1    1    2    0    0 -0.27325034363E+02 -0.31597787475E+02 -0.98742786827E+03  0.99556962223E+03  0.12000000000E+03 0.  0.
         25    1    1    2    0    0  0.27325034363E+02  0.31597787475E+02 -0.12018877284E+04  0.12085856152E+04  0.12000000000E+03 0.  0.
<mgrwt>
<rscale>  0 0.25533807E+03</rscale>
<asrwt>0</asrwt>
<pdfrwt beam="1">  1        2 0.33795948E+00 0.25533807E+03</pdfrwt>
<pdfrwt beam="2">  1       -2 0.11415102E-02 0.25533807E+03</pdfrwt>
<totfact> 0.10269179E+04</totfact>
</mgrwt>
</event>
<event>
 4    1  0.1866622E-004  0.3657623E+03  0.7818608E-02  0.1056325E+00
          2   -1    0    0  501    0  0.00000000000E+00  0.00000000000E+00  0.23888908905E+03  0.23888908905E+03  0.00000000000E+00 0. -1.
         -2   -1    0    0    0  501 -0.00000000000E+00 -0.00000000000E+00 -0.14000439890E+03  0.14000439890E+03  0.00000000000E+00 0. -1.
         25    1    1    2    0    0  0.11141330868E+03  0.34793783031E+01 -0.34845175095E+02  0.16744914945E+03  0.12000000000E+03 0.  0.
         25    1    1    2    0    0 -0.11141330868E+03 -0.34793783031E+01  0.13372986524E+03  0.21144433850E+03  0.12000000000E+03 0.  0.
<mgrwt>
<rscale>  0 0.36576235E+03</rscale>
<asrwt>0</asrwt>
<pdfrwt beam="1">  1        2 0.36752167E-01 0.36576235E+03</pdfrwt>
<pdfrwt beam="2">  1       -2 0.21539138E-01 0.36576235E+03</pdfrwt>
<totfact> 0.26039246E+03</totfact>
</mgrwt>
</event>
<event>
 4    1  0.1866622E-004  0.2754088E+03  0.7818608E-02  0.1098223E+00
          2   -1    0    0  501    0  0.00000000000E+00  0.00000000000E+00  0.29727171022E+04  0.29727171022E+04  0.00000000000E+00 0.  1.
         -2   -1    0    0    0  501 -0.00000000000E+00 -0.00000000000E+00 -0.63788451618E+01  0.63788451618E+01  0.00000000000E+00 0.  1.
         25    1    1    2    0    0  0.45207960903E+02  0.13410238753E+01  0.20258486748E+04  0.20299035473E+04  0.12000000000E+03 0.  0.
         25    1    1    2    0    0 -0.45207960903E+02 -0.13410238753E+01  0.94048958230E+03  0.94919240014E+03  0.12000000000E+03 0.  0.
<mgrwt>
<rscale>  0 0.27540880E+03</rscale>
<asrwt>0</asrwt>
<pdfrwt beam="1">  1        2 0.45733999E+00 0.27540880E+03</pdfrwt>
<pdfrwt beam="2">  1       -2 0.98136317E-03 0.27540880E+03</pdfrwt>
<totfact> 0.47383170E+03</totfact>
</mgrwt>
</event>
<event>
 4    1  0.1866622E-004  0.2610073E+03  0.7818608E-02  0.1106540E+00
          2   -1    0    0  501    0  0.00000000000E+00  0.00000000000E+00  0.14704354188E+03  0.14704354188E+03  0.00000000000E+00 0.  1.
         -2   -1    0    0    0  501 -0.00000000000E+00 -0.00000000000E+00 -0.11582422934E+03  0.11582422934E+03  0.00000000000E+00 0.  1.
         25    1    1    2    0    0 -0.41741964485E+02 -0.14014195803E+02  0.42111012049E+02  0.13458130115E+03  0.12000000000E+03 0.  0.
         25    1    1    2    0    0  0.41741964485E+02  0.14014195803E+02 -0.10891699508E+02  0.12828647006E+03  0.12000000000E+03 0.  0.
<mgrwt>
<rscale>  0 0.26100732E+03</rscale>
<asrwt>0</asrwt>
<pdfrwt beam="1">  1        2 0.22622083E-01 0.26100732E+03</pdfrwt>
<pdfrwt beam="2">  1       -2 0.17819112E-01 0.26100732E+03</pdfrwt>
<totfact> 0.61085171E+03</totfact>
</mgrwt>
</event>
<event>
 4    1  0.1866622E-004  0.3418013E+03  0.7818608E-02  0.1066031E+00
          1   -1    0    0  501    0  0.00000000000E+00  0.00000000000E+00  0.95770325962E+02  0.95770325962E+02  0.00000000000E+00 0.  1.
         -1   -1    0    0    0  501 -0.00000000000E+00 -0.00000000000E+00 -0.30496951612E+03  0.30496951612E+03  0.00000000000E+00 0.  1.
         25    1    1    2    0    0 -0.81874157526E+02  0.78151340090E+02 -0.15698029654E+03  0.22771434547E+03  0.12000000000E+03 0.  0.
         25    1    1    2    0    0  0.81874157526E+02 -0.78151340090E+02 -0.52218893613E+02  0.17302549661E+03  0.12000000000E+03 0.  0.
<mgrwt>
<rscale>  0 0.34180129E+03</rscale>
<asrwt>0</asrwt>
<pdfrwt beam="1">  1        1 0.14733897E-01 0.34180129E+03</pdfrwt>
<pdfrwt beam="2">  1       -1 0.46918386E-01 0.34180129E+03</pdfrwt>
<totfact> 0.17691134E+03</totfact>
</mgrwt>
</event>
<event>
 4    1  0.1866622E-004  0.2413647E+03  0.7818608E-02  0.1118887E+00
          2   -1    0    0  501    0  0.00000000000E+00  0.00000000000E+00  0.86777224416E+02  0.86777224416E+02  0.00000000000E+00 0. -1.
         -2   -1    0    0    0  501 -0.00000000000E+00 -0.00000000000E+00 -0.16783469558E+03  0.16783469558E+03  0.00000000000E+00 0. -1.
         25    1    1    2    0    0  0.82080037295E+01  0.71890584573E+01 -0.47618875706E+02  0.12956315530E+03  0.12000000000E+03 0.  0.
         25    1    1    2    0    0 -0.82080037295E+01 -0.71890584573E+01 -0.33438595458E+02  0.12504876470E+03  0.12000000000E+03 0.  0.
<mgrwt>
<rscale>  0 0.24136470E+03</rscale>
<asrwt>0</asrwt>
<pdfrwt beam="1">  1        2 0.13350342E-01 0.24136470E+03</pdfrwt>
<pdfrwt beam="2">  1       -2 0.25820722E-01 0.24136470E+03</pdfrwt>
<totfact> 0.59298973E+03</totfact>
</mgrwt>
</event>
<event>
 4    1  0.1866622E-004  0.2745517E+03  0.7818608E-02  0.1098702E+00
          2   -1    0    0  501    0  0.00000000000E+00  0.00000000000E+00  0.20667823950E+03  0.20667823950E+03  0.00000000000E+00 0. -1.
         -2   -1    0    0    0  501 -0.00000000000E+00 -0.00000000000E+00 -0.91178705586E+02  0.91178705586E+02  0.00000000000E+00 0. -1.
         25    1    1    2    0    0 -0.97694046053E+01  0.65948268734E+02  0.57535697533E+02  0.14884546317E+03  0.12000000000E+03 0.  0.
         25    1    1    2    0    0  0.97694046053E+01 -0.65948268734E+02  0.57963836382E+02  0.14901148192E+03  0.12000000000E+03 0.  0.
<mgrwt>
<rscale>  0 0.27455167E+03</rscale>
<asrwt>0</asrwt>
<pdfrwt beam="1">  1        2 0.31796652E-01 0.27455167E+03</pdfrwt>
<pdfrwt beam="2">  1       -2 0.14027493E-01 0.27455167E+03</pdfrwt>
<totfact> 0.62430999E+03</totfact>
</mgrwt>
</event>
<event>
 4    1  0.1866622E-004  0.2470669E+03  0.7818608E-02  0.1115173E+00
         -2   -1    0    0    0  501 -0.00000000000E+00  0.00000000000E+00  0.56667503583E+01  0.56667503583E+01  0.00000000000E+00 0. -1.
          2   -1    0    0  501    0  0.00000000000E+00 -0.00000000000E+00 -0.26929921878E+04  0.26929921878E+04  0.00000000000E+00 0. -1.
         25    1    1    2    0    0  0.14949398024E+02  0.24088001224E+02 -0.12613436445E+04  0.12673561086E+04  0.12000000000E+03 0.  0.
         25    1    1    2    0    0 -0.14949398024E+02 -0.24088001224E+02 -0.14259817929E+04  0.14313028295E+04  0.12000000000E+03 0.  0.
<mgrwt>
<rscale>  0 0.24706691E+03</rscale>
<asrwt>0</asrwt>
<pdfrwt beam="1">  1        2 0.41430729E+00 0.24706691E+03</pdfrwt>
<pdfrwt beam="2">  1       -2 0.87180607E-03 0.24706691E+03</pdfrwt>
<totfact> 0.81534788E+03</totfact>
</mgrwt>
</event>
<event>
 4    1  0.1866622E-004  0.2869093E+03  0.7818608E-02  0.1091974E+00
          2   -1    0    0  501    0  0.00000000000E+00  0.00000000000E+00  0.50482591152E+03  0.50482591152E+03  0.00000000000E+00 0. -1.
         -2   -1    0    0    0  501 -0.00000000000E+00 -0.00000000000E+00 -0.40765009675E+02  0.40765009675E+02  0.00000000000E+00 0. -1.
         25    1    1    2    0    0 -0.64745331895E+02 -0.32531648197E+02  0.28998969276E+03  0.32209360137E+03  0.12000000000E+03 0.  0.
         25    1    1    2    0    0  0.64745331895E+02  0.32531648197E+02  0.17407120908E+03  0.22349731982E+03  0.12000000000E+03 0.  0.
<mgrwt>
<rscale>  0 0.28690928E+03</rscale>
<asrwt>0</asrwt>
<pdfrwt beam="1">  1        2 0.77665521E-01 0.28690928E+03</pdfrwt>
<pdfrwt beam="2">  1       -2 0.62715403E-02 0.28690928E+03</pdfrwt>
<totfact> 0.84814093E+03</totfact>
</mgrwt>
</event>
<event>
 4    1  0.1866622E-004  0.2733986E+03  0.7818608E-02  0.1099350E+00
         -2   -1    0    0    0  501 -0.00000000000E+00  0.00000000000E+00  0.21071804025E+02  0.21071804025E+02  0.00000000000E+00 0.  1.
          2   -1    0    0  501    0  0.00000000000E+00 -0.00000000000E+00 -0.88681030395E+03  0.88681030395E+03  0.00000000000E+00 0.  1.
         25    1    1    2    0    0 -0.10683596329E+02 -0.12791117228E+02 -0.22261340842E+03  0.25344522390E+03  0.12000000000E+03 0.  0.
         25    1    1    2    0    0  0.10683596329E+02  0.12791117228E+02 -0.64312509150E+03  0.65443688407E+03  0.12000000000E+03 0.  0.
<mgrwt>
<rscale>  0 0.27339856E+03</rscale>
<asrwt>0</asrwt>
<pdfrwt beam="1">  1        2 0.13643233E+00 0.27339856E+03</pdfrwt>
<pdfrwt beam="2">  1       -2 0.32418166E-02 0.27339856E+03</pdfrwt>
<totfact> 0.11649214E+04</totfact>
</mgrwt>
</event>
<event>
 4    1  0.1866622E-004  0.2588845E+03  0.7818608E-02  0.1107815E+00
          2   -1    0    0  501    0  0.00000000000E+00  0.00000000000E+00  0.15039867581E+03  0.15039867581E+03  0.00000000000E+00 0.  1.
         -2   -1    0    0    0  501 -0.00000000000E+00 -0.00000000000E+00 -0.11140591264E+03  0.11140591264E+03  0.00000000000E+00 0.  1.
         25    1    1    2    0    0  0.38680046790E+02 -0.25173370640E+01  0.49028832938E+02  0.13530081103E+03  0.12000000000E+03 0.  0.
         25    1    1    2    0    0 -0.38680046790E+02  0.25173370640E+01 -0.10036069775E+02  0.12650377742E+03  0.12000000000E+03 0.  0.
<mgrwt>
<rscale>  0 0.25888454E+03</rscale>
<asrwt>0</asrwt>
<pdfrwt beam="1">  1        2 0.23138258E-01 0.25888454E+03</pdfrwt>
<pdfrwt beam="2">  1       -2 0.17139371E-01 0.25888454E+03</pdfrwt>
<totfact> 0.63551257E+03</totfact>
</mgrwt>
</event>
<event>
 4    1  0.1866622E-004  0.2625225E+03  0.7818608E-02  0.1105637E+00
         -2   -1    0    0    0  501 -0.00000000000E+00  0.00000000000E+00  0.32294350971E+02  0.32294350971E+02  0.00000000000E+00 0. -1.
          2   -1    0    0  501    0  0.00000000000E+00 -0.00000000000E+00 -0.53351479637E+03  0.53351479637E+03  0.00000000000E+00 0. -1.
         25    1    1    2    0    0 -0.49107127840E+02  0.28593009564E+01 -0.29424216229E+03  0.32155580492E+03  0.12000000000E+03 0.  0.
         25    1    1    2    0    0  0.49107127840E+02 -0.28593009564E+01 -0.20697828311E+03  0.24425334243E+03  0.12000000000E+03 0.  0.
<mgrwt>
<rscale>  0 0.26252249E+03</rscale>
<asrwt>0</asrwt>
<pdfrwt beam="1">  1        2 0.82079204E-01 0.26252249E+03</pdfrwt>
<pdfrwt beam="2">  1       -2 0.49683614E-02 0.26252249E+03</pdfrwt>
<totfact> 0.11338734E+04</totfact>
</mgrwt>
</event>
<event>
 4    1  0.1866622E-004  0.2870885E+03  0.7818608E-02  0.1091879E+00
          2   -1    0    0  501    0  0.00000000000E+00  0.00000000000E+00  0.11356187915E+04  0.11356187915E+04  0.00000000000E+00 0. -1.
         -2   -1    0    0    0  501 -0.00000000000E+00 -0.00000000000E+00 -0.18144251433E+02  0.18144251433E+02  0.00000000000E+00 0. -1.
         25    1    1    2    0    0 -0.58961772324E+02 -0.48319342299E+01  0.76776006816E+03  0.77933007156E+03  0.12000000000E+03 0.  0.
         25    1    1    2    0    0  0.58961772324E+02  0.48319342299E+01  0.34971447186E+03  0.37443297132E+03  0.12000000000E+03 0.  0.
<mgrwt>
<rscale>  0 0.28708851E+03</rscale>
<asrwt>0</asrwt>
<pdfrwt beam="1">  1        2 0.17471053E+00 0.28708851E+03</pdfrwt>
<pdfrwt beam="2">  1       -2 0.27914242E-02 0.28708851E+03</pdfrwt>
<totfact> 0.10266332E+04</totfact>
</mgrwt>
</event>
<event>
 4    1  0.1866622E-004  0.3598192E+03  0.7818608E-02  0.1058655E+00
         -2   -1    0    0    0  501 -0.00000000000E+00  0.00000000000E+00  0.34659290855E+02  0.34659290855E+02  0.00000000000E+00 0.  1.
          2   -1    0    0  501    0  0.00000000000E+00 -0.00000000000E+00 -0.93387533625E+03  0.93387533625E+03  0.00000000000E+00 0.  1.
         25    1    1    2    0    0 -0.62686715879E+02  0.10038990509E+03 -0.28022807972E+03  0.32700999076E+03  0.12000000000E+03 0.  0.
         25    1    1    2    0    0  0.62686715879E+02 -0.10038990509E+03 -0.61898796568E+03  0.64152463635E+03  0.12000000000E+03 0.  0.
<mgrwt>
<rscale>  0 0.35981916E+03</rscale>
<asrwt>0</asrwt>
<pdfrwt beam="1">  1        2 0.14367313E+00 0.35981916E+03</pdfrwt>
<pdfrwt beam="2">  1       -2 0.53321987E-02 0.35981916E+03</pdfrwt>
<totfact> 0.51490055E+03</totfact>
</mgrwt>
</event>
<event>
 4    1  0.1866622E-004  0.2889794E+03  0.7818608E-02  0.1090883E+00
          1   -1    0    0  501    0  0.00000000000E+00  0.00000000000E+00  0.14395819609E+03  0.14395819609E+03  0.00000000000E+00 0.  1.
         -1   -1    0    0    0  501 -0.00000000000E+00 -0.00000000000E+00 -0.14502312395E+03  0.14502312395E+03  0.00000000000E+00 0.  1.
         25    1    1    2    0    0  0.22594009499E+02  0.54427088524E+02 -0.55345882783E+02  0.14469265348E+03  0.12000000000E+03 0.  0.
         25    1    1    2    0    0 -0.22594009499E+02 -0.54427088524E+02  0.54280954916E+02  0.14428866656E+03  0.12000000000E+03 0.  0.
<mgrwt>
<rscale>  0 0.28897936E+03</rscale>
<asrwt>0</asrwt>
<pdfrwt beam="1">  1        1 0.22147415E-01 0.28897936E+03</pdfrwt>
<pdfrwt beam="2">  1       -1 0.22311250E-01 0.28897936E+03</pdfrwt>
<totfact> 0.37524997E+03</totfact>
</mgrwt>
</event>
<event>
 4    1  0.1866622E-004  0.2795854E+03  0.7818608E-02  0.1095916E+00
         -2   -1    0    0    0  501 -0.00000000000E+00  0.00000000000E+00  0.12048764296E+02  0.12048764296E+02  0.00000000000E+00 0.  1.
          2   -1    0    0  501    0  0.00000000000E+00 -0.00000000000E+00 -0.16219084695E+04  0.16219084695E+04  0.00000000000E+00 0.  1.
         25    1    1    2    0    0  0.47154395844E+02 -0.56534771911E+01 -0.11189168000E+04  0.11263348988E+04  0.12000000000E+03 0.  0.
         25    1    1    2    0    0 -0.47154395844E+02  0.56534771911E+01 -0.49094290518E+03  0.50762233501E+03  0.12000000000E+03 0.  0.
<mgrwt>
<rscale>  0 0.27958536E+03</rscale>
<asrwt>0</asrwt>
<pdfrwt beam="1">  1        2 0.24952461E+00 0.27958536E+03</pdfrwt>
<pdfrwt beam="2">  1       -2 0.18536543E-02 0.27958536E+03</pdfrwt>
<totfact> 0.10161794E+04</totfact>
</mgrwt>
</event>
<event>
 4    1  0.1866622E-004  0.3069427E+03  0.7818608E-02  0.1081821E+00
          4   -1    0    0  501    0  0.00000000000E+00  0.00000000000E+00  0.99392332035E+03  0.99392332035E+03  0.00000000000E+00 0. -1.
         -4   -1    0    0    0  501 -0.00000000000E+00 -0.00000000000E+00 -0.23697451165E+02  0.23697451165E+02  0.00000000000E+00 0. -1.
         25    1    1    2    0    0  0.82624434657E+02 -0.69320789750E+01  0.32685605254E+03  0.35792419589E+03  0.12000000000E+03 0.  0.
         25    1    1    2    0    0 -0.82624434657E+02  0.69320789750E+01  0.64336981664E+03  0.65969657562E+03  0.12000000000E+03 0.  0.
<mgrwt>
<rscale>  0 0.30694266E+03</rscale>
<asrwt>0</asrwt>
<pdfrwt beam="1">  1        4 0.15291125E+00 0.30694266E+03</pdfrwt>
<pdfrwt beam="2">  1       -4 0.36457625E-02 0.30694266E+03</pdfrwt>
<totfact> 0.22545368E+02</totfact>
</mgrwt>
</event>
<event>
 4    1  0.1866622E-004  0.2481589E+03  0.7818608E-02  0.1114474E+00
          1   -1    0    0  501    0  0.00000000000E+00  0.00000000000E+00  0.76395800443E+03  0.76395800443E+03  0.00000000000E+00 0.  1.
         -1   -1    0    0    0  501 -0.00000000000E+00 -0.00000000000E+00 -0.20152560198E+02  0.20152560198E+02  0.00000000000E+00 0.  1.
         25    1    1    2    0    0 -0.29921845911E+02  0.10018820177E+02  0.37230305482E+03  0.39243503698E+03  0.12000000000E+03 0.  0.
         25    1    1    2    0    0  0.29921845911E+02 -0.10018820177E+02  0.37150238941E+03  0.39167552765E+03  0.12000000000E+03 0.  0.
<mgrwt>
<rscale>  0 0.24815890E+03</rscale>
<asrwt>0</asrwt>
<pdfrwt beam="1">  1        1 0.11753198E+00 0.24815890E+03</pdfrwt>
<pdfrwt beam="2">  1       -1 0.31003945E-02 0.24815890E+03</pdfrwt>
<totfact> 0.88249705E+03</totfact>
</mgrwt>
</event>
<event>
 4    1  0.1866622E-004  0.3109930E+03  0.7818608E-02  0.1079871E+00
          2   -1    0    0  501    0  0.00000000000E+00  0.00000000000E+00  0.91008406298E+03  0.91008406298E+03  0.00000000000E+00 0.  1.
         -2   -1    0    0    0  501 -0.00000000000E+00 -0.00000000000E+00 -0.26568045122E+02  0.26568045122E+02  0.00000000000E+00 0.  1.
         25    1    1    2    0    0 -0.85332517606E+02  0.10371792864E+02  0.58899652345E+03  0.60721175655E+03  0.12000000000E+03 0.  0.
         25    1    1    2    0    0  0.85332517606E+02 -0.10371792864E+02  0.29451949440E+03  0.32944035155E+03  0.12000000000E+03 0.  0.
<mgrwt>
<rscale>  0 0.31099295E+03</rscale>
<asrwt>0</asrwt>
<pdfrwt beam="1">  1        2 0.14001291E+00 0.31099295E+03</pdfrwt>
<pdfrwt beam="2">  1       -2 0.40873923E-02 0.31099295E+03</pdfrwt>
<totfact> 0.79743134E+03</totfact>
</mgrwt>
</event>
<event>
 4    1  0.1866622E-004  0.2898716E+03  0.7818608E-02  0.1090416E+00
         -2   -1    0    0    0  501 -0.00000000000E+00  0.00000000000E+00  0.21899283793E+02  0.21899283793E+02  0.00000000000E+00 0.  1.
          2   -1    0    0  501    0  0.00000000000E+00 -0.00000000000E+00 -0.95922696199E+03  0.95922696199E+03  0.00000000000E+00 0.  1.
         25    1    1    2    0    0  0.10837067339E+02  0.71818207030E+02 -0.59215117026E+03  0.60853784215E+03  0.12000000000E+03 0.  0.
         25    1    1    2    0    0 -0.10837067339E+02 -0.71818207030E+02 -0.34517650794E+03  0.37258840363E+03  0.12000000000E+03 0.  0.
<mgrwt>
<rscale>  0 0.28987158E+03</rscale>
<asrwt>0</asrwt>
<pdfrwt beam="1">  1        2 0.14757338E+00 0.28987158E+03</pdfrwt>
<pdfrwt beam="2">  1       -2 0.33691206E-02 0.28987158E+03</pdfrwt>
<totfact> 0.99049657E+03</totfact>
</mgrwt>
</event>
<event>
 4    1  0.1866622E-004  0.3583728E+03  0.7818608E-02  0.1059230E+00
          1   -1    0    0  501    0  0.00000000000E+00  0.00000000000E+00  0.34557974503E+04  0.34557974503E+04  0.00000000000E+00 0.  1.
         -1   -1    0    0    0  501 -0.00000000000E+00 -0.00000000000E+00 -0.92909876590E+01  0.92909876590E+01  0.00000000000E+00 0.  1.
         25    1    1    2    0    0  0.62872632856E+02 -0.10217606985E+03  0.22799407255E+04  0.22862464060E+04  0.12000000000E+03 0.  0.
         25    1    1    2    0    0 -0.62872632856E+02  0.10217606985E+03  0.11665657371E+04  0.11788420319E+04  0.12000000000E+03 0.  0.
<mgrwt>
<rscale>  0 0.35837283E+03</rscale>
<asrwt>0</asrwt>
<pdfrwt beam="1">  1        1 0.53166012E+00 0.35837283E+03</pdfrwt>
<pdfrwt beam="2">  1       -1 0.14293855E-02 0.35837283E+03</pdfrwt>
<totfact> 0.37326553E+02</totfact>
</mgrwt>
</event>
<event>
 4    1  0.1866622E-004  0.3176731E+03  0.7818608E-02  0.1076725E+00
          2   -1    0    0  501    0  0.00000000000E+00  0.00000000000E+00  0.12891108156E+03  0.12891108156E+03  0.00000000000E+00 0.  1.
         -2   -1    0    0    0  501 -0.00000000000E+00 -0.00000000000E+00 -0.19570889327E+03  0.19570889327E+03  0.00000000000E+00 0.  1.
         25    1    1    2    0    0 -0.84575258104E+02 -0.28423775878E+02 -0.88125258981E+02  0.17357115713E+03  0.12000000000E+03 0.  0.
         25    1    1    2    0    0  0.84575258104E+02  0.28423775878E+02  0.21327447276E+02  0.15104881769E+03  0.12000000000E+03 0.  0.
<mgrwt>
<rscale>  0 0.31767307E+03</rscale>
<asrwt>0</asrwt>
<pdfrwt beam="1">  1        2 0.19832474E-01 0.31767307E+03</pdfrwt>
<pdfrwt beam="2">  1       -2 0.30109060E-01 0.31767307E+03</pdfrwt>
<totfact> 0.28520676E+03</totfact>
</mgrwt>
</event>
<event>
 4    1  0.1866622E-004  0.2762097E+03  0.7818608E-02  0.1097777E+00
          2   -1    0    0  501    0  0.00000000000E+00  0.00000000000E+00  0.61860630846E+03  0.61860630846E+03  0.00000000000E+00 0.  1.
         -2   -1    0    0    0  501 -0.00000000000E+00 -0.00000000000E+00 -0.30832133363E+02  0.30832133363E+02  0.00000000000E+00 0.  1.
         25    1    1    2    0    0 -0.34133061487E+02 -0.25720993249E+02  0.16844575586E+03  0.21118856041E+03  0.12000000000E+03 0.  0.
         25    1    1    2    0    0  0.34133061487E+02  0.25720993249E+02  0.41932841924E+03  0.43824988141E+03  0.12000000000E+03 0.  0.
<mgrwt>
<rscale>  0 0.27620972E+03</rscale>
<asrwt>0</asrwt>
<pdfrwt beam="1">  1        2 0.95170193E-01 0.27620972E+03</pdfrwt>
<pdfrwt beam="2">  1       -2 0.47434056E-02 0.27620972E+03</pdfrwt>
<totfact> 0.10282534E+04</totfact>
</mgrwt>
</event>
<event>
 4    1  0.1866622E-004  0.2779395E+03  0.7818608E-02  0.1096820E+00
         -1   -1    0    0    0  501 -0.00000000000E+00  0.00000000000E+00  0.62022883639E+03  0.62022883639E+03  0.00000000000E+00 0. -1.
          1   -1    0    0  501    0  0.00000000000E+00 -0.00000000000E+00 -0.31137841831E+02  0.31137841831E+02  0.00000000000E+00 0. -1.
         25    1    1    2    0    0 -0.28775634006E+02  0.63638218023E+02  0.30835608231E+03  0.33817352558E+03  0.12000000000E+03 0.  0.
         25    1    1    2    0    0  0.28775634006E+02 -0.63638218023E+02  0.28073491224E+03  0.31319315263E+03  0.12000000000E+03 0.  0.
<mgrwt>
<rscale>  0 0.27793947E+03</rscale>
<asrwt>0</asrwt>
<pdfrwt beam="1">  1        1 0.47904377E-02 0.27793947E+03</pdfrwt>
<pdfrwt beam="2">  1       -1 0.95419812E-01 0.27793947E+03</pdfrwt>
<totfact> 0.19745515E+03</totfact>
</mgrwt>
</event>
<event>
 4    1  0.1866622E-004  0.2614522E+03  0.7818608E-02  0.1106274E+00
          2   -1    0    0  501    0  0.00000000000E+00  0.00000000000E+00  0.53815318334E+03  0.53815318334E+03  0.00000000000E+00 0.  1.
         -2   -1    0    0    0  501 -0.00000000000E+00 -0.00000000000E+00 -0.31755488666E+02  0.31755488666E+02  0.00000000000E+00 0.  1.
         25    1    1    2    0    0 -0.21846133756E+02  0.42709575080E+02  0.21026457353E+03  0.24680468441E+03  0.12000000000E+03 0.  0.
         25    1    1    2    0    0  0.21846133756E+02 -0.42709575080E+02  0.29613312114E+03  0.32310398760E+03  0.12000000000E+03 0.  0.
<mgrwt>
<rscale>  0 0.26145223E+03</rscale>
<asrwt>0</asrwt>
<pdfrwt beam="1">  1        2 0.82792791E-01 0.26145223E+03</pdfrwt>
<pdfrwt beam="2">  1       -2 0.48854602E-02 0.26145223E+03</pdfrwt>
<totfact> 0.11516540E+04</totfact>
</mgrwt>
</event>
<event>
 4    1  0.1866622E-004  0.2580945E+03  0.7818608E-02  0.1108294E+00
          2   -1    0    0  501    0  0.00000000000E+00  0.00000000000E+00  0.34691336235E+03  0.34691336235E+03  0.00000000000E+00 0.  1.
         -2   -1    0    0    0  501 -0.00000000000E+00 -0.00000000000E+00 -0.48003883955E+02  0.48003883955E+02  0.00000000000E+00 0.  1.
         25    1    1    2    0    0  0.45550049524E+02 -0.91291642828E+01  0.13453775851E+03  0.18616808834E+03  0.12000000000E+03 0.  0.
         25    1    1    2    0    0 -0.45550049524E+02  0.91291642828E+01  0.16437171989E+03  0.20874915797E+03  0.12000000000E+03 0.  0.
<mgrwt>
<rscale>  0 0.25809447E+03</rscale>
<asrwt>0</asrwt>
<pdfrwt beam="1">  1        2 0.53371285E-01 0.25809447E+03</pdfrwt>
<pdfrwt beam="2">  1       -2 0.73852131E-02 0.25809447E+03</pdfrwt>
<totfact> 0.98905082E+03</totfact>
</mgrwt>
</event>
<event>
 4    1  0.1866622E-004  0.2483292E+03  0.7818608E-02  0.1114365E+00
          1   -1    0    0  501    0  0.00000000000E+00  0.00000000000E+00  0.90403157526E+01  0.90403157526E+01  0.00000000000E+00 0. -1.
         -1   -1    0    0    0  501 -0.00000000000E+00 -0.00000000000E+00 -0.17053440138E+04  0.17053440138E+04  0.00000000000E+00 0. -1.
         25    1    1    2    0    0 -0.20568989336E+02 -0.19883015023E+02 -0.75090291017E+03  0.76096885489E+03  0.12000000000E+03 0.  0.
         25    1    1    2    0    0  0.20568989336E+02  0.19883015023E+02 -0.94540078783E+03  0.95341547462E+03  0.12000000000E+03 0.  0.
<mgrwt>
<rscale>  0 0.24832920E+03</rscale>
<asrwt>0</asrwt>
<pdfrwt beam="1">  1        1 0.13908174E-02 0.24832920E+03</pdfrwt>
<pdfrwt beam="2">  1       -1 0.26236069E+00 0.24832920E+03</pdfrwt>
<totfact> 0.67182934E+02</totfact>
</mgrwt>
</event>
<event>
 4    1  0.1866622E-004  0.2804840E+03  0.7818608E-02  0.1095425E+00
         -4   -1    0    0    0  501 -0.00000000000E+00  0.00000000000E+00  0.41506258584E+03  0.41506258584E+03  0.00000000000E+00 0. -1.
          4   -1    0    0  501    0  0.00000000000E+00 -0.00000000000E+00 -0.47385187754E+02  0.47385187754E+02  0.00000000000E+00 0. -1.
         25    1    1    2    0    0  0.54750469622E+02  0.33956167100E+02  0.12873042260E+03  0.18740906304E+03  0.12000000000E+03 0.  0.
         25    1    1    2    0    0 -0.54750469622E+02 -0.33956167100E+02  0.23894697549E+03  0.27503871056E+03  0.12000000000E+03 0.  0.
<mgrwt>
<rscale>  0 0.28048400E+03</rscale>
<asrwt>0</asrwt>
<pdfrwt beam="1">  1        4 0.72900292E-02 0.28048400E+03</pdfrwt>
<pdfrwt beam="2">  1       -4 0.63855780E-01 0.28048400E+03</pdfrwt>
<totfact> 0.56248646E+02</totfact>
</mgrwt>
</event>
<event>
 4    1  0.1866622E-004  0.3772211E+03  0.7818608E-02  0.1051966E+00
          2   -1    0    0  501    0  0.00000000000E+00  0.00000000000E+00  0.19071250460E+04  0.19071250460E+04  0.00000000000E+00 0. -1.
         -2   -1    0    0    0  501 -0.00000000000E+00 -0.00000000000E+00 -0.18653175464E+02  0.18653175464E+02  0.00000000000E+00 0. -1.
         25    1    1    2    0    0 -0.30189696653E+02  0.13160872267E+03  0.66734619194E+03  0.69136330071E+03  0.12000000000E+03 0.  0.
         25    1    1    2    0    0  0.30189696653E+02 -0.13160872267E+03  0.12211256786E+04  0.12344149208E+04  0.12000000000E+03 0.  0.
<mgrwt>
<rscale>  0 0.37722109E+03</rscale>
<asrwt>0</asrwt>
<pdfrwt beam="1">  1        2 0.29340370E+00 0.37722109E+03</pdfrwt>
<pdfrwt beam="2">  1       -2 0.28697208E-02 0.37722109E+03</pdfrwt>
<totfact> 0.37551340E+03</totfact>
</mgrwt>
</event>
<event>
 4    1  0.1866622E-004  0.2524479E+03  0.7818608E-02  0.1111767E+00
         -2   -1    0    0    0  501 -0.00000000000E+00  0.00000000000E+00  0.76065393412E+03  0.76065393412E+03  0.00000000000E+00 0. -1.
          2   -1    0    0  501    0  0.00000000000E+00 -0.00000000000E+00 -0.20945781529E+02  0.20945781529E+02  0.00000000000E+00 0. -1.
         25    1    1    2    0    0  0.13533479959E+02  0.19402000975E+02  0.46642498085E+03  0.48219483146E+03  0.12000000000E+03 0.  0.
         25    1    1    2    0    0 -0.13533479959E+02 -0.19402000975E+02  0.27328317173E+03  0.29940488419E+03  0.12000000000E+03 0.  0.
<mgrwt>
<rscale>  0 0.25244794E+03</rscale>
<asrwt>0</asrwt>
<pdfrwt beam="1">  1        2 0.32224285E-02 0.25244794E+03</pdfrwt>
<pdfrwt beam="2">  1       -2 0.11702366E+00 0.25244794E+03</pdfrwt>
<totfact> 0.16703140E+03</totfact>
</mgrwt>
</event>
<event>
 4    1  0.1866622E-004  0.3764868E+03  0.7818608E-02  0.1052240E+00
          2   -1    0    0  501    0  0.00000000000E+00  0.00000000000E+00  0.39312813094E+03  0.39312813094E+03  0.00000000000E+00 0.  1.
         -2   -1    0    0    0  501 -0.00000000000E+00 -0.00000000000E+00 -0.90137482566E+02  0.90137482566E+02  0.00000000000E+00 0.  1.
         25    1    1    2    0    0 -0.83020725477E+02 -0.11220286802E+03  0.10089963655E+03  0.20991107905E+03  0.12000000000E+03 0.  0.
         25    1    1    2    0    0  0.83020725477E+02  0.11220286802E+03  0.20209101182E+03  0.27335453446E+03  0.12000000000E+03 0.  0.
<mgrwt>
<rscale>  0 0.37648681E+03</rscale>
<asrwt>0</asrwt>
<pdfrwt beam="1">  1        2 0.60481250E-01 0.37648681E+03</pdfrwt>
<pdfrwt beam="2">  1       -2 0.13867305E-01 0.37648681E+03</pdfrwt>
<totfact> 0.31896353E+03</totfact>
</mgrwt>
</event>
<event>
 4    1  0.1866622E-004  0.3009331E+03  0.7818608E-02  0.1084775E+00
         -2   -1    0    0    0  501 -0.00000000000E+00  0.00000000000E+00  0.57969573541E+01  0.57969573541E+01  0.00000000000E+00 0.  1.
          2   -1    0    0  501    0  0.00000000000E+00 -0.00000000000E+00 -0.39055283625E+04  0.39055283625E+04  0.00000000000E+00 0.  1.
         25    1    1    2    0    0 -0.67770511757E+02  0.55556924388E+02 -0.16420822163E+04  0.16487915027E+04  0.12000000000E+03 0.  0.
         25    1    1    2    0    0  0.67770511757E+02 -0.55556924388E+02 -0.22576491888E+04  0.22625338172E+04  0.12000000000E+03 0.  0.
<mgrwt>
<rscale>  0 0.30093309E+03</rscale>
<asrwt>0</asrwt>
<pdfrwt beam="1">  1        2 0.60085128E+00 0.30093309E+03</pdfrwt>
<pdfrwt beam="2">  1       -2 0.89183846E-03 0.30093309E+03</pdfrwt>
<totfact> 0.13201742E+03</totfact>
</mgrwt>
</event>
<event>
 4    1  0.1866622E-004  0.2978100E+03  0.7818608E-02  0.1086341E+00
         -2   -1    0    0    0  501 -0.00000000000E+00  0.00000000000E+00  0.96767896038E+02  0.96767896038E+02  0.00000000000E+00 0. -1.
          2   -1    0    0  501    0  0.00000000000E+00 -0.00000000000E+00 -0.22913277803E+03  0.22913277803E+03  0.00000000000E+00 0. -1.
         25    1    1    2    0    0  0.68910528064E+02  0.27344290042E+02 -0.11839358518E+03  0.18415594503E+03  0.12000000000E+03 0.  0.
         25    1    1    2    0    0 -0.68910528064E+02 -0.27344290042E+02 -0.13971296805E+02  0.14174472904E+03  0.12000000000E+03 0.  0.
<mgrwt>
<rscale>  0 0.29780999E+03</rscale>
<asrwt>0</asrwt>
<pdfrwt beam="1">  1        2 0.35251196E-01 0.29780999E+03</pdfrwt>
<pdfrwt beam="2">  1       -2 0.14887369E-01 0.29780999E+03</pdfrwt>
<totfact> 0.50717165E+03</totfact>
</mgrwt>
</event>
<event>
 4    1  0.1866622E-004  0.3142923E+03  0.7818608E-02  0.1078307E+00
         -1   -1    0    0    0  501 -0.00000000000E+00  0.00000000000E+00  0.23378186792E+03  0.23378186792E+03  0.00000000000E+00 0. -1.
          1   -1    0    0  501    0  0.00000000000E+00 -0.00000000000E+00 -0.10563230793E+03  0.10563230793E+03  0.00000000000E+00 0. -1.
         25    1    1    2    0    0 -0.23137120847E+01 -0.88583602591E+02  0.10702667714E+02  0.14955585916E+03  0.12000000000E+03 0.  0.
         25    1    1    2    0    0  0.23137120847E+01  0.88583602591E+02  0.11744689227E+03  0.18985831669E+03  0.12000000000E+03 0.  0.
<mgrwt>
<rscale>  0 0.31429234E+03</rscale>
<asrwt>0</asrwt>
<pdfrwt beam="1">  1        1 0.16251124E-01 0.31429234E+03</pdfrwt>
<pdfrwt beam="2">  1       -1 0.35966441E-01 0.31429234E+03</pdfrwt>
<totfact> 0.25006725E+03</totfact>
</mgrwt>
</event>
<event>
 4    1  0.1866622E-004  0.2800999E+03  0.7818608E-02  0.1095634E+00
         -2   -1    0    0    0  501 -0.00000000000E+00  0.00000000000E+00  0.39094435085E+02  0.39094435085E+02  0.00000000000E+00 0. -1.
          2   -1    0    0  501    0  0.00000000000E+00 -0.00000000000E+00 -0.50170799853E+03  0.50170799853E+03  0.00000000000E+00 0. -1.
         25    1    1    2    0    0  0.20235958785E+02  0.26513329913E+02 -0.10765535305E+03  0.16462723265E+03  0.12000000000E+03 0.  0.
         25    1    1    2    0    0 -0.20235958785E+02 -0.26513329913E+02 -0.35495821040E+03  0.37617520096E+03  0.12000000000E+03 0.  0.
<mgrwt>
<rscale>  0 0.28009992E+03</rscale>
<asrwt>0</asrwt>
<pdfrwt beam="1">  1        2 0.77185840E-01 0.28009992E+03</pdfrwt>
<pdfrwt beam="2">  1       -2 0.60145289E-02 0.28009992E+03</pdfrwt>
<totfact> 0.91005420E+03</totfact>
</mgrwt>
</event>
<event>
 4    1  0.1866622E-004  0.3506641E+03  0.7818608E-02  0.1062343E+00
          2   -1    0    0  501    0  0.00000000000E+00  0.00000000000E+00  0.88520968432E+03  0.88520968432E+03  0.00000000000E+00 0.  1.
         -2   -1    0    0    0  501 -0.00000000000E+00 -0.00000000000E+00 -0.34727728253E+02  0.34727728253E+02  0.00000000000E+00 0.  1.
         25    1    1    2    0    0  0.24690134797E+02  0.83541951698E+02  0.67067350010E+03  0.68687102442E+03  0.12000000000E+03 0.  0.
         25    1    1    2    0    0 -0.24690134797E+02 -0.83541951698E+02  0.17980845596E+03  0.23306638815E+03  0.12000000000E+03 0.  0.
<mgrwt>
<rscale>  0 0.35066406E+03</rscale>
<asrwt>0</asrwt>
<pdfrwt beam="1">  1        2 0.13618609E+00 0.35066406E+03</pdfrwt>
<pdfrwt beam="2">  1       -2 0.53427281E-02 0.35066406E+03</pdfrwt>
<totfact> 0.55189670E+03</totfact>
</mgrwt>
</event>
<event>
 4    1  0.1866622E-004  0.2812566E+03  0.7818608E-02  0.1095005E+00
         -2   -1    0    0    0  501 -0.00000000000E+00  0.00000000000E+00  0.13032767945E+04  0.13032767945E+04  0.00000000000E+00 0. -1.
          2   -1    0    0  501    0  0.00000000000E+00 -0.00000000000E+00 -0.15174303448E+02  0.15174303448E+02  0.00000000000E+00 0. -1.
         25    1    1    2    0    0  0.83255845610E+01 -0.43186846895E+02  0.91906875417E+03  0.92791260041E+03  0.12000000000E+03 0.  0.
         25    1    1    2    0    0 -0.83255845610E+01  0.43186846895E+02  0.36903373687E+03  0.39053849753E+03  0.12000000000E+03 0.  0.
<mgrwt>
<rscale>  0 0.28125659E+03</rscale>
<asrwt>0</asrwt>
<pdfrwt beam="1">  1        2 0.23345092E-02 0.28125659E+03</pdfrwt>
<pdfrwt beam="2">  1       -2 0.20050403E+00 0.28125659E+03</pdfrwt>
<totfact> 0.63335072E+02</totfact>
</mgrwt>
</event>
<event>
 4    1  0.1866622E-004  0.2867392E+03  0.7818608E-02  0.1092064E+00
          2   -1    0    0  501    0  0.00000000000E+00  0.00000000000E+00  0.13681794578E+04  0.13681794578E+04  0.00000000000E+00 0.  1.
         -2   -1    0    0    0  501 -0.00000000000E+00 -0.00000000000E+00 -0.15023494408E+02  0.15023494408E+02  0.00000000000E+00 0.  1.
         25    1    1    2    0    0  0.74401450659E+02  0.15496954789E+02  0.58265353717E+03  0.59971732995E+03  0.12000000000E+03 0.  0.
         25    1    1    2    0    0 -0.74401450659E+02 -0.15496954789E+02  0.77050242618E+03  0.78348562221E+03  0.12000000000E+03 0.  0.
<mgrwt>
<rscale>  0 0.28673916E+03</rscale>
<asrwt>0</asrwt>
<pdfrwt beam="1">  1        2 0.21048905E+00 0.28673916E+03</pdfrwt>
<pdfrwt beam="2">  1       -2 0.23113079E-02 0.28673916E+03</pdfrwt>
<totfact> 0.10050084E+04</totfact>
</mgrwt>
</event>
<event>
 4    1  0.1866622E-004  0.3077307E+03  0.7818608E-02  0.1081439E+00
          2   -1    0    0  501    0  0.00000000000E+00  0.00000000000E+00  0.37845398222E+04  0.37845398222E+04  0.00000000000E+00 0. -1.
         -2   -1    0    0    0  501 -0.00000000000E+00 -0.00000000000E+00 -0.62555934854E+01  0.62555934854E+01  0.00000000000E+00 0. -1.
         25    1    1    2    0    0  0.69056526732E+01  0.52722626024E+02  0.28782517372E+04  0.28812428613E+04  0.12000000000E+03 0.  0.
         25    1    1    2    0    0 -0.69056526732E+01 -0.52722626024E+02  0.90003249158E+03  0.90955255441E+03  0.12000000000E+03 0.  0.
<mgrwt>
<rscale>  0 0.30773068E+03</rscale>
<asrwt>0</asrwt>
<pdfrwt beam="1">  1        2 0.58223506E+00 0.30773068E+03</pdfrwt>
<pdfrwt beam="2">  1       -2 0.96240202E-03 0.30773068E+03</pdfrwt>
<totfact> 0.14472638E+03</totfact>
</mgrwt>
</event>
<event>
 4    1  0.1866622E-004  0.2430489E+03  0.7818608E-02  0.1117778E+00
          1   -1    0    0  501    0  0.00000000000E+00  0.00000000000E+00  0.99405289703E+02  0.99405289703E+02  0.00000000000E+00 0.  1.
         -1   -1    0    0    0  501 -0.00000000000E+00 -0.00000000000E+00 -0.14856543218E+03  0.14856543218E+03  0.00000000000E+00 0.  1.
         25    1    1    2    0    0  0.62681822584E-02 -0.11498289498E+02 -0.89073802468E+01  0.12087825331E+03  0.12000000000E+03 0.  0.
         25    1    1    2    0    0 -0.62681822584E-02  0.11498289498E+02 -0.40252762230E+02  0.12709246857E+03  0.12000000000E+03 0.  0.
<mgrwt>
<rscale>  0 0.24304888E+03</rscale>
<asrwt>0</asrwt>
<pdfrwt beam="1">  1        1 0.15293122E-01 0.24304888E+03</pdfrwt>
<pdfrwt beam="2">  1       -1 0.22856220E-01 0.24304888E+03</pdfrwt>
<totfact> 0.57916547E+03</totfact>
</mgrwt>
</event>
<event>
 4    1  0.1866622E-004  0.3735419E+03  0.7818608E-02  0.1053347E+00
         -2   -1    0    0    0  501 -0.00000000000E+00  0.00000000000E+00  0.18161689176E+02  0.18161689176E+02  0.00000000000E+00 0. -1.
          2   -1    0    0  501    0  0.00000000000E+00 -0.00000000000E+00 -0.19207129034E+04  0.19207129034E+04  0.00000000000E+00 0. -1.
         25    1    1    2    0    0  0.13604338288E+03 -0.38614730391E+02 -0.83702635209E+03  0.85732841638E+03  0.12000000000E+03 0.  0.
         25    1    1    2    0    0 -0.13604338288E+03  0.38614730391E+02 -0.10655248621E+04  0.10815461762E+04  0.12000000000E+03 0.  0.
<mgrwt>
<rscale>  0 0.37354192E+03</rscale>
<asrwt>0</asrwt>
<pdfrwt beam="1">  1        2 0.29549420E+00 0.37354192E+03</pdfrwt>
<pdfrwt beam="2">  1       -2 0.27941069E-02 0.37354192E+03</pdfrwt>
<totfact> 0.38444241E+03</totfact>
</mgrwt>
</event>
<event>
 4    1  0.1866622E-004  0.2512309E+03  0.7818608E-02  0.1112529E+00
          1   -1    0    0  501    0  0.00000000000E+00  0.00000000000E+00  0.55337723091E+03  0.55337723091E+03  0.00000000000E+00 0. -1.
         -1   -1    0    0    0  501 -0.00000000000E+00 -0.00000000000E+00 -0.28514439768E+02  0.28514439768E+02  0.00000000000E+00 0. -1.
         25    1    1    2    0    0 -0.26609918007E+02  0.10483078604E+02  0.20755939968E+03  0.24145162469E+03  0.12000000000E+03 0.  0.
         25    1    1    2    0    0  0.26609918007E+02 -0.10483078604E+02  0.31730339147E+03  0.34044004598E+03  0.12000000000E+03 0.  0.
<mgrwt>
<rscale>  0 0.25123090E+03</rscale>
<asrwt>0</asrwt>
<pdfrwt beam="1">  1        1 0.85134951E-01 0.25123090E+03</pdfrwt>
<pdfrwt beam="2">  1       -1 0.43868373E-02 0.25123090E+03</pdfrwt>
<totfact> 0.83551332E+03</totfact>
</mgrwt>
</event>
<event>
 4    1  0.1866622E-004  0.4481802E+03  0.7818608E-02  0.1028266E+00
         -2   -1    0    0    0  501 -0.00000000000E+00  0.00000000000E+00  0.47623970380E+03  0.47623970380E+03  0.00000000000E+00 0. -1.
          2   -1    0    0  501    0  0.00000000000E+00 -0.00000000000E+00 -0.10544350119E+03  0.10544350119E+03  0.00000000000E+00 0. -1.
         25    1    1    2    0    0 -0.65077966756E+02  0.12800039212E+03  0.25400030152E+02  0.18885021491E+03  0.12000000000E+03 0.  0.
         25    1    1    2    0    0  0.65077966756E+02 -0.12800039212E+03  0.34539617246E+03  0.39283299008E+03  0.12000000000E+03 0.  0.
<mgrwt>
<rscale>  0 0.44818024E+03</rscale>
<asrwt>0</asrwt>
<pdfrwt beam="1">  1        2 0.16222077E-01 0.44818024E+03</pdfrwt>
<pdfrwt beam="2">  1       -2 0.73267646E-01 0.44818024E+03</pdfrwt>
<totfact> 0.61717311E+02</totfact>
</mgrwt>
</event>
<event>
 4    1  0.1866622E-004  0.2830114E+03  0.7818608E-02  0.1094055E+00
         -2   -1    0    0    0  501 -0.00000000000E+00  0.00000000000E+00  0.49464867215E+02  0.49464867215E+02  0.00000000000E+00 0. -1.
          2   -1    0    0  501    0  0.00000000000E+00 -0.00000000000E+00 -0.40480990695E+03  0.40480990695E+03  0.00000000000E+00 0. -1.
         25    1    1    2    0    0  0.63173722926E+02  0.18475786150E+02 -0.23535948666E+03  0.27226156891E+03  0.12000000000E+03 0.  0.
         25    1    1    2    0    0 -0.63173722926E+02 -0.18475786150E+02 -0.11998555308E+03  0.18201320526E+03  0.12000000000E+03 0.  0.
<mgrwt>
<rscale>  0 0.28301144E+03</rscale>
<asrwt>0</asrwt>
<pdfrwt beam="1">  1        2 0.62278448E-01 0.28301144E+03</pdfrwt>
<pdfrwt beam="2">  1       -2 0.76099795E-02 0.28301144E+03</pdfrwt>
<totfact> 0.80172053E+03</totfact>
</mgrwt>
</event>
<event>
 4    1  0.1866622E-004  0.5065782E+03  0.7818608E-02  0.1012076E+00
         -2   -1    0    0    0  501 -0.00000000000E+00  0.00000000000E+00  0.34192658462E+02  0.34192658462E+02  0.00000000000E+00 0. -1.
          2   -1    0    0  501    0  0.00000000000E+00 -0.00000000000E+00 -0.18762910325E+04  0.18762910325E+04  0.00000000000E+00 0. -1.
         25    1    1    2    0    0 -0.98749528855E+02 -0.44122259126E+02 -0.16567730631E+04  0.16646306575E+04  0.12000000000E+03 0.  0.
         25    1    1    2    0    0  0.98749528855E+02  0.44122259126E+02 -0.18532531094E+03  0.24585303348E+03  0.12000000000E+03 0.  0.
<mgrwt>
<rscale>  0 0.50657824E+03</rscale>
<asrwt>0</asrwt>
<pdfrwt beam="1">  1        2 0.28866017E+00 0.50657824E+03</pdfrwt>
<pdfrwt beam="2">  1       -2 0.52604089E-02 0.50657824E+03</pdfrwt>
<totfact> 0.15409853E+03</totfact>
</mgrwt>
</event>
<event>
 4    1  0.1866622E-004  0.2491053E+03  0.7818608E-02  0.1113872E+00
          2   -1    0    0  501    0  0.00000000000E+00  0.00000000000E+00  0.12623413459E+04  0.12623413459E+04  0.00000000000E+00 0.  1.
         -2   -1    0    0    0  501 -0.00000000000E+00 -0.00000000000E+00 -0.12289357522E+02  0.12289357522E+02  0.00000000000E+00 0.  1.
         25    1    1    2    0    0 -0.13352170654E+02 -0.11406464033E+02  0.77020135546E+03  0.77969129521E+03  0.12000000000E+03 0.  0.
         25    1    1    2    0    0  0.13352170654E+02  0.11406464033E+02  0.47985063290E+03  0.49493940819E+03  0.12000000000E+03 0.  0.
<mgrwt>
<rscale>  0 0.24910531E+03</rscale>
<asrwt>0</asrwt>
<pdfrwt beam="1">  1        2 0.19420626E+00 0.24910531E+03</pdfrwt>
<pdfrwt beam="2">  1       -2 0.18906714E-02 0.24910531E+03</pdfrwt>
<totfact> 0.15391248E+04</totfact>
</mgrwt>
</event>
<event>
 4    1  0.1866622E-004  0.3598473E+03  0.7818608E-02  0.1058644E+00
         -2   -1    0    0    0  501 -0.00000000000E+00  0.00000000000E+00  0.77666311772E+01  0.77666311772E+01  0.00000000000E+00 0. -1.
          2   -1    0    0  501    0  0.00000000000E+00 -0.00000000000E+00 -0.41681556017E+04  0.41681556017E+04  0.00000000000E+00 0. -1.
         25    1    1    2    0    0 -0.11763904201E+03  0.41233325647E+02 -0.15077406229E+04  0.15176366223E+04  0.12000000000E+03 0.  0.
         25    1    1    2    0    0  0.11763904201E+03 -0.41233325647E+02 -0.26526483475E+04  0.26582856105E+04  0.12000000000E+03 0.  0.
<mgrwt>
<rscale>  0 0.35984734E+03</rscale>
<asrwt>0</asrwt>
<pdfrwt beam="1">  1        2 0.64125322E+00 0.35984734E+03</pdfrwt>
<pdfrwt beam="2">  1       -2 0.11948691E-02 0.35984734E+03</pdfrwt>
<totfact> 0.53025852E+02</totfact>
</mgrwt>
</event>
<event>
 4    1  0.1866622E-004  0.2607549E+03  0.7818608E-02  0.1106691E+00
         -2   -1    0    0    0  501 -0.00000000000E+00  0.00000000000E+00  0.40715746538E+01  0.40715746538E+01  0.00000000000E+00 0. -1.
          2   -1    0    0  501    0  0.00000000000E+00 -0.00000000000E+00 -0.41748648847E+04  0.41748648847E+04  0.00000000000E+00 0. -1.
         25    1    1    2    0    0 -0.66630132942E+01  0.27166188978E+02 -0.27683271570E+04  0.27710679612E+04  0.12000000000E+03 0.  0.
         25    1    1    2    0    0  0.66630132942E+01 -0.27166188978E+02 -0.14024661530E+04  0.14078684981E+04  0.12000000000E+03 0.  0.
<mgrwt>
<rscale>  0 0.26075486E+03</rscale>
<asrwt>0</asrwt>
<pdfrwt beam="1">  1        2 0.64228733E+00 0.26075486E+03</pdfrwt>
<pdfrwt beam="2">  1       -2 0.62639569E-03 0.26075486E+03</pdfrwt>
<totfact> 0.13703735E+03</totfact>
</mgrwt>
</event>
<event>
 4    1  0.1866622E-004  0.2608227E+03  0.7818608E-02  0.1106650E+00
          2   -1    0    0  501    0  0.00000000000E+00  0.00000000000E+00  0.86037461718E+03  0.86037461718E+03  0.00000000000E+00 0.  1.
         -2   -1    0    0    0  501 -0.00000000000E+00 -0.00000000000E+00 -0.19767105156E+02  0.19767105156E+02  0.00000000000E+00 0.  1.
         25    1    1    2    0    0 -0.30362219984E+02  0.41298795591E+01  0.55812961851E+03  0.57170586089E+03  0.12000000000E+03 0.  0.
         25    1    1    2    0    0  0.30362219984E+02 -0.41298795591E+01  0.28247789351E+03  0.30843586145E+03  0.12000000000E+03 0.  0.
<mgrwt>
<rscale>  0 0.26082266E+03</rscale>
<asrwt>0</asrwt>
<pdfrwt beam="1">  1        2 0.13236530E+00 0.26082266E+03</pdfrwt>
<pdfrwt beam="2">  1       -2 0.30410938E-02 0.26082266E+03</pdfrwt>
<totfact> 0.13312060E+04</totfact>
</mgrwt>
</event>
<event>
 4    1  0.1866622E-004  0.2460281E+03  0.7818608E-02  0.1115841E+00
         -1   -1    0    0    0  501 -0.00000000000E+00  0.00000000000E+00  0.12456852202E+02  0.12456852202E+02  0.00000000000E+00 0.  1.
          1   -1    0    0  501    0  0.00000000000E+00 -0.00000000000E+00 -0.12147897330E+04  0.12147897330E+04  0.00000000000E+00 0.  1.
         25    1    1    2    0    0 -0.25354647954E+02  0.87330258326E+01 -0.58295271413E+03  0.59577931386E+03  0.12000000000E+03 0.  0.
         25    1    1    2    0    0  0.25354647954E+02 -0.87330258326E+01 -0.61938016667E+03  0.63146727134E+03  0.12000000000E+03 0.  0.
<mgrwt>
<rscale>  0 0.24602810E+03</rscale>
<asrwt>0</asrwt>
<pdfrwt beam="1">  1        1 0.18689079E+00 0.24602810E+03</pdfrwt>
<pdfrwt beam="2">  1       -1 0.19164382E-02 0.24602810E+03</pdfrwt>
<totfact> 0.81289478E+03</totfact>
</mgrwt>
</event>
<event>
 4    1  0.1866622E-004  0.2848928E+03  0.7818608E-02  0.1093046E+00
          2   -1    0    0  501    0  0.00000000000E+00  0.00000000000E+00  0.31595599396E+04  0.31595599396E+04  0.00000000000E+00 0.  1.
         -2   -1    0    0    0  501 -0.00000000000E+00 -0.00000000000E+00 -0.64220893680E+01  0.64220893680E+01  0.00000000000E+00 0.  1.
         25    1    1    2    0    0  0.54816210074E+01  0.75793357805E+02  0.14567273322E+04  0.14636356110E+04  0.12000000000E+03 0.  0.
         25    1    1    2    0    0 -0.54816210074E+01 -0.75793357805E+02  0.16964105180E+04  0.17023464180E+04  0.12000000000E+03 0.  0.
<mgrwt>
<rscale>  0 0.28489280E+03</rscale>
<asrwt>0</asrwt>
<pdfrwt beam="1">  1        2 0.48608490E+00 0.28489280E+03</pdfrwt>
<pdfrwt beam="2">  1       -2 0.98801627E-03 0.28489280E+03</pdfrwt>
<totfact> 0.36200370E+03</totfact>
</mgrwt>
</event>
<event>
 4    1  0.1866622E-004  0.3301645E+03  0.7818608E-02  0.1071064E+00
         -2   -1    0    0    0  501 -0.00000000000E+00  0.00000000000E+00  0.30655404346E+02  0.30655404346E+02  0.00000000000E+00 0. -1.
          2   -1    0    0  501    0  0.00000000000E+00 -0.00000000000E+00 -0.88898331912E+03  0.88898331912E+03  0.00000000000E+00 0. -1.
         25    1    1    2    0    0 -0.10436786157E+03 -0.28354283971E+02 -0.33447986907E+03  0.37144770663E+03  0.12000000000E+03 0.  0.
         25    1    1    2    0    0  0.10436786157E+03  0.28354283971E+02 -0.52384804570E+03  0.54819101683E+03  0.12000000000E+03 0.  0.
<mgrwt>
<rscale>  0 0.33016446E+03</rscale>
<asrwt>0</asrwt>
<pdfrwt beam="1">  1        2 0.13676665E+00 0.33016446E+03</pdfrwt>
<pdfrwt beam="2">  1       -2 0.47162166E-02 0.33016446E+03</pdfrwt>
<totfact> 0.66332284E+03</totfact>
</mgrwt>
</event>
<event>
 4    1  0.1866622E-004  0.2825428E+03  0.7818608E-02  0.1094308E+00
         -1   -1    0    0    0  501 -0.00000000000E+00  0.00000000000E+00  0.53125052589E+03  0.53125052589E+03  0.00000000000E+00 0. -1.
          1   -1    0    0  501    0  0.00000000000E+00 -0.00000000000E+00 -0.37567234968E+02  0.37567234968E+02  0.00000000000E+00 0. -1.
         25    1    1    2    0    0 -0.43199556967E+02  0.47750162225E+02  0.17120997478E+03  0.21876730829E+03  0.12000000000E+03 0.  0.
         25    1    1    2    0    0  0.43199556967E+02 -0.47750162225E+02  0.32247331614E+03  0.35005045256E+03  0.12000000000E+03 0.  0.
<mgrwt>
<rscale>  0 0.28254283E+03</rscale>
<asrwt>0</asrwt>
<pdfrwt beam="1">  1        1 0.57795750E-02 0.28254283E+03</pdfrwt>
<pdfrwt beam="2">  1       -1 0.81730845E-01 0.28254283E+03</pdfrwt>
<totfact> 0.21211266E+03</totfact>
</mgrwt>
</event>
<event>
 4    1  0.1866622E-004  0.3256002E+03  0.7818608E-02  0.1073100E+00
         -2   -1    0    0    0  501 -0.00000000000E+00  0.00000000000E+00  0.22981335188E+02  0.22981335188E+02  0.00000000000E+00 0.  1.
          2   -1    0    0  501    0  0.00000000000E+00 -0.00000000000E+00 -0.11532779927E+04  0.11532779927E+04  0.00000000000E+00 0.  1.
         25    1    1    2    0    0 -0.10694446755E+03 -0.74424438612E+01 -0.65447200948E+03  0.67396299624E+03  0.12000000000E+03 0.  0.
         25    1    1    2    0    0  0.10694446755E+03  0.74424438612E+01 -0.47582464805E+03  0.50229633166E+03  0.12000000000E+03 0.  0.
<mgrwt>
<rscale>  0 0.32560017E+03</rscale>
<asrwt>0</asrwt>
<pdfrwt beam="1">  1        2 0.17742740E+00 0.32560017E+03</pdfrwt>
<pdfrwt beam="2">  1       -2 0.35355898E-02 0.32560017E+03</pdfrwt>
<totfact> 0.70601841E+03</totfact>
</mgrwt>
</event>
<event>
 4    1  0.1866622E-004  0.2553776E+03  0.7818608E-02  0.1109953E+00
          2   -1    0    0  501    0  0.00000000000E+00  0.00000000000E+00  0.95380709709E+03  0.95380709709E+03  0.00000000000E+00 0.  1.
         -2   -1    0    0    0  501 -0.00000000000E+00 -0.00000000000E+00 -0.17094050174E+02  0.17094050174E+02  0.00000000000E+00 0.  1.
         25    1    1    2    0    0 -0.36070970226E+02 -0.15777631325E+02  0.39678742783E+03  0.41640162275E+03  0.12000000000E+03 0.  0.
         25    1    1    2    0    0  0.36070970226E+02  0.15777631325E+02  0.53992561909E+03  0.55449952452E+03  0.12000000000E+03 0.  0.
<mgrwt>
<rscale>  0 0.25537757E+03</rscale>
<asrwt>0</asrwt>
<pdfrwt beam="1">  1        2 0.14673951E+00 0.25537757E+03</pdfrwt>
<pdfrwt beam="2">  1       -2 0.26298546E-02 0.25537757E+03</pdfrwt>
<totfact> 0.14370683E+04</totfact>
</mgrwt>
</event>
<event>
 4    1  0.1866622E-004  0.3585947E+03  0.7818608E-02  0.1059142E+00
         -2   -1    0    0    0  501 -0.00000000000E+00  0.00000000000E+00  0.11814968070E+02  0.11814968070E+02  0.00000000000E+00 0. -1.
          2   -1    0    0  501    0  0.00000000000E+00 -0.00000000000E+00 -0.27209165322E+04  0.27209165322E+04  0.00000000000E+00 0. -1.
         25    1    1    2    0    0  0.40762835308E+02 -0.82607590708E+02 -0.20879552892E+04  0.20934285066E+04  0.12000000000E+03 0.  0.
         25    1    1    2    0    0 -0.40762835308E+02  0.82607590708E+02 -0.62114627495E+03  0.63930299363E+03  0.12000000000E+03 0.  0.
<mgrwt>
<rscale>  0 0.35859471E+03</rscale>
<asrwt>0</asrwt>
<pdfrwt beam="1">  1        2 0.41860258E+00 0.35859471E+03</pdfrwt>
<pdfrwt beam="2">  1       -2 0.18176872E-02 0.35859471E+03</pdfrwt>
<totfact> 0.26699959E+03</totfact>
</mgrwt>
</event>
<event>
 4    1  0.1866622E-004  0.2520691E+03  0.7818608E-02  0.1112004E+00
          2   -1    0    0  501    0  0.00000000000E+00  0.00000000000E+00  0.12372875639E+03  0.12372875639E+03  0.00000000000E+00 0. -1.
         -2   -1    0    0    0  501 -0.00000000000E+00 -0.00000000000E+00 -0.12838328632E+03  0.12838328632E+03  0.00000000000E+00 0. -1.
         25    1    1    2    0    0 -0.19825849857E+01 -0.35801119739E+02 -0.16438303593E+02  0.12631654145E+03  0.12000000000E+03 0.  0.
         25    1    1    2    0    0  0.19825849857E+01  0.35801119739E+02  0.11783773660E+02  0.12579550127E+03  0.12000000000E+03 0.  0.
<mgrwt>
<rscale>  0 0.25206907E+03</rscale>
<asrwt>0</asrwt>
<pdfrwt beam="1">  1        2 0.19035193E-01 0.25206907E+03</pdfrwt>
<pdfrwt beam="2">  1       -2 0.19751275E-01 0.25206907E+03</pdfrwt>
<totfact> 0.62366101E+03</totfact>
</mgrwt>
</event>
<event>
 4    1  0.1866622E-004  0.2780691E+03  0.7818608E-02  0.1096748E+00
         -2   -1    0    0    0  501 -0.00000000000E+00  0.00000000000E+00  0.39871652268E+02  0.39871652268E+02  0.00000000000E+00 0. -1.
          2   -1    0    0  501    0  0.00000000000E+00 -0.00000000000E+00 -0.48482071895E+03  0.48482071895E+03  0.00000000000E+00 0. -1.
         25    1    1    2    0    0  0.64065682091E+02  0.28570120652E+02 -0.21652560495E+03  0.25730138168E+03  0.12000000000E+03 0.  0.
         25    1    1    2    0    0 -0.64065682091E+02 -0.28570120652E+02 -0.22842346173E+03  0.26739098954E+03  0.12000000000E+03 0.  0.
<mgrwt>
<rscale>  0 0.27806908E+03</rscale>
<asrwt>0</asrwt>
<pdfrwt beam="1">  1        2 0.74587801E-01 0.27806908E+03</pdfrwt>
<pdfrwt beam="2">  1       -2 0.61341005E-02 0.27806908E+03</pdfrwt>
<totfact> 0.91712058E+03</totfact>
</mgrwt>
</event>
<event>
 4    1  0.1866622E-004  0.2703197E+03  0.7818608E-02  0.1101097E+00
         -3   -1    0    0    0  501 -0.00000000000E+00  0.00000000000E+00  0.37040280543E+02  0.37040280543E+02  0.00000000000E+00 0.  1.
          3   -1    0    0  501    0  0.00000000000E+00 -0.00000000000E+00 -0.49319782183E+03  0.49319782183E+03  0.00000000000E+00 0.  1.
         25    1    1    2    0    0 -0.28420137111E+02  0.38154127664E+02 -0.30665589169E+03  0.33271801508E+03  0.12000000000E+03 0.  0.
         25    1    1    2    0    0  0.28420137111E+02 -0.38154127664E+02 -0.14950164960E+03  0.19752008729E+03  0.12000000000E+03 0.  0.
<mgrwt>
<rscale>  0 0.27031970E+03</rscale>
<asrwt>0</asrwt>
<pdfrwt beam="1">  1        3 0.75876587E-01 0.27031970E+03</pdfrwt>
<pdfrwt beam="2">  1       -3 0.56985048E-02 0.27031970E+03</pdfrwt>
<totfact> 0.78560174E+02</totfact>
</mgrwt>
</event>
<event>
 4    1  0.1866622E-004  0.2738651E+03  0.7818608E-02  0.1099088E+00
          4   -1    0    0  501    0  0.00000000000E+00  0.00000000000E+00  0.10186856180E+03  0.10186856180E+03  0.00000000000E+00 0. -1.
         -4   -1    0    0    0  501 -0.00000000000E+00 -0.00000000000E+00 -0.18406588283E+03  0.18406588283E+03  0.00000000000E+00 0. -1.
         25    1    1    2    0    0  0.15156616935E+01  0.84039386174E+01 -0.10938439709E+03  0.16259726240E+03  0.12000000000E+03 0.  0.
         25    1    1    2    0    0 -0.15156616935E+01 -0.84039386174E+01  0.27187076062E+02  0.12333718223E+03  0.12000000000E+03 0.  0.
<mgrwt>
<rscale>  0 0.27386513E+03</rscale>
<asrwt>0</asrwt>
<pdfrwt beam="1">  1        4 0.15672087E-01 0.27386513E+03</pdfrwt>
<pdfrwt beam="2">  1       -4 0.28317828E-01 0.27386513E+03</pdfrwt>
<totfact> 0.77574165E+02</totfact>
</mgrwt>
</event>
<event>
 4    1  0.1866622E-004  0.2722081E+03  0.7818608E-02  0.1100022E+00
          2   -1    0    0  501    0  0.00000000000E+00  0.00000000000E+00  0.19950149558E+02  0.19950149558E+02  0.00000000000E+00 0. -1.
         -2   -1    0    0    0  501 -0.00000000000E+00 -0.00000000000E+00 -0.92852995555E+03  0.92852995555E+03  0.00000000000E+00 0. -1.
         25    1    1    2    0    0 -0.56196287941E+02 -0.25600984834E+02 -0.51572582534E+03  0.53309151196E+03  0.12000000000E+03 0.  0.
         25    1    1    2    0    0  0.56196287941E+02  0.25600984834E+02 -0.39285398065E+03  0.41538859315E+03  0.12000000000E+03 0.  0.
<mgrwt>
<rscale>  0 0.27220809E+03</rscale>
<asrwt>0</asrwt>
<pdfrwt beam="1">  1        2 0.30692540E-02 0.27220809E+03</pdfrwt>
<pdfrwt beam="2">  1       -2 0.14285075E+00 0.27220809E+03</pdfrwt>
<totfact> 0.10916866E+03</totfact>
</mgrwt>
</event>
<event>
 4    1  0.1866622E-004  0.2620050E+03  0.7818608E-02  0.1105945E+00
          2   -1    0    0  501    0  0.00000000000E+00  0.00000000000E+00  0.39172476426E+04  0.39172476426E+04  0.00000000000E+00 0. -1.
         -2   -1    0    0    0  501 -0.00000000000E+00 -0.00000000000E+00 -0.43810503329E+01  0.43810503329E+01  0.00000000000E+00 0. -1.
         25    1    1    2    0    0 -0.32653539322E+02 -0.27708865785E+02  0.24123052551E+04  0.24156677500E+04  0.12000000000E+03 0.  0.
         25    1    1    2    0    0  0.32653539322E+02  0.27708865785E+02  0.15005613373E+04  0.15059609430E+04  0.12000000000E+03 0.  0.
<mgrwt>
<rscale>  0 0.26200503E+03</rscale>
<asrwt>0</asrwt>
<pdfrwt beam="1">  1        2 0.60265068E+00 0.26200503E+03</pdfrwt>
<pdfrwt beam="2">  1       -2 0.67401088E-03 0.26200503E+03</pdfrwt>
<totfact> 0.19558746E+03</totfact>
</mgrwt>
</event>
<event>
 4    1  0.1866622E-004  0.5251324E+03  0.7818608E-02  0.1007419E+00
          2   -1    0    0  501    0  0.00000000000E+00  0.00000000000E+00  0.11188630193E+04  0.11188630193E+04  0.00000000000E+00 0.  1.
         -2   -1    0    0    0  501 -0.00000000000E+00 -0.00000000000E+00 -0.61617016947E+02  0.61617016947E+02  0.00000000000E+00 0.  1.
         25    1    1    2    0    0  0.29450234267E+02 -0.18458351076E+03  0.21388669867E+03  0.30836003082E+03  0.12000000000E+03 0.  0.
         25    1    1    2    0    0 -0.29450234267E+02  0.18458351076E+03  0.84335930369E+03  0.87212000543E+03  0.12000000000E+03 0.  0.
<mgrwt>
<rscale>  0 0.52513237E+03</rscale>
<asrwt>0</asrwt>
<pdfrwt beam="1">  1        2 0.17213276E+00 0.52513237E+03</pdfrwt>
<pdfrwt beam="2">  1       -2 0.94795419E-02 0.52513237E+03</pdfrwt>
<totfact> 0.16033851E+03</totfact>
</mgrwt>
</event>
<event>
 4    1  0.1866622E-004  0.2705389E+03  0.7818608E-02  0.1100972E+00
         -2   -1    0    0    0  501 -0.00000000000E+00  0.00000000000E+00  0.63407484592E+02  0.63407484592E+02  0.00000000000E+00 0. -1.
          2   -1    0    0  501    0  0.00000000000E+00 -0.00000000000E+00 -0.28857510503E+03  0.28857510503E+03  0.00000000000E+00 0. -1.
         25    1    1    2    0    0 -0.55465270601E+02 -0.49591668720E+01 -0.14930991439E+03  0.19948543835E+03  0.12000000000E+03 0.  0.
         25    1    1    2    0    0  0.55465270601E+02  0.49591668720E+01 -0.75857706049E+02  0.15249715127E+03  0.12000000000E+03 0.  0.
<mgrwt>
<rscale>  0 0.27053888E+03</rscale>
<asrwt>0</asrwt>
<pdfrwt beam="1">  1        2 0.44396169E-01 0.27053888E+03</pdfrwt>
<pdfrwt beam="2">  1       -2 0.97549979E-02 0.27053888E+03</pdfrwt>
<totfact> 0.78076112E+03</totfact>
</mgrwt>
</event>
<event>
 4    1  0.1866622E-004  0.2730110E+03  0.7818608E-02  0.1099569E+00
         -2   -1    0    0    0  501 -0.00000000000E+00  0.00000000000E+00  0.16636188784E+03  0.16636188784E+03  0.00000000000E+00 0.  1.
          2   -1    0    0  501    0  0.00000000000E+00 -0.00000000000E+00 -0.11200733839E+03  0.11200733839E+03  0.00000000000E+00 0.  1.
         25    1    1    2    0    0  0.45859876763E+02  0.31752554214E+02  0.61337030412E+02  0.14585466841E+03  0.12000000000E+03 0.  0.
         25    1    1    2    0    0 -0.45859876763E+02 -0.31752554214E+02 -0.69824809653E+01  0.13251455783E+03  0.12000000000E+03 0.  0.
<mgrwt>
<rscale>  0 0.27301101E+03</rscale>
<asrwt>0</asrwt>
<pdfrwt beam="1">  1        2 0.17231898E-01 0.27301101E+03</pdfrwt>
<pdfrwt beam="2">  1       -2 0.25594137E-01 0.27301101E+03</pdfrwt>
<totfact> 0.44753642E+03</totfact>
</mgrwt>
</event>
<event>
 4    1  0.1866622E-004  0.2548784E+03  0.7818608E-02  0.1110260E+00
          4   -1    0    0  501    0  0.00000000000E+00  0.00000000000E+00  0.77701125627E+02  0.77701125627E+02  0.00000000000E+00 0.  1.
         -4   -1    0    0    0  501 -0.00000000000E+00 -0.00000000000E+00 -0.20901560728E+03  0.20901560728E+03  0.00000000000E+00 0.  1.
         25    1    1    2    0    0 -0.17257292277E+02 -0.20473966873E+02 -0.27947375630E+02  0.12608748257E+03  0.12000000000E+03 0.  0.
         25    1    1    2    0    0  0.17257292277E+02  0.20473966873E+02 -0.10336710602E+03  0.16062925034E+03  0.12000000000E+03 0.  0.
<mgrwt>
<rscale>  0 0.25487839E+03</rscale>
<asrwt>0</asrwt>
<pdfrwt beam="1">  1        4 0.11954019E-01 0.25487839E+03</pdfrwt>
<pdfrwt beam="2">  1       -4 0.32156247E-01 0.25487839E+03</pdfrwt>
<totfact> 0.96652089E+02</totfact>
</mgrwt>
</event>
<event>
 4    1  0.1866622E-004  0.3014847E+03  0.7818608E-02  0.1084501E+00
         -1   -1    0    0    0  501 -0.00000000000E+00  0.00000000000E+00  0.17776829142E+02  0.17776829142E+02  0.00000000000E+00 0.  1.
          1   -1    0    0  501    0  0.00000000000E+00 -0.00000000000E+00 -0.12782514917E+04  0.12782514917E+04  0.00000000000E+00 0.  1.
         25    1    1    2    0    0 -0.52964949737E+02 -0.16877178671E+02 -0.31925902639E+03  0.34556685459E+03  0.12000000000E+03 0.  0.
         25    1    1    2    0    0  0.52964949737E+02  0.16877178671E+02 -0.94121563615E+03  0.95046146623E+03  0.12000000000E+03 0.  0.
<mgrwt>
<rscale>  0 0.30148472E+03</rscale>
<asrwt>0</asrwt>
<pdfrwt beam="1">  1        1 0.19665411E+00 0.30148472E+03</pdfrwt>
<pdfrwt beam="2">  1       -1 0.27348964E-02 0.30148472E+03</pdfrwt>
<totfact> 0.43761822E+03</totfact>
</mgrwt>
</event>
<event>
 4    1  0.1866622E-004  0.3163887E+03  0.7818608E-02  0.1077323E+00
          2   -1    0    0  501    0  0.00000000000E+00  0.00000000000E+00  0.58011349619E+03  0.58011349619E+03  0.00000000000E+00 0.  1.
         -2   -1    0    0    0  501 -0.00000000000E+00 -0.00000000000E+00 -0.43138878777E+02  0.43138878777E+02  0.00000000000E+00 0.  1.
         25    1    1    2    0    0  0.41972813396E+02  0.94064640455E+02  0.27626081938E+03  0.31832359946E+03  0.12000000000E+03 0.  0.
         25    1    1    2    0    0 -0.41972813396E+02 -0.94064640455E+02  0.26071379803E+03  0.30492877551E+03  0.12000000000E+03 0.  0.
<mgrwt>
<rscale>  0 0.31638866E+03</rscale>
<asrwt>0</asrwt>
<pdfrwt beam="1">  1        2 0.89248225E-01 0.31638866E+03</pdfrwt>
<pdfrwt beam="2">  1       -2 0.66367510E-02 0.31638866E+03</pdfrwt>
<totfact> 0.66525220E+03</totfact>
</mgrwt>
</event>
<event>
 4    1  0.1866622E-004  0.2968742E+03  0.7818608E-02  0.1086814E+00
         -2   -1    0    0    0  501 -0.00000000000E+00  0.00000000000E+00  0.14803065084E+02  0.14803065084E+02  0.00000000000E+00 0. -1.
          2   -1    0    0  501    0  0.00000000000E+00 -0.00000000000E+00 -0.14884468362E+04  0.14884468362E+04  0.00000000000E+00 0. -1.
         25    1    1    2    0    0 -0.16869547713E+02 -0.33296081598E+01 -0.11705772067E+04  0.11768375694E+04  0.12000000000E+03 0.  0.
         25    1    1    2    0    0  0.16869547713E+02  0.33296081598E+01 -0.30306656437E+03  0.32641233183E+03  0.12000000000E+03 0.  0.
<mgrwt>
<rscale>  0 0.29687422E+03</rscale>
<asrwt>0</asrwt>
<pdfrwt beam="1">  1        2 0.22899178E+00 0.29687422E+03</pdfrwt>
<pdfrwt beam="2">  1       -2 0.22773951E-02 0.29687422E+03</pdfrwt>
<totfact> 0.88457790E+03</totfact>
</mgrwt>
</event>
<event>
 4    1  0.1866622E-004  0.2767196E+03  0.7818608E-02  0.1097494E+00
          2   -1    0    0  501    0  0.00000000000E+00  0.00000000000E+00  0.38770150676E+03  0.38770150676E+03  0.00000000000E+00 0. -1.
         -2   -1    0    0    0  501 -0.00000000000E+00 -0.00000000000E+00 -0.49376724492E+02  0.49376724492E+02  0.00000000000E+00 0. -1.
         25    1    1    2    0    0 -0.13804862525E+02  0.42768960872E+02  0.86730223384E+02  0.15473167062E+03  0.12000000000E+03 0.  0.
         25    1    1    2    0    0  0.13804862525E+02 -0.42768960872E+02  0.25159455888E+03  0.28234656064E+03  0.12000000000E+03 0.  0.
<mgrwt>
<rscale>  0 0.27671957E+03</rscale>
<asrwt>0</asrwt>
<pdfrwt beam="1">  1        2 0.59646384E-01 0.27671957E+03</pdfrwt>
<pdfrwt beam="2">  1       -2 0.75964194E-02 0.27671957E+03</pdfrwt>
<totfact> 0.84188244E+03</totfact>
</mgrwt>
</event>
<event>
 4    1  0.1866622E-004  0.3252701E+03  0.7818608E-02  0.1073249E+00
         -2   -1    0    0    0  501 -0.00000000000E+00  0.00000000000E+00  0.19079358561E+02  0.19079358561E+02  0.00000000000E+00 0.  1.
          2   -1    0    0  501    0  0.00000000000E+00 -0.00000000000E+00 -0.13863229332E+04  0.13863229332E+04  0.00000000000E+00 0.  1.
         25    1    1    2    0    0  0.10340312877E+03 -0.18603206951E+02 -0.82106334529E+03  0.83641096557E+03  0.12000000000E+03 0.  0.
         25    1    1    2    0    0 -0.10340312877E+03  0.18603206951E+02 -0.54618022938E+03  0.56899132622E+03  0.12000000000E+03 0.  0.
<mgrwt>
<rscale>  0 0.32527006E+03</rscale>
<asrwt>0</asrwt>
<pdfrwt beam="1">  1        2 0.21328040E+00 0.32527006E+03</pdfrwt>
<pdfrwt beam="2">  1       -2 0.29352866E-02 0.32527006E+03</pdfrwt>
<totfact> 0.68998303E+03</totfact>
</mgrwt>
</event>
<event>
 4    1  0.1866622E-004  0.2888903E+03  0.7818608E-02  0.1090930E+00
         -2   -1    0    0    0  501 -0.00000000000E+00  0.00000000000E+00  0.23990414451E+02  0.23990414451E+02  0.00000000000E+00 0. -1.
          2   -1    0    0  501    0  0.00000000000E+00 -0.00000000000E+00 -0.86969762466E+03  0.86969762466E+03  0.00000000000E+00 0. -1.
         25    1    1    2    0    0  0.56332013666E+02 -0.57111970628E+02 -0.40609897085E+03  0.43098891758E+03  0.12000000000E+03 0.  0.
         25    1    1    2    0    0 -0.56332013666E+02  0.57111970628E+02 -0.43960823936E+03  0.46269912153E+03  0.12000000000E+03 0.  0.
<mgrwt>
<rscale>  0 0.28889034E+03</rscale>
<asrwt>0</asrwt>
<pdfrwt beam="1">  1        2 0.13379961E+00 0.28889034E+03</pdfrwt>
<pdfrwt beam="2">  1       -2 0.36908336E-02 0.28889034E+03</pdfrwt>
<totfact> 0.98616054E+03</totfact>
</mgrwt>
</event>
<event>
 4    1  0.1866622E-004  0.2691736E+03  0.7818608E-02  0.1101754E+00
          2   -1    0    0  501    0  0.00000000000E+00  0.00000000000E+00  0.26600550094E+04  0.26600550094E+04  0.00000000000E+00 0.  1.
         -2   -1    0    0    0  501 -0.00000000000E+00 -0.00000000000E+00 -0.68094834798E+01  0.68094834798E+01  0.00000000000E+00 0.  1.
         25    1    1    2    0    0  0.17480719773E+02  0.53567541468E+02  0.15565439459E+04  0.15621792832E+04  0.12000000000E+03 0.  0.
         25    1    1    2    0    0 -0.17480719773E+02 -0.53567541468E+02  0.10967015799E+04  0.11046852097E+04  0.12000000000E+03 0.  0.
<mgrwt>
<rscale>  0 0.26917355E+03</rscale>
<asrwt>0</asrwt>
<pdfrwt beam="1">  1        2 0.40923840E+00 0.26917355E+03</pdfrwt>
<pdfrwt beam="2">  1       -2 0.10476150E-02 0.26917355E+03</pdfrwt>
<totfact> 0.65163240E+03</totfact>
</mgrwt>
</event>
<event>
 4    1  0.1866622E-004  0.2761023E+03  0.7818608E-02  0.1097837E+00
         -1   -1    0    0    0  501 -0.00000000000E+00  0.00000000000E+00  0.46264000078E+02  0.46264000078E+02  0.00000000000E+00 0.  1.
          1   -1    0    0  501    0  0.00000000000E+00 -0.00000000000E+00 -0.41194286820E+03  0.41194286820E+03  0.00000000000E+00 0.  1.
         25    1    1    2    0    0 -0.32724257823E+02  0.56731662948E+02 -0.21470833612E+03  0.25453688972E+03  0.12000000000E+03 0.  0.
         25    1    1    2    0    0  0.32724257823E+02 -0.56731662948E+02 -0.15097053200E+03  0.20366997855E+03  0.12000000000E+03 0.  0.
<mgrwt>
<rscale>  0 0.27610234E+03</rscale>
<asrwt>0</asrwt>
<pdfrwt beam="1">  1        1 0.63375826E-01 0.27610234E+03</pdfrwt>
<pdfrwt beam="2">  1       -1 0.71175384E-02 0.27610234E+03</pdfrwt>
<totfact> 0.59742292E+03</totfact>
</mgrwt>
</event>
<event>
 4    1  0.1866622E-004  0.2530375E+03  0.7818608E-02  0.1111400E+00
         -4   -1    0    0    0  501 -0.00000000000E+00  0.00000000000E+00  0.25811746685E+03  0.25811746685E+03  0.00000000000E+00 0. -1.
          4   -1    0    0  501    0  0.00000000000E+00 -0.00000000000E+00 -0.62014364947E+02  0.62014364947E+02  0.00000000000E+00 0. -1.
         25    1    1    2    0    0  0.29936192003E+02 -0.22730857118E+02  0.11567873280E+03  0.17086379570E+03  0.12000000000E+03 0.  0.
         25    1    1    2    0    0 -0.29936192003E+02  0.22730857118E+02  0.80424369105E+02  0.14926803611E+03  0.12000000000E+03 0.  0.
<mgrwt>
<rscale>  0 0.25303747E+03</rscale>
<asrwt>0</asrwt>
<pdfrwt beam="1">  1        4 0.95406716E-02 0.25303747E+03</pdfrwt>
<pdfrwt beam="2">  1       -4 0.39710379E-01 0.25303747E+03</pdfrwt>
<totfact> 0.93984000E+02</totfact>
</mgrwt>
</event>
<event>
 4    1  0.1866622E-004  0.2976157E+03  0.7818608E-02  0.1086439E+00
         -1   -1    0    0    0  501 -0.00000000000E+00  0.00000000000E+00  0.13689659590E+03  0.13689659590E+03  0.00000000000E+00 0.  1.
          1   -1    0    0  501    0  0.00000000000E+00 -0.00000000000E+00 -0.16175544619E+03  0.16175544619E+03  0.00000000000E+00 0.  1.
         25    1    1    2    0    0 -0.35062095403E+02 -0.77371958378E+02  0.10628830907E+02  0.14740672483E+03  0.12000000000E+03 0.  0.
         25    1    1    2    0    0  0.35062095403E+02  0.77371958378E+02 -0.35487681198E+02  0.15124531726E+03  0.12000000000E+03 0.  0.
<mgrwt>
<rscale>  0 0.29761566E+03</rscale>
<asrwt>0</asrwt>
<pdfrwt beam="1">  1        1 0.24885453E-01 0.29761566E+03</pdfrwt>
<pdfrwt beam="2">  1       -1 0.21061015E-01 0.29761566E+03</pdfrwt>
<totfact> 0.35560305E+03</totfact>
</mgrwt>
</event>
<event>
 4    1  0.1866622E-004  0.2530640E+03  0.7818608E-02  0.1111384E+00
          1   -1    0    0  501    0  0.00000000000E+00  0.00000000000E+00  0.35098979622E+03  0.35098979622E+03  0.00000000000E+00 0. -1.
         -1   -1    0    0    0  501 -0.00000000000E+00 -0.00000000000E+00 -0.45614833090E+02  0.45614833090E+02  0.00000000000E+00 0. -1.
         25    1    1    2    0    0  0.26737297568E+02  0.21130281375E+02  0.11948001697E+03  0.17273345457E+03  0.12000000000E+03 0.  0.
         25    1    1    2    0    0 -0.26737297568E+02 -0.21130281375E+02  0.18589494617E+03  0.22387117475E+03  0.12000000000E+03 0.  0.
<mgrwt>
<rscale>  0 0.25306395E+03</rscale>
<asrwt>0</asrwt>
<pdfrwt beam="1">  1        1 0.53998428E-01 0.25306395E+03</pdfrwt>
<pdfrwt beam="2">  1       -1 0.70176669E-02 0.25306395E+03</pdfrwt>
<totfact> 0.74638308E+03</totfact>
</mgrwt>
</event>
<event>
 4    1  0.1866622E-004  0.2680871E+03  0.7818608E-02  0.1102379E+00
         -2   -1    0    0    0  501 -0.00000000000E+00  0.00000000000E+00  0.14033891689E+03  0.14033891689E+03  0.00000000000E+00 0.  1.
          2   -1    0    0  501    0  0.00000000000E+00 -0.00000000000E+00 -0.12803060428E+03  0.12803060428E+03  0.00000000000E+00 0.  1.
         25    1    1    2    0    0 -0.17860455323E+02  0.51681953218E+01  0.62976350382E+02  0.13679081407E+03  0.12000000000E+03 0.  0.
         25    1    1    2    0    0  0.17860455323E+02 -0.51681953218E+01 -0.50668037772E+02  0.13157870709E+03  0.12000000000E+03 0.  0.
<mgrwt>
<rscale>  0 0.26808712E+03</rscale>
<asrwt>0</asrwt>
<pdfrwt beam="1">  1        2 0.19697016E-01 0.26808712E+03</pdfrwt>
<pdfrwt beam="2">  1       -2 0.21590603E-01 0.26808712E+03</pdfrwt>
<totfact> 0.51591820E+03</totfact>
</mgrwt>
</event>
<event>
 4    1  0.1866622E-004  0.3230578E+03  0.7818608E-02  0.1074251E+00
         -2   -1    0    0    0  501 -0.00000000000E+00  0.00000000000E+00  0.73013367823E+02  0.73013367823E+02  0.00000000000E+00 0.  1.
          2   -1    0    0  501    0  0.00000000000E+00 -0.00000000000E+00 -0.35735357298E+03  0.35735357298E+03  0.00000000000E+00 0.  1.
         25    1    1    2    0    0 -0.13828779456E+02  0.81454792487E+02 -0.49247571701E+02  0.15379025222E+03  0.12000000000E+03 0.  0.
         25    1    1    2    0    0  0.13828779456E+02 -0.81454792487E+02 -0.23509263345E+03  0.27657668858E+03  0.12000000000E+03 0.  0.
<mgrwt>
<rscale>  0 0.32305781E+03</rscale>
<asrwt>0</asrwt>
<pdfrwt beam="1">  1        2 0.54977474E-01 0.32305781E+03</pdfrwt>
<pdfrwt beam="2">  1       -2 0.11232826E-01 0.32305781E+03</pdfrwt>
<totfact> 0.49754374E+03</totfact>
</mgrwt>
</event>
<event>
 4    1  0.1866622E-004  0.2683089E+03  0.7818608E-02  0.1102251E+00
          2   -1    0    0  501    0  0.00000000000E+00  0.00000000000E+00  0.10386098665E+04  0.10386098665E+04  0.00000000000E+00 0.  1.
         -2   -1    0    0    0  501 -0.00000000000E+00 -0.00000000000E+00 -0.17328373196E+02  0.17328373196E+02  0.00000000000E+00 0.  1.
         25    1    1    2    0    0  0.37157841339E+02  0.46901908254E+02  0.49444987136E+03  0.51230964217E+03  0.12000000000E+03 0.  0.
         25    1    1    2    0    0 -0.37157841339E+02 -0.46901908254E+02  0.52683162196E+03  0.54362859754E+03  0.12000000000E+03 0.  0.
<mgrwt>
<rscale>  0 0.26830892E+03</rscale>
<asrwt>0</asrwt>
<pdfrwt beam="1">  1        2 0.15978608E+00 0.26830892E+03</pdfrwt>
<pdfrwt beam="2">  1       -2 0.26659044E-02 0.26830892E+03</pdfrwt>
<totfact> 0.12517712E+04</totfact>
</mgrwt>
</event>
<event>
 4    1  0.1866622E-004  0.3052395E+03  0.7818608E-02  0.1082650E+00
          4   -1    0    0  501    0  0.00000000000E+00  0.00000000000E+00  0.15614685091E+04  0.15614685091E+04  0.00000000000E+00 0.  1.
         -4   -1    0    0    0  501 -0.00000000000E+00 -0.00000000000E+00 -0.14917230215E+02  0.14917230215E+02  0.00000000000E+00 0.  1.
         25    1    1    2    0    0  0.11485557165E+02  0.19155587629E+02  0.30011950034E+03  0.32399161879E+03  0.12000000000E+03 0.  0.
         25    1    1    2    0    0 -0.11485557165E+02 -0.19155587629E+02  0.12464317785E+04  0.12523941205E+04  0.12000000000E+03 0.  0.
<mgrwt>
<rscale>  0 0.30523948E+03</rscale>
<asrwt>0</asrwt>
<pdfrwt beam="1">  1        4 0.24022580E+00 0.30523948E+03</pdfrwt>
<pdfrwt beam="2">  1       -4 0.22949597E-02 0.30523948E+03</pdfrwt>
<totfact> 0.12625858E+02</totfact>
</mgrwt>
</event>
<event>
 4    1  0.1866622E-004  0.2680366E+03  0.7818608E-02  0.1102409E+00
          1   -1    0    0  501    0  0.00000000000E+00  0.00000000000E+00  0.87741742360E+02  0.87741742360E+02  0.00000000000E+00 0. -1.
         -1   -1    0    0    0  501 -0.00000000000E+00 -0.00000000000E+00 -0.20470194339E+03  0.20470194339E+03  0.00000000000E+00 0. -1.
         25    1    1    2    0    0  0.21741202585E+02  0.54119458482E+02 -0.72251211599E+02  0.15172947391E+03  0.12000000000E+03 0.  0.
         25    1    1    2    0    0 -0.21741202585E+02 -0.54119458482E+02 -0.44708989427E+02  0.14071421183E+03  0.12000000000E+03 0.  0.
<mgrwt>
<rscale>  0 0.26803660E+03</rscale>
<asrwt>0</asrwt>
<pdfrwt beam="1">  1        1 0.13498730E-01 0.26803660E+03</pdfrwt>
<pdfrwt beam="2">  1       -1 0.31492606E-01 0.26803660E+03</pdfrwt>
<totfact> 0.40017740E+03</totfact>
</mgrwt>
</event>
<event>
 4    1  0.1866622E-004  0.3226447E+03  0.7818608E-02  0.1074439E+00
         -2   -1    0    0    0  501 -0.00000000000E+00  0.00000000000E+00  0.24809564586E+03  0.24809564586E+03  0.00000000000E+00 0.  1.
          2   -1    0    0  501    0  0.00000000000E+00 -0.00000000000E+00 -0.10489864157E+03  0.10489864157E+03  0.00000000000E+00 0.  1.
         25    1    1    2    0    0  0.75516334636E+02  0.65575009930E+02  0.11566227263E+03  0.19437222032E+03  0.12000000000E+03 0.  0.
         25    1    1    2    0    0 -0.75516334636E+02 -0.65575009930E+02  0.27534731662E+02  0.15862206710E+03  0.12000000000E+03 0.  0.
<mgrwt>
<rscale>  0 0.32264467E+03</rscale>
<asrwt>0</asrwt>
<pdfrwt beam="1">  1        2 0.16138253E-01 0.32264467E+03</pdfrwt>
<pdfrwt beam="2">  1       -2 0.38168561E-01 0.32264467E+03</pdfrwt>
<totfact> 0.23335833E+03</totfact>
</mgrwt>
</event>
<event>
 4    1  0.1866622E-004  0.2690183E+03  0.7818608E-02  0.1101843E+00
         -1   -1    0    0    0  501 -0.00000000000E+00  0.00000000000E+00  0.47072503890E+02  0.47072503890E+02  0.00000000000E+00 0.  1.
          1   -1    0    0  501    0  0.00000000000E+00 -0.00000000000E+00 -0.38435829486E+03  0.38435829486E+03  0.00000000000E+00 0.  1.
         25    1    1    2    0    0  0.35775134935E+02  0.48942691070E+02 -0.16194170445E+03  0.21047651396E+03  0.12000000000E+03 0.  0.
         25    1    1    2    0    0 -0.35775134935E+02 -0.48942691070E+02 -0.17534408652E+03  0.22095428479E+03  0.12000000000E+03 0.  0.
<mgrwt>
<rscale>  0 0.26901827E+03</rscale>
<asrwt>0</asrwt>
<pdfrwt beam="1">  1        1 0.59132043E-01 0.26901827E+03</pdfrwt>
<pdfrwt beam="2">  1       -1 0.72419240E-02 0.26901827E+03</pdfrwt>
<totfact> 0.63542569E+03</totfact>
</mgrwt>
</event>
<event>
 4    1  0.1866622E-004  0.3513293E+03  0.7818608E-02  0.1062071E+00
          2   -1    0    0  501    0  0.00000000000E+00  0.00000000000E+00  0.11963841107E+04  0.11963841107E+04  0.00000000000E+00 0. -1.
         -2   -1    0    0    0  501 -0.00000000000E+00 -0.00000000000E+00 -0.25792774337E+02  0.25792774337E+02  0.00000000000E+00 0. -1.
         25    1    1    2    0    0 -0.11622477095E+03  0.16035744422E+01  0.39643929696E+03  0.43020330660E+03  0.12000000000E+03 0.  0.
         25    1    1    2    0    0  0.11622477095E+03 -0.16035744422E+01  0.77415203937E+03  0.79197357840E+03  0.12000000000E+03 0.  0.
<mgrwt>
<rscale>  0 0.35132928E+03</rscale>
<asrwt>0</asrwt>
<pdfrwt beam="1">  1        2 0.18405905E+00 0.35132928E+03</pdfrwt>
<pdfrwt beam="2">  1       -2 0.39681201E-02 0.35132928E+03</pdfrwt>
<totfact> 0.56067166E+03</totfact>
</mgrwt>
</event>
<event>
 4    1  0.1866622E-004  0.2724768E+03  0.7818608E-02  0.1099870E+00
         -2   -1    0    0    0  501 -0.00000000000E+00  0.00000000000E+00  0.49164059641E+02  0.49164059641E+02  0.00000000000E+00 0. -1.
          2   -1    0    0  501    0  0.00000000000E+00 -0.00000000000E+00 -0.37752989428E+03  0.37752989428E+03  0.00000000000E+00 0. -1.
         25    1    1    2    0    0 -0.37077159953E+02 -0.99165658612E+01 -0.24537044532E+03  0.27582550554E+03  0.12000000000E+03 0.  0.
         25    1    1    2    0    0  0.37077159953E+02  0.99165658612E+01 -0.82995389315E+02  0.15086844838E+03  0.12000000000E+03 0.  0.
<mgrwt>
<rscale>  0 0.27247680E+03</rscale>
<asrwt>0</asrwt>
<pdfrwt beam="1">  1        2 0.58081522E-01 0.27247680E+03</pdfrwt>
<pdfrwt beam="2">  1       -2 0.75637015E-02 0.27247680E+03</pdfrwt>
<totfact> 0.87179466E+03</totfact>
</mgrwt>
</event>
<event>
 4    1  0.1866622E-004  0.2791519E+03  0.7818608E-02  0.1096153E+00
         -1   -1    0    0    0  501 -0.00000000000E+00  0.00000000000E+00  0.27361848256E+02  0.27361848256E+02  0.00000000000E+00 0. -1.
          1   -1    0    0  501    0  0.00000000000E+00 -0.00000000000E+00 -0.71199324681E+03  0.71199324681E+03  0.00000000000E+00 0. -1.
         25    1    1    2    0    0 -0.36248764933E+02  0.43662691904E+02 -0.22805650492E+03  0.26387529831E+03  0.12000000000E+03 0.  0.
         25    1    1    2    0    0  0.36248764933E+02 -0.43662691904E+02 -0.45657489363E+03  0.47547979675E+03  0.12000000000E+03 0.  0.
<mgrwt>
<rscale>  0 0.27915194E+03</rscale>
<asrwt>0</asrwt>
<pdfrwt beam="1">  1        1 0.10953744E+00 0.27915194E+03</pdfrwt>
<pdfrwt beam="2">  1       -1 0.42095146E-02 0.27915194E+03</pdfrwt>
<totfact> 0.62512359E+03</totfact>
</mgrwt>
</event>
<event>
 4    1  0.1866622E-004  0.2974170E+03  0.7818608E-02  0.1086539E+00
          1   -1    0    0  501    0  0.00000000000E+00  0.00000000000E+00  0.48519259316E+03  0.48519259316E+03  0.00000000000E+00 0.  1.
         -1   -1    0    0    0  501 -0.00000000000E+00 -0.00000000000E+00 -0.45578237293E+02  0.45578237293E+02  0.00000000000E+00 0.  1.
         25    1    1    2    0    0 -0.11889038361E+02  0.77579853841E+02  0.29016303780E+03  0.32365810890E+03  0.12000000000E+03 0.  0.
         25    1    1    2    0    0  0.11889038361E+02 -0.77579853841E+02  0.14945131807E+03  0.20711272155E+03  0.12000000000E+03 0.  0.
<mgrwt>
<rscale>  0 0.29741703E+03</rscale>
<asrwt>0</asrwt>
<pdfrwt beam="1">  1        1 0.74645011E-01 0.29741703E+03</pdfrwt>
<pdfrwt beam="2">  1       -1 0.70120368E-02 0.29741703E+03</pdfrwt>
<totfact> 0.49461860E+03</totfact>
</mgrwt>
</event>
<event>
 4    1  0.1866622E-004  0.3713323E+03  0.7818608E-02  0.1054185E+00
         -1   -1    0    0    0  501 -0.00000000000E+00  0.00000000000E+00  0.13028650547E+02  0.13028650547E+02  0.00000000000E+00 0. -1.
          1   -1    0    0  501    0  0.00000000000E+00 -0.00000000000E+00 -0.26458551453E+04  0.26458551453E+04  0.00000000000E+00 0. -1.
         25    1    1    2    0    0 -0.34784912818E+02 -0.10014224464E+03 -0.19893931629E+04  0.19958265496E+04  0.12000000000E+03 0.  0.
         25    1    1    2    0    0  0.34784912818E+02  0.10014224464E+03 -0.64343333185E+03  0.66305724629E+03  0.12000000000E+03 0.  0.
<mgrwt>
<rscale>  0 0.37133232E+03</rscale>
<asrwt>0</asrwt>
<pdfrwt beam="1">  1        1 0.40705424E+00 0.37133232E+03</pdfrwt>
<pdfrwt beam="2">  1       -1 0.20044097E-02 0.37133232E+03</pdfrwt>
<totfact> 0.85543355E+02</totfact>
</mgrwt>
</event>
<event>
 4    1  0.1866622E-004  0.2835366E+03  0.7818608E-02  0.1093773E+00
         -2   -1    0    0    0  501 -0.00000000000E+00  0.00000000000E+00  0.11253005232E+02  0.11253005232E+02  0.00000000000E+00 0. -1.
          2   -1    0    0  501    0  0.00000000000E+00 -0.00000000000E+00 -0.17860344338E+04  0.17860344338E+04  0.00000000000E+00 0. -1.
         25    1    1    2    0    0 -0.35711542068E+02  0.66276860201E+02 -0.85248781865E+03  0.86417788526E+03  0.12000000000E+03 0.  0.
         25    1    1    2    0    0  0.35711542068E+02 -0.66276860201E+02 -0.92229360993E+03  0.93310955378E+03  0.12000000000E+03 0.  0.
<mgrwt>
<rscale>  0 0.28353663E+03</rscale>
<asrwt>0</asrwt>
<pdfrwt beam="1">  1        2 0.27477454E+00 0.28353663E+03</pdfrwt>
<pdfrwt beam="2">  1       -2 0.17312315E-02 0.28353663E+03</pdfrwt>
<totfact> 0.92068252E+03</totfact>
</mgrwt>
</event>
<event>
 4    1  0.1866622E-004  0.2985756E+03  0.7818608E-02  0.1085955E+00
         -2   -1    0    0    0  501 -0.00000000000E+00  0.00000000000E+00  0.16723379848E+03  0.16723379848E+03  0.00000000000E+00 0. -1.
          2   -1    0    0  501    0  0.00000000000E+00 -0.00000000000E+00 -0.13326763387E+03  0.13326763387E+03  0.00000000000E+00 0. -1.
         25    1    1    2    0    0 -0.82559102116E+02  0.10291041309E+02 -0.14280787196E+02  0.14671691026E+03  0.12000000000E+03 0.  0.
         25    1    1    2    0    0  0.82559102116E+02 -0.10291041309E+02  0.48246951806E+02  0.15378452208E+03  0.12000000000E+03 0.  0.
<mgrwt>
<rscale>  0 0.29857564E+03</rscale>
<asrwt>0</asrwt>
<pdfrwt beam="1">  1        2 0.20502713E-01 0.29857564E+03</pdfrwt>
<pdfrwt beam="2">  1       -2 0.25728277E-01 0.29857564E+03</pdfrwt>
<totfact> 0.36372512E+03</totfact>
</mgrwt>
</event>
<event>
 4    1  0.1866622E-004  0.2601646E+03  0.7818608E-02  0.1107044E+00
          3   -1    0    0  501    0  0.00000000000E+00  0.00000000000E+00  0.15817508326E+03  0.15817508326E+03  0.00000000000E+00 0.  1.
         -3   -1    0    0    0  501 -0.00000000000E+00 -0.00000000000E+00 -0.10697897177E+03  0.10697897177E+03  0.00000000000E+00 0.  1.
         25    1    1    2    0    0 -0.14447661654E+01 -0.19525894190E+02  0.72723988952E+02  0.14167613230E+03  0.12000000000E+03 0.  0.
         25    1    1    2    0    0  0.14447661654E+01  0.19525894190E+02 -0.21527877464E+02  0.12347792273E+03  0.12000000000E+03 0.  0.
<mgrwt>
<rscale>  0 0.26016462E+03</rscale>
<asrwt>0</asrwt>
<pdfrwt beam="1">  1        3 0.24334628E-01 0.26016462E+03</pdfrwt>
<pdfrwt beam="2">  1       -3 0.16458303E-01 0.26016462E+03</pdfrwt>
<totfact> 0.12611408E+03</totfact>
</mgrwt>
</event>
<event>
 4    1  0.1866622E-004  0.2506587E+03  0.7818608E-02  0.1112889E+00
          2   -1    0    0  501    0  0.00000000000E+00  0.00000000000E+00  0.36427953650E+03  0.36427953650E+03  0.00000000000E+00 0.  1.
         -2   -1    0    0    0  501 -0.00000000000E+00 -0.00000000000E+00 -0.43119205388E+02  0.43119205388E+02  0.00000000000E+00 0.  1.
         25    1    1    2    0    0 -0.31740424432E+02 -0.10544274650E+02  0.18291316144E+03  0.22130490483E+03  0.12000000000E+03 0.  0.
         25    1    1    2    0    0  0.31740424432E+02  0.10544274650E+02  0.13824716967E+03  0.18609383706E+03  0.12000000000E+03 0.  0.
<mgrwt>
<rscale>  0 0.25065869E+03</rscale>
<asrwt>0</asrwt>
<pdfrwt beam="1">  1        2 0.56043004E-01 0.25065869E+03</pdfrwt>
<pdfrwt beam="2">  1       -2 0.66337241E-02 0.25065869E+03</pdfrwt>
<totfact> 0.11062251E+04</totfact>
</mgrwt>
</event>
<event>
 4    1  0.1866622E-004  0.3018542E+03  0.7818608E-02  0.1084317E+00
          1   -1    0    0  501    0  0.00000000000E+00  0.00000000000E+00  0.93827882528E+03  0.93827882528E+03  0.00000000000E+00 0.  1.
         -1   -1    0    0    0  501 -0.00000000000E+00 -0.00000000000E+00 -0.24277416034E+02  0.24277416034E+02  0.00000000000E+00 0.  1.
         25    1    1    2    0    0 -0.49937057088E+00 -0.11501530859E+02  0.16742476975E+03  0.20630944745E+03  0.12000000000E+03 0.  0.
         25    1    1    2    0    0  0.49937057088E+00  0.11501530859E+02  0.74657663950E+03  0.75624679386E+03  0.12000000000E+03 0.  0.
<mgrwt>
<rscale>  0 0.30185417E+03</rscale>
<asrwt>0</asrwt>
<pdfrwt beam="1">  1        1 0.14435056E+00 0.30185417E+03</pdfrwt>
<pdfrwt beam="2">  1       -1 0.37349878E-02 0.30185417E+03</pdfrwt>
<totfact> 0.48621356E+03</totfact>
</mgrwt>
</event>
<event>
 4    1  0.1866622E-004  0.3390451E+03  0.7818608E-02  0.1067203E+00
          2   -1    0    0  501    0  0.00000000000E+00  0.00000000000E+00  0.21452049729E+04  0.21452049729E+04  0.00000000000E+00 0.  1.
         -2   -1    0    0    0  501 -0.00000000000E+00 -0.00000000000E+00 -0.13396336347E+02  0.13396336347E+02  0.00000000000E+00 0.  1.
         25    1    1    2    0    0 -0.10110553937E+03  0.56447562534E+02  0.12599824575E+04  0.12709698858E+04  0.12000000000E+03 0.  0.
         25    1    1    2    0    0  0.10110553937E+03 -0.56447562534E+02  0.87182617906E+03  0.88763142345E+03  0.12000000000E+03 0.  0.
<mgrwt>
<rscale>  0 0.33904506E+03</rscale>
<asrwt>0</asrwt>
<pdfrwt beam="1">  1        2 0.33003126E+00 0.33904506E+03</pdfrwt>
<pdfrwt beam="2">  1       -2 0.20609765E-02 0.33904506E+03</pdfrwt>
<totfact> 0.45988621E+03</totfact>
</mgrwt>
</event>
<event>
 4    1  0.1866622E-004  0.2697278E+03  0.7818608E-02  0.1101436E+00
         -2   -1    0    0    0  501 -0.00000000000E+00  0.00000000000E+00  0.85297875079E+01  0.85297875079E+01  0.00000000000E+00 0. -1.
          2   -1    0    0  501    0  0.00000000000E+00 -0.00000000000E+00 -0.21323236467E+04  0.21323236467E+04  0.00000000000E+00 0. -1.
         25    1    1    2    0    0  0.43279894654E+02  0.78571474339E+01 -0.14035961008E+04  0.14094030290E+04  0.12000000000E+03 0.  0.
         25    1    1    2    0    0 -0.43279894654E+02 -0.78571474339E+01 -0.72019775837E+03  0.73145040516E+03  0.12000000000E+03 0.  0.
<mgrwt>
<rscale>  0 0.26972777E+03</rscale>
<asrwt>0</asrwt>
<pdfrwt beam="1">  1        2 0.32804991E+00 0.26972777E+03</pdfrwt>
<pdfrwt beam="2">  1       -2 0.13122745E-02 0.26972777E+03</pdfrwt>
<totfact> 0.90727403E+03</totfact>
</mgrwt>
</event>
<event>
 4    1  0.1866622E-004  0.2863833E+03  0.7818608E-02  0.1092253E+00
          2   -1    0    0  501    0  0.00000000000E+00  0.00000000000E+00  0.52752547265E+02  0.52752547265E+02  0.00000000000E+00 0.  1.
         -2   -1    0    0    0  501 -0.00000000000E+00 -0.00000000000E+00 -0.38867974547E+03  0.38867974547E+03  0.00000000000E+00 0.  1.
         25    1    1    2    0    0 -0.74340718088E+02 -0.43158329693E+01 -0.20439678622E+03  0.24844157260E+03  0.12000000000E+03 0.  0.
         25    1    1    2    0    0  0.74340718088E+02  0.43158329693E+01 -0.13153041198E+03  0.19299072013E+03  0.12000000000E+03 0.  0.
<mgrwt>
<rscale>  0 0.28638329E+03</rscale>
<asrwt>0</asrwt>
<pdfrwt beam="1">  1        2 0.81157765E-02 0.28638329E+03</pdfrwt>
<pdfrwt beam="2">  1       -2 0.59796884E-01 0.28638329E+03</pdfrwt>
<totfact> 0.22211922E+03</totfact>
</mgrwt>
</event>
<event>
 4    1  0.1866622E-004  0.3540344E+03  0.7818608E-02  0.1060971E+00
          4   -1    0    0  501    0  0.00000000000E+00  0.00000000000E+00  0.23462935782E+03  0.23462935782E+03  0.00000000000E+00 0.  1.
         -4   -1    0    0    0  501 -0.00000000000E+00 -0.00000000000E+00 -0.13355142771E+03  0.13355142771E+03  0.00000000000E+00 0.  1.
         25    1    1    2    0    0 -0.85515786785E+02  0.88201357705E+02  0.58975590992E+01  0.17183483493E+03  0.12000000000E+03 0.  0.
         25    1    1    2    0    0  0.85515786785E+02 -0.88201357705E+02  0.95180371013E+02  0.19634595060E+03  0.12000000000E+03 0.  0.
<mgrwt>
<rscale>  0 0.35403438E+03</rscale>
<asrwt>0</asrwt>
<pdfrwt beam="1">  1        4 0.36096824E-01 0.35403438E+03</pdfrwt>
<pdfrwt beam="2">  1       -4 0.20546374E-01 0.35403438E+03</pdfrwt>
<totfact> 0.30799647E+02</totfact>
</mgrwt>
</event>
<event>
 4    1  0.1866622E-004  0.2873993E+03  0.7818608E-02  0.1091715E+00
         -3   -1    0    0    0  501 -0.00000000000E+00  0.00000000000E+00  0.22434288702E+03  0.22434288702E+03  0.00000000000E+00 0. -1.
          3   -1    0    0  501    0  0.00000000000E+00 -0.00000000000E+00 -0.92044776149E+02  0.92044776149E+02  0.00000000000E+00 0. -1.
         25    1    1    2    0    0 -0.43026186836E+02 -0.56268795026E+02  0.10479175947E+03  0.17435235272E+03  0.12000000000E+03 0.  0.
         25    1    1    2    0    0  0.43026186836E+02  0.56268795026E+02  0.27506351409E+02  0.14203531045E+03  0.12000000000E+03 0.  0.
<mgrwt>
<rscale>  0 0.28739931E+03</rscale>
<asrwt>0</asrwt>
<pdfrwt beam="1">  1        3 0.14160735E-01 0.28739931E+03</pdfrwt>
<pdfrwt beam="2">  1       -3 0.34514290E-01 0.28739931E+03</pdfrwt>
<totfact> 0.86294176E+02</totfact>
</mgrwt>
</event>
<event>
 4    1  0.1866622E-004  0.3567656E+03  0.7818608E-02  0.1059872E+00
         -1   -1    0    0    0  501 -0.00000000000E+00  0.00000000000E+00  0.16245333837E+02  0.16245333837E+02  0.00000000000E+00 0.  1.
          1   -1    0    0  501    0  0.00000000000E+00 -0.00000000000E+00 -0.19587421224E+04  0.19587421224E+04  0.00000000000E+00 0.  1.
         25    1    1    2    0    0 -0.12983233879E+03 -0.23589722218E+02 -0.95607936842E+03  0.97257424904E+03  0.12000000000E+03 0.  0.
         25    1    1    2    0    0  0.12983233879E+03  0.23589722218E+02 -0.98641742017E+03  0.10024132072E+04  0.12000000000E+03 0.  0.
<mgrwt>
<rscale>  0 0.35676558E+03</rscale>
<asrwt>0</asrwt>
<pdfrwt beam="1">  1        1 0.30134501E+00 0.35676558E+03</pdfrwt>
<pdfrwt beam="2">  1       -1 0.24992815E-02 0.35676558E+03</pdfrwt>
<totfact> 0.17653822E+03</totfact>
</mgrwt>
</event>
<event>
 4    1  0.1866622E-004  0.2785352E+03  0.7818608E-02  0.1096492E+00
          2   -1    0    0  501    0  0.00000000000E+00  0.00000000000E+00  0.11159288543E+04  0.11159288543E+04  0.00000000000E+00 0.  1.
         -2   -1    0    0    0  501 -0.00000000000E+00 -0.00000000000E+00 -0.17380560220E+02  0.17380560220E+02  0.00000000000E+00 0.  1.
         25    1    1    2    0    0 -0.44063300833E+02  0.54731618597E+02  0.51819516166E+03  0.53652898349E+03  0.12000000000E+03 0.  0.
         25    1    1    2    0    0  0.44063300833E+02 -0.54731618597E+02  0.58035313242E+03  0.59678043103E+03  0.12000000000E+03 0.  0.
<mgrwt>
<rscale>  0 0.27853523E+03</rscale>
<asrwt>0</asrwt>
<pdfrwt beam="1">  1        2 0.17168131E+00 0.27853523E+03</pdfrwt>
<pdfrwt beam="2">  1       -2 0.26739332E-02 0.27853523E+03</pdfrwt>
<totfact> 0.11227205E+04</totfact>
</mgrwt>
</event>
<event>
 4    1  0.1866622E-004  0.2557197E+03  0.7818608E-02  0.1109743E+00
         -2   -1    0    0    0  501 -0.00000000000E+00  0.00000000000E+00  0.21436359851E+02  0.21436359851E+02  0.00000000000E+00 0.  1.
          2   -1    0    0  501    0  0.00000000000E+00 -0.00000000000E+00 -0.76263580401E+03  0.76263580401E+03  0.00000000000E+00 0.  1.
         25    1    1    2    0    0 -0.10089167186E+02  0.35194322578E+02 -0.29501431873E+03  0.32058365506E+03  0.12000000000E+03 0.  0.
         25    1    1    2    0    0  0.10089167186E+02 -0.35194322578E+02 -0.44618512543E+03  0.46348850880E+03  0.12000000000E+03 0.  0.
<mgrwt>
<rscale>  0 0.25571966E+03</rscale>
<asrwt>0</asrwt>
<pdfrwt beam="1">  1        2 0.11732856E+00 0.25571966E+03</pdfrwt>
<pdfrwt beam="2">  1       -2 0.32979023E-02 0.25571966E+03</pdfrwt>
<totfact> 0.13751519E+04</totfact>
</mgrwt>
</event>
<event>
 4    1  0.1866622E-004  0.3123173E+03  0.7818608E-02  0.1079240E+00
         -1   -1    0    0    0  501 -0.00000000000E+00  0.00000000000E+00  0.28083361869E+02  0.28083361869E+02  0.00000000000E+00 0.  1.
          1   -1    0    0  501    0  0.00000000000E+00 -0.00000000000E+00 -0.86832626807E+03  0.86832626807E+03  0.00000000000E+00 0.  1.
         25    1    1    2    0    0  0.62581626224E+02  0.23253240551E+02 -0.20671469237E+03  0.24816957343E+03  0.12000000000E+03 0.  0.
         25    1    1    2    0    0 -0.62581626224E+02 -0.23253240551E+02 -0.63352821383E+03  0.64824005650E+03  0.12000000000E+03 0.  0.
<mgrwt>
<rscale>  0 0.31231728E+03</rscale>
<asrwt>0</asrwt>
<pdfrwt beam="1">  1        1 0.13358863E+00 0.31231728E+03</pdfrwt>
<pdfrwt beam="2">  1       -1 0.43205180E-02 0.31231728E+03</pdfrwt>
<totfact> 0.44441013E+03</totfact>
</mgrwt>
</event>
<event>
 4    1  0.1866622E-004  0.3941099E+03  0.7818608E-02  0.1045838E+00
          1   -1    0    0  501    0  0.00000000000E+00  0.00000000000E+00  0.16044175426E+04  0.16044175426E+04  0.00000000000E+00 0.  1.
         -1   -1    0    0    0  501 -0.00000000000E+00 -0.00000000000E+00 -0.24202339429E+02  0.24202339429E+02  0.00000000000E+00 0.  1.
         25    1    1    2    0    0  0.12168902493E+03  0.61919952798E+02  0.11045058202E+04  0.11193638400E+04  0.12000000000E+03 0.  0.
         25    1    1    2    0    0 -0.12168902493E+03 -0.61919952798E+02  0.47570938294E+03  0.50925604205E+03  0.12000000000E+03 0.  0.
<mgrwt>
<rscale>  0 0.39410992E+03</rscale>
<asrwt>0</asrwt>
<pdfrwt beam="1">  1        1 0.24683339E+00 0.39410992E+03</pdfrwt>
<pdfrwt beam="2">  1       -1 0.37234381E-02 0.39410992E+03</pdfrwt>
<totfact> 0.16642053E+03</totfact>
</mgrwt>
</event>
<event>
 4    1  0.1866622E-004  0.3342202E+03  0.7818608E-02  0.1069285E+00
          2   -1    0    0  501    0  0.00000000000E+00  0.00000000000E+00  0.18282647257E+03  0.18282647257E+03  0.00000000000E+00 0. -1.
         -2   -1    0    0    0  501 -0.00000000000E+00 -0.00000000000E+00 -0.15274479093E+03  0.15274479093E+03  0.00000000000E+00 0. -1.
         25    1    1    2    0    0  0.53861130165E+02  0.94487587249E+02 -0.26318706514E+02  0.16407802961E+03  0.12000000000E+03 0.  0.
         25    1    1    2    0    0 -0.53861130165E+02 -0.94487587249E+02  0.56400388150E+02  0.17149323389E+03  0.12000000000E+03 0.  0.
<mgrwt>
<rscale>  0 0.33422023E+03</rscale>
<asrwt>0</asrwt>
<pdfrwt beam="1">  1        2 0.28127150E-01 0.33422023E+03</pdfrwt>
<pdfrwt beam="2">  1       -2 0.23499199E-01 0.33422023E+03</pdfrwt>
<totfact> 0.29969503E+03</totfact>
</mgrwt>
</event>
<event>
 4    1  0.1866622E-004  0.2602722E+03  0.7818608E-02  0.1106980E+00
          2   -1    0    0  501    0  0.00000000000E+00  0.00000000000E+00  0.58002648695E+02  0.58002648695E+02  0.00000000000E+00 0. -1.
         -2   -1    0    0    0  501 -0.00000000000E+00 -0.00000000000E+00 -0.29197644625E+03  0.29197644625E+03  0.00000000000E+00 0. -1.
         25    1    1    2    0    0 -0.35259133118E+02  0.53226745267E+00 -0.16531855415E+03  0.20730102297E+03  0.12000000000E+03 0.  0.
         25    1    1    2    0    0  0.35259133118E+02 -0.53226745267E+00 -0.68655243409E+02  0.14267807198E+03  0.12000000000E+03 0.  0.
<mgrwt>
<rscale>  0 0.26027222E+03</rscale>
<asrwt>0</asrwt>
<pdfrwt beam="1">  1        2 0.89234844E-02 0.26027222E+03</pdfrwt>
<pdfrwt beam="2">  1       -2 0.44919453E-01 0.26027222E+03</pdfrwt>
<totfact> 0.34916671E+03</totfact>
</mgrwt>
</event>
<event>
 4    1  0.1866622E-004  0.3163678E+03  0.7818608E-02  0.1077333E+00
          4   -1    0    0  501    0  0.00000000000E+00  0.00000000000E+00  0.27152959244E+03  0.27152959244E+03  0.00000000000E+00 0.  1.
         -4   -1    0    0    0  501 -0.00000000000E+00 -0.00000000000E+00 -0.92152562198E+02  0.92152562198E+02  0.00000000000E+00 0.  1.
         25    1    1    2    0    0 -0.90471476646E+02 -0.27729940419E+02  0.13663921212E+03  0.20499832187E+03  0.12000000000E+03 0.  0.
         25    1    1    2    0    0  0.90471476646E+02  0.27729940419E+02  0.42737818119E+02  0.15868383276E+03  0.12000000000E+03 0.  0.
<mgrwt>
<rscale>  0 0.31636781E+03</rscale>
<asrwt>0</asrwt>
<pdfrwt beam="1">  1        4 0.41773783E-01 0.31636781E+03</pdfrwt>
<pdfrwt beam="2">  1       -4 0.14177317E-01 0.31636781E+03</pdfrwt>
<totfact> 0.44235095E+02</totfact>
</mgrwt>
</event>
<event>
 4    1  0.1866622E-004  0.2863749E+03  0.7818608E-02  0.1092257E+00
          2   -1    0    0  501    0  0.00000000000E+00  0.00000000000E+00  0.62838533669E+03  0.62838533669E+03  0.00000000000E+00 0.  1.
         -2   -1    0    0    0  501 -0.00000000000E+00 -0.00000000000E+00 -0.32627503250E+02  0.32627503250E+02  0.00000000000E+00 0.  1.
         25    1    1    2    0    0 -0.43115087658E+02  0.63208180547E+01  0.14822261661E+03  0.19562414881E+03  0.12000000000E+03 0.  0.
         25    1    1    2    0    0  0.43115087658E+02 -0.63208180547E+01  0.44753521684E+03  0.46538869113E+03  0.12000000000E+03 0.  0.
<mgrwt>
<rscale>  0 0.28637489E+03</rscale>
<asrwt>0</asrwt>
<pdfrwt beam="1">  1        2 0.96674658E-01 0.28637489E+03</pdfrwt>
<pdfrwt beam="2">  1       -2 0.50196164E-02 0.28637489E+03</pdfrwt>
<totfact> 0.92751008E+03</totfact>
</mgrwt>
</event>
<event>
 4    1  0.1866622E-004  0.3381965E+03  0.7818608E-02  0.1067567E+00
         -2   -1    0    0    0  501 -0.00000000000E+00  0.00000000000E+00  0.72990610120E+02  0.72990610120E+02  0.00000000000E+00 0.  1.
          2   -1    0    0  501    0  0.00000000000E+00 -0.00000000000E+00 -0.39175192159E+03  0.39175192159E+03  0.00000000000E+00 0.  1.
         25    1    1    2    0    0  0.11328470091E+03 -0.35007588562E+02 -0.14339894295E+03  0.22140960132E+03  0.12000000000E+03 0.  0.
         25    1    1    2    0    0 -0.11328470091E+03  0.35007588562E+02 -0.17536236852E+03  0.24333293039E+03  0.12000000000E+03 0.  0.
<mgrwt>
<rscale>  0 0.33819646E+03</rscale>
<asrwt>0</asrwt>
<pdfrwt beam="1">  1        2 0.60269525E-01 0.33819646E+03</pdfrwt>
<pdfrwt beam="2">  1       -2 0.11229325E-01 0.33819646E+03</pdfrwt>
<totfact> 0.45088067E+03</totfact>
</mgrwt>
</event>
<event>
 4    1  0.1866622E-004  0.4364068E+03  0.7818608E-02  0.1031855E+00
         -2   -1    0    0    0  501 -0.00000000000E+00  0.00000000000E+00  0.92939886249E+03  0.92939886249E+03  0.00000000000E+00 0. -1.
          2   -1    0    0  501    0  0.00000000000E+00 -0.00000000000E+00 -0.51229601438E+02  0.51229601438E+02  0.00000000000E+00 0. -1.
         25    1    1    2    0    0  0.63302128250E+02  0.11534071831E+03  0.72244563346E+03  0.74406876971E+03  0.12000000000E+03 0.  0.
         25    1    1    2    0    0 -0.63302128250E+02 -0.11534071831E+03  0.15572362759E+03  0.23655969422E+03  0.12000000000E+03 0.  0.
<mgrwt>
<rscale>  0 0.43640684E+03</rscale>
<asrwt>0</asrwt>
<pdfrwt beam="1">  1        2 0.78814778E-02 0.43640684E+03</pdfrwt>
<pdfrwt beam="2">  1       -2 0.14298443E+00 0.43640684E+03</pdfrwt>
<totfact> 0.31166737E+02</totfact>
</mgrwt>
</event>
<event>
 4    1  0.1866622E-004  0.3050762E+03  0.7818608E-02  0.1082730E+00
         -1   -1    0    0    0  501 -0.00000000000E+00  0.00000000000E+00  0.14380463635E+02  0.14380463635E+02  0.00000000000E+00 0.  1.
          1   -1    0    0  501    0  0.00000000000E+00 -0.00000000000E+00 -0.16180200642E+04  0.16180200642E+04  0.00000000000E+00 0.  1.
         25    1    1    2    0    0  0.59955660210E+02  0.70026811847E+02 -0.69897268128E+03  0.71516518703E+03  0.12000000000E+03 0.  0.
         25    1    1    2    0    0 -0.59955660210E+02 -0.70026811847E+02 -0.90466691930E+03  0.91723534082E+03  0.12000000000E+03 0.  0.
<mgrwt>
<rscale>  0 0.30507624E+03</rscale>
<asrwt>0</asrwt>
<pdfrwt beam="1">  1        1 0.24892614E+00 0.30507624E+03</pdfrwt>
<pdfrwt beam="2">  1       -1 0.22123792E-02 0.30507624E+03</pdfrwt>
<totfact> 0.35383254E+03</totfact>
</mgrwt>
</event>
<event>
 4    1  0.1866622E-004  0.3023095E+03  0.7818608E-02  0.1084092E+00
         -1   -1    0    0    0  501 -0.00000000000E+00  0.00000000000E+00  0.10432720389E+03  0.10432720389E+03  0.00000000000E+00 0.  1.
          1   -1    0    0  501    0  0.00000000000E+00 -0.00000000000E+00 -0.21900090300E+03  0.21900090300E+03  0.00000000000E+00 0.  1.
         25    1    1    2    0    0  0.63756878025E+02 -0.33591127555E+02  0.36772813744E+01  0.14002437554E+03  0.12000000000E+03 0.  0.
         25    1    1    2    0    0 -0.63756878025E+02  0.33591127555E+02 -0.11835098049E+03  0.18330373135E+03  0.12000000000E+03 0.  0.
<mgrwt>
<rscale>  0 0.30230946E+03</rscale>
<asrwt>0</asrwt>
<pdfrwt beam="1">  1        1 0.33692446E-01 0.30230946E+03</pdfrwt>
<pdfrwt beam="2">  1       -1 0.16050339E-01 0.30230946E+03</pdfrwt>
<totfact> 0.37597394E+03</totfact>
</mgrwt>
</event>
<event>
 4    1  0.1866622E-004  0.2590313E+03  0.7818608E-02  0.1107727E+00
          1   -1    0    0  501    0  0.00000000000E+00  0.00000000000E+00  0.40523108721E+03  0.40523108721E+03  0.00000000000E+00 0.  1.
         -1   -1    0    0    0  501 -0.00000000000E+00 -0.00000000000E+00 -0.41394426051E+02  0.41394426051E+02  0.00000000000E+00 0.  1.
         25    1    1    2    0    0  0.39547761986E+02  0.28270708838E+02  0.17618682440E+03  0.21864367255E+03  0.12000000000E+03 0.  0.
         25    1    1    2    0    0 -0.39547761986E+02 -0.28270708838E+02  0.18764983677E+03  0.22798184071E+03  0.12000000000E+03 0.  0.
<mgrwt>
<rscale>  0 0.25903134E+03</rscale>
<asrwt>0</asrwt>
<pdfrwt beam="1">  1        1 0.62343242E-01 0.25903134E+03</pdfrwt>
<pdfrwt beam="2">  1       -1 0.63683735E-02 0.25903134E+03</pdfrwt>
<totfact> 0.72056520E+03</totfact>
</mgrwt>
</event>
<event>
 4    1  0.1866622E-004  0.3373697E+03  0.7818608E-02  0.1067922E+00
          1   -1    0    0  501    0  0.00000000000E+00  0.00000000000E+00  0.87598645473E+02  0.87598645473E+02  0.00000000000E+00 0. -1.
         -1   -1    0    0    0  501 -0.00000000000E+00 -0.00000000000E+00 -0.32482889374E+03  0.32482889374E+03  0.00000000000E+00 0. -1.
         25    1    1    2    0    0  0.88577186076E+01  0.96302238920E+02 -0.34788394664E+02  0.15799624300E+03  0.12000000000E+03 0.  0.
         25    1    1    2    0    0 -0.88577186076E+01 -0.96302238920E+02 -0.20244185360E+03  0.25443129621E+03  0.12000000000E+03 0.  0.
<mgrwt>
<rscale>  0 0.33736966E+03</rscale>
<asrwt>0</asrwt>
<pdfrwt beam="1">  1        1 0.13476715E-01 0.33736966E+03</pdfrwt>
<pdfrwt beam="2">  1       -1 0.49973676E-01 0.33736966E+03</pdfrwt>
<totfact> 0.17718390E+03</totfact>
</mgrwt>
</event>
<event>
 4    1  0.1866622E-004  0.3377259E+03  0.7818608E-02  0.1067769E+00
         -2   -1    0    0    0  501 -0.00000000000E+00  0.00000000000E+00  0.11535174582E+02  0.11535174582E+02  0.00000000000E+00 0.  1.
          2   -1    0    0  501    0  0.00000000000E+00 -0.00000000000E+00 -0.24719784409E+04  0.24719784409E+04  0.00000000000E+00 0.  1.
         25    1    1    2    0    0 -0.79010020587E+02  0.38855185289E+02 -0.18167815851E+04  0.18228679702E+04  0.12000000000E+03 0.  0.
         25    1    1    2    0    0  0.79010020587E+02 -0.38855185289E+02 -0.64366168121E+03  0.66064564529E+03  0.12000000000E+03 0.  0.
<mgrwt>
<rscale>  0 0.33772594E+03</rscale>
<asrwt>0</asrwt>
<pdfrwt beam="1">  1        2 0.38030462E+00 0.33772594E+03</pdfrwt>
<pdfrwt beam="2">  1       -2 0.17746411E-02 0.33772594E+03</pdfrwt>
<totfact> 0.38181453E+03</totfact>
</mgrwt>
</event>
<event>
 4    1  0.1866622E-004  0.2774166E+03  0.7818608E-02  0.1097108E+00
          2   -1    0    0  501    0  0.00000000000E+00  0.00000000000E+00  0.18850086031E+03  0.18850086031E+03  0.00000000000E+00 0.  1.
         -2   -1    0    0    0  501 -0.00000000000E+00 -0.00000000000E+00 -0.10206843540E+03  0.10206843540E+03  0.00000000000E+00 0.  1.
         25    1    1    2    0    0  0.60413823596E+02  0.32837388699E+02  0.54294226946E+02  0.14857990193E+03  0.12000000000E+03 0.  0.
         25    1    1    2    0    0 -0.60413823596E+02 -0.32837388699E+02  0.32138197957E+02  0.14198939378E+03  0.12000000000E+03 0.  0.
<mgrwt>
<rscale>  0 0.27741657E+03</rscale>
<asrwt>0</asrwt>
<pdfrwt beam="1">  1        2 0.29000132E-01 0.27741657E+03</pdfrwt>
<pdfrwt beam="2">  1       -2 0.15702836E-01 0.27741657E+03</pdfrwt>
<totfact> 0.57350962E+03</totfact>
</mgrwt>
</event>
<event>
 4    1  0.1866622E-004  0.2688794E+03  0.7818608E-02  0.1101923E+00
          1   -1    0    0  501    0  0.00000000000E+00  0.00000000000E+00  0.61824613229E+02  0.61824613229E+02  0.00000000000E+00 0.  1.
         -1   -1    0    0    0  501 -0.00000000000E+00 -0.00000000000E+00 -0.29234370006E+03  0.29234370006E+03  0.00000000000E+00 0.  1.
         25    1    1    2    0    0 -0.56197630966E+02  0.18977661798E+02 -0.98822961078E+02  0.16638600605E+03  0.12000000000E+03 0.  0.
         25    1    1    2    0    0  0.56197630966E+02 -0.18977661798E+02 -0.13169612575E+03  0.18778230724E+03  0.12000000000E+03 0.  0.
<mgrwt>
<rscale>  0 0.26887942E+03</rscale>
<asrwt>0</asrwt>
<pdfrwt beam="1">  1        1 0.95114790E-02 0.26887942E+03</pdfrwt>
<pdfrwt beam="2">  1       -1 0.44975954E-01 0.26887942E+03</pdfrwt>
<totfact> 0.34116844E+03</totfact>
</mgrwt>
</event>
<event>
 4    1  0.1866622E-004  0.2884850E+03  0.7818608E-02  0.1091143E+00
          1   -1    0    0  501    0  0.00000000000E+00  0.00000000000E+00  0.38509363636E+03  0.38509363636E+03  0.00000000000E+00 0.  1.
         -1   -1    0    0    0  501 -0.00000000000E+00 -0.00000000000E+00 -0.54028161743E+02  0.54028161743E+02  0.00000000000E+00 0.  1.
         25    1    1    2    0    0  0.67862610564E+02 -0.11861181519E+02  0.22754820807E+03  0.26631599376E+03  0.12000000000E+03 0.  0.
         25    1    1    2    0    0 -0.67862610564E+02  0.11861181519E+02  0.10351726655E+03  0.17280580434E+03  0.12000000000E+03 0.  0.
<mgrwt>
<rscale>  0 0.28848502E+03</rscale>
<asrwt>0</asrwt>
<pdfrwt beam="1">  1        1 0.59245173E-01 0.28848502E+03</pdfrwt>
<pdfrwt beam="2">  1       -1 0.83120251E-02 0.28848502E+03</pdfrwt>
<totfact> 0.51475483E+03</totfact>
</mgrwt>
</event>
<event>
 4    1  0.1866622E-004  0.2711492E+03  0.7818608E-02  0.1100624E+00
          4   -1    0    0  501    0  0.00000000000E+00  0.00000000000E+00  0.25373281617E+03  0.25373281617E+03  0.00000000000E+00 0. -1.
         -4   -1    0    0    0  501 -0.00000000000E+00 -0.00000000000E+00 -0.72440285205E+02  0.72440285205E+02  0.00000000000E+00 0. -1.
         25    1    1    2    0    0 -0.19430303527E+02  0.60019239151E+02  0.91602427862E+02  0.16361800192E+03  0.12000000000E+03 0.  0.
         25    1    1    2    0    0  0.19430303527E+02 -0.60019239151E+02  0.89690103103E+02  0.16255509945E+03  0.12000000000E+03 0.  0.
<mgrwt>
<rscale>  0 0.27114924E+03</rscale>
<asrwt>0</asrwt>
<pdfrwt beam="1">  1        4 0.39035817E-01 0.27114924E+03</pdfrwt>
<pdfrwt beam="2">  1       -4 0.11144659E-01 0.27114924E+03</pdfrwt>
<totfact> 0.75366665E+02</totfact>
</mgrwt>
</event>
<event>
 4    1  0.1866622E-004  0.2872845E+03  0.7818608E-02  0.1091776E+00
          2   -1    0    0  501    0  0.00000000000E+00  0.00000000000E+00  0.11505356053E+04  0.11505356053E+04  0.00000000000E+00 0. -1.
         -2   -1    0    0    0  501 -0.00000000000E+00 -0.00000000000E+00 -0.17933469689E+02  0.17933469689E+02  0.00000000000E+00 0. -1.
         25    1    1    2    0    0 -0.95616143086E+01 -0.78156596936E+02  0.58974266168E+03  0.60695657597E+03  0.12000000000E+03 0.  0.
         25    1    1    2    0    0  0.95616143086E+01  0.78156596936E+02  0.54285947393E+03  0.56151249902E+03  0.12000000000E+03 0.  0.
<mgrwt>
<rscale>  0 0.28728450E+03</rscale>
<asrwt>0</asrwt>
<pdfrwt beam="1">  1        2 0.17700542E+00 0.28728450E+03</pdfrwt>
<pdfrwt beam="2">  1       -2 0.27589962E-02 0.28728450E+03</pdfrwt>
<totfact> 0.10240474E+04</totfact>
</mgrwt>
</event>
<event>
 4    1  0.1866622E-004  0.2997177E+03  0.7818608E-02  0.1085382E+00
         -1   -1    0    0    0  501 -0.00000000000E+00  0.00000000000E+00  0.29887839313E+02  0.29887839313E+02  0.00000000000E+00 0.  1.
          1   -1    0    0  501    0  0.00000000000E+00 -0.00000000000E+00 -0.75139824015E+03  0.75139824015E+03  0.00000000000E+00 0.  1.
         25    1    1    2    0    0 -0.69011745676E+02  0.57399857540E+02 -0.35931516862E+03  0.38931318381E+03  0.12000000000E+03 0.  0.
         25    1    1    2    0    0  0.69011745676E+02 -0.57399857540E+02 -0.36219523221E+03  0.39197289565E+03  0.12000000000E+03 0.  0.
<mgrwt>
<rscale>  0 0.29971767E+03</rscale>
<asrwt>0</asrwt>
<pdfrwt beam="1">  1        1 0.11559972E+00 0.29971767E+03</pdfrwt>
<pdfrwt beam="2">  1       -1 0.45981293E-02 0.29971767E+03</pdfrwt>
<totfact> 0.50650243E+03</totfact>
</mgrwt>
</event>
<event>
 4    1  0.1866622E-004  0.2471035E+03  0.7818608E-02  0.1115149E+00
         -2   -1    0    0    0  501 -0.00000000000E+00  0.00000000000E+00  0.68591641066E+01  0.68591641066E+01  0.00000000000E+00 0.  1.
          2   -1    0    0  501    0  0.00000000000E+00 -0.00000000000E+00 -0.22254940275E+04  0.22254940275E+04  0.00000000000E+00 0.  1.
         25    1    1    2    0    0  0.14390541269E+02  0.65557213683E+00 -0.87766561571E+03  0.88594833396E+03  0.12000000000E+03 0.  0.
         25    1    1    2    0    0 -0.14390541269E+02 -0.65557213683E+00 -0.13409692477E+04  0.13464048577E+04  0.12000000000E+03 0.  0.
<mgrwt>
<rscale>  0 0.24710345E+03</rscale>
<asrwt>0</asrwt>
<pdfrwt beam="1">  1        2 0.34238365E+00 0.24710345E+03</pdfrwt>
<pdfrwt beam="2">  1       -2 0.10552562E-02 0.24710345E+03</pdfrwt>
<totfact> 0.11107951E+04</totfact>
</mgrwt>
</event>
<event>
 4    1  0.1866622E-004  0.2948348E+03  0.7818608E-02  0.1087852E+00
          2   -1    0    0  501    0  0.00000000000E+00  0.00000000000E+00  0.15458060488E+04  0.15458060488E+04  0.00000000000E+00 0.  1.
         -2   -1    0    0    0  501 -0.00000000000E+00 -0.00000000000E+00 -0.14058610149E+02  0.14058610149E+02  0.00000000000E+00 0.  1.
         25    1    1    2    0    0 -0.58829040640E+02 -0.76164238899E+01  0.10925688742E+04  0.11007386660E+04  0.12000000000E+03 0.  0.
         25    1    1    2    0    0  0.58829040640E+02  0.76164238899E+01  0.43917856440E+03  0.45912599291E+03  0.12000000000E+03 0.  0.
<mgrwt>
<rscale>  0 0.29483476E+03</rscale>
<asrwt>0</asrwt>
<pdfrwt beam="1">  1        2 0.23781618E+00 0.29483476E+03</pdfrwt>
<pdfrwt beam="2">  1       -2 0.21628643E-02 0.29483476E+03</pdfrwt>
<totfact> 0.88937468E+03</totfact>
</mgrwt>
</event>
<event>
 4    1  0.1866622E-004  0.4892164E+03  0.7818608E-02  0.1016633E+00
         -2   -1    0    0    0  501 -0.00000000000E+00  0.00000000000E+00  0.43210760176E+02  0.43210760176E+02  0.00000000000E+00 0. -1.
          2   -1    0    0  501    0  0.00000000000E+00 -0.00000000000E+00 -0.13846821569E+04  0.13846821569E+04  0.00000000000E+00 0. -1.
         25    1    1    2    0    0  0.60442916358E+01 -0.68288264884E+02 -0.12598094835E+04  0.12673672535E+04  0.12000000000E+03 0.  0.
         25    1    1    2    0    0 -0.60442916358E+01  0.68288264884E+02 -0.81661913187E+02  0.16052566352E+03  0.12000000000E+03 0.  0.
<mgrwt>
<rscale>  0 0.48921639E+03</rscale>
<asrwt>0</asrwt>
<pdfrwt beam="1">  1        2 0.21302802E+00 0.48921639E+03</pdfrwt>
<pdfrwt beam="2">  1       -2 0.66478095E-02 0.48921639E+03</pdfrwt>
<totfact> 0.19812819E+03</totfact>
</mgrwt>
</event>
<event>
 4    1  0.1866622E-004  0.2500692E+03  0.7818608E-02  0.1113261E+00
          1   -1    0    0  501    0  0.00000000000E+00  0.00000000000E+00  0.14604914602E+04  0.14604914602E+04  0.00000000000E+00 0. -1.
         -1   -1    0    0    0  501 -0.00000000000E+00 -0.00000000000E+00 -0.10704372954E+02  0.10704372954E+02  0.00000000000E+00 0. -1.
         25    1    1    2    0    0  0.97257429755E+01 -0.30203678239E+02  0.63629527902E+03  0.64828892814E+03  0.12000000000E+03 0.  0.
         25    1    1    2    0    0 -0.97257429755E+01  0.30203678239E+02  0.81349180827E+03  0.82290690505E+03  0.12000000000E+03 0.  0.
<mgrwt>
<rscale>  0 0.25006915E+03</rscale>
<asrwt>0</asrwt>
<pdfrwt beam="1">  1        1 0.22469084E+00 0.25006915E+03</pdfrwt>
<pdfrwt beam="2">  1       -1 0.16468278E-02 0.25006915E+03</pdfrwt>
<totfact> 0.69115920E+03</totfact>
</mgrwt>
</event>
<event>
 4    1  0.1866622E-004  0.2976572E+03  0.7818608E-02  0.1086418E+00
         -2   -1    0    0    0  501 -0.00000000000E+00  0.00000000000E+00  0.32442813696E+02  0.32442813696E+02  0.00000000000E+00 0. -1.
          2   -1    0    0  501    0  0.00000000000E+00 -0.00000000000E+00 -0.68273817859E+03  0.68273817859E+03  0.00000000000E+00 0. -1.
         25    1    1    2    0    0 -0.68132230766E+02 -0.52804152742E+02 -0.28218916579E+03  0.31852944087E+03  0.12000000000E+03 0.  0.
         25    1    1    2    0    0  0.68132230766E+02  0.52804152742E+02 -0.36810619911E+03  0.39665155141E+03  0.12000000000E+03 0.  0.
<mgrwt>
<rscale>  0 0.29765717E+03</rscale>
<asrwt>0</asrwt>
<pdfrwt beam="1">  1        2 0.10503663E+00 0.29765717E+03</pdfrwt>
<pdfrwt beam="2">  1       -2 0.49912026E-02 0.29765717E+03</pdfrwt>
<totfact> 0.84846966E+03</totfact>
</mgrwt>
</event>
<event>
 4    1  0.1866622E-004  0.2821042E+03  0.7818608E-02  0.1094545E+00
          1   -1    0    0  501    0  0.00000000000E+00  0.00000000000E+00  0.36804483820E+03  0.36804483820E+03  0.00000000000E+00 0. -1.
         -1   -1    0    0    0  501 -0.00000000000E+00 -0.00000000000E+00 -0.54057788540E+02  0.54057788540E+02  0.00000000000E+00 0. -1.
         25    1    1    2    0    0  0.56553526988E+02  0.33340679857E+02  0.20851781583E+03  0.24937839094E+03  0.12000000000E+03 0.  0.
         25    1    1    2    0    0 -0.56553526988E+02 -0.33340679857E+02  0.10546923383E+03  0.17272423580E+03  0.12000000000E+03 0.  0.
<mgrwt>
<rscale>  0 0.28210417E+03</rscale>
<asrwt>0</asrwt>
<pdfrwt beam="1">  1        1 0.56622281E-01 0.28210417E+03</pdfrwt>
<pdfrwt beam="2">  1       -1 0.83165831E-02 0.28210417E+03</pdfrwt>
<totfact> 0.54459877E+03</totfact>
</mgrwt>
</event>
<event>
 4    1  0.1866622E-004  0.2858809E+03  0.7818608E-02  0.1092520E+00
          1   -1    0    0  501    0  0.00000000000E+00  0.00000000000E+00  0.24040100940E+03  0.24040100940E+03  0.00000000000E+00 0. -1.
         -1   -1    0    0    0  501 -0.00000000000E+00 -0.00000000000E+00 -0.84991187915E+02  0.84991187915E+02  0.00000000000E+00 0. -1.
         25    1    1    2    0    0 -0.42331809193E+02 -0.17968104678E+02  0.14894200189E+03  0.19671948247E+03  0.12000000000E+03 0.  0.
         25    1    1    2    0    0  0.42331809193E+02  0.17968104678E+02  0.64678195913E+01  0.12867271484E+03  0.12000000000E+03 0.  0.
<mgrwt>
<rscale>  0 0.28588087E+03</rscale>
<asrwt>0</asrwt>
<pdfrwt beam="1">  1        1 0.36984770E-01 0.28588087E+03</pdfrwt>
<pdfrwt beam="2">  1       -1 0.13075568E-01 0.28588087E+03</pdfrwt>
<totfact> 0.46206855E+03</totfact>
</mgrwt>
</event>
<event>
 4    1  0.1866622E-004  0.2852629E+03  0.7818608E-02  0.1092849E+00
         -2   -1    0    0    0  501 -0.00000000000E+00  0.00000000000E+00  0.37228471604E+02  0.37228471604E+02  0.00000000000E+00 0. -1.
          2   -1    0    0  501    0  0.00000000000E+00 -0.00000000000E+00 -0.54645640630E+03  0.54645640630E+03  0.00000000000E+00 0. -1.
         25    1    1    2    0    0  0.42511084553E+01 -0.74399729538E+02 -0.29503965934E+03  0.32711128421E+03  0.12000000000E+03 0.  0.
         25    1    1    2    0    0 -0.42511084553E+01  0.74399729538E+02 -0.21418827536E+03  0.25657359369E+03  0.12000000000E+03 0.  0.
<mgrwt>
<rscale>  0 0.28526294E+03</rscale>
<asrwt>0</asrwt>
<pdfrwt beam="1">  1        2 0.84070207E-01 0.28526294E+03</pdfrwt>
<pdfrwt beam="2">  1       -2 0.57274578E-02 0.28526294E+03</pdfrwt>
<totfact> 0.89126509E+03</totfact>
</mgrwt>
</event>
<event>
 4    1  0.1866622E-004  0.2918278E+03  0.7818608E-02  0.1089399E+00
         -1   -1    0    0    0  501 -0.00000000000E+00  0.00000000000E+00  0.66739455864E+02  0.66739455864E+02  0.00000000000E+00 0. -1.
          1   -1    0    0  501    0  0.00000000000E+00 -0.00000000000E+00 -0.31901464569E+03  0.31901464569E+03  0.00000000000E+00 0. -1.
         25    1    1    2    0    0 -0.16938923352E+02  0.58910681877E+02 -0.52143584195E+02  0.14448650088E+03  0.12000000000E+03 0.  0.
         25    1    1    2    0    0  0.16938923352E+02 -0.58910681877E+02 -0.20013160563E+03  0.24126760067E+03  0.12000000000E+03 0.  0.
<mgrwt>
<rscale>  0 0.29182778E+03</rscale>
<asrwt>0</asrwt>
<pdfrwt beam="1">  1        1 0.49079176E-01 0.29182778E+03</pdfrwt>
<pdfrwt beam="2">  1       -1 0.10267609E-01 0.29182778E+03</pdfrwt>
<totfact> 0.47231197E+03</totfact>
</mgrwt>
</event>
<event>
 4    1  0.1866622E-004  0.3142958E+03  0.7818608E-02  0.1078305E+00
         -2   -1    0    0    0  501 -0.00000000000E+00  0.00000000000E+00  0.28145161463E+03  0.28145161463E+03  0.00000000000E+00 0.  1.
          2   -1    0    0  501    0  0.00000000000E+00 -0.00000000000E+00 -0.87743200566E+02  0.87743200566E+02  0.00000000000E+00 0.  1.
         25    1    1    2    0    0  0.57934286165E+02  0.44881953471E+02  0.17928825451E+03  0.22784874251E+03  0.12000000000E+03 0.  0.
         25    1    1    2    0    0 -0.57934286165E+02 -0.44881953471E+02  0.14420159555E+02  0.14134607268E+03  0.12000000000E+03 0.  0.
<mgrwt>
<rscale>  0 0.31429582E+03</rscale>
<asrwt>0</asrwt>
<pdfrwt beam="1">  1        2 0.13498954E-01 0.31429582E+03</pdfrwt>
<pdfrwt beam="2">  1       -2 0.43300248E-01 0.31429582E+03</pdfrwt>
<totfact> 0.22646789E+03</totfact>
</mgrwt>
</event>
<event>
 4    1  0.1866622E-004  0.3109323E+03  0.7818608E-02  0.1079900E+00
          2   -1    0    0  501    0  0.00000000000E+00  0.00000000000E+00  0.21988393191E+03  0.21988393191E+03  0.00000000000E+00 0. -1.
         -2   -1    0    0    0  501 -0.00000000000E+00 -0.00000000000E+00 -0.10992037144E+03  0.10992037144E+03  0.00000000000E+00 0. -1.
         25    1    1    2    0    0 -0.88711781093E+02 -0.24528496792E+02  0.16762951264E+02  0.15215920542E+03  0.12000000000E+03 0.  0.
         25    1    1    2    0    0  0.88711781093E+02  0.24528496792E+02  0.93200609212E+02  0.17764509793E+03  0.12000000000E+03 0.  0.
<mgrwt>
<rscale>  0 0.31093230E+03</rscale>
<asrwt>0</asrwt>
<pdfrwt beam="1">  1        2 0.33828297E-01 0.31093230E+03</pdfrwt>
<pdfrwt beam="2">  1       -2 0.16910826E-01 0.31093230E+03</pdfrwt>
<totfact> 0.42949445E+03</totfact>
</mgrwt>
</event>
<event>
 4    1  0.1866622E-004  0.2511036E+03  0.7818608E-02  0.1112609E+00
         -2   -1    0    0    0  501 -0.00000000000E+00  0.00000000000E+00  0.11729045794E+03  0.11729045794E+03  0.00000000000E+00 0. -1.
          2   -1    0    0  501    0  0.00000000000E+00 -0.00000000000E+00 -0.13439498373E+03  0.13439498373E+03  0.00000000000E+00 0. -1.
         25    1    1    2    0    0  0.24469386150E+02 -0.24185806398E+02  0.48782316480E+01  0.12492998533E+03  0.12000000000E+03 0.  0.
         25    1    1    2    0    0 -0.24469386150E+02  0.24185806398E+02 -0.21982757433E+02  0.12675545635E+03  0.12000000000E+03 0.  0.
<mgrwt>
<rscale>  0 0.25110356E+03</rscale>
<asrwt>0</asrwt>
<pdfrwt beam="1">  1        2 0.20676151E-01 0.25110356E+03</pdfrwt>
<pdfrwt beam="2">  1       -2 0.18044686E-01 0.25110356E+03</pdfrwt>
<totfact> 0.66117858E+03</totfact>
</mgrwt>
</event>
<event>
 4    1  0.1866622E-004  0.2652409E+03  0.7818608E-02  0.1104035E+00
          1   -1    0    0  501    0  0.00000000000E+00  0.00000000000E+00  0.36732906554E+03  0.36732906554E+03  0.00000000000E+00 0.  1.
         -1   -1    0    0    0  501 -0.00000000000E+00 -0.00000000000E+00 -0.47881256461E+02  0.47881256461E+02  0.00000000000E+00 0.  1.
         25    1    1    2    0    0 -0.50341058952E+02  0.25309297965E+02  0.16545304632E+03  0.21201295554E+03  0.12000000000E+03 0.  0.
         25    1    1    2    0    0  0.50341058952E+02 -0.25309297965E+02  0.15399476276E+03  0.20319736646E+03  0.12000000000E+03 0.  0.
<mgrwt>
<rscale>  0 0.26524085E+03</rscale>
<asrwt>0</asrwt>
<pdfrwt beam="1">  1        1 0.56512162E-01 0.26524085E+03</pdfrwt>
<pdfrwt beam="2">  1       -1 0.73663474E-02 0.26524085E+03</pdfrwt>
<totfact> 0.65565823E+03</totfact>
</mgrwt>
</event>
<event>
 4    1  0.1866622E-004  0.4269219E+03  0.7818608E-02  0.1034837E+00
         -2   -1    0    0    0  501 -0.00000000000E+00  0.00000000000E+00  0.58585807852E+02  0.58585807852E+02  0.00000000000E+00 0. -1.
          2   -1    0    0  501    0  0.00000000000E+00 -0.00000000000E+00 -0.77775791124E+03  0.77775791124E+03  0.00000000000E+00 0. -1.
         25    1    1    2    0    0  0.13184736456E+03  0.11723267692E+03 -0.34745482529E+03  0.40774021594E+03  0.12000000000E+03 0.  0.
         25    1    1    2    0    0 -0.13184736456E+03 -0.11723267692E+03 -0.37171727810E+03  0.42860350315E+03  0.12000000000E+03 0.  0.
<mgrwt>
<rscale>  0 0.42692189E+03</rscale>
<asrwt>0</asrwt>
<pdfrwt beam="1">  1        2 0.11965506E+00 0.42692189E+03</pdfrwt>
<pdfrwt beam="2">  1       -2 0.90132016E-02 0.42692189E+03</pdfrwt>
<totfact> 0.28942567E+03</totfact>
</mgrwt>
</event>
<event>
 4    1  0.1866622E-004  0.3101648E+03  0.7818608E-02  0.1080267E+00
         -2   -1    0    0    0  501 -0.00000000000E+00  0.00000000000E+00  0.15808266294E+02  0.15808266294E+02  0.00000000000E+00 0. -1.
          2   -1    0    0  501    0  0.00000000000E+00 -0.00000000000E+00 -0.15213905730E+04  0.15213905730E+04  0.00000000000E+00 0. -1.
         25    1    1    2    0    0  0.60443985744E+02 -0.33649202212E+02 -0.40711437682E+03  0.43003239417E+03  0.12000000000E+03 0.  0.
         25    1    1    2    0    0 -0.60443985744E+02  0.33649202212E+02 -0.10984679299E+04  0.11071664452E+04  0.12000000000E+03 0.  0.
<mgrwt>
<rscale>  0 0.31016478E+03</rscale>
<asrwt>0</asrwt>
<pdfrwt beam="1">  1        2 0.23406024E+00 0.31016478E+03</pdfrwt>
<pdfrwt beam="2">  1       -2 0.24320394E-02 0.31016478E+03</pdfrwt>
<totfact> 0.77093535E+03</totfact>
</mgrwt>
</event>
<event>
 4    1  0.1866622E-004  0.2682535E+03  0.7818608E-02  0.1102283E+00
         -1   -1    0    0    0  501 -0.00000000000E+00  0.00000000000E+00  0.38833546450E+03  0.38833546450E+03  0.00000000000E+00 0. -1.
          1   -1    0    0  501    0  0.00000000000E+00 -0.00000000000E+00 -0.46325896846E+02  0.46325896846E+02  0.00000000000E+00 0. -1.
         25    1    1    2    0    0 -0.91765433879E+01 -0.45747405022E+02  0.11009743337E+03  0.16940625387E+03  0.12000000000E+03 0.  0.
         25    1    1    2    0    0  0.91765433879E+01  0.45747405022E+02  0.23191213429E+03  0.26525510748E+03  0.12000000000E+03 0.  0.
<mgrwt>
<rscale>  0 0.26825353E+03</rscale>
<asrwt>0</asrwt>
<pdfrwt beam="1">  1        1 0.71270613E-02 0.26825353E+03</pdfrwt>
<pdfrwt beam="2">  1       -1 0.59743915E-01 0.26825353E+03</pdfrwt>
<totfact> 0.29734272E+03</totfact>
</mgrwt>
</event>
<event>
 4    1  0.1866622E-004  0.2636106E+03  0.7818608E-02  0.1104993E+00
         -2   -1    0    0    0  501 -0.00000000000E+00  0.00000000000E+00  0.61106737683E+03  0.61106737683E+03  0.00000000000E+00 0. -1.
          2   -1    0    0  501    0  0.00000000000E+00 -0.00000000000E+00 -0.28429991872E+02  0.28429991872E+02  0.00000000000E+00 0. -1.
         25    1    1    2    0    0 -0.37696856882E+02 -0.32859773374E+02  0.23862418794E+03  0.27173943548E+03  0.12000000000E+03 0.  0.
         25    1    1    2    0    0  0.37696856882E+02  0.32859773374E+02  0.34401319702E+03  0.36775793322E+03  0.12000000000E+03 0.  0.
<mgrwt>
<rscale>  0 0.26361063E+03</rscale>
<asrwt>0</asrwt>
<pdfrwt beam="1">  1        2 0.43738453E-02 0.26361063E+03</pdfrwt>
<pdfrwt beam="2">  1       -2 0.94010356E-01 0.26361063E+03</pdfrwt>
<totfact> 0.18543209E+03</totfact>
</mgrwt>
</event>
<event>
 4    1  0.1866622E-004  0.2748625E+03  0.7818608E-02  0.1098529E+00
         -2   -1    0    0    0  501 -0.00000000000E+00  0.00000000000E+00  0.93155655040E+01  0.93155655040E+01  0.00000000000E+00 0.  1.
          2   -1    0    0  501    0  0.00000000000E+00 -0.00000000000E+00 -0.20275035011E+04  0.20275035011E+04  0.00000000000E+00 0.  1.
         25    1    1    2    0    0 -0.26526999147E+02  0.71145490211E+01 -0.14618544820E+04  0.14670285700E+04  0.12000000000E+03 0.  0.
         25    1    1    2    0    0  0.26526999147E+02 -0.71145490211E+01 -0.55633345354E+03  0.56979049661E+03  0.12000000000E+03 0.  0.
<mgrwt>
<rscale>  0 0.27486245E+03</rscale>
<asrwt>0</asrwt>
<pdfrwt beam="1">  1        2 0.31192412E+00 0.27486245E+03</pdfrwt>
<pdfrwt beam="2">  1       -2 0.14331616E-02 0.27486245E+03</pdfrwt>
<totfact> 0.90625689E+03</totfact>
</mgrwt>
</event>
<event>
 4    1  0.1866622E-004  0.2861004E+03  0.7818608E-02  0.1092403E+00
         -2   -1    0    0    0  501 -0.00000000000E+00  0.00000000000E+00  0.13935788773E+02  0.13935788773E+02  0.00000000000E+00 0.  1.
          2   -1    0    0  501    0  0.00000000000E+00 -0.00000000000E+00 -0.14684030909E+04  0.14684030909E+04  0.00000000000E+00 0.  1.
         25    1    1    2    0    0  0.58151026820E+02 -0.15365509259E+02 -0.98346482242E+03  0.99258284175E+03  0.12000000000E+03 0.  0.
         25    1    1    2    0    0 -0.58151026820E+02  0.15365509259E+02 -0.47100247973E+03  0.48975603795E+03  0.12000000000E+03 0.  0.
<mgrwt>
<rscale>  0 0.28610037E+03</rscale>
<asrwt>0</asrwt>
<pdfrwt beam="1">  1        2 0.22590824E+00 0.28610037E+03</pdfrwt>
<pdfrwt beam="2">  1       -2 0.21439668E-02 0.28610037E+03</pdfrwt>
<totfact> 0.99081234E+03</totfact>
</mgrwt>
</event>
<event>
 4    1  0.1866622E-004  0.2566938E+03  0.7818608E-02  0.1109146E+00
         -2   -1    0    0    0  501 -0.00000000000E+00  0.00000000000E+00  0.15372280664E+03  0.15372280664E+03  0.00000000000E+00 0. -1.
          2   -1    0    0  501    0  0.00000000000E+00 -0.00000000000E+00 -0.10715991027E+03  0.10715991027E+03  0.00000000000E+00 0. -1.
         25    1    1    2    0    0 -0.31520122152E+02  0.17909731873E+01 -0.10059333177E+02  0.12449062563E+03  0.12000000000E+03 0.  0.
         25    1    1    2    0    0  0.31520122152E+02 -0.17909731873E+01  0.56622229544E+02  0.13639209128E+03  0.12000000000E+03 0.  0.
<mgrwt>
<rscale>  0 0.25669376E+03</rscale>
<asrwt>0</asrwt>
<pdfrwt beam="1">  1        2 0.16486140E-01 0.25669376E+03</pdfrwt>
<pdfrwt beam="2">  1       -2 0.23649663E-01 0.25669376E+03</pdfrwt>
<totfact> 0.54033985E+03</totfact>
</mgrwt>
</event>
<event>
 4    1  0.1866622E-004  0.2944106E+03  0.7818608E-02  0.1088069E+00
          1   -1    0    0  501    0  0.00000000000E+00  0.00000000000E+00  0.77436968648E+02  0.77436968648E+02  0.00000000000E+00 0.  1.
         -1   -1    0    0    0  501 -0.00000000000E+00 -0.00000000000E+00 -0.27983283983E+03  0.27983283983E+03  0.00000000000E+00 0.  1.
         25    1    1    2    0    0  0.15077885719E+02  0.37946920210E+01 -0.20292776597E+03  0.23626557203E+03  0.12000000000E+03 0.  0.
         25    1    1    2    0    0 -0.15077885719E+02 -0.37946920210E+01  0.53189479156E+00  0.12100423644E+03  0.12000000000E+03 0.  0.
<mgrwt>
<rscale>  0 0.29441064E+03</rscale>
<asrwt>0</asrwt>
<pdfrwt beam="1">  1        1 0.11913380E-01 0.29441064E+03</pdfrwt>
<pdfrwt beam="2">  1       -1 0.43051206E-01 0.29441064E+03</pdfrwt>
<totfact> 0.27363980E+03</totfact>
</mgrwt>
</event>
<event>
 4    1  0.1866622E-004  0.2475673E+03  0.7818608E-02  0.1114852E+00
         -1   -1    0    0    0  501 -0.00000000000E+00  0.00000000000E+00  0.64047538712E+02  0.64047538712E+02  0.00000000000E+00 0.  1.
          1   -1    0    0  501    0  0.00000000000E+00 -0.00000000000E+00 -0.23923474916E+03  0.23923474916E+03  0.00000000000E+00 0.  1.
         25    1    1    2    0    0 -0.23962305485E+02  0.18608473991E+02 -0.85891945743E+02  0.15065820168E+03  0.12000000000E+03 0.  0.
         25    1    1    2    0    0  0.23962305485E+02 -0.18608473991E+02 -0.89295264704E+02  0.15262408620E+03  0.12000000000E+03 0.  0.
<mgrwt>
<rscale>  0 0.24756734E+03</rscale>
<asrwt>0</asrwt>
<pdfrwt beam="1">  1        1 0.36805346E-01 0.24756734E+03</pdfrwt>
<pdfrwt beam="2">  1       -1 0.98534675E-02 0.24756734E+03</pdfrwt>
<totfact> 0.71840139E+03</totfact>
</mgrwt>
</event>
<event>
 4    1  0.1866622E-004  0.2627144E+03  0.7818608E-02  0.1105523E+00
         -2   -1    0    0    0  501 -0.00000000000E+00  0.00000000000E+00  0.76308490258E+01  0.76308490258E+01  0.00000000000E+00 0. -1.
          2   -1    0    0  501    0  0.00000000000E+00 -0.00000000000E+00 -0.22611782877E+04  0.22611782877E+04  0.00000000000E+00 0. -1.
         25    1    1    2    0    0  0.11123446490E+02  0.30340226952E+02 -0.14942314296E+04  0.14993904847E+04  0.12000000000E+03 0.  0.
         25    1    1    2    0    0 -0.11123446490E+02 -0.30340226952E+02 -0.75931600903E+03  0.76941865197E+03  0.12000000000E+03 0.  0.
<mgrwt>
<rscale>  0 0.26271437E+03</rscale>
<asrwt>0</asrwt>
<pdfrwt beam="1">  1        2 0.34787331E+00 0.26271437E+03</pdfrwt>
<pdfrwt beam="2">  1       -2 0.11739777E-02 0.26271437E+03</pdfrwt>
<totfact> 0.91128583E+03</totfact>
</mgrwt>
</event>
<event>
 4    1  0.1866622E-004  0.3406018E+03  0.7818608E-02  0.1066540E+00
          1   -1    0    0  501    0  0.00000000000E+00  0.00000000000E+00  0.80131082290E+03  0.80131082290E+03  0.00000000000E+00 0.  1.
         -1   -1    0    0    0  501 -0.00000000000E+00 -0.00000000000E+00 -0.36193682622E+02  0.36193682622E+02  0.00000000000E+00 0.  1.
         25    1    1    2    0    0 -0.34951190282E+01  0.66226023331E+02  0.63094714176E+03  0.64567205121E+03  0.12000000000E+03 0.  0.
         25    1    1    2    0    0  0.34951190282E+01 -0.66226023331E+02  0.13416999851E+03  0.19183245430E+03  0.12000000000E+03 0.  0.
<mgrwt>
<rscale>  0 0.34060176E+03</rscale>
<asrwt>0</asrwt>
<pdfrwt beam="1">  1        1 0.12327857E+00 0.34060176E+03</pdfrwt>
<pdfrwt beam="2">  1       -1 0.55682595E-02 0.34060176E+03</pdfrwt>
<totfact> 0.34480720E+03</totfact>
</mgrwt>
</event>
<event>
 4    1  0.1866622E-004  0.3319756E+03  0.7818608E-02  0.1070266E+00
          2   -1    0    0  501    0  0.00000000000E+00  0.00000000000E+00  0.42962208183E+04  0.42962208183E+04  0.00000000000E+00 0.  1.
         -2   -1    0    0    0  501 -0.00000000000E+00 -0.00000000000E+00 -0.64130667010E+01  0.64130667010E+01  0.00000000000E+00 0.  1.
         25    1    1    2    0    0 -0.10081061684E+03 -0.45611697077E+02  0.17541990007E+04  0.17617767570E+04  0.12000000000E+03 0.  0.
         25    1    1    2    0    0  0.10081061684E+03  0.45611697077E+02  0.25356087509E+04  0.25408571280E+04  0.12000000000E+03 0.  0.
<mgrwt>
<rscale>  0 0.33197561E+03</rscale>
<asrwt>0</asrwt>
<pdfrwt beam="1">  1        2 0.66095475E+00 0.33197561E+03</pdfrwt>
<pdfrwt beam="2">  1       -2 0.98662908E-03 0.33197561E+03</pdfrwt>
<totfact> 0.55171943E+02</totfact>
</mgrwt>
</event>
<event>
 4    1  0.1866622E-004  0.2555770E+03  0.7818608E-02  0.1109830E+00
         -1   -1    0    0    0  501 -0.00000000000E+00  0.00000000000E+00  0.35579937017E+02  0.35579937017E+02  0.00000000000E+00 0.  1.
          1   -1    0    0  501    0  0.00000000000E+00 -0.00000000000E+00 -0.45896359957E+03  0.45896359957E+03  0.00000000000E+00 0.  1.
         25    1    1    2    0    0  0.55242547930E+01 -0.26102044378E+02 -0.14415860514E+03  0.18945589869E+03  0.12000000000E+03 0.  0.
         25    1    1    2    0    0 -0.55242547930E+01  0.26102044378E+02 -0.27922505741E+03  0.30508763790E+03  0.12000000000E+03 0.  0.
<mgrwt>
<rscale>  0 0.25557696E+03</rscale>
<asrwt>0</asrwt>
<pdfrwt beam="1">  1        1 0.70609781E-01 0.25557696E+03</pdfrwt>
<pdfrwt beam="2">  1       -1 0.54738367E-02 0.25557696E+03</pdfrwt>
<totfact> 0.76997902E+03</totfact>
</mgrwt>
</event>
<event>
 4    1  0.1866622E-004  0.3086241E+03  0.7818608E-02  0.1081007E+00
          3   -1    0    0  501    0  0.00000000000E+00  0.00000000000E+00  0.47276151040E+03  0.47276151040E+03  0.00000000000E+00 0.  1.
         -3   -1    0    0    0  501 -0.00000000000E+00 -0.00000000000E+00 -0.50368322199E+02  0.50368322199E+02  0.00000000000E+00 0.  1.
         25    1    1    2    0    0 -0.89706979601E+02 -0.36002633166E+02  0.22524317016E+03  0.27290660947E+03  0.12000000000E+03 0.  0.
         25    1    1    2    0    0  0.89706979601E+02  0.36002633166E+02  0.19715001804E+03  0.25022322313E+03  0.12000000000E+03 0.  0.
<mgrwt>
<rscale>  0 0.30862407E+03</rscale>
<asrwt>0</asrwt>
<pdfrwt beam="1">  1        3 0.72732537E-01 0.30862407E+03</pdfrwt>
<pdfrwt beam="2">  1       -3 0.77489730E-02 0.30862407E+03</pdfrwt>
<totfact> 0.52905458E+02</totfact>
</mgrwt>
</event>
<event>
 4    1  0.1866622E-004  0.2888364E+03  0.7818608E-02  0.1090958E+00
         -2   -1    0    0    0  501 -0.00000000000E+00  0.00000000000E+00  0.45635959284E+03  0.45635959284E+03  0.00000000000E+00 0.  1.
          2   -1    0    0  501    0  0.00000000000E+00 -0.00000000000E+00 -0.45702143812E+02  0.45702143812E+02  0.00000000000E+00 0.  1.
         25    1    1    2    0    0 -0.10875831124E+01 -0.80317497198E+02  0.20162972071E+03  0.24800529726E+03  0.12000000000E+03 0.  0.
         25    1    1    2    0    0  0.10875831124E+01  0.80317497198E+02  0.20902772831E+03  0.25405643939E+03  0.12000000000E+03 0.  0.
<mgrwt>
<rscale>  0 0.28883637E+03</rscale>
<asrwt>0</asrwt>
<pdfrwt beam="1">  1        2 0.70310993E-02 0.28883637E+03</pdfrwt>
<pdfrwt beam="2">  1       -2 0.70209165E-01 0.28883637E+03</pdfrwt>
<totfact> 0.19031885E+03</totfact>
</mgrwt>
</event>
<event>
 4    1  0.1866622E-004  0.3107906E+03  0.7818608E-02  0.1079968E+00
         -1   -1    0    0    0  501 -0.00000000000E+00  0.00000000000E+00  0.10718727923E+04  0.10718727923E+04  0.00000000000E+00 0. -1.
          1   -1    0    0  501    0  0.00000000000E+00 -0.00000000000E+00 -0.22528517887E+02  0.22528517887E+02  0.00000000000E+00 0. -1.
         25    1    1    2    0    0  0.87871101098E+02 -0.28827516981E+02  0.40292575138E+03  0.43046662735E+03  0.12000000000E+03 0.  0.
         25    1    1    2    0    0 -0.87871101098E+02  0.28827516981E+02  0.64641852302E+03  0.66393468282E+03  0.12000000000E+03 0.  0.
<mgrwt>
<rscale>  0 0.31079064E+03</rscale>
<asrwt>0</asrwt>
<pdfrwt beam="1">  1        1 0.34659267E-02 0.31079064E+03</pdfrwt>
<pdfrwt beam="2">  1       -1 0.16490347E+00 0.31079064E+03</pdfrwt>
<totfact> 0.81572139E+02</totfact>
</mgrwt>
</event>
<event>
 4    1  0.1866622E-004  0.3457888E+03  0.7818608E-02  0.1064357E+00
         -2   -1    0    0    0  501 -0.00000000000E+00  0.00000000000E+00  0.11317441582E+03  0.11317441582E+03  0.00000000000E+00 0. -1.
          2   -1    0    0  501    0  0.00000000000E+00 -0.00000000000E+00 -0.26412741751E+03  0.26412741751E+03  0.00000000000E+00 0. -1.
         25    1    1    2    0    0 -0.50144175642E+02 -0.54079978712E+02  0.33927744889E+02  0.14487986168E+03  0.12000000000E+03 0.  0.
         25    1    1    2    0    0  0.50144175642E+02  0.54079978712E+02 -0.18488074658E+03  0.23242197165E+03  0.12000000000E+03 0.  0.
<mgrwt>
<rscale>  0 0.34578876E+03</rscale>
<asrwt>0</asrwt>
<pdfrwt beam="1">  1        2 0.40634987E-01 0.34578876E+03</pdfrwt>
<pdfrwt beam="2">  1       -2 0.17411449E-01 0.34578876E+03</pdfrwt>
<totfact> 0.33575294E+03</totfact>
</mgrwt>
</event>
<event>
 4    1  0.1866622E-004  0.4567540E+03  0.7818608E-02  0.1025727E+00
         -1   -1    0    0    0  501 -0.00000000000E+00  0.00000000000E+00  0.15398088420E+03  0.15398088420E+03  0.00000000000E+00 0.  1.
          1   -1    0    0  501    0  0.00000000000E+00 -0.00000000000E+00 -0.33871769511E+03  0.33871769511E+03  0.00000000000E+00 0.  1.
         25    1    1    2    0    0  0.14397208171E+03  0.10741617484E+03 -0.12444000012E+02  0.21638171841E+03  0.12000000000E+03 0.  0.
         25    1    1    2    0    0 -0.14397208171E+03 -0.10741617484E+03 -0.17229281090E+03  0.27631686089E+03  0.12000000000E+03 0.  0.
<mgrwt>
<rscale>  0 0.45675398E+03</rscale>
<asrwt>0</asrwt>
<pdfrwt beam="1">  1        1 0.52110414E-01 0.45675398E+03</pdfrwt>
<pdfrwt beam="2">  1       -1 0.23689367E-01 0.45675398E+03</pdfrwt>
<totfact> 0.11482052E+03</totfact>
</mgrwt>
</event>
<event>
 4    1  0.1866622E-004  0.2741588E+03  0.7818608E-02  0.1098923E+00
          2   -1    0    0  501    0  0.00000000000E+00  0.00000000000E+00  0.62865091099E+03  0.62865091099E+03  0.00000000000E+00 0. -1.
         -2   -1    0    0    0  501 -0.00000000000E+00 -0.00000000000E+00 -0.29890610505E+02  0.29890610505E+02  0.00000000000E+00 0. -1.
         25    1    1    2    0    0 -0.32501266337E+02  0.11815528921E+02  0.43515027906E+03  0.45271592020E+03  0.12000000000E+03 0.  0.
         25    1    1    2    0    0  0.32501266337E+02 -0.11815528921E+02  0.16361002142E+03  0.20582560129E+03  0.12000000000E+03 0.  0.
<mgrwt>
<rscale>  0 0.27415878E+03</rscale>
<asrwt>0</asrwt>
<pdfrwt beam="1">  1        2 0.96715515E-01 0.27415878E+03</pdfrwt>
<pdfrwt beam="2">  1       -2 0.45985559E-02 0.27415878E+03</pdfrwt>
<totfact> 0.10572417E+04</totfact>
</mgrwt>
</event>
<event>
 4    1  0.1866622E-004  0.2668275E+03  0.7818608E-02  0.1103109E+00
          1   -1    0    0  501    0  0.00000000000E+00  0.00000000000E+00  0.13375951340E+02  0.13375951340E+02  0.00000000000E+00 0.  1.
         -1   -1    0    0    0  501 -0.00000000000E+00 -0.00000000000E+00 -0.13306884194E+04  0.13306884194E+04  0.00000000000E+00 0.  1.
         25    1    1    2    0    0 -0.36309702715E+02 -0.21474892358E+02 -0.45593408149E+03  0.47334496108E+03  0.12000000000E+03 0.  0.
         25    1    1    2    0    0  0.36309702715E+02  0.21474892358E+02 -0.86137838660E+03  0.87071940969E+03  0.12000000000E+03 0.  0.
<mgrwt>
<rscale>  0 0.26682746E+03</rscale>
<asrwt>0</asrwt>
<pdfrwt beam="1">  1        1 0.20578375E-02 0.26682746E+03</pdfrwt>
<pdfrwt beam="2">  1       -1 0.20472141E+00 0.26682746E+03</pdfrwt>
<totfact> 0.90186138E+02</totfact>
</mgrwt>
</event>
<event>
 4    1  0.1866622E-004  0.2792908E+03  0.7818608E-02  0.1096077E+00
         -1   -1    0    0    0  501 -0.00000000000E+00  0.00000000000E+00  0.16725981596E+03  0.16725981596E+03  0.00000000000E+00 0. -1.
          1   -1    0    0  501    0  0.00000000000E+00 -0.00000000000E+00 -0.11659007065E+03  0.11659007065E+03  0.00000000000E+00 0. -1.
         25    1    1    2    0    0  0.41637739656E+02  0.51379492631E+02 -0.20734842933E+01  0.13703230628E+03  0.12000000000E+03 0.  0.
         25    1    1    2    0    0 -0.41637739656E+02 -0.51379492631E+02  0.52743229605E+02  0.14681758034E+03  0.12000000000E+03 0.  0.
<mgrwt>
<rscale>  0 0.27929077E+03</rscale>
<asrwt>0</asrwt>
<pdfrwt beam="1">  1        1 0.17936934E-01 0.27929077E+03</pdfrwt>
<pdfrwt beam="2">  1       -1 0.25732280E-01 0.27929077E+03</pdfrwt>
<totfact> 0.38853286E+03</totfact>
</mgrwt>
</event>
<event>
 4    1  0.1866622E-004  0.2999268E+03  0.7818608E-02  0.1085277E+00
         -2   -1    0    0    0  501 -0.00000000000E+00  0.00000000000E+00  0.19485335366E+02  0.19485335366E+02  0.00000000000E+00 0.  1.
          2   -1    0    0  501    0  0.00000000000E+00 -0.00000000000E+00 -0.11541510410E+04  0.11541510410E+04  0.00000000000E+00 0.  1.
         25    1    1    2    0    0  0.74969851186E+02 -0.41867399726E+02 -0.67201494274E+03  0.68802430263E+03  0.12000000000E+03 0.  0.
         25    1    1    2    0    0 -0.74969851186E+02  0.41867399726E+02 -0.46265076285E+03  0.48561207369E+03  0.12000000000E+03 0.  0.
<mgrwt>
<rscale>  0 0.29992679E+03</rscale>
<asrwt>0</asrwt>
<pdfrwt beam="1">  1        2 0.17756168E+00 0.29992679E+03</pdfrwt>
<pdfrwt beam="2">  1       -2 0.29977443E-02 0.29992679E+03</pdfrwt>
<totfact> 0.90155557E+03</totfact>
</mgrwt>
</event>
<event>
 4    1  0.1866622E-004  0.2518852E+03  0.7818608E-02  0.1112119E+00
          2   -1    0    0  501    0  0.00000000000E+00  0.00000000000E+00  0.31568090661E+03  0.31568090661E+03  0.00000000000E+00 0. -1.
         -2   -1    0    0    0  501 -0.00000000000E+00 -0.00000000000E+00 -0.50245463590E+02  0.50245463590E+02  0.00000000000E+00 0. -1.
         25    1    1    2    0    0 -0.37797444007E+02  0.53626799887E+01  0.12976595891E+03  0.18082203738E+03  0.12000000000E+03 0.  0.
         25    1    1    2    0    0  0.37797444007E+02 -0.53626799887E+01  0.13566948411E+03  0.18510433282E+03  0.12000000000E+03 0.  0.
<mgrwt>
<rscale>  0 0.25188516E+03</rscale>
<asrwt>0</asrwt>
<pdfrwt beam="1">  1        2 0.48566292E-01 0.25188516E+03</pdfrwt>
<pdfrwt beam="2">  1       -2 0.77300715E-02 0.25188516E+03</pdfrwt>
<totfact> 0.10185842E+04</totfact>
</mgrwt>
</event>
<event>
 4    1  0.1866622E-004  0.3180866E+03  0.7818608E-02  0.1076533E+00
         -2   -1    0    0    0  501 -0.00000000000E+00  0.00000000000E+00  0.17435874438E+02  0.17435874438E+02  0.00000000000E+00 0. -1.
          2   -1    0    0  501    0  0.00000000000E+00 -0.00000000000E+00 -0.14507316380E+04  0.14507316380E+04  0.00000000000E+00 0. -1.
         25    1    1    2    0    0 -0.90798032692E+02 -0.31808338672E+02 -0.52980231980E+03  0.55167612892E+03  0.12000000000E+03 0.  0.
         25    1    1    2    0    0  0.90798032692E+02  0.31808338672E+02 -0.90349344379E+03  0.91649138355E+03  0.12000000000E+03 0.  0.
<mgrwt>
<rscale>  0 0.31808662E+03</rscale>
<asrwt>0</asrwt>
<pdfrwt beam="1">  1        2 0.22318950E+00 0.31808662E+03</pdfrwt>
<pdfrwt beam="2">  1       -2 0.26824420E-02 0.31808662E+03</pdfrwt>
<totfact> 0.72774404E+03</totfact>
</mgrwt>
</event>
<event>
 4    1  0.1866622E-004  0.3433062E+03  0.7818608E-02  0.1065396E+00
         -4   -1    0    0    0  501 -0.00000000000E+00  0.00000000000E+00  0.38823549285E+02  0.38823549285E+02  0.00000000000E+00 0.  1.
          4   -1    0    0  501    0  0.00000000000E+00 -0.00000000000E+00 -0.75894111368E+03  0.75894111368E+03  0.00000000000E+00 0.  1.
         25    1    1    2    0    0  0.11866785366E+03 -0.22382557984E+02 -0.30905484482E+03  0.35284264978E+03  0.12000000000E+03 0.  0.
         25    1    1    2    0    0 -0.11866785366E+03  0.22382557984E+02 -0.41106271957E+03  0.44492201318E+03  0.12000000000E+03 0.  0.
<mgrwt>
<rscale>  0 0.34330621E+03</rscale>
<asrwt>0</asrwt>
<pdfrwt beam="1">  1        4 0.11676018E+00 0.34330621E+03</pdfrwt>
<pdfrwt beam="2">  1       -4 0.59728531E-02 0.34330621E+03</pdfrwt>
<totfact> 0.20216674E+02</totfact>
</mgrwt>
</event>
<event>
 4    1  0.1866622E-004  0.2600353E+03  0.7818608E-02  0.1107122E+00
          2   -1    0    0  501    0  0.00000000000E+00  0.00000000000E+00  0.92741735116E+03  0.92741735116E+03  0.00000000000E+00 0. -1.
         -2   -1    0    0    0  501 -0.00000000000E+00 -0.00000000000E+00 -0.18227599055E+02  0.18227599055E+02  0.00000000000E+00 0. -1.
         25    1    1    2    0    0  0.45195520969E+02 -0.94808580248E+01  0.52474169950E+03  0.54026509509E+03  0.12000000000E+03 0.  0.
         25    1    1    2    0    0 -0.45195520969E+02  0.94808580248E+01  0.38444805261E+03  0.40537985513E+03  0.12000000000E+03 0.  0.
<mgrwt>
<rscale>  0 0.26003532E+03</rscale>
<asrwt>0</asrwt>
<pdfrwt beam="1">  1        2 0.14267956E+00 0.26003532E+03</pdfrwt>
<pdfrwt beam="2">  1       -2 0.28042467E-02 0.26003532E+03</pdfrwt>
<totfact> 0.13586057E+04</totfact>
</mgrwt>
</event>
<event>
 4    1  0.1866622E-004  0.2583609E+03  0.7818608E-02  0.1108132E+00
         -1   -1    0    0    0  501 -0.00000000000E+00  0.00000000000E+00  0.28338534936E+03  0.28338534936E+03  0.00000000000E+00 0. -1.
          1   -1    0    0  501    0  0.00000000000E+00 -0.00000000000E+00 -0.58886541625E+02  0.58886541625E+02  0.00000000000E+00 0. -1.
         25    1    1    2    0    0  0.39959234682E+02 -0.15231335267E+02  0.83871553941E+02  0.15252269199E+03  0.12000000000E+03 0.  0.
         25    1    1    2    0    0 -0.39959234682E+02  0.15231335267E+02  0.14062725379E+03  0.18974919899E+03  0.12000000000E+03 0.  0.
<mgrwt>
<rscale>  0 0.25836086E+03</rscale>
<asrwt>0</asrwt>
<pdfrwt beam="1">  1        1 0.90594681E-02 0.25836086E+03</pdfrwt>
<pdfrwt beam="2">  1       -1 0.43597745E-01 0.25836086E+03</pdfrwt>
<totfact> 0.38490379E+03</totfact>
</mgrwt>
</event>
<event>
 4    1  0.1866622E-004  0.3356977E+03  0.7818608E-02  0.1068643E+00
         -1   -1    0    0    0  501 -0.00000000000E+00  0.00000000000E+00  0.23938267243E+03  0.23938267243E+03  0.00000000000E+00 0. -1.
          1   -1    0    0  501    0  0.00000000000E+00 -0.00000000000E+00 -0.11769118146E+03  0.11769118146E+03  0.00000000000E+00 0. -1.
         25    1    1    2    0    0  0.19677869754E+02 -0.27466225332E+02 -0.58701402761E+02  0.13779501725E+03  0.12000000000E+03 0.  0.
         25    1    1    2    0    0 -0.19677869754E+02  0.27466225332E+02  0.18039289373E+03  0.21927883665E+03  0.12000000000E+03 0.  0.
<mgrwt>
<rscale>  0 0.33569766E+03</rscale>
<asrwt>0</asrwt>
<pdfrwt beam="1">  1        1 0.18106336E-01 0.33569766E+03</pdfrwt>
<pdfrwt beam="2">  1       -1 0.36828103E-01 0.33569766E+03</pdfrwt>
<totfact> 0.20848775E+03</totfact>
</mgrwt>
</event>
<event>
 4    1  0.1866622E-004  0.2991811E+03  0.7818608E-02  0.1085651E+00
          3   -1    0    0  501    0  0.00000000000E+00  0.00000000000E+00  0.35105463004E+03  0.35105463004E+03  0.00000000000E+00 0. -1.
         -3   -1    0    0    0  501 -0.00000000000E+00 -0.00000000000E+00 -0.63743146608E+02  0.63743146608E+02  0.00000000000E+00 0. -1.
         25    1    1    2    0    0 -0.63096395467E+02  0.48488033054E+02  0.19988937373E+03  0.24634935803E+03  0.12000000000E+03 0.  0.
         25    1    1    2    0    0  0.63096395467E+02 -0.48488033054E+02  0.87422109698E+02  0.16844841862E+03  0.12000000000E+03 0.  0.
<mgrwt>
<rscale>  0 0.29918106E+03</rscale>
<asrwt>0</asrwt>
<pdfrwt beam="1">  1        3 0.54008403E-01 0.29918106E+03</pdfrwt>
<pdfrwt beam="2">  1       -3 0.98066382E-02 0.29918106E+03</pdfrwt>
<totfact> 0.66745502E+02</totfact>
</mgrwt>
</event>
<event>
 4    1  0.1866622E-004  0.2814609E+03  0.7818608E-02  0.1094894E+00
         -2   -1    0    0    0  501 -0.00000000000E+00  0.00000000000E+00  0.15477015397E+03  0.15477015397E+03  0.00000000000E+00 0.  1.
          2   -1    0    0  501    0  0.00000000000E+00 -0.00000000000E+00 -0.12796430854E+03  0.12796430854E+03  0.00000000000E+00 0.  1.
         25    1    1    2    0    0  0.35981734543E+02 -0.39508381161E+02 -0.37317711697E+02  0.13655844540E+03  0.12000000000E+03 0.  0.
         25    1    1    2    0    0 -0.35981734543E+02  0.39508381161E+02  0.64123557128E+02  0.14617601712E+03  0.12000000000E+03 0.  0.
<mgrwt>
<rscale>  0 0.28146087E+03</rscale>
<asrwt>0</asrwt>
<pdfrwt beam="1">  1        2 0.19686817E-01 0.28146087E+03</pdfrwt>
<pdfrwt beam="2">  1       -2 0.23810793E-01 0.28146087E+03</pdfrwt>
<totfact> 0.43611684E+03</totfact>
</mgrwt>
</event>
<event>
 4    1  0.1866622E-004  0.2803080E+03  0.7818608E-02  0.1095521E+00
         -1   -1    0    0    0  501 -0.00000000000E+00  0.00000000000E+00  0.45826262191E+03  0.45826262191E+03  0.00000000000E+00 0.  1.
          1   -1    0    0  501    0  0.00000000000E+00 -0.00000000000E+00 -0.42864393550E+02  0.42864393550E+02  0.00000000000E+00 0.  1.
         25    1    1    2    0    0  0.70254379537E+02  0.19811998499E+01  0.17655149988E+03  0.22474437725E+03  0.12000000000E+03 0.  0.
         25    1    1    2    0    0 -0.70254379537E+02 -0.19811998499E+01  0.23884672849E+03  0.27638263821E+03  0.12000000000E+03 0.  0.
<mgrwt>
<rscale>  0 0.28030804E+03</rscale>
<asrwt>0</asrwt>
<pdfrwt beam="1">  1        1 0.65945224E-02 0.28030804E+03</pdfrwt>
<pdfrwt beam="2">  1       -1 0.70501938E-01 0.28030804E+03</pdfrwt>
<totfact> 0.23926531E+03</totfact>
</mgrwt>
</event>
<event>
 4    1  0.1866622E-004  0.2595552E+03  0.7818608E-02  0.1107411E+00
          2   -1    0    0  501    0  0.00000000000E+00  0.00000000000E+00  0.21846865714E+03  0.21846865714E+03  0.00000000000E+00 0.  1.
         -2   -1    0    0    0  501 -0.00000000000E+00 -0.00000000000E+00 -0.77092188904E+02  0.77092188904E+02  0.00000000000E+00 0.  1.
         25    1    1    2    0    0  0.35370526455E+02  0.30308430584E+02  0.89487536695E+02  0.15677274741E+03  0.12000000000E+03 0.  0.
         25    1    1    2    0    0 -0.35370526455E+02 -0.30308430584E+02  0.51888931538E+02  0.13878809863E+03  0.12000000000E+03 0.  0.
<mgrwt>
<rscale>  0 0.25955521E+03</rscale>
<asrwt>0</asrwt>
<pdfrwt beam="1">  1        2 0.33610562E-01 0.25955521E+03</pdfrwt>
<pdfrwt beam="2">  1       -2 0.11860337E-01 0.25955521E+03</pdfrwt>
<totfact> 0.77029730E+03</totfact>
</mgrwt>
</event>
<event>
 4    1  0.1866622E-004  0.2730764E+03  0.7818608E-02  0.1099532E+00
          4   -1    0    0  501    0  0.00000000000E+00  0.00000000000E+00  0.14185496888E+03  0.14185496888E+03  0.00000000000E+00 0. -1.
         -4   -1    0    0    0  501 -0.00000000000E+00 -0.00000000000E+00 -0.13142067960E+03  0.13142067960E+03  0.00000000000E+00 0. -1.
         25    1    1    2    0    0  0.60582219642E+02  0.38886347658E+01 -0.18408336048E+02  0.13573574936E+03  0.12000000000E+03 0.  0.
         25    1    1    2    0    0 -0.60582219642E+02 -0.38886347658E+01  0.28842625327E+02  0.13753989913E+03  0.12000000000E+03 0.  0.
<mgrwt>
<rscale>  0 0.27307637E+03</rscale>
<asrwt>0</asrwt>
<pdfrwt beam="1">  1        4 0.21823841E-01 0.27307637E+03</pdfrwt>
<pdfrwt beam="2">  1       -4 0.20218566E-01 0.27307637E+03</pdfrwt>
<totfact> 0.79782185E+02</totfact>
</mgrwt>
</event>
<event>
 4    1  0.1866622E-004  0.2517527E+03  0.7818608E-02  0.1112202E+00
          1   -1    0    0  501    0  0.00000000000E+00  0.00000000000E+00  0.11082058256E+03  0.11082058256E+03  0.00000000000E+00 0. -1.
         -1   -1    0    0    0  501 -0.00000000000E+00 -0.00000000000E+00 -0.14297750064E+03  0.14297750064E+03  0.00000000000E+00 0. -1.
         25    1    1    2    0    0  0.19717494058E+02  0.31982254225E+02 -0.21887721074E+02  0.12763509114E+03  0.12000000000E+03 0.  0.
         25    1    1    2    0    0 -0.19717494058E+02 -0.31982254225E+02 -0.10269197015E+02  0.12616299206E+03  0.12000000000E+03 0.  0.
<mgrwt>
<rscale>  0 0.25175266E+03</rscale>
<asrwt>0</asrwt>
<pdfrwt beam="1">  1        1 0.17049320E-01 0.25175266E+03</pdfrwt>
<pdfrwt beam="2">  1       -1 0.21996538E-01 0.25175266E+03</pdfrwt>
<totfact> 0.53603200E+03</totfact>
</mgrwt>
</event>
<event>
 4    1  0.1866622E-004  0.3229954E+03  0.7818608E-02  0.1074279E+00
          2   -1    0    0  501    0  0.00000000000E+00  0.00000000000E+00  0.95649633901E+03  0.95649633901E+03  0.00000000000E+00 0. -1.
         -2   -1    0    0    0  501 -0.00000000000E+00 -0.00000000000E+00 -0.27267746335E+02  0.27267746335E+02  0.00000000000E+00 0. -1.
         25    1    1    2    0    0 -0.19651164690E+02  0.70765291789E+02  0.70612551301E+03  0.72000495479E+03  0.12000000000E+03 0.  0.
         25    1    1    2    0    0  0.19651164690E+02 -0.70765291789E+02  0.22310307966E+03  0.26375913055E+03  0.12000000000E+03 0.  0.
<mgrwt>
<rscale>  0 0.32299535E+03</rscale>
<asrwt>0</asrwt>
<pdfrwt beam="1">  1        2 0.14715326E+00 0.32299535E+03</pdfrwt>
<pdfrwt beam="2">  1       -2 0.41950386E-02 0.32299535E+03</pdfrwt>
<totfact> 0.71678073E+03</totfact>
</mgrwt>
</event>
<event>
 4    1  0.1866622E-004  0.2557154E+03  0.7818608E-02  0.1109745E+00
          2   -1    0    0  501    0  0.00000000000E+00  0.00000000000E+00  0.42744623754E+02  0.42744623754E+02  0.00000000000E+00 0.  1.
         -2   -1    0    0    0  501 -0.00000000000E+00 -0.00000000000E+00 -0.38244787933E+03  0.38244787933E+03  0.00000000000E+00 0.  1.
         25    1    1    2    0    0  0.77130527163E+00  0.38616899195E+01 -0.24293887942E+03  0.27098857300E+03  0.12000000000E+03 0.  0.
         25    1    1    2    0    0 -0.77130527163E+00 -0.38616899195E+01 -0.96764376151E+02  0.15420393008E+03  0.12000000000E+03 0.  0.
<mgrwt>
<rscale>  0 0.25571539E+03</rscale>
<asrwt>0</asrwt>
<pdfrwt beam="1">  1        2 0.65760959E-02 0.25571539E+03</pdfrwt>
<pdfrwt beam="2">  1       -2 0.58838136E-01 0.25571539E+03</pdfrwt>
<totfact> 0.29971277E+03</totfact>
</mgrwt>
</event>
<event>
 4    1  0.1866622E-004  0.2832675E+03  0.7818608E-02  0.1093918E+00
         -3   -1    0    0    0  501 -0.00000000000E+00  0.00000000000E+00  0.68718425624E+02  0.68718425624E+02  0.00000000000E+00 0.  1.
          3   -1    0    0  501    0  0.00000000000E+00 -0.00000000000E+00 -0.29191765417E+03  0.29191765417E+03  0.00000000000E+00 0.  1.
         25    1    1    2    0    0  0.74336340276E+02  0.48209684189E+01 -0.98187070217E+02  0.17201695841E+03  0.12000000000E+03 0.  0.
         25    1    1    2    0    0 -0.74336340276E+02 -0.48209684189E+01 -0.12501215833E+03  0.18861912139E+03  0.12000000000E+03 0.  0.
<mgrwt>
<rscale>  0 0.28326752E+03</rscale>
<asrwt>0</asrwt>
<pdfrwt beam="1">  1        3 0.44910408E-01 0.28326752E+03</pdfrwt>
<pdfrwt beam="2">  1       -3 0.10572065E-01 0.28326752E+03</pdfrwt>
<totfact> 0.84880918E+02</totfact>
</mgrwt>
</event>
<event>
 4    1  0.1866622E-004  0.2450361E+03  0.7818608E-02  0.1116483E+00
          1   -1    0    0  501    0  0.00000000000E+00  0.00000000000E+00  0.57666273275E+02  0.57666273275E+02  0.00000000000E+00 0. -1.
         -1   -1    0    0    0  501 -0.00000000000E+00 -0.00000000000E+00 -0.26030250769E+03  0.26030250769E+03  0.00000000000E+00 0. -1.
         25    1    1    2    0    0 -0.25947724296E+01  0.23908763990E+02 -0.93941661581E+02  0.15428349756E+03  0.12000000000E+03 0.  0.
         25    1    1    2    0    0  0.25947724296E+01 -0.23908763990E+02 -0.10869457284E+03  0.16368528341E+03  0.12000000000E+03 0.  0.
<mgrwt>
<rscale>  0 0.24503612E+03</rscale>
<asrwt>0</asrwt>
<pdfrwt beam="1">  1        1 0.88717344E-02 0.24503612E+03</pdfrwt>
<pdfrwt beam="2">  1       -1 0.40046540E-01 0.24503612E+03</pdfrwt>
<totfact> 0.45995766E+03</totfact>
</mgrwt>
</event>
<event>
 4    1  0.1866622E-004  0.2908126E+03  0.7818608E-02  0.1089926E+00
          2   -1    0    0  501    0  0.00000000000E+00  0.00000000000E+00  0.28701851195E+03  0.28701851195E+03  0.00000000000E+00 0.  1.
         -2   -1    0    0    0  501 -0.00000000000E+00 -0.00000000000E+00 -0.73664217557E+02  0.73664217557E+02  0.00000000000E+00 0.  1.
         25    1    1    2    0    0 -0.25416903791E+02  0.30070729541E+02  0.17303429225E+02  0.12747421871E+03  0.12000000000E+03 0.  0.
         25    1    1    2    0    0  0.25416903791E+02 -0.30070729541E+02  0.19605086516E+03  0.23320851079E+03  0.12000000000E+03 0.  0.
<mgrwt>
<rscale>  0 0.29081261E+03</rscale>
<asrwt>0</asrwt>
<pdfrwt beam="1">  1        2 0.44156694E-01 0.29081261E+03</pdfrwt>
<pdfrwt beam="2">  1       -2 0.11332957E-01 0.29081261E+03</pdfrwt>
<totfact> 0.61969663E+03</totfact>
</mgrwt>
</event>
<event>
 4    1  0.1866622E-004  0.3869937E+03  0.7818608E-02  0.1048379E+00
          1   -1    0    0  501    0  0.00000000000E+00  0.00000000000E+00  0.76607032181E+03  0.76607032181E+03  0.00000000000E+00 0.  1.
         -1   -1    0    0    0  501 -0.00000000000E+00 -0.00000000000E+00 -0.48874139402E+02  0.48874139402E+02  0.00000000000E+00 0.  1.
         25    1    1    2    0    0 -0.14244132008E+02  0.14620540021E+03  0.43912011060E+03  0.47833605956E+03  0.12000000000E+03 0.  0.
         25    1    1    2    0    0  0.14244132008E+02 -0.14620540021E+03  0.27807607181E+03  0.33660840165E+03  0.12000000000E+03 0.  0.
<mgrwt>
<rscale>  0 0.38699368E+03</rscale>
<asrwt>0</asrwt>
<pdfrwt beam="1">  1        1 0.11785696E+00 0.38699368E+03</pdfrwt>
<pdfrwt beam="2">  1       -1 0.75190989E-02 0.38699368E+03</pdfrwt>
<totfact> 0.23394444E+03</totfact>
</mgrwt>
</event>
<event>
 4    1  0.1866622E-004  0.2544139E+03  0.7818608E-02  0.1110547E+00
          2   -1    0    0  501    0  0.00000000000E+00  0.00000000000E+00  0.29389722129E+03  0.29389722129E+03  0.00000000000E+00 0.  1.
         -2   -1    0    0    0  501 -0.00000000000E+00 -0.00000000000E+00 -0.55058717379E+02  0.55058717379E+02  0.00000000000E+00 0.  1.
         25    1    1    2    0    0  0.17346580909E+02 -0.10384230304E+02  0.17024036756E+03  0.20926184280E+03  0.12000000000E+03 0.  0.
         25    1    1    2    0    0 -0.17346580909E+02  0.10384230304E+02  0.68598136357E+02  0.13969409587E+03  0.12000000000E+03 0.  0.
<mgrwt>
<rscale>  0 0.25441387E+03</rscale>
<asrwt>0</asrwt>
<pdfrwt beam="1">  1        2 0.45214956E-01 0.25441387E+03</pdfrwt>
<pdfrwt beam="2">  1       -2 0.84705721E-02 0.25441387E+03</pdfrwt>
<totfact> 0.95389214E+03</totfact>
</mgrwt>
</event>
<event>
 4    1  0.1866622E-004  0.2515780E+03  0.7818608E-02  0.1112312E+00
          1   -1    0    0  501    0  0.00000000000E+00  0.00000000000E+00  0.57556810135E+02  0.57556810135E+02  0.00000000000E+00 0. -1.
         -1   -1    0    0    0  501 -0.00000000000E+00 -0.00000000000E+00 -0.27490884556E+03  0.27490884556E+03  0.00000000000E+00 0. -1.
         25    1    1    2    0    0 -0.32741404523E+02 -0.18576920214E+02 -0.11185171091E+03  0.16830896224E+03  0.12000000000E+03 0.  0.
         25    1    1    2    0    0  0.32741404523E+02  0.18576920214E+02 -0.10550032451E+03  0.16415669345E+03  0.12000000000E+03 0.  0.
<mgrwt>
<rscale>  0 0.25157803E+03</rscale>
<asrwt>0</asrwt>
<pdfrwt beam="1">  1        1 0.88548940E-02 0.25157803E+03</pdfrwt>
<pdfrwt beam="2">  1       -1 0.42293668E-01 0.25157803E+03</pdfrwt>
<totfact> 0.41881533E+03</totfact>
</mgrwt>
</event>
<event>
 4    1  0.1866622E-004  0.2777104E+03  0.7818608E-02  0.1096946E+00
          1   -1    0    0  501    0  0.00000000000E+00  0.00000000000E+00  0.68414695687E+03  0.68414695687E+03  0.00000000000E+00 0.  1.
         -1   -1    0    0    0  501 -0.00000000000E+00 -0.00000000000E+00 -0.28182207718E+02  0.28182207718E+02  0.00000000000E+00 0.  1.
         25    1    1    2    0    0  0.40080561372E+02  0.49850654844E+02  0.25592291611E+03  0.28980696710E+03  0.12000000000E+03 0.  0.
         25    1    1    2    0    0 -0.40080561372E+02 -0.49850654844E+02  0.40004183304E+03  0.42252219749E+03  0.12000000000E+03 0.  0.
<mgrwt>
<rscale>  0 0.27771044E+03</rscale>
<asrwt>0</asrwt>
<pdfrwt beam="1">  1        1 0.10525337E+00 0.27771044E+03</pdfrwt>
<pdfrwt beam="2">  1       -1 0.43357248E-02 0.27771044E+03</pdfrwt>
<totfact> 0.63394905E+03</totfact>
</mgrwt>
</event>
<event>
 4    1  0.1866622E-004  0.3025830E+03  0.7818608E-02  0.1083956E+00
          2   -1    0    0  501    0  0.00000000000E+00  0.00000000000E+00  0.31564755085E+03  0.31564755085E+03  0.00000000000E+00 0. -1.
         -2   -1    0    0    0  501 -0.00000000000E+00 -0.00000000000E+00 -0.72514819849E+02  0.72514819849E+02  0.00000000000E+00 0. -1.
         25    1    1    2    0    0 -0.40002589426E+02  0.48885976527E+02  0.35520369139E+02  0.14018467279E+03  0.12000000000E+03 0.  0.
         25    1    1    2    0    0  0.40002589426E+02 -0.48885976527E+02  0.20761236186E+03  0.24797769791E+03  0.12000000000E+03 0.  0.
<mgrwt>
<rscale>  0 0.30258305E+03</rscale>
<asrwt>0</asrwt>
<pdfrwt beam="1">  1        2 0.48561161E-01 0.30258305E+03</pdfrwt>
<pdfrwt beam="2">  1       -2 0.11156126E-01 0.30258305E+03</pdfrwt>
<totfact> 0.57434388E+03</totfact>
</mgrwt>
</event>
<event>
 4    1  0.1866622E-004  0.3934101E+03  0.7818608E-02  0.1046086E+00
          2   -1    0    0  501    0  0.00000000000E+00  0.00000000000E+00  0.10716080819E+04  0.10716080819E+04  0.00000000000E+00 0.  1.
         -2   -1    0    0    0  501 -0.00000000000E+00 -0.00000000000E+00 -0.36107297936E+02  0.36107297936E+02  0.00000000000E+00 0.  1.
         25    1    1    2    0    0  0.66675478362E+02 -0.14087449301E+03  0.51415547877E+03  0.55049713764E+03  0.12000000000E+03 0.  0.
         25    1    1    2    0    0 -0.66675478362E+02  0.14087449301E+03  0.52134530522E+03  0.55721824223E+03  0.12000000000E+03 0.  0.
<mgrwt>
<rscale>  0 0.39341008E+03</rscale>
<asrwt>0</asrwt>
<pdfrwt beam="1">  1        2 0.16486276E+00 0.39341008E+03</pdfrwt>
<pdfrwt beam="2">  1       -2 0.55549697E-02 0.39341008E+03</pdfrwt>
<totfact> 0.39741466E+03</totfact>
</mgrwt>
</event>
<event>
 4    1  0.1866622E-004  0.2628602E+03  0.7818608E-02  0.1105437E+00
         -2   -1    0    0    0  501 -0.00000000000E+00  0.00000000000E+00  0.79987830315E+02  0.79987830315E+02  0.00000000000E+00 0. -1.
          2   -1    0    0  501    0  0.00000000000E+00 -0.00000000000E+00 -0.21595627202E+03  0.21595627202E+03  0.00000000000E+00 0. -1.
         25    1    1    2    0    0  0.46418418574E+02  0.84647145091E+01 -0.39334369494E+02  0.13480917476E+03  0.12000000000E+03 0.  0.
         25    1    1    2    0    0 -0.46418418574E+02 -0.84647145091E+01 -0.96634072212E+02  0.16113492758E+03  0.12000000000E+03 0.  0.
<mgrwt>
<rscale>  0 0.26286022E+03</rscale>
<asrwt>0</asrwt>
<pdfrwt beam="1">  1        2 0.33224042E-01 0.26286022E+03</pdfrwt>
<pdfrwt beam="2">  1       -2 0.12305820E-01 0.26286022E+03</pdfrwt>
<totfact> 0.73535688E+03</totfact>
</mgrwt>
</event>
<event>
 4    1  0.1866622E-004  0.3356188E+03  0.7818608E-02  0.1068677E+00
          1   -1    0    0  501    0  0.00000000000E+00  0.00000000000E+00  0.24041254031E+02  0.24041254031E+02  0.00000000000E+00 0.  1.
         -1   -1    0    0    0  501 -0.00000000000E+00 -0.00000000000E+00 -0.11713198638E+04  0.11713198638E+04  0.00000000000E+00 0.  1.
         25    1    1    2    0    0  0.11515820375E+03 -0.20753470977E+02 -0.54429501738E+03  0.56951662346E+03  0.12000000000E+03 0.  0.
         25    1    1    2    0    0 -0.11515820375E+03  0.20753470977E+02 -0.60298359237E+03  0.62584449436E+03  0.12000000000E+03 0.  0.
<mgrwt>
<rscale>  0 0.33561882E+03</rscale>
<asrwt>0</asrwt>
<pdfrwt beam="1">  1        1 0.36986541E-02 0.33561882E+03</pdfrwt>
<pdfrwt beam="2">  1       -1 0.18020307E+00 0.33561882E+03</pdfrwt>
<totfact> 0.57907024E+02</totfact>
</mgrwt>
</event>
<event>
 4    1  0.1866622E-004  0.3264297E+03  0.7818608E-02  0.1072728E+00
          1   -1    0    0  501    0  0.00000000000E+00  0.00000000000E+00  0.61741421532E+03  0.61741421532E+03  0.00000000000E+00 0.  1.
         -1   -1    0    0    0  501 -0.00000000000E+00 -0.00000000000E+00 -0.43146226614E+02  0.43146226614E+02  0.00000000000E+00 0.  1.
         25    1    1    2    0    0  0.66320925990E+02 -0.49938120735E+02  0.43510285250E+03  0.45891913599E+03  0.12000000000E+03 0.  0.
         25    1    1    2    0    0 -0.66320925990E+02  0.49938120735E+02  0.13916513621E+03  0.20164130594E+03  0.12000000000E+03 0.  0.
<mgrwt>
<rscale>  0 0.32642974E+03</rscale>
<asrwt>0</asrwt>
<pdfrwt beam="1">  1        1 0.94986796E-01 0.32642974E+03</pdfrwt>
<pdfrwt beam="2">  1       -1 0.66378814E-02 0.32642974E+03</pdfrwt>
<totfact> 0.38780106E+03</totfact>
</mgrwt>
</event>
<event>
 4    1  0.1866622E-004  0.4502411E+03  0.7818608E-02  0.1027650E+00
          2   -1    0    0  501    0  0.00000000000E+00  0.00000000000E+00  0.13124589487E+03  0.13124589487E+03  0.00000000000E+00 0. -1.
         -2   -1    0    0    0  501 -0.00000000000E+00 -0.00000000000E+00 -0.38613987269E+03  0.38613987269E+03  0.00000000000E+00 0. -1.
         25    1    1    2    0    0  0.18630190338E+03  0.37492795285E+02 -0.11267879808E+03  0.25141722383E+03  0.12000000000E+03 0.  0.
         25    1    1    2    0    0 -0.18630190338E+03 -0.37492795285E+02 -0.14221517974E+03  0.26596854373E+03  0.12000000000E+03 0.  0.
<mgrwt>
<rscale>  0 0.45024115E+03</rscale>
<asrwt>0</asrwt>
<pdfrwt beam="1">  1        2 0.20191676E-01 0.45024115E+03</pdfrwt>
<pdfrwt beam="2">  1       -2 0.59406134E-01 0.45024115E+03</pdfrwt>
<totfact> 0.74649140E+02</totfact>
</mgrwt>
</event>
<event>
 4    1  0.1866622E-004  0.4482323E+03  0.7818608E-02  0.1028251E+00
         -1   -1    0    0    0  501 -0.00000000000E+00  0.00000000000E+00  0.84030837868E+03  0.84030837868E+03  0.00000000000E+00 0.  1.
          1   -1    0    0  501    0  0.00000000000E+00 -0.00000000000E+00 -0.59773342752E+02  0.59773342752E+02  0.00000000000E+00 0.  1.
         25    1    1    2    0    0 -0.67142944293E+02  0.16910649731E+03  0.28548439187E+03  0.35917477696E+03  0.12000000000E+03 0.  0.
         25    1    1    2    0    0  0.67142944293E+02 -0.16910649731E+03  0.49505064405E+03  0.54090694447E+03  0.12000000000E+03 0.  0.
<mgrwt>
<rscale>  0 0.44823226E+03</rscale>
<asrwt>0</asrwt>
<pdfrwt beam="1">  1        1 0.91958995E-02 0.44823226E+03</pdfrwt>
<pdfrwt beam="2">  1       -1 0.12927820E+00 0.44823226E+03</pdfrwt>
<totfact> 0.39559904E+02</totfact>
</mgrwt>
</event>
<event>
 4    1  0.1866622E-004  0.2418424E+03  0.7818608E-02  0.1118572E+00
          3   -1    0    0  501    0  0.00000000000E+00  0.00000000000E+00  0.11645158114E+03  0.11645158114E+03  0.00000000000E+00 0.  1.
         -3   -1    0    0    0  501 -0.00000000000E+00 -0.00000000000E+00 -0.12556239704E+03  0.12556239704E+03  0.00000000000E+00 0.  1.
         25    1    1    2    0    0 -0.50924369200E+01  0.19150561723E+01 -0.18433890765E+02  0.12152945603E+03  0.12000000000E+03 0.  0.
         25    1    1    2    0    0  0.50924369200E+01 -0.19150561723E+01  0.93230748669E+01  0.12048452215E+03  0.12000000000E+03 0.  0.
<mgrwt>
<rscale>  0 0.24184243E+03</rscale>
<asrwt>0</asrwt>
<pdfrwt beam="1">  1        3 0.17915628E-01 0.24184243E+03</pdfrwt>
<pdfrwt beam="2">  1       -3 0.19317292E-01 0.24184243E+03</pdfrwt>
<totfact> 0.16308311E+03</totfact>
</mgrwt>
</event>
<event>
 4    1  0.1866622E-004  0.2687695E+03  0.7818608E-02  0.1101986E+00
          1   -1    0    0  501    0  0.00000000000E+00  0.00000000000E+00  0.57724133384E+03  0.57724133384E+03  0.00000000000E+00 0. -1.
         -1   -1    0    0    0  501 -0.00000000000E+00 -0.00000000000E+00 -0.31285455401E+02  0.31285455401E+02  0.00000000000E+00 0. -1.
         25    1    1    2    0    0 -0.33563275142E+01  0.51389152264E+02  0.34483119045E+03  0.36872843640E+03  0.12000000000E+03 0.  0.
         25    1    1    2    0    0  0.33563275142E+01 -0.51389152264E+02  0.20112468798E+03  0.23979835283E+03  0.12000000000E+03 0.  0.
<mgrwt>
<rscale>  0 0.26876948E+03</rscale>
<asrwt>0</asrwt>
<pdfrwt beam="1">  1        1 0.88806351E-01 0.26876948E+03</pdfrwt>
<pdfrwt beam="2">  1       -1 0.48131474E-02 0.26876948E+03</pdfrwt>
<totfact> 0.68840188E+03</totfact>
</mgrwt>
</event>
<event>
 4    1  0.1866622E-004  0.2505774E+03  0.7818608E-02  0.1112940E+00
          1   -1    0    0  501    0  0.00000000000E+00  0.00000000000E+00  0.88270386377E+02  0.88270386377E+02  0.00000000000E+00 0. -1.
         -1   -1    0    0    0  501 -0.00000000000E+00 -0.00000000000E+00 -0.17783156070E+03  0.17783156070E+03  0.00000000000E+00 0. -1.
         25    1    1    2    0    0  0.14957007718E+02 -0.19153113413E+02 -0.73011553181E+02  0.14255258935E+03  0.12000000000E+03 0.  0.
         25    1    1    2    0    0 -0.14957007718E+02  0.19153113413E+02 -0.16549621137E+02  0.12354935772E+03  0.12000000000E+03 0.  0.
<mgrwt>
<rscale>  0 0.25057742E+03</rscale>
<asrwt>0</asrwt>
<pdfrwt beam="1">  1        1 0.13580060E-01 0.25057742E+03</pdfrwt>
<pdfrwt beam="2">  1       -1 0.27358701E-01 0.25057742E+03</pdfrwt>
<totfact> 0.50277976E+03</totfact>
</mgrwt>
</event>
<event>
 4    1  0.1866622E-004  0.3197783E+03  0.7818608E-02  0.1075751E+00
          2   -1    0    0  501    0  0.00000000000E+00  0.00000000000E+00  0.18429776248E+04  0.18429776248E+04  0.00000000000E+00 0. -1.
         -2   -1    0    0    0  501 -0.00000000000E+00 -0.00000000000E+00 -0.13871323648E+02  0.13871323648E+02  0.00000000000E+00 0. -1.
         25    1    1    2    0    0 -0.58269188934E+02 -0.69340890465E+02  0.12305281978E+04  0.12396786290E+04  0.12000000000E+03 0.  0.
         25    1    1    2    0    0  0.58269188934E+02  0.69340890465E+02  0.59857810334E+03  0.61717031950E+03  0.12000000000E+03 0.  0.
<mgrwt>
<rscale>  0 0.31977829E+03</rscale>
<asrwt>0</asrwt>
<pdfrwt beam="1">  1        2 0.28353483E+00 0.31977829E+03</pdfrwt>
<pdfrwt beam="2">  1       -2 0.21340512E-02 0.31977829E+03</pdfrwt>
<totfact> 0.63177536E+03</totfact>
</mgrwt>
</event>
<event>
 4    1  0.1866622E-004  0.3086468E+03  0.7818608E-02  0.1080996E+00
          1   -1    0    0  501    0  0.00000000000E+00  0.00000000000E+00  0.12118772058E+04  0.12118772058E+04  0.00000000000E+00 0.  1.
         -1   -1    0    0    0  501 -0.00000000000E+00 -0.00000000000E+00 -0.19651916124E+02  0.19651916124E+02  0.00000000000E+00 0.  1.
         25    1    1    2    0    0 -0.55394867689E+02  0.76175173042E+02  0.50300909109E+03  0.52563237541E+03  0.12000000000E+03 0.  0.
         25    1    1    2    0    0  0.55394867689E+02 -0.76175173042E+02  0.68921619860E+03  0.70589674654E+03  0.12000000000E+03 0.  0.
<mgrwt>
<rscale>  0 0.30864678E+03</rscale>
<asrwt>0</asrwt>
<pdfrwt beam="1">  1        1 0.18644259E+00 0.30864678E+03</pdfrwt>
<pdfrwt beam="2">  1       -1 0.30233727E-02 0.30864678E+03</pdfrwt>
<totfact> 0.41966057E+03</totfact>
</mgrwt>
</event>
<event>
 4    1  0.1866622E-004  0.2494371E+03  0.7818608E-02  0.1113661E+00
         -2   -1    0    0    0  501 -0.00000000000E+00  0.00000000000E+00  0.73117980436E+02  0.73117980436E+02  0.00000000000E+00 0.  1.
          2   -1    0    0  501    0  0.00000000000E+00 -0.00000000000E+00 -0.21273457682E+03  0.21273457682E+03  0.00000000000E+00 0.  1.
         25    1    1    2    0    0  0.14899853785E+02  0.30482349703E+02 -0.67651113401E+02  0.14187266273E+03  0.12000000000E+03 0.  0.
         25    1    1    2    0    0 -0.14899853785E+02 -0.30482349703E+02 -0.71965482982E+02  0.14397989452E+03  0.12000000000E+03 0.  0.
<mgrwt>
<rscale>  0 0.24943715E+03</rscale>
<asrwt>0</asrwt>
<pdfrwt beam="1">  1        2 0.32728396E-01 0.24943715E+03</pdfrwt>
<pdfrwt beam="2">  1       -2 0.11248920E-01 0.24943715E+03</pdfrwt>
<totfact> 0.86180541E+03</totfact>
</mgrwt>
</event>
<event>
 4    1  0.1866622E-004  0.3390203E+03  0.7818608E-02  0.1067214E+00
         -4   -1    0    0    0  501 -0.00000000000E+00  0.00000000000E+00  0.46950738375E+02  0.46950738375E+02  0.00000000000E+00 0. -1.
          4   -1    0    0  501    0  0.00000000000E+00 -0.00000000000E+00 -0.61199665976E+03  0.61199665976E+03  0.00000000000E+00 0. -1.
         25    1    1    2    0    0  0.24410650254E+02  0.93195479308E+02 -0.42068051702E+03  0.44794349489E+03  0.12000000000E+03 0.  0.
         25    1    1    2    0    0 -0.24410650254E+02 -0.93195479308E+02 -0.14436540436E+03  0.21100390325E+03  0.12000000000E+03 0.  0.
<mgrwt>
<rscale>  0 0.33902032E+03</rscale>
<asrwt>0</asrwt>
<pdfrwt beam="1">  1        4 0.94153326E-01 0.33902032E+03</pdfrwt>
<pdfrwt beam="2">  1       -4 0.72231910E-02 0.33902032E+03</pdfrwt>
<totfact> 0.24578922E+02</totfact>
</mgrwt>
</event>
<event>
 4    1  0.1866622E-004  0.2738806E+03  0.7818608E-02  0.1099079E+00
         -1   -1    0    0    0  501 -0.00000000000E+00  0.00000000000E+00  0.10260996725E+03  0.10260996725E+03  0.00000000000E+00 0.  1.
          1   -1    0    0  501    0  0.00000000000E+00 -0.00000000000E+00 -0.18275662179E+03  0.18275662179E+03  0.00000000000E+00 0.  1.
         25    1    1    2    0    0  0.20928302664E+02  0.57289564740E+02 -0.13867754868E+02  0.13532332654E+03  0.12000000000E+03 0.  0.
         25    1    1    2    0    0 -0.20928302664E+02 -0.57289564740E+02 -0.66278899667E+02  0.15004326250E+03  0.12000000000E+03 0.  0.
<mgrwt>
<rscale>  0 0.27388064E+03</rscale>
<asrwt>0</asrwt>
<pdfrwt beam="1">  1        1 0.28116403E-01 0.27388064E+03</pdfrwt>
<pdfrwt beam="2">  1       -1 0.15786149E-01 0.27388064E+03</pdfrwt>
<totfact> 0.48384416E+03</totfact>
</mgrwt>
</event>
<event>
 4    1  0.1866622E-004  0.2753725E+03  0.7818608E-02  0.1098244E+00
         -2   -1    0    0    0  501 -0.00000000000E+00  0.00000000000E+00  0.55792986561E+02  0.55792986561E+02  0.00000000000E+00 0.  1.
          2   -1    0    0  501    0  0.00000000000E+00 -0.00000000000E+00 -0.33978294421E+03  0.33978294421E+03  0.00000000000E+00 0.  1.
         25    1    1    2    0    0 -0.30375236435E+02 -0.54233677412E+02 -0.10416371800E+03  0.17062832971E+03  0.12000000000E+03 0.  0.
         25    1    1    2    0    0  0.30375236435E+02  0.54233677412E+02 -0.17982623965E+03  0.22494760106E+03  0.12000000000E+03 0.  0.
<mgrwt>
<rscale>  0 0.27537251E+03</rscale>
<asrwt>0</asrwt>
<pdfrwt beam="1">  1        2 0.52274297E-01 0.27537251E+03</pdfrwt>
<pdfrwt beam="2">  1       -2 0.85835368E-02 0.27537251E+03</pdfrwt>
<totfact> 0.80197622E+03</totfact>
</mgrwt>
</event>
<event>
 4    1  0.1866622E-004  0.3134582E+03  0.7818608E-02  0.1078700E+00
         -2   -1    0    0    0  501 -0.00000000000E+00  0.00000000000E+00  0.19265684410E+02  0.19265684410E+02  0.00000000000E+00 0. -1.
          2   -1    0    0  501    0  0.00000000000E+00 -0.00000000000E+00 -0.12750136912E+04  0.12750136912E+04  0.00000000000E+00 0. -1.
         25    1    1    2    0    0 -0.86523669250E+02 -0.19546531890E+02 -0.43004206015E+03  0.45519730419E+03  0.12000000000E+03 0.  0.
         25    1    1    2    0    0  0.86523669250E+02  0.19546531890E+02 -0.82570594663E+03  0.83908207140E+03  0.12000000000E+03 0.  0.
<mgrwt>
<rscale>  0 0.31345820E+03</rscale>
<asrwt>0</asrwt>
<pdfrwt beam="1">  1        2 0.19615593E+00 0.31345820E+03</pdfrwt>
<pdfrwt beam="2">  1       -2 0.29639518E-02 0.31345820E+03</pdfrwt>
<totfact> 0.78335496E+03</totfact>
</mgrwt>
</event>
<event>
 4    1  0.1866622E-004  0.2806941E+03  0.7818608E-02  0.1095310E+00
          3   -1    0    0  501    0  0.00000000000E+00  0.00000000000E+00  0.36916092303E+03  0.36916092303E+03  0.00000000000E+00 0. -1.
         -3   -1    0    0    0  501 -0.00000000000E+00 -0.00000000000E+00 -0.53356931654E+02  0.53356931654E+02  0.00000000000E+00 0. -1.
         25    1    1    2    0    0 -0.35960108943E+02  0.24511400843E+01  0.25308111597E+03  0.28239898864E+03  0.12000000000E+03 0.  0.
         25    1    1    2    0    0  0.35960108943E+02 -0.24511400843E+01  0.62722875405E+02  0.14011886605E+03  0.12000000000E+03 0.  0.
<mgrwt>
<rscale>  0 0.28069410E+03</rscale>
<asrwt>0</asrwt>
<pdfrwt beam="1">  1        3 0.56793986E-01 0.28069410E+03</pdfrwt>
<pdfrwt beam="2">  1       -3 0.82087590E-02 0.28069410E+03</pdfrwt>
<totfact> 0.80353227E+02</totfact>
</mgrwt>
</event>
<event>
 4    1  0.1866622E-004  0.2704898E+03  0.7818608E-02  0.1101000E+00
         -2   -1    0    0    0  501 -0.00000000000E+00  0.00000000000E+00  0.42908472283E+02  0.42908472283E+02  0.00000000000E+00 0.  1.
          2   -1    0    0  501    0  0.00000000000E+00 -0.00000000000E+00 -0.42628365184E+03  0.42628365184E+03  0.00000000000E+00 0.  1.
         25    1    1    2    0    0  0.39487676011E+02  0.67432882919E+01 -0.27463044387E+03  0.30236836672E+03  0.12000000000E+03 0.  0.
         25    1    1    2    0    0 -0.39487676011E+02 -0.67432882919E+01 -0.10874473569E+03  0.16682375740E+03  0.12000000000E+03 0.  0.
<mgrwt>
<rscale>  0 0.27048978E+03</rscale>
<asrwt>0</asrwt>
<pdfrwt beam="1">  1        2 0.65582099E-01 0.27048978E+03</pdfrwt>
<pdfrwt beam="2">  1       -2 0.66013035E-02 0.27048978E+03</pdfrwt>
<totfact> 0.94299363E+03</totfact>
</mgrwt>
</event>
<event>
 4    1  0.1866622E-004  0.3335019E+03  0.7818608E-02  0.1069598E+00
         -1   -1    0    0    0  501 -0.00000000000E+00  0.00000000000E+00  0.44742732378E+02  0.44742732378E+02  0.00000000000E+00 0. -1.
          1   -1    0    0  501    0  0.00000000000E+00 -0.00000000000E+00 -0.62146152001E+03  0.62146152001E+03  0.00000000000E+00 0. -1.
         25    1    1    2    0    0  0.58529635972E+01  0.65116453674E+02 -0.97470992383E+02  0.16785411546E+03  0.12000000000E+03 0.  0.
         25    1    1    2    0    0 -0.58529635972E+01 -0.65116453674E+02 -0.47924779525E+03  0.49835013692E+03  0.12000000000E+03 0.  0.
<mgrwt>
<rscale>  0 0.33350194E+03</rscale>
<asrwt>0</asrwt>
<pdfrwt beam="1">  1        1 0.95609458E-01 0.33350194E+03</pdfrwt>
<pdfrwt beam="2">  1       -1 0.68834978E-02 0.33350194E+03</pdfrwt>
<totfact> 0.36367309E+03</totfact>
</mgrwt>
</event>
<event>
 4    1  0.1866622E-004  0.3042529E+03  0.7818608E-02  0.1083134E+00
         -1   -1    0    0    0  501 -0.00000000000E+00  0.00000000000E+00  0.10203427437E+03  0.10203427437E+03  0.00000000000E+00 0. -1.
          1   -1    0    0  501    0  0.00000000000E+00 -0.00000000000E+00 -0.22681062495E+03  0.22681062495E+03  0.00000000000E+00 0. -1.
         25    1    1    2    0    0  0.69505200417E+02  0.12602076535E+02  0.38222989161E+01  0.13929965968E+03  0.12000000000E+03 0.  0.
         25    1    1    2    0    0 -0.69505200417E+02 -0.12602076535E+02 -0.12859864950E+03  0.18954523964E+03  0.12000000000E+03 0.  0.
<mgrwt>
<rscale>  0 0.30425290E+03</rscale>
<asrwt>0</asrwt>
<pdfrwt beam="1">  1        1 0.34893942E-01 0.30425290E+03</pdfrwt>
<pdfrwt beam="2">  1       -1 0.15697581E-01 0.30425290E+03</pdfrwt>
<totfact> 0.37278062E+03</totfact>
</mgrwt>
</event>
<event>
 4    1  0.1866622E-004  0.2572280E+03  0.7818608E-02  0.1108820E+00
          2   -1    0    0  501    0  0.00000000000E+00  0.00000000000E+00  0.94151763118E+02  0.94151763118E+02  0.00000000000E+00 0.  1.
         -2   -1    0    0    0  501 -0.00000000000E+00 -0.00000000000E+00 -0.17569045619E+03  0.17569045619E+03  0.00000000000E+00 0.  1.
         25    1    1    2    0    0  0.61521750625E+01  0.50956308737E+01 -0.88587014597E+02  0.14937025764E+03  0.12000000000E+03 0.  0.
         25    1    1    2    0    0 -0.61521750625E+01 -0.50956308737E+01  0.70483215254E+01  0.12047196167E+03  0.12000000000E+03 0.  0.
<mgrwt>
<rscale>  0 0.25722804E+03</rscale>
<asrwt>0</asrwt>
<pdfrwt beam="1">  1        2 0.14484887E-01 0.25722804E+03</pdfrwt>
<pdfrwt beam="2">  1       -2 0.27029300E-01 0.25722804E+03</pdfrwt>
<totfact> 0.49726605E+03</totfact>
</mgrwt>
</event>
<event>
 4    1  0.1866622E-004  0.2467899E+03  0.7818608E-02  0.1115350E+00
         -2   -1    0    0    0  501 -0.00000000000E+00  0.00000000000E+00  0.23351498264E+03  0.23351498264E+03  0.00000000000E+00 0. -1.
          2   -1    0    0  501    0  0.00000000000E+00 -0.00000000000E+00 -0.65204885213E+02  0.65204885213E+02  0.00000000000E+00 0. -1.
         25    1    1    2    0    0 -0.56912565921E+01  0.23377289363E+02  0.65115244515E+02  0.13863218648E+03  0.12000000000E+03 0.  0.
         25    1    1    2    0    0  0.56912565921E+01 -0.23377289363E+02  0.10319485291E+03  0.16008768137E+03  0.12000000000E+03 0.  0.
<mgrwt>
<rscale>  0 0.24678993E+03</rscale>
<asrwt>0</asrwt>
<pdfrwt beam="1">  1        2 0.10031521E-01 0.24678993E+03</pdfrwt>
<pdfrwt beam="2">  1       -2 0.35925382E-01 0.24678993E+03</pdfrwt>
<totfact> 0.46137220E+03</totfact>
</mgrwt>
</event>
<event>
 4    1  0.1866622E-004  0.3697399E+03  0.7818608E-02  0.1054792E+00
          2   -1    0    0  501    0  0.00000000000E+00  0.00000000000E+00  0.11211207292E+03  0.11211207292E+03  0.00000000000E+00 0. -1.
         -2   -1    0    0    0  501 -0.00000000000E+00 -0.00000000000E+00 -0.30484579808E+03  0.30484579808E+03  0.00000000000E+00 0. -1.
         25    1    1    2    0    0  0.63762791746E+02 -0.47786697408E+02  0.34309068362E+02  0.14807556933E+03  0.12000000000E+03 0.  0.
         25    1    1    2    0    0 -0.63762791746E+02  0.47786697408E+02 -0.22704279352E+03  0.26888230167E+03  0.12000000000E+03 0.  0.
<mgrwt>
<rscale>  0 0.36973988E+03</rscale>
<asrwt>0</asrwt>
<pdfrwt beam="1">  1        2 0.17248011E-01 0.36973988E+03</pdfrwt>
<pdfrwt beam="2">  1       -2 0.46899353E-01 0.36973988E+03</pdfrwt>
<totfact> 0.14498687E+03</totfact>
</mgrwt>
</event>
<event>
 4    1  0.1866622E-004  0.4832151E+03  0.7818608E-02  0.1018255E+00
          1   -1    0    0  501    0  0.00000000000E+00  0.00000000000E+00  0.15335188715E+04  0.15335188715E+04  0.00000000000E+00 0. -1.
         -1   -1    0    0    0  501 -0.00000000000E+00 -0.00000000000E+00 -0.38065536707E+02  0.38065536707E+02  0.00000000000E+00 0. -1.
         25    1    1    2    0    0  0.82094755906E+02 -0.19979172276E+02  0.13719363122E+04  0.13797637338E+04  0.12000000000E+03 0.  0.
         25    1    1    2    0    0 -0.82094755906E+02  0.19979172276E+02  0.12351702257E+03  0.19182067443E+03  0.12000000000E+03 0.  0.
<mgrwt>
<rscale>  0 0.48321514E+03</rscale>
<asrwt>0</asrwt>
<pdfrwt beam="1">  1        1 0.23592593E+00 0.48321514E+03</pdfrwt>
<pdfrwt beam="2">  1       -1 0.58562376E-02 0.48321514E+03</pdfrwt>
<totfact> 0.93062538E+02</totfact>
</mgrwt>
</event>
<event>
 4    1  0.1866622E-004  0.3221058E+03  0.7818608E-02  0.1074684E+00
          1   -1    0    0  501    0  0.00000000000E+00  0.00000000000E+00  0.69980984519E+03  0.69980984519E+03  0.00000000000E+00 0. -1.
         -1   -1    0    0    0  501 -0.00000000000E+00 -0.00000000000E+00 -0.37064411644E+02  0.37064411644E+02  0.00000000000E+00 0. -1.
         25    1    1    2    0    0 -0.14602519938E+02  0.10237090343E+03  0.26487229861E+03  0.30862658672E+03  0.12000000000E+03 0.  0.
         25    1    1    2    0    0  0.14602519938E+02 -0.10237090343E+03  0.39787313494E+03  0.42824767012E+03  0.12000000000E+03 0.  0.
<mgrwt>
<rscale>  0 0.32210582E+03</rscale>
<asrwt>0</asrwt>
<pdfrwt beam="1">  1        1 0.10766304E+00 0.32210582E+03</pdfrwt>
<pdfrwt beam="2">  1       -1 0.57022177E-02 0.32210582E+03</pdfrwt>
<totfact> 0.40774430E+03</totfact>
</mgrwt>
</event>
<event>
 4    1  0.1866622E-004  0.4639692E+03  0.7818608E-02  0.1023636E+00
          2   -1    0    0  501    0  0.00000000000E+00  0.00000000000E+00  0.26387926710E+04  0.26387926710E+04  0.00000000000E+00 0. -1.
         -2   -1    0    0    0  501 -0.00000000000E+00 -0.00000000000E+00 -0.20394500261E+02  0.20394500261E+02  0.00000000000E+00 0. -1.
         25    1    1    2    0    0 -0.13669199137E+03  0.36425038900E+02  0.21075994924E+04  0.21157474103E+04  0.12000000000E+03 0.  0.
         25    1    1    2    0    0  0.13669199137E+03 -0.36425038900E+02  0.51079867830E+03  0.54343976089E+03  0.12000000000E+03 0.  0.
<mgrwt>
<rscale>  0 0.46396921E+03</rscale>
<asrwt>0</asrwt>
<pdfrwt beam="1">  1        2 0.40596783E+00 0.46396921E+03</pdfrwt>
<pdfrwt beam="2">  1       -2 0.31376175E-02 0.46396921E+03</pdfrwt>
<totfact> 0.13021191E+03</totfact>
</mgrwt>
</event>
<event>
 4    1  0.1866622E-004  0.2903898E+03  0.7818608E-02  0.1090146E+00
          1   -1    0    0  501    0  0.00000000000E+00  0.00000000000E+00  0.16804839051E+03  0.16804839051E+03  0.00000000000E+00 0. -1.
         -1   -1    0    0    0  501 -0.00000000000E+00 -0.00000000000E+00 -0.12544933819E+03  0.12544933819E+03  0.00000000000E+00 0. -1.
         25    1    1    2    0    0 -0.27718596772E+02 -0.55675528190E+02 -0.32310357089E+02  0.13896778124E+03  0.12000000000E+03 0.  0.
         25    1    1    2    0    0  0.27718596772E+02  0.55675528190E+02  0.74909409402E+02  0.15452994746E+03  0.12000000000E+03 0.  0.
<mgrwt>
<rscale>  0 0.29038980E+03</rscale>
<asrwt>0</asrwt>
<pdfrwt beam="1">  1        1 0.25853599E-01 0.29038980E+03</pdfrwt>
<pdfrwt beam="2">  1       -1 0.19299898E-01 0.29038980E+03</pdfrwt>
<totfact> 0.39029620E+03</totfact>
</mgrwt>
</event>
<event>
 4    1  0.1866622E-004  0.2506971E+03  0.7818608E-02  0.1112865E+00
         -3   -1    0    0    0  501 -0.00000000000E+00  0.00000000000E+00  0.18707702043E+04  0.18707702043E+04  0.00000000000E+00 0. -1.
          3   -1    0    0  501    0  0.00000000000E+00 -0.00000000000E+00 -0.83988203642E+01  0.83988203642E+01  0.00000000000E+00 0. -1.
         25    1    1    2    0    0 -0.29018495794E+02 -0.21679656462E+02  0.93438601319E+03  0.94275622631E+03  0.12000000000E+03 0.  0.
         25    1    1    2    0    0  0.29018495794E+02  0.21679656462E+02  0.92798537077E+03  0.93641279838E+03  0.12000000000E+03 0.  0.
<mgrwt>
<rscale>  0 0.25069713E+03</rscale>
<asrwt>0</asrwt>
<pdfrwt beam="1">  1        3 0.12921277E-02 0.25069713E+03</pdfrwt>
<pdfrwt beam="2">  1       -3 0.28781047E+00 0.25069713E+03</pdfrwt>
<totfact> 0.23815576E+02</totfact>
</mgrwt>
</event>
<event>
 4    1  0.1866622E-004  0.2597637E+03  0.7818608E-02  0.1107285E+00
          2   -1    0    0  501    0  0.00000000000E+00  0.00000000000E+00  0.71052556661E+03  0.71052556661E+03  0.00000000000E+00 0.  1.
         -2   -1    0    0    0  501 -0.00000000000E+00 -0.00000000000E+00 -0.23741987019E+02  0.23741987019E+02  0.00000000000E+00 0.  1.
         25    1    1    2    0    0 -0.26644779273E+02  0.41566450285E+02  0.35927527338E+03  0.38199009949E+03  0.12000000000E+03 0.  0.
         25    1    1    2    0    0  0.26644779273E+02 -0.41566450285E+02  0.32750830622E+03  0.35227745414E+03  0.12000000000E+03 0.  0.
<mgrwt>
<rscale>  0 0.25976365E+03</rscale>
<asrwt>0</asrwt>
<pdfrwt beam="1">  1        2 0.10931161E+00 0.25976365E+03</pdfrwt>
<pdfrwt beam="2">  1       -2 0.36526139E-02 0.25976365E+03</pdfrwt>
<totfact> 0.12888707E+04</totfact>
</mgrwt>
</event>
<event>
 4    1  0.1866622E-004  0.2516722E+03  0.7818608E-02  0.1112253E+00
         -2   -1    0    0    0  501 -0.00000000000E+00  0.00000000000E+00  0.21169615693E+02  0.21169615693E+02  0.00000000000E+00 0. -1.
          2   -1    0    0  501    0  0.00000000000E+00 -0.00000000000E+00 -0.74799274257E+03  0.74799274257E+03  0.00000000000E+00 0. -1.
         25    1    1    2    0    0  0.10110144091E+02 -0.43822756756E+01 -0.25265620551E+03  0.27992244915E+03  0.12000000000E+03 0.  0.
         25    1    1    2    0    0 -0.10110144091E+02  0.43822756756E+01 -0.47416692137E+03  0.48923990912E+03  0.12000000000E+03 0.  0.
<mgrwt>
<rscale>  0 0.25167216E+03</rscale>
<asrwt>0</asrwt>
<pdfrwt beam="1">  1        2 0.11507579E+00 0.25167216E+03</pdfrwt>
<pdfrwt beam="2">  1       -2 0.32568645E-02 0.25167216E+03</pdfrwt>
<totfact> 0.14342215E+04</totfact>
</mgrwt>
</event>
<event>
 4    1  0.1866622E-004  0.2721569E+03  0.7818608E-02  0.1100051E+00
         -1   -1    0    0    0  501 -0.00000000000E+00  0.00000000000E+00  0.27244013099E+02  0.27244013099E+02  0.00000000000E+00 0. -1.
          1   -1    0    0  501    0  0.00000000000E+00 -0.00000000000E+00 -0.67968494440E+03  0.67968494440E+03  0.00000000000E+00 0. -1.
         25    1    1    2    0    0  0.25844841745E+02 -0.56858028078E+02 -0.36444479227E+03  0.38874258554E+03  0.12000000000E+03 0.  0.
         25    1    1    2    0    0 -0.25844841745E+02  0.56858028078E+02 -0.28799613903E+03  0.31818637195E+03  0.12000000000E+03 0.  0.
<mgrwt>
<rscale>  0 0.27215691E+03</rscale>
<asrwt>0</asrwt>
<pdfrwt beam="1">  1        1 0.10456692E+00 0.27215691E+03</pdfrwt>
<pdfrwt beam="2">  1       -1 0.41913865E-02 0.27215691E+03</pdfrwt>
<totfact> 0.67272037E+03</totfact>
</mgrwt>
</event>
<event>
 4    1  0.1866622E-004  0.2688238E+03  0.7818608E-02  0.1101955E+00
         -1   -1    0    0    0  501 -0.00000000000E+00  0.00000000000E+00  0.29679721913E+02  0.29679721913E+02  0.00000000000E+00 0. -1.
          1   -1    0    0  501    0  0.00000000000E+00 -0.00000000000E+00 -0.60871713517E+03  0.60871713517E+03  0.00000000000E+00 0. -1.
         25    1    1    2    0    0 -0.57867101616E+02  0.16519548776E+02 -0.30545952933E+03  0.33365704099E+03  0.12000000000E+03 0.  0.
         25    1    1    2    0    0  0.57867101616E+02 -0.16519548776E+02 -0.27357788392E+03  0.30473981610E+03  0.12000000000E+03 0.  0.
<mgrwt>
<rscale>  0 0.26882377E+03</rscale>
<asrwt>0</asrwt>
<pdfrwt beam="1">  1        1 0.93648775E-01 0.26882377E+03</pdfrwt>
<pdfrwt beam="2">  1       -1 0.45661118E-02 0.26882377E+03</pdfrwt>
<totfact> 0.69205435E+03</totfact>
</mgrwt>
</event>
<event>
 4    1  0.1866622E-004  0.2713147E+03  0.7818608E-02  0.1100530E+00
          1   -1    0    0  501    0  0.00000000000E+00  0.00000000000E+00  0.38754624999E+03  0.38754624999E+03  0.00000000000E+00 0.  1.
         -1   -1    0    0    0  501 -0.00000000000E+00 -0.00000000000E+00 -0.47485715955E+02  0.47485715955E+02  0.00000000000E+00 0.  1.
         25    1    1    2    0    0 -0.35631809798E+02 -0.45759841145E+02  0.21057251329E+03  0.24920748842E+03  0.12000000000E+03 0.  0.
         25    1    1    2    0    0  0.35631809798E+02  0.45759841145E+02  0.12948802075E+03  0.18582447753E+03  0.12000000000E+03 0.  0.
<mgrwt>
<rscale>  0 0.27131466E+03</rscale>
<asrwt>0</asrwt>
<pdfrwt beam="1">  1        1 0.59622498E-01 0.27131466E+03</pdfrwt>
<pdfrwt beam="2">  1       -1 0.73054950E-02 0.27131466E+03</pdfrwt>
<totfact> 0.62063505E+03</totfact>
</mgrwt>
</event>
<event>
 4    1  0.1866622E-004  0.2701985E+03  0.7818608E-02  0.1101166E+00
          2   -1    0    0  501    0  0.00000000000E+00  0.00000000000E+00  0.84341178183E+03  0.84341178183E+03  0.00000000000E+00 0. -1.
         -2   -1    0    0    0  501 -0.00000000000E+00 -0.00000000000E+00 -0.21640440768E+02  0.21640440768E+02  0.00000000000E+00 0. -1.
         25    1    1    2    0    0 -0.52428987547E+02 -0.99209087975E+01  0.30941241068E+03  0.33612983064E+03  0.12000000000E+03 0.  0.
         25    1    1    2    0    0  0.52428987547E+02  0.99209087975E+01  0.51235893039E+03  0.52892239196E+03  0.12000000000E+03 0.  0.
<mgrwt>
<rscale>  0 0.27019847E+03</rscale>
<asrwt>0</asrwt>
<pdfrwt beam="1">  1        2 0.12975563E+00 0.27019847E+03</pdfrwt>
<pdfrwt beam="2">  1       -2 0.33292992E-02 0.27019847E+03</pdfrwt>
<totfact> 0.11953637E+04</totfact>
</mgrwt>
</event>
<event>
 4    1  0.1866622E-004  0.2417225E+03  0.7818608E-02  0.1118651E+00
         -2   -1    0    0    0  501 -0.00000000000E+00  0.00000000000E+00  0.71412137627E+01  0.71412137627E+01  0.00000000000E+00 0.  1.
          2   -1    0    0  501    0  0.00000000000E+00 -0.00000000000E+00 -0.20455120865E+04  0.20455120865E+04  0.00000000000E+00 0.  1.
         25    1    1    2    0    0 -0.10502681694E+02  0.95140192912E+01 -0.99734294576E+03  0.10046361403E+04  0.12000000000E+03 0.  0.
         25    1    1    2    0    0  0.10502681694E+02 -0.95140192912E+01 -0.10410279270E+04  0.10480171600E+04  0.12000000000E+03 0.  0.
<mgrwt>
<rscale>  0 0.24172248E+03</rscale>
<asrwt>0</asrwt>
<pdfrwt beam="1">  1        2 0.31469383E+00 0.24172248E+03</pdfrwt>
<pdfrwt beam="2">  1       -2 0.10986494E-02 0.24172248E+03</pdfrwt>
<totfact> 0.13032412E+04</totfact>
</mgrwt>
</event>
<event>
 4    1  0.1866622E-004  0.2487405E+03  0.7818608E-02  0.1114103E+00
          2   -1    0    0  501    0  0.00000000000E+00  0.00000000000E+00  0.43003839126E+03  0.43003839126E+03  0.00000000000E+00 0. -1.
         -2   -1    0    0    0  501 -0.00000000000E+00 -0.00000000000E+00 -0.35968788826E+02  0.35968788826E+02  0.00000000000E+00 0. -1.
         25    1    1    2    0    0  0.20238312523E+02  0.25433549206E+02  0.19068008350E+03  0.22762985078E+03  0.12000000000E+03 0.  0.
         25    1    1    2    0    0 -0.20238312523E+02 -0.25433549206E+02  0.20338951893E+03  0.23837732931E+03  0.12000000000E+03 0.  0.
<mgrwt>
<rscale>  0 0.24874051E+03</rscale>
<asrwt>0</asrwt>
<pdfrwt beam="1">  1        2 0.66159749E-01 0.24874051E+03</pdfrwt>
<pdfrwt beam="2">  1       -2 0.55336601E-02 0.24874051E+03</pdfrwt>
<totfact> 0.12196419E+04</totfact>
</mgrwt>
</event>
<event>
 4    1  0.1866622E-004  0.2525158E+03  0.7818608E-02  0.1111725E+00
         -2   -1    0    0    0  501 -0.00000000000E+00  0.00000000000E+00  0.11863058325E+03  0.11863058325E+03  0.00000000000E+00 0.  1.
          2   -1    0    0  501    0  0.00000000000E+00 -0.00000000000E+00 -0.13437561074E+03  0.13437561074E+03  0.00000000000E+00 0.  1.
         25    1    1    2    0    0  0.37399434529E+02 -0.99877486238E+01 -0.14410847821E+02  0.12690998921E+03  0.12000000000E+03 0.  0.
         25    1    1    2    0    0 -0.37399434529E+02  0.99877486238E+01 -0.13341796727E+01  0.12609620478E+03  0.12000000000E+03 0.  0.
<mgrwt>
<rscale>  0 0.25251580E+03</rscale>
<asrwt>0</asrwt>
<pdfrwt beam="1">  1        2 0.20673171E-01 0.25251580E+03</pdfrwt>
<pdfrwt beam="2">  1       -2 0.18250859E-01 0.25251580E+03</pdfrwt>
<totfact> 0.64889176E+03</totfact>
</mgrwt>
</event>
<event>
 4    1  0.1866622E-004  0.2425582E+03  0.7818608E-02  0.1118100E+00
          4   -1    0    0  501    0  0.00000000000E+00  0.00000000000E+00  0.11231628266E+03  0.11231628266E+03  0.00000000000E+00 0.  1.
         -4   -1    0    0    0  501 -0.00000000000E+00 -0.00000000000E+00 -0.13095715957E+03  0.13095715957E+03  0.00000000000E+00 0.  1.
         25    1    1    2    0    0 -0.16267795599E+02  0.52666500549E+01 -0.13362530064E+02  0.12194644721E+03  0.12000000000E+03 0.  0.
         25    1    1    2    0    0  0.16267795599E+02 -0.52666500549E+01 -0.52783468455E+01  0.12132699503E+03  0.12000000000E+03 0.  0.
<mgrwt>
<rscale>  0 0.24255821E+03</rscale>
<asrwt>0</asrwt>
<pdfrwt beam="1">  1        4 0.17279428E-01 0.24255821E+03</pdfrwt>
<pdfrwt beam="2">  1       -4 0.20147255E-01 0.24255821E+03</pdfrwt>
<totfact> 0.12035069E+03</totfact>
</mgrwt>
</event>
<event>
 4    1  0.1866622E-004  0.3251635E+03  0.7818608E-02  0.1073297E+00
          2   -1    0    0  501    0  0.00000000000E+00  0.00000000000E+00  0.44089818097E+03  0.44089818097E+03  0.00000000000E+00 0. -1.
         -2   -1    0    0    0  501 -0.00000000000E+00 -0.00000000000E+00 -0.59952208157E+02  0.59952208157E+02  0.00000000000E+00 0. -1.
         25    1    1    2    0    0  0.92373552403E+02 -0.13990894484E+02  0.27901298637E+03  0.31776857125E+03  0.12000000000E+03 0.  0.
         25    1    1    2    0    0 -0.92373552403E+02  0.13990894484E+02  0.10193298645E+03  0.18308181788E+03  0.12000000000E+03 0.  0.
<mgrwt>
<rscale>  0 0.32516346E+03</rscale>
<asrwt>0</asrwt>
<pdfrwt beam="1">  1        2 0.67830487E-01 0.32516346E+03</pdfrwt>
<pdfrwt beam="2">  1       -2 0.92234169E-02 0.32516346E+03</pdfrwt>
<totfact> 0.54190262E+03</totfact>
</mgrwt>
</event>
<event>
 4    1  0.1866622E-004  0.2418147E+03  0.7818608E-02  0.1118590E+00
          2   -1    0    0  501    0  0.00000000000E+00  0.00000000000E+00  0.90879389195E+03  0.90879389195E+03  0.00000000000E+00 0.  1.
         -2   -1    0    0    0  501 -0.00000000000E+00 -0.00000000000E+00 -0.16085707671E+02  0.16085707671E+02  0.00000000000E+00 0.  1.
         25    1    1    2    0    0  0.13261998791E+02  0.32708157325E+01  0.42471332752E+03  0.44155179698E+03  0.12000000000E+03 0.  0.
         25    1    1    2    0    0 -0.13261998791E+02 -0.32708157325E+01  0.46799485676E+03  0.48332780264E+03  0.12000000000E+03 0.  0.
<mgrwt>
<rscale>  0 0.24181475E+03</rscale>
<asrwt>0</asrwt>
<pdfrwt beam="1">  1        2 0.13981441E+00 0.24181475E+03</pdfrwt>
<pdfrwt beam="2">  1       -2 0.24747250E-02 0.24181475E+03</pdfrwt>
<totfact> 0.16747890E+04</totfact>
</mgrwt>
</event>
<event>
 4    1  0.1866622E-004  0.2553901E+03  0.7818608E-02  0.1109945E+00
          3   -1    0    0  501    0  0.00000000000E+00  0.00000000000E+00  0.23752569517E+02  0.23752569517E+02  0.00000000000E+00 0.  1.
         -3   -1    0    0    0  501 -0.00000000000E+00 -0.00000000000E+00 -0.68649531205E+03  0.68649531205E+03  0.00000000000E+00 0.  1.
         25    1    1    2    0    0  0.32161090092E+02 -0.19027701989E+02 -0.39415363391E+03  0.41370699328E+03  0.12000000000E+03 0.  0.
         25    1    1    2    0    0 -0.32161090092E+02  0.19027701989E+02 -0.26858910862E+03  0.29654088829E+03  0.12000000000E+03 0.  0.
<mgrwt>
<rscale>  0 0.25539011E+03</rscale>
<asrwt>0</asrwt>
<pdfrwt beam="1">  1        3 0.36542420E-02 0.25539011E+03</pdfrwt>
<pdfrwt beam="2">  1       -3 0.10561465E+00 0.25539011E+03</pdfrwt>
<totfact> 0.75229753E+02</totfact>
</mgrwt>
</event>
<event>
 4    1  0.1866622E-004  0.2484657E+03  0.7818608E-02  0.1114278E+00
          2   -1    0    0  501    0  0.00000000000E+00  0.00000000000E+00  0.13476024277E+04  0.13476024277E+04  0.00000000000E+00 0.  1.
         -2   -1    0    0    0  501 -0.00000000000E+00 -0.00000000000E+00 -0.11452788300E+02  0.11452788300E+02  0.00000000000E+00 0.  1.
         25    1    1    2    0    0 -0.57661135420E+01  0.13522644783E+02  0.82448548218E+03  0.83330211827E+03  0.12000000000E+03 0.  0.
         25    1    1    2    0    0  0.57661135420E+01 -0.13522644783E+02  0.51166415718E+03  0.52575309769E+03  0.12000000000E+03 0.  0.
<mgrwt>
<rscale>  0 0.24846573E+03</rscale>
<asrwt>0</asrwt>
<pdfrwt beam="1">  1        2 0.20732332E+00 0.24846573E+03</pdfrwt>
<pdfrwt beam="2">  1       -2 0.17619685E-02 0.24846573E+03</pdfrwt>
<totfact> 0.15313721E+04</totfact>
</mgrwt>
</event>
<event>
 4    1  0.1866622E-004  0.3282213E+03  0.7818608E-02  0.1071927E+00
          3   -1    0    0  501    0  0.00000000000E+00  0.00000000000E+00  0.52420391285E+02  0.52420391285E+02  0.00000000000E+00 0.  1.
         -3   -1    0    0    0  501 -0.00000000000E+00 -0.00000000000E+00 -0.51377548821E+03  0.51377548821E+03  0.00000000000E+00 0.  1.
         25    1    1    2    0    0 -0.14464036616E+02 -0.10005355779E+03 -0.14772487851E+03  0.21550536539E+03  0.12000000000E+03 0.  0.
         25    1    1    2    0    0  0.14464036616E+02  0.10005355779E+03 -0.31363021841E+03  0.35069051410E+03  0.12000000000E+03 0.  0.
<mgrwt>
<rscale>  0 0.32822134E+03</rscale>
<asrwt>0</asrwt>
<pdfrwt beam="1">  1        3 0.80646756E-02 0.32822134E+03</pdfrwt>
<pdfrwt beam="2">  1       -3 0.79042383E-01 0.32822134E+03</pdfrwt>
<totfact> 0.41496006E+02</totfact>
</mgrwt>
</event>
<event>
 4    1  0.1866622E-004  0.2480327E+03  0.7818608E-02  0.1114554E+00
          2   -1    0    0  501    0  0.00000000000E+00  0.00000000000E+00  0.26764745790E+03  0.26764745790E+03  0.00000000000E+00 0. -1.
         -2   -1    0    0    0  501 -0.00000000000E+00 -0.00000000000E+00 -0.57463844923E+02  0.57463844923E+02  0.00000000000E+00 0. -1.
         25    1    1    2    0    0 -0.10234069436E+02 -0.25094310947E+02  0.12563319253E+03  0.17583560415E+03  0.12000000000E+03 0.  0.
         25    1    1    2    0    0  0.10234069436E+02  0.25094310947E+02  0.84550420447E+02  0.14927569868E+03  0.12000000000E+03 0.  0.
<mgrwt>
<rscale>  0 0.24803268E+03</rscale>
<asrwt>0</asrwt>
<pdfrwt beam="1">  1        2 0.41176531E-01 0.24803268E+03</pdfrwt>
<pdfrwt beam="2">  1       -2 0.88405917E-02 0.24803268E+03</pdfrwt>
<totfact> 0.98512364E+03</totfact>
</mgrwt>
</event>
<event>
 4    1  0.1866622E-004  0.2608905E+03  0.7818608E-02  0.1106609E+00
          1   -1    0    0  501    0  0.00000000000E+00  0.00000000000E+00  0.71534942844E+03  0.71534942844E+03  0.00000000000E+00 0. -1.
         -1   -1    0    0    0  501 -0.00000000000E+00 -0.00000000000E+00 -0.23786933197E+02  0.23786933197E+02  0.00000000000E+00 0. -1.
         25    1    1    2    0    0  0.17521016392E+02 -0.36941319237E+02  0.43284277433E+03  0.45102606840E+03  0.12000000000E+03 0.  0.
         25    1    1    2    0    0 -0.17521016392E+02  0.36941319237E+02  0.25871972091E+03  0.28811029324E+03  0.12000000000E+03 0.  0.
<mgrwt>
<rscale>  0 0.26089054E+03</rscale>
<asrwt>0</asrwt>
<pdfrwt beam="1">  1        1 0.11005374E+00 0.26089054E+03</pdfrwt>
<pdfrwt beam="2">  1       -1 0.36595287E-02 0.26089054E+03</pdfrwt>
<totfact> 0.76290035E+03</totfact>
</mgrwt>
</event>
<event>
 4    1  0.1866622E-004  0.4069123E+03  0.7818608E-02  0.1041412E+00
         -1   -1    0    0    0  501 -0.00000000000E+00  0.00000000000E+00  0.14215561739E+03  0.14215561739E+03  0.00000000000E+00 0.  1.
          1   -1    0    0  501    0  0.00000000000E+00 -0.00000000000E+00 -0.29119074962E+03  0.29119074962E+03  0.00000000000E+00 0.  1.
         25    1    1    2    0    0  0.87624391100E+02 -0.83410329899E+01 -0.22226282852E+03  0.26748527378E+03  0.12000000000E+03 0.  0.
         25    1    1    2    0    0 -0.87624391100E+02  0.83410329899E+01  0.73227696287E+02  0.16586109324E+03  0.12000000000E+03 0.  0.
<mgrwt>
<rscale>  0 0.40691228E+03</rscale>
<asrwt>0</asrwt>
<pdfrwt beam="1">  1        1 0.44798577E-01 0.40691228E+03</pdfrwt>
<pdfrwt beam="2">  1       -1 0.21870095E-01 0.40691228E+03</pdfrwt>
<totfact> 0.15914918E+03</totfact>
</mgrwt>
</event>
<event>
 4    1  0.1866622E-004  0.3354880E+03  0.7818608E-02  0.1068734E+00
          2   -1    0    0  501    0  0.00000000000E+00  0.00000000000E+00  0.21496454427E+02  0.21496454427E+02  0.00000000000E+00 0.  1.
         -2   -1    0    0    0  501 -0.00000000000E+00 -0.00000000000E+00 -0.13089624025E+04  0.13089624025E+04  0.00000000000E+00 0.  1.
         25    1    1    2    0    0  0.99746304417E+02  0.61316056359E+02 -0.66511366385E+03  0.68591921525E+03  0.12000000000E+03 0.  0.
         25    1    1    2    0    0 -0.99746304417E+02 -0.61316056359E+02 -0.62235228423E+03  0.64453964168E+03  0.12000000000E+03 0.  0.
<mgrwt>
<rscale>  0 0.33548801E+03</rscale>
<asrwt>0</asrwt>
<pdfrwt beam="1">  1        2 0.33071471E-02 0.33548801E+03</pdfrwt>
<pdfrwt beam="2">  1       -2 0.20137882E+00 0.33548801E+03</pdfrwt>
<totfact> 0.38833052E+02</totfact>
</mgrwt>
</event>
<event>
 4    1  0.1866622E-004  0.2735752E+03  0.7818608E-02  0.1099251E+00
         -2   -1    0    0    0  501 -0.00000000000E+00  0.00000000000E+00  0.91565292864E+01  0.91565292864E+01  0.00000000000E+00 0. -1.
          2   -1    0    0  501    0  0.00000000000E+00 -0.00000000000E+00 -0.20434431772E+04  0.20434431772E+04  0.00000000000E+00 0. -1.
         25    1    1    2    0    0 -0.20240360896E+02  0.22713198616E+02 -0.58060215935E+03  0.59365345871E+03  0.12000000000E+03 0.  0.
         25    1    1    2    0    0  0.20240360896E+02 -0.22713198616E+02 -0.14536844886E+04  0.14589462478E+04  0.12000000000E+03 0.  0.
<mgrwt>
<rscale>  0 0.27357520E+03</rscale>
<asrwt>0</asrwt>
<pdfrwt beam="1">  1        2 0.31437584E+00 0.27357520E+03</pdfrwt>
<pdfrwt beam="2">  1       -2 0.14086970E-02 0.27357520E+03</pdfrwt>
<totfact> 0.91151920E+03</totfact>
</mgrwt>
</event>
<event>
 4    1  0.1866622E-004  0.4592860E+03  0.7818608E-02  0.1024989E+00
         -2   -1    0    0    0  501 -0.00000000000E+00  0.00000000000E+00  0.57368465309E+02  0.57368465309E+02  0.00000000000E+00 0. -1.
          2   -1    0    0  501    0  0.00000000000E+00 -0.00000000000E+00 -0.91924896384E+03  0.91924896384E+03  0.00000000000E+00 0. -1.
         25    1    1    2    0    0  0.12535452861E+03  0.44807659512E+02 -0.73624026346E+03  0.75774085922E+03  0.12000000000E+03 0.  0.
         25    1    1    2    0    0 -0.12535452861E+03 -0.44807659512E+02 -0.12564023507E+03  0.21887656993E+03  0.12000000000E+03 0.  0.
<mgrwt>
<rscale>  0 0.45928598E+03</rscale>
<asrwt>0</asrwt>
<pdfrwt beam="1">  1        2 0.14142292E+00 0.45928598E+03</pdfrwt>
<pdfrwt beam="2">  1       -2 0.88259175E-02 0.45928598E+03</pdfrwt>
<totfact> 0.23967458E+03</totfact>
</mgrwt>
</event>
<event>
 4    1  0.1866622E-004  0.2639615E+03  0.7818608E-02  0.1104786E+00
          2   -1    0    0  501    0  0.00000000000E+00  0.00000000000E+00  0.12809297046E+04  0.12809297046E+04  0.00000000000E+00 0.  1.
         -2   -1    0    0    0  501 -0.00000000000E+00 -0.00000000000E+00 -0.13598655010E+02  0.13598655010E+02  0.00000000000E+00 0.  1.
         25    1    1    2    0    0 -0.52939040231E+02  0.14650869328E+02  0.64011825644E+03  0.65358134320E+03  0.12000000000E+03 0.  0.
         25    1    1    2    0    0  0.52939040231E+02 -0.14650869328E+02  0.62721279315E+03  0.64094701641E+03  0.12000000000E+03 0.  0.
<mgrwt>
<rscale>  0 0.26396152E+03</rscale>
<asrwt>0</asrwt>
<pdfrwt beam="1">  1        2 0.19706601E+00 0.26396152E+03</pdfrwt>
<pdfrwt beam="2">  1       -2 0.20921018E-02 0.26396152E+03</pdfrwt>
<totfact> 0.12977190E+04</totfact>
</mgrwt>
</event>
<event>
 4    1  0.1866622E-004  0.3014375E+03  0.7818608E-02  0.1084524E+00
         -2   -1    0    0    0  501 -0.00000000000E+00  0.00000000000E+00  0.36692797553E+02  0.36692797553E+02  0.00000000000E+00 0. -1.
          2   -1    0    0  501    0  0.00000000000E+00 -0.00000000000E+00 -0.61909003616E+03  0.61909003616E+03  0.00000000000E+00 0. -1.
         25    1    1    2    0    0  0.48953729413E+01  0.50552786145E+02 -0.12642416552E+03  0.18155610288E+03  0.12000000000E+03 0.  0.
         25    1    1    2    0    0 -0.48953729413E+01 -0.50552786145E+02 -0.45597307309E+03  0.47422673084E+03  0.12000000000E+03 0.  0.
<mgrwt>
<rscale>  0 0.30143752E+03</rscale>
<asrwt>0</asrwt>
<pdfrwt beam="1">  1        2 0.95244625E-01 0.30143752E+03</pdfrwt>
<pdfrwt beam="2">  1       -2 0.56450456E-02 0.30143752E+03</pdfrwt>
<totfact> 0.79021829E+03</totfact>
</mgrwt>
</event>
<event>
 4    1  0.1866622E-004  0.3255818E+03  0.7818608E-02  0.1073109E+00
          2   -1    0    0  501    0  0.00000000000E+00  0.00000000000E+00  0.37376732456E+02  0.37376732456E+02  0.00000000000E+00 0. -1.
         -2   -1    0    0    0  501 -0.00000000000E+00 -0.00000000000E+00 -0.70902067796E+03  0.70902067796E+03  0.00000000000E+00 0. -1.
         25    1    1    2    0    0 -0.91165315019E+02 -0.13425827267E+02 -0.47355372016E+03  0.49713629255E+03  0.12000000000E+03 0.  0.
         25    1    1    2    0    0  0.91165315019E+02  0.13425827267E+02 -0.19809022535E+03  0.24926111787E+03  0.12000000000E+03 0.  0.
<mgrwt>
<rscale>  0 0.32558179E+03</rscale>
<asrwt>0</asrwt>
<pdfrwt beam="1">  1        2 0.57502663E-02 0.32558179E+03</pdfrwt>
<pdfrwt beam="2">  1       -2 0.10908011E+00 0.32558179E+03</pdfrwt>
<totfact> 0.91645390E+02</totfact>
</mgrwt>
</event>
<event>
 4    1  0.1866622E-004  0.2898428E+03  0.7818608E-02  0.1090431E+00
         -2   -1    0    0    0  501 -0.00000000000E+00  0.00000000000E+00  0.45069439788E+02  0.45069439788E+02  0.00000000000E+00 0.  1.
          2   -1    0    0  501    0  0.00000000000E+00 -0.00000000000E+00 -0.46599681044E+03  0.46599681044E+03  0.00000000000E+00 0.  1.
         25    1    1    2    0    0  0.76803056427E+02 -0.10989756803E+02 -0.25302829940E+03  0.29059044122E+03  0.12000000000E+03 0.  0.
         25    1    1    2    0    0 -0.76803056427E+02  0.10989756803E+02 -0.16789907126E+03  0.22047580901E+03  0.12000000000E+03 0.  0.
<mgrwt>
<rscale>  0 0.28984282E+03</rscale>
<asrwt>0</asrwt>
<pdfrwt beam="1">  1        2 0.71691816E-01 0.28984282E+03</pdfrwt>
<pdfrwt beam="2">  1       -2 0.69337600E-02 0.28984282E+03</pdfrwt>
<totfact> 0.79438612E+03</totfact>
</mgrwt>
</event>
<event>
 4    1  0.1866622E-004  0.3119362E+03  0.7818608E-02  0.1079422E+00
          2   -1    0    0  501    0  0.00000000000E+00  0.00000000000E+00  0.13388781384E+03  0.13388781384E+03  0.00000000000E+00 0. -1.
         -2   -1    0    0    0  501 -0.00000000000E+00 -0.00000000000E+00 -0.18168972792E+03  0.18168972792E+03  0.00000000000E+00 0. -1.
         25    1    1    2    0    0  0.49107506481E+02 -0.71727175873E+02  0.25346926435E+02  0.15032897802E+03  0.12000000000E+03 0.  0.
         25    1    1    2    0    0 -0.49107506481E+02  0.71727175873E+02 -0.73148840519E+02  0.16524856375E+03  0.12000000000E+03 0.  0.
<mgrwt>
<rscale>  0 0.31193615E+03</rscale>
<asrwt>0</asrwt>
<pdfrwt beam="1">  1        2 0.20598125E-01 0.31193615E+03</pdfrwt>
<pdfrwt beam="2">  1       -2 0.27952266E-01 0.31193615E+03</pdfrwt>
<totfact> 0.31230103E+03</totfact>
</mgrwt>
</event>
<event>
 4    1  0.1866622E-004  0.2798224E+03  0.7818608E-02  0.1095786E+00
          2   -1    0    0  501    0  0.00000000000E+00  0.00000000000E+00  0.31721873444E+04  0.31721873444E+04  0.00000000000E+00 0.  1.
         -2   -1    0    0    0  501 -0.00000000000E+00 -0.00000000000E+00 -0.61708644679E+01  0.61708644679E+01  0.00000000000E+00 0.  1.
         25    1    1    2    0    0  0.35965516458E+02 -0.38323419035E+02  0.10250608237E+04  0.10333982268E+04  0.12000000000E+03 0.  0.
         25    1    1    2    0    0 -0.35965516458E+02  0.38323419035E+02  0.21409556562E+04  0.21449599821E+04  0.12000000000E+03 0.  0.
<mgrwt>
<rscale>  0 0.27982236E+03</rscale>
<asrwt>0</asrwt>
<pdfrwt beam="1">  1        2 0.48802752E+00 0.27982236E+03</pdfrwt>
<pdfrwt beam="2">  1       -2 0.94936630E-03 0.27982236E+03</pdfrwt>
<totfact> 0.37701098E+03</totfact>
</mgrwt>
</event>
<event>
 4    1  0.1866622E-004  0.2977455E+03  0.7818608E-02  0.1086373E+00
          1   -1    0    0  501    0  0.00000000000E+00  0.00000000000E+00  0.18397607229E+04  0.18397607229E+04  0.00000000000E+00 0. -1.
         -1   -1    0    0    0  501 -0.00000000000E+00 -0.00000000000E+00 -0.12046725394E+02  0.12046725394E+02  0.00000000000E+00 0. -1.
         25    1    1    2    0    0  0.86970786544E+02 -0.14015546651E+02  0.90356396474E+03  0.91574461049E+03  0.12000000000E+03 0.  0.
         25    1    1    2    0    0 -0.86970786544E+02  0.14015546651E+02  0.92415003274E+03  0.93606283778E+03  0.12000000000E+03 0.  0.
<mgrwt>
<rscale>  0 0.29774548E+03</rscale>
<asrwt>0</asrwt>
<pdfrwt beam="1">  1        1 0.28303989E+00 0.29774548E+03</pdfrwt>
<pdfrwt beam="2">  1       -1 0.18533438E-02 0.29774548E+03</pdfrwt>
<totfact> 0.32856758E+03</totfact>
</mgrwt>
</event>
<event>
 4    1  0.1866622E-004  0.2714589E+03  0.7818608E-02  0.1100448E+00
         -4   -1    0    0    0  501 -0.00000000000E+00  0.00000000000E+00  0.15012530441E+02  0.15012530441E+02  0.00000000000E+00 0. -1.
          4   -1    0    0  501    0  0.00000000000E+00 -0.00000000000E+00 -0.12271402831E+04  0.12271402831E+04  0.00000000000E+00 0. -1.
         25    1    1    2    0    0 -0.98462319280E+01 -0.16667285626E+02 -0.88242857319E+03  0.89076087334E+03  0.12000000000E+03 0.  0.
         25    1    1    2    0    0  0.98462319280E+01  0.16667285626E+02 -0.32969917942E+03  0.35139194016E+03  0.12000000000E+03 0.  0.
<mgrwt>
<rscale>  0 0.27145888E+03</rscale>
<asrwt>0</asrwt>
<pdfrwt beam="1">  1        4 0.18879077E+00 0.27145888E+03</pdfrwt>
<pdfrwt beam="2">  1       -4 0.23096205E-02 0.27145888E+03</pdfrwt>
<totfact> 0.25795333E+02</totfact>
</mgrwt>
</event>
<event>
 4    1  0.1866622E-004  0.3132182E+03  0.7818608E-02  0.1078814E+00
          3   -1    0    0  501    0  0.00000000000E+00  0.00000000000E+00  0.34501440877E+02  0.34501440877E+02  0.00000000000E+00 0. -1.
         -3   -1    0    0    0  501 -0.00000000000E+00 -0.00000000000E+00 -0.71088072828E+03  0.71088072828E+03  0.00000000000E+00 0. -1.
         25    1    1    2    0    0 -0.35921313572E+02  0.49814786018E+02 -0.52789282492E+03  0.54483271587E+03  0.12000000000E+03 0.  0.
         25    1    1    2    0    0  0.35921313572E+02 -0.49814786018E+02 -0.14848646248E+03  0.20054945329E+03  0.12000000000E+03 0.  0.
<mgrwt>
<rscale>  0 0.31321819E+03</rscale>
<asrwt>0</asrwt>
<pdfrwt beam="1">  1        3 0.53079135E-02 0.31321819E+03</pdfrwt>
<pdfrwt beam="2">  1       -3 0.10936628E+00 0.31321819E+03</pdfrwt>
<totfact> 0.39051503E+02</totfact>
</mgrwt>
</event>
<event>
 4    1  0.1866622E-004  0.2871434E+03  0.7818608E-02  0.1091850E+00
         -1   -1    0    0    0  501 -0.00000000000E+00  0.00000000000E+00  0.40590343021E+02  0.40590343021E+02  0.00000000000E+00 0.  1.
          1   -1    0    0  501    0  0.00000000000E+00 -0.00000000000E+00 -0.50782590030E+03  0.50782590030E+03  0.00000000000E+00 0.  1.
         25    1    1    2    0    0  0.23877081515E+00  0.78259371818E+02 -0.25155880277E+03  0.28949338082E+03  0.12000000000E+03 0.  0.
         25    1    1    2    0    0 -0.23877081515E+00 -0.78259371818E+02 -0.21567675451E+03  0.25892286250E+03  0.12000000000E+03 0.  0.
<mgrwt>
<rscale>  0 0.28714336E+03</rscale>
<asrwt>0</asrwt>
<pdfrwt beam="1">  1        1 0.78127059E-01 0.28714336E+03</pdfrwt>
<pdfrwt beam="2">  1       -1 0.62446683E-02 0.28714336E+03</pdfrwt>
<totfact> 0.55453250E+03</totfact>
</mgrwt>
</event>
<event>
 4    1  0.1866622E-004  0.2706262E+03  0.7818608E-02  0.1100922E+00
         -1   -1    0    0    0  501 -0.00000000000E+00  0.00000000000E+00  0.21845009445E+03  0.21845009445E+03  0.00000000000E+00 0.  1.
          1   -1    0    0  501    0  0.00000000000E+00 -0.00000000000E+00 -0.83816098683E+02  0.83816098683E+02  0.00000000000E+00 0.  1.
         25    1    1    2    0    0  0.53189990950E+02  0.20063120428E+02  0.38235792532E+02  0.13817988193E+03  0.12000000000E+03 0.  0.
         25    1    1    2    0    0 -0.53189990950E+02 -0.20063120428E+02  0.96398203237E+02  0.16408631121E+03  0.12000000000E+03 0.  0.
<mgrwt>
<rscale>  0 0.27062620E+03</rscale>
<asrwt>0</asrwt>
<pdfrwt beam="1">  1        1 0.12894785E-01 0.27062620E+03</pdfrwt>
<pdfrwt beam="2">  1       -1 0.33607707E-01 0.27062620E+03</pdfrwt>
<totfact> 0.38030062E+03</totfact>
</mgrwt>
</event>
<event>
 4    1  0.1866622E-004  0.4887970E+03  0.7818608E-02  0.1016745E+00
          2   -1    0    0  501    0  0.00000000000E+00  0.00000000000E+00  0.18265432947E+03  0.18265432947E+03  0.00000000000E+00 0.  1.
         -2   -1    0    0    0  501 -0.00000000000E+00 -0.00000000000E+00 -0.32701452861E+03  0.32701452861E+03  0.00000000000E+00 0.  1.
         25    1    1    2    0    0  0.76161117154E+02 -0.79878844866E+02  0.11766435366E+03  0.20106229319E+03  0.12000000000E+03 0.  0.
         25    1    1    2    0    0 -0.76161117154E+02  0.79878844866E+02 -0.26202455280E+03  0.30860656489E+03  0.12000000000E+03 0.  0.
<mgrwt>
<rscale>  0 0.48879697E+03</rscale>
<asrwt>0</asrwt>
<pdfrwt beam="1">  1        2 0.28100666E-01 0.48879697E+03</pdfrwt>
<pdfrwt beam="2">  1       -2 0.50309927E-01 0.48879697E+03</pdfrwt>
<totfact> 0.71998745E+02</totfact>
</mgrwt>
</event>
<event>
 4    1  0.1866622E-004  0.2828544E+03  0.7818608E-02  0.1094140E+00
          1   -1    0    0  501    0  0.00000000000E+00  0.00000000000E+00  0.39907317705E+03  0.39907317705E+03  0.00000000000E+00 0. -1.
         -1   -1    0    0    0  501 -0.00000000000E+00 -0.00000000000E+00 -0.50120252120E+02  0.50120252120E+02  0.00000000000E+00 0. -1.
         25    1    1    2    0    0  0.32951018936E+02 -0.86034496645E+01  0.68635713855E+02  0.14237503367E+03  0.12000000000E+03 0.  0.
         25    1    1    2    0    0 -0.32951018936E+02  0.86034496645E+01  0.28031721107E+03  0.30681839550E+03  0.12000000000E+03 0.  0.
<mgrwt>
<rscale>  0 0.28285437E+03</rscale>
<asrwt>0</asrwt>
<pdfrwt beam="1">  1        1 0.61395871E-01 0.28285437E+03</pdfrwt>
<pdfrwt beam="2">  1       -1 0.77108083E-02 0.28285437E+03</pdfrwt>
<totfact> 0.55128659E+03</totfact>
</mgrwt>
</event>
<event>
 4    1  0.1866622E-004  0.2850436E+03  0.7818608E-02  0.1092966E+00
          2   -1    0    0  501    0  0.00000000000E+00  0.00000000000E+00  0.75913222692E+03  0.75913222692E+03  0.00000000000E+00 0.  1.
         -2   -1    0    0    0  501 -0.00000000000E+00 -0.00000000000E+00 -0.26757486504E+02  0.26757486504E+02  0.00000000000E+00 0.  1.
         25    1    1    2    0    0  0.35720462404E+02  0.36813432510E+02  0.52412024796E+03  0.54012333274E+03  0.12000000000E+03 0.  0.
         25    1    1    2    0    0 -0.35720462404E+02 -0.36813432510E+02  0.20825449246E+03  0.24576638069E+03  0.12000000000E+03 0.  0.
<mgrwt>
<rscale>  0 0.28504365E+03</rscale>
<asrwt>0</asrwt>
<pdfrwt beam="1">  1        2 0.11678956E+00 0.28504365E+03</pdfrwt>
<pdfrwt beam="2">  1       -2 0.41165370E-02 0.28504365E+03</pdfrwt>
<totfact> 0.99601378E+03</totfact>
</mgrwt>
</event>
<event>
 4    1  0.1866622E-004  0.4008580E+03  0.7818608E-02  0.1043483E+00
          2   -1    0    0  501    0  0.00000000000E+00  0.00000000000E+00  0.11322263029E+04  0.11322263029E+04  0.00000000000E+00 0. -1.
         -2   -1    0    0    0  501 -0.00000000000E+00 -0.00000000000E+00 -0.35480341333E+02  0.35480341333E+02  0.00000000000E+00 0. -1.
         25    1    1    2    0    0  0.11011890101E+03  0.10570947360E+03  0.40356605739E+03  0.44784621004E+03  0.12000000000E+03 0.  0.
         25    1    1    2    0    0 -0.11011890101E+03 -0.10570947360E+03  0.69317990421E+03  0.71986043423E+03  0.12000000000E+03 0.  0.
<mgrwt>
<rscale>  0 0.40085796E+03</rscale>
<asrwt>0</asrwt>
<pdfrwt beam="1">  1        2 0.17418863E+00 0.40085796E+03</pdfrwt>
<pdfrwt beam="2">  1       -2 0.54585149E-02 0.40085796E+03</pdfrwt>
<totfact> 0.37572095E+03</totfact>
</mgrwt>
</event>
<event>
 4    1  0.1866622E-004  0.3510556E+03  0.7818608E-02  0.1062183E+00
         -3   -1    0    0    0  501 -0.00000000000E+00  0.00000000000E+00  0.20084057507E+02  0.20084057507E+02  0.00000000000E+00 0.  1.
          3   -1    0    0  501    0  0.00000000000E+00 -0.00000000000E+00 -0.15340530332E+04  0.15340530332E+04  0.00000000000E+00 0.  1.
         25    1    1    2    0    0 -0.11723470579E+03  0.47601945962E+01 -0.52937377841E+03  0.55534064588E+03  0.12000000000E+03 0.  0.
         25    1    1    2    0    0  0.11723470579E+03 -0.47601945962E+01 -0.98459519732E+03  0.99879644487E+03  0.12000000000E+03 0.  0.
<mgrwt>
<rscale>  0 0.35105560E+03</rscale>
<asrwt>0</asrwt>
<pdfrwt beam="1">  1        3 0.23600820E+00 0.35105560E+03</pdfrwt>
<pdfrwt beam="2">  1       -3 0.30898545E-02 0.35105560E+03</pdfrwt>
<totfact> 0.12308940E+02</totfact>
</mgrwt>
</event>
<event>
 4    1  0.1866622E-004  0.2635312E+03  0.7818608E-02  0.1105040E+00
         -2   -1    0    0    0  501 -0.00000000000E+00  0.00000000000E+00  0.34871539803E+02  0.34871539803E+02  0.00000000000E+00 0. -1.
          2   -1    0    0  501    0  0.00000000000E+00 -0.00000000000E+00 -0.49788938942E+03  0.49788938942E+03  0.00000000000E+00 0. -1.
         25    1    1    2    0    0 -0.17046161508E+02 -0.18926944105E+02 -0.32874396848E+03  0.35088658801E+03  0.12000000000E+03 0.  0.
         25    1    1    2    0    0  0.17046161508E+02  0.18926944105E+02 -0.13427388114E+03  0.18187434121E+03  0.12000000000E+03 0.  0.
<mgrwt>
<rscale>  0 0.26353117E+03</rscale>
<asrwt>0</asrwt>
<pdfrwt beam="1">  1        2 0.76598371E-01 0.26353117E+03</pdfrwt>
<pdfrwt beam="2">  1       -2 0.53648520E-02 0.26353117E+03</pdfrwt>
<totfact> 0.10905512E+04</totfact>
</mgrwt>
</event>
<event>
 4    1  0.1866622E-004  0.3283757E+03  0.7818608E-02  0.1071858E+00
          3   -1    0    0  501    0  0.00000000000E+00  0.00000000000E+00  0.10133766030E+04  0.10133766030E+04  0.00000000000E+00 0. -1.
         -3   -1    0    0    0  501 -0.00000000000E+00 -0.00000000000E+00 -0.26601809412E+02  0.26601809412E+02  0.00000000000E+00 0. -1.
         25    1    1    2    0    0  0.74785450988E+01 -0.10175853733E+03  0.34664300678E+03  0.38075202259E+03  0.12000000000E+03 0.  0.
         25    1    1    2    0    0 -0.74785450988E+01  0.10175853733E+03  0.64013178684E+03  0.65922638985E+03  0.12000000000E+03 0.  0.
<mgrwt>
<rscale>  0 0.32837571E+03</rscale>
<asrwt>0</asrwt>
<pdfrwt beam="1">  1        3 0.15590406E+00 0.32837571E+03</pdfrwt>
<pdfrwt beam="2">  1       -3 0.40925868E-02 0.32837571E+03</pdfrwt>
<totfact> 0.25001222E+02</totfact>
</mgrwt>
</event>
<event>
 4    1  0.1866622E-004  0.3129722E+03  0.7818608E-02  0.1078930E+00
         -2   -1    0    0    0  501 -0.00000000000E+00  0.00000000000E+00  0.15927985769E+02  0.15927985769E+02  0.00000000000E+00 0.  1.
          2   -1    0    0  501    0  0.00000000000E+00 -0.00000000000E+00 -0.15374135388E+04  0.15374135388E+04  0.00000000000E+00 0.  1.
         25    1    1    2    0    0  0.89316910859E+02 -0.17860637582E+02 -0.55067665849E+03  0.57091268609E+03  0.12000000000E+03 0.  0.
         25    1    1    2    0    0 -0.89316910859E+02  0.17860637582E+02 -0.97080889451E+03  0.98242883844E+03  0.12000000000E+03 0.  0.
<mgrwt>
<rscale>  0 0.31297221E+03</rscale>
<asrwt>0</asrwt>
<pdfrwt beam="1">  1        2 0.23652520E+00 0.31297221E+03</pdfrwt>
<pdfrwt beam="2">  1       -2 0.24504590E-02 0.31297221E+03</pdfrwt>
<totfact> 0.74749012E+03</totfact>
</mgrwt>
</event>
<event>
 4    1  0.1866622E-004  0.5614073E+03  0.7818608E-02  0.9988875E-01
         -1   -1    0    0    0  501 -0.00000000000E+00  0.00000000000E+00  0.14931720480E+03  0.14931720480E+03  0.00000000000E+00 0. -1.
          1   -1    0    0  501    0  0.00000000000E+00 -0.00000000000E+00 -0.52769903737E+03  0.52769903737E+03  0.00000000000E+00 0. -1.
         25    1    1    2    0    0 -0.10838171696E+03  0.43322441331E+02 -0.46091577089E+03  0.49037412080E+03  0.12000000000E+03 0.  0.
         25    1    1    2    0    0  0.10838171696E+03 -0.43322441331E+02  0.82533938320E+02  0.18664212137E+03  0.12000000000E+03 0.  0.
<mgrwt>
<rscale>  0 0.56140732E+03</rscale>
<asrwt>0</asrwt>
<pdfrwt beam="1">  1        1 0.81184466E-01 0.56140732E+03</pdfrwt>
<pdfrwt beam="2">  1       -1 0.22971878E-01 0.56140732E+03</pdfrwt>
<totfact> 0.67095742E+02</totfact>
</mgrwt>
</event>
<event>
 4    1  0.1866622E-004  0.6028879E+03  0.7818608E-02  0.9899433E-01
         -2   -1    0    0    0  501 -0.00000000000E+00  0.00000000000E+00  0.82214149406E+02  0.82214149406E+02  0.00000000000E+00 0.  1.
          2   -1    0    0  501    0  0.00000000000E+00 -0.00000000000E+00 -0.11052654183E+04  0.11052654183E+04  0.00000000000E+00 0.  1.
         25    1    1    2    0    0 -0.25338712664E+03  0.49802939546E+01 -0.29362637894E+03  0.40601267182E+03  0.12000000000E+03 0.  0.
         25    1    1    2    0    0  0.25338712664E+03 -0.49802939546E+01 -0.72942488996E+03  0.78146689588E+03  0.12000000000E+03 0.  0.
<mgrwt>
<rscale>  0 0.60288790E+03</rscale>
<asrwt>0</asrwt>
<pdfrwt beam="1">  1        2 0.17004081E+00 0.60288790E+03</pdfrwt>
<pdfrwt beam="2">  1       -2 0.12648332E-01 0.60288790E+03</pdfrwt>
<totfact> 0.10184765E+03</totfact>
</mgrwt>
</event>
<event>
 4    1  0.1866622E-004  0.2517565E+03  0.7818608E-02  0.1112200E+00
         -2   -1    0    0    0  501 -0.00000000000E+00  0.00000000000E+00  0.43742619645E+02  0.43742619645E+02  0.00000000000E+00 0.  1.
          2   -1    0    0  501    0  0.00000000000E+00 -0.00000000000E+00 -0.36224009255E+03  0.36224009255E+03  0.00000000000E+00 0.  1.
         25    1    1    2    0    0  0.25156427099E+01 -0.31503661639E+02 -0.12517278053E+03  0.17625842999E+03  0.12000000000E+03 0.  0.
         25    1    1    2    0    0 -0.25156427099E+01  0.31503661639E+02 -0.19332469237E+03  0.22972428221E+03  0.12000000000E+03 0.  0.
<mgrwt>
<rscale>  0 0.25175647E+03</rscale>
<asrwt>0</asrwt>
<pdfrwt beam="1">  1        2 0.55729245E-01 0.25175647E+03</pdfrwt>
<pdfrwt beam="2">  1       -2 0.67296338E-02 0.25175647E+03</pdfrwt>
<totfact> 0.10888102E+04</totfact>
</mgrwt>
</event>
<event>
 4    1  0.1866622E-004  0.2582335E+03  0.7818608E-02  0.1108209E+00
          3   -1    0    0  501    0  0.00000000000E+00  0.00000000000E+00  0.10380881727E+03  0.10380881727E+03  0.00000000000E+00 0. -1.
         -3   -1    0    0    0  501 -0.00000000000E+00 -0.00000000000E+00 -0.16059465442E+03  0.16059465442E+03  0.00000000000E+00 0. -1.
         25    1    1    2    0    0  0.82863427162E+01  0.37528387414E+02 -0.57245952690E+02  0.13839849145E+03  0.12000000000E+03 0.  0.
         25    1    1    2    0    0 -0.82863427162E+01 -0.37528387414E+02  0.46011554002E+00  0.12600498023E+03  0.12000000000E+03 0.  0.
<mgrwt>
<rscale>  0 0.25823355E+03</rscale>
<asrwt>0</asrwt>
<pdfrwt beam="1">  1        3 0.15970587E-01 0.25823355E+03</pdfrwt>
<pdfrwt beam="2">  1       -3 0.24706870E-01 0.25823355E+03</pdfrwt>
<totfact> 0.12914853E+03</totfact>
</mgrwt>
</event>
<event>
 4    1  0.1866622E-004  0.2935019E+03  0.7818608E-02  0.1088535E+00
          4   -1    0    0  501    0  0.00000000000E+00  0.00000000000E+00  0.78806869531E+03  0.78806869531E+03  0.00000000000E+00 0.  1.
         -4   -1    0    0    0  501 -0.00000000000E+00 -0.00000000000E+00 -0.27327357040E+02  0.27327357040E+02  0.00000000000E+00 0.  1.
         25    1    1    2    0    0 -0.56264734891E+02  0.49621731345E+02  0.27249355103E+03  0.30705174151E+03  0.12000000000E+03 0.  0.
         25    1    1    2    0    0  0.56264734891E+02 -0.49621731345E+02  0.48824778724E+03  0.50834431083E+03  0.12000000000E+03 0.  0.
<mgrwt>
<rscale>  0 0.29350185E+03</rscale>
<asrwt>0</asrwt>
<pdfrwt beam="1">  1        4 0.12124132E+00 0.29350185E+03</pdfrwt>
<pdfrwt beam="2">  1       -4 0.42042094E-02 0.29350185E+03</pdfrwt>
<totfact> 0.32101547E+02</totfact>
</mgrwt>
</event>
<event>
 4    1  0.1866622E-004  0.2842718E+03  0.7818608E-02  0.1093378E+00
          1   -1    0    0  501    0  0.00000000000E+00  0.00000000000E+00  0.23173746780E+04  0.23173746780E+04  0.00000000000E+00 0.  1.
         -1   -1    0    0    0  501 -0.00000000000E+00 -0.00000000000E+00 -0.87178896644E+01  0.87178896644E+01  0.00000000000E+00 0.  1.
         25    1    1    2    0    0 -0.75059229399E+02  0.12658630229E+02  0.11304890805E+04  0.11393856634E+04  0.12000000000E+03 0.  0.
         25    1    1    2    0    0  0.75059229399E+02 -0.12658630229E+02  0.11781677079E+04  0.11867069043E+04  0.12000000000E+03 0.  0.
<mgrwt>
<rscale>  0 0.28427182E+03</rscale>
<asrwt>0</asrwt>
<pdfrwt beam="1">  1        1 0.35651869E+00 0.28427182E+03</pdfrwt>
<pdfrwt beam="2">  1       -1 0.13412156E-02 0.28427182E+03</pdfrwt>
<totfact> 0.25712157E+03</totfact>
</mgrwt>
</event>
<event>
 4    1  0.1866622E-004  0.2716315E+03  0.7818608E-02  0.1100349E+00
          1   -1    0    0  501    0  0.00000000000E+00  0.00000000000E+00  0.31119848637E+02  0.31119848637E+02  0.00000000000E+00 0. -1.
         -1   -1    0    0    0  501 -0.00000000000E+00 -0.00000000000E+00 -0.59273802374E+03  0.59273802374E+03  0.00000000000E+00 0. -1.
         25    1    1    2    0    0  0.11004547499E+02 -0.14322941981E+02 -0.14073500465E+03  0.18582946017E+03  0.12000000000E+03 0.  0.
         25    1    1    2    0    0 -0.11004547499E+02  0.14322941981E+02 -0.42088317044E+03  0.43802841220E+03  0.12000000000E+03 0.  0.
<mgrwt>
<rscale>  0 0.27163150E+03</rscale>
<asrwt>0</asrwt>
<pdfrwt beam="1">  1        1 0.47876693E-02 0.27163150E+03</pdfrwt>
<pdfrwt beam="2">  1       -1 0.91190460E-01 0.27163150E+03</pdfrwt>
<totfact> 0.21798161E+03</totfact>
</mgrwt>
</event>
<event>
 4    1  0.1866622E-004  0.2575168E+03  0.7818608E-02  0.1108644E+00
         -4   -1    0    0    0  501 -0.00000000000E+00  0.00000000000E+00  0.12362760394E+02  0.12362760394E+02  0.00000000000E+00 0. -1.
          4   -1    0    0  501    0  0.00000000000E+00 -0.00000000000E+00 -0.13410210976E+04  0.13410210976E+04  0.00000000000E+00 0. -1.
         25    1    1    2    0    0  0.25201148673E+01 -0.39910528588E+02 -0.53781180171E+03  0.55248595939E+03  0.12000000000E+03 0.  0.
         25    1    1    2    0    0 -0.25201148673E+01  0.39910528588E+02 -0.79084653548E+03  0.80089789858E+03  0.12000000000E+03 0.  0.
<mgrwt>
<rscale>  0 0.25751678E+03</rscale>
<asrwt>0</asrwt>
<pdfrwt beam="1">  1        4 0.20631092E+00 0.25751678E+03</pdfrwt>
<pdfrwt beam="2">  1       -4 0.19019633E-02 0.25751678E+03</pdfrwt>
<totfact> 0.26820571E+02</totfact>
</mgrwt>
</event>
<event>
 4    1  0.1866622E-004  0.3003826E+03  0.7818608E-02  0.1085050E+00
          2   -1    0    0  501    0  0.00000000000E+00  0.00000000000E+00  0.69269406860E+03  0.69269406860E+03  0.00000000000E+00 0.  1.
         -2   -1    0    0    0  501 -0.00000000000E+00 -0.00000000000E+00 -0.32564769475E+02  0.32564769475E+02  0.00000000000E+00 0.  1.
         25    1    1    2    0    0 -0.56472243390E+02  0.30343971590E+02  0.17645641347E+03  0.22281547689E+03  0.12000000000E+03 0.  0.
         25    1    1    2    0    0  0.56472243390E+02 -0.30343971590E+02  0.48367288565E+03  0.50244336119E+03  0.12000000000E+03 0.  0.
<mgrwt>
<rscale>  0 0.30038257E+03</rscale>
<asrwt>0</asrwt>
<pdfrwt beam="1">  1        2 0.10656831E+00 0.30038257E+03</pdfrwt>
<pdfrwt beam="2">  1       -2 0.50099650E-02 0.30038257E+03</pdfrwt>
<totfact> 0.82919636E+03</totfact>
</mgrwt>
</event>
<event>
 4    1  0.1866622E-004  0.2480864E+03  0.7818608E-02  0.1114520E+00
         -3   -1    0    0    0  501 -0.00000000000E+00  0.00000000000E+00  0.21839635875E+03  0.21839635875E+03  0.00000000000E+00 0. -1.
          3   -1    0    0  501    0  0.00000000000E+00 -0.00000000000E+00 -0.70453178308E+02  0.70453178308E+02  0.00000000000E+00 0. -1.
         25    1    1    2    0    0  0.23331187147E+02  0.71323609346E+01  0.97009129603E+02  0.15622415336E+03  0.12000000000E+03 0.  0.
         25    1    1    2    0    0 -0.23331187147E+02 -0.71323609346E+01  0.50934050836E+02  0.13262538370E+03  0.12000000000E+03 0.  0.
<mgrwt>
<rscale>  0 0.24808642E+03</rscale>
<asrwt>0</asrwt>
<pdfrwt beam="1">  1        3 0.10838951E-01 0.24808642E+03</pdfrwt>
<pdfrwt beam="2">  1       -3 0.33599439E-01 0.24808642E+03</pdfrwt>
<totfact> 0.14069588E+03</totfact>
</mgrwt>
</event>
<event>
 4    1  0.1866622E-004  0.3888167E+03  0.7818608E-02  0.1047722E+00
         -1   -1    0    0    0  501 -0.00000000000E+00  0.00000000000E+00  0.10034935405E+03  0.10034935405E+03  0.00000000000E+00 0.  1.
          1   -1    0    0  501    0  0.00000000000E+00 -0.00000000000E+00 -0.37663027758E+03  0.37663027758E+03  0.00000000000E+00 0.  1.
         25    1    1    2    0    0 -0.59219863408E+02  0.12025363753E+03 -0.47770965997E+02  0.18614509060E+03  0.12000000000E+03 0.  0.
         25    1    1    2    0    0  0.59219863408E+02 -0.12025363753E+03 -0.22850995753E+03  0.29083454103E+03  0.12000000000E+03 0.  0.
<mgrwt>
<rscale>  0 0.38881669E+03</rscale>
<asrwt>0</asrwt>
<pdfrwt beam="1">  1        1 0.57943119E-01 0.38881669E+03</pdfrwt>
<pdfrwt beam="2">  1       -1 0.15438362E-01 0.38881669E+03</pdfrwt>
<totfact> 0.20189035E+03</totfact>
</mgrwt>
</event>
<event>
 4    1  0.1866622E-004  0.3367699E+03  0.7818608E-02  0.1068180E+00
          1   -1    0    0  501    0  0.00000000000E+00  0.00000000000E+00  0.17733431690E+04  0.17733431690E+04  0.00000000000E+00 0.  1.
         -1   -1    0    0    0  501 -0.00000000000E+00 -0.00000000000E+00 -0.15988726255E+02  0.15988726255E+02  0.00000000000E+00 0.  1.
         25    1    1    2    0    0 -0.34672271200E+02  0.11060616122E+03  0.99955836831E+03  0.10133868072E+04  0.12000000000E+03 0.  0.
         25    1    1    2    0    0  0.34672271200E+02 -0.11060616122E+03  0.75779607439E+03  0.77594508804E+03  0.12000000000E+03 0.  0.
<mgrwt>
<rscale>  0 0.33676994E+03</rscale>
<asrwt>0</asrwt>
<pdfrwt beam="1">  1        1 0.27282187E+00 0.33676994E+03</pdfrwt>
<pdfrwt beam="2">  1       -1 0.24598054E-02 0.33676994E+03</pdfrwt>
<totfact> 0.23919155E+03</totfact>
</mgrwt>
</event>
<event>
 4    1  0.1866622E-004  0.3020787E+03  0.7818608E-02  0.1084206E+00
          2   -1    0    0  501    0  0.00000000000E+00  0.00000000000E+00  0.41773586088E+03  0.41773586088E+03  0.00000000000E+00 0.  1.
         -2   -1    0    0    0  501 -0.00000000000E+00 -0.00000000000E+00 -0.54610807731E+02  0.54610807731E+02  0.00000000000E+00 0.  1.
         25    1    1    2    0    0  0.14723610921E+02 -0.32025694927E+02  0.49154510397E+02  0.13438227467E+03  0.12000000000E+03 0.  0.
         25    1    1    2    0    0 -0.14723610921E+02  0.32025694927E+02  0.31397054275E+03  0.33796439394E+03  0.12000000000E+03 0.  0.
<mgrwt>
<rscale>  0 0.30207875E+03</rscale>
<asrwt>0</asrwt>
<pdfrwt beam="1">  1        2 0.64267053E-01 0.30207875E+03</pdfrwt>
<pdfrwt beam="2">  1       -2 0.84016630E-02 0.30207875E+03</pdfrwt>
<totfact> 0.66492556E+03</totfact>
</mgrwt>
</event>
<event>
 4    1  0.1866622E-004  0.2658167E+03  0.7818608E-02  0.1103698E+00
          2   -1    0    0  501    0  0.00000000000E+00  0.00000000000E+00  0.14063648680E+04  0.14063648680E+04  0.00000000000E+00 0. -1.
         -2   -1    0    0    0  501 -0.00000000000E+00 -0.00000000000E+00 -0.12560483629E+02  0.12560483629E+02  0.00000000000E+00 0. -1.
         25    1    1    2    0    0  0.11751706143E+02 -0.53445706923E+02  0.60917768481E+03  0.62329126246E+03  0.12000000000E+03 0.  0.
         25    1    1    2    0    0 -0.11751706143E+02  0.53445706923E+02  0.78462669954E+03  0.79563408915E+03  0.12000000000E+03 0.  0.
<mgrwt>
<rscale>  0 0.26581665E+03</rscale>
<asrwt>0</asrwt>
<pdfrwt beam="1">  1        2 0.21636370E+00 0.26581665E+03</pdfrwt>
<pdfrwt beam="2">  1       -2 0.19323832E-02 0.26581665E+03</pdfrwt>
<totfact> 0.12451238E+04</totfact>
</mgrwt>
</event>
<event>
 4    1  0.1866622E-004  0.3157530E+03  0.7818608E-02  0.1077621E+00
          2   -1    0    0  501    0  0.00000000000E+00  0.00000000000E+00  0.16391073965E+04  0.16391073965E+04  0.00000000000E+00 0. -1.
         -2   -1    0    0    0  501 -0.00000000000E+00 -0.00000000000E+00 -0.15206441784E+02  0.15206441784E+02  0.00000000000E+00 0. -1.
         25    1    1    2    0    0 -0.84709554262E+02 -0.52235893547E+02  0.94248013212E+03  0.95528691847E+03  0.12000000000E+03 0.  0.
         25    1    1    2    0    0  0.84709554262E+02  0.52235893547E+02  0.68142082261E+03  0.69902691983E+03  0.12000000000E+03 0.  0.
<mgrwt>
<rscale>  0 0.31575301E+03</rscale>
<asrwt>0</asrwt>
<pdfrwt beam="1">  1        2 0.25217023E+00 0.31575301E+03</pdfrwt>
<pdfrwt beam="2">  1       -2 0.23394539E-02 0.31575301E+03</pdfrwt>
<totfact> 0.70675206E+03</totfact>
</mgrwt>
</event>
<event>
 4    1  0.1866622E-004  0.3314601E+03  0.7818608E-02  0.1070493E+00
          1   -1    0    0  501    0  0.00000000000E+00  0.00000000000E+00  0.38437203214E+04  0.38437203214E+04  0.00000000000E+00 0. -1.
         -1   -1    0    0    0  501 -0.00000000000E+00 -0.00000000000E+00 -0.71457968448E+01  0.71457968448E+01  0.00000000000E+00 0. -1.
         25    1    1    2    0    0 -0.14412532560E+02 -0.10810009472E+03  0.15203694153E+04  0.15289919916E+04  0.12000000000E+03 0.  0.
         25    1    1    2    0    0  0.14412532560E+02  0.10810009472E+03  0.23162051092E+04  0.23218741266E+04  0.12000000000E+03 0.  0.
<mgrwt>
<rscale>  0 0.33146007E+03</rscale>
<asrwt>0</asrwt>
<pdfrwt beam="1">  1        1 0.59133994E+00 0.33146007E+03</pdfrwt>
<pdfrwt beam="2">  1       -1 0.10993564E-02 0.33146007E+03</pdfrwt>
<totfact> 0.27343953E+02</totfact>
</mgrwt>
</event>
<event>
 4    1  0.1866622E-004  0.2517797E+03  0.7818608E-02  0.1112185E+00
         -4   -1    0    0    0  501 -0.00000000000E+00  0.00000000000E+00  0.79073404924E+02  0.79073404924E+02  0.00000000000E+00 0. -1.
          4   -1    0    0  501    0  0.00000000000E+00 -0.00000000000E+00 -0.20042466071E+03  0.20042466071E+03  0.00000000000E+00 0. -1.
         25    1    1    2    0    0  0.49612193765E+01 -0.37731019746E+02 -0.60531724197E+02  0.13968655334E+03  0.12000000000E+03 0.  0.
         25    1    1    2    0    0 -0.49612193765E+01  0.37731019746E+02 -0.60819531594E+02  0.13981151230E+03  0.12000000000E+03 0.  0.
<mgrwt>
<rscale>  0 0.25177975E+03</rscale>
<asrwt>0</asrwt>
<pdfrwt beam="1">  1        4 0.30834563E-01 0.25177975E+03</pdfrwt>
<pdfrwt beam="2">  1       -4 0.12165139E-01 0.25177975E+03</pdfrwt>
<totfact> 0.10145437E+03</totfact>
</mgrwt>
</event>
<event>
 4    1  0.1866622E-004  0.3579592E+03  0.7818608E-02  0.1059395E+00
          2   -1    0    0  501    0  0.00000000000E+00  0.00000000000E+00  0.39044312843E+04  0.39044312843E+04  0.00000000000E+00 0. -1.
         -2   -1    0    0    0  501 -0.00000000000E+00 -0.00000000000E+00 -0.82044452469E+01  0.82044452469E+01  0.00000000000E+00 0. -1.
         25    1    1    2    0    0 -0.54631267244E+02  0.59359746593E+02  0.79520071348E+03  0.80824026724E+03  0.12000000000E+03 0.  0.
         25    1    1    2    0    0  0.54631267244E+02 -0.59359746593E+02  0.31010261255E+04  0.31043954623E+04  0.12000000000E+03 0.  0.
<mgrwt>
<rscale>  0 0.35795917E+03</rscale>
<asrwt>0</asrwt>
<pdfrwt beam="1">  1        2 0.60068025E+00 0.35795917E+03</pdfrwt>
<pdfrwt beam="2">  1       -2 0.12622255E-02 0.35795917E+03</pdfrwt>
<totfact> 0.78735577E+02</totfact>
</mgrwt>
</event>
<event>
 4    1  0.1866622E-004  0.2421580E+03  0.7818608E-02  0.1118364E+00
          1   -1    0    0  501    0  0.00000000000E+00  0.00000000000E+00  0.15788972697E+03  0.15788972697E+03  0.00000000000E+00 0. -1.
         -1   -1    0    0    0  501 -0.00000000000E+00 -0.00000000000E+00 -0.92850408834E+02  0.92850408834E+02  0.00000000000E+00 0. -1.
         25    1    1    2    0    0 -0.44073383220E+01  0.11406453543E+02  0.21630594483E+02  0.12254556063E+03  0.12000000000E+03 0.  0.
         25    1    1    2    0    0  0.44073383220E+01 -0.11406453543E+02  0.43408723651E+02  0.12819457517E+03  0.12000000000E+03 0.  0.
<mgrwt>
<rscale>  0 0.24215801E+03</rscale>
<asrwt>0</asrwt>
<pdfrwt beam="1">  1        1 0.24290727E-01 0.24215801E+03</pdfrwt>
<pdfrwt beam="2">  1       -1 0.14284678E-01 0.24215801E+03</pdfrwt>
<totfact> 0.67929450E+03</totfact>
</mgrwt>
</event>
<event>
 4    1  0.1866622E-004  0.2636845E+03  0.7818608E-02  0.1104949E+00
          2   -1    0    0  501    0  0.00000000000E+00  0.00000000000E+00  0.68399798211E+03  0.68399798211E+03  0.00000000000E+00 0. -1.
         -2   -1    0    0    0  501 -0.00000000000E+00 -0.00000000000E+00 -0.25412917480E+02  0.25412917480E+02  0.00000000000E+00 0. -1.
         25    1    1    2    0    0 -0.47454974707E+01 -0.41475549430E+02  0.42401686657E+03  0.44264324696E+03  0.12000000000E+03 0.  0.
         25    1    1    2    0    0  0.47454974707E+01  0.41475549430E+02  0.23456819806E+03  0.26676765262E+03  0.12000000000E+03 0.  0.
<mgrwt>
<rscale>  0 0.26368454E+03</rscale>
<asrwt>0</asrwt>
<pdfrwt beam="1">  1        2 0.10523044E+00 0.26368454E+03</pdfrwt>
<pdfrwt beam="2">  1       -2 0.39096801E-02 0.26368454E+03</pdfrwt>
<totfact> 0.12195133E+04</totfact>
</mgrwt>
</event>
<event>
 4    1  0.1866622E-004  0.2985643E+03  0.7818608E-02  0.1085961E+00
         -4   -1    0    0    0  501 -0.00000000000E+00  0.00000000000E+00  0.18838251279E+02  0.18838251279E+02  0.00000000000E+00 0. -1.
          4   -1    0    0  501    0  0.00000000000E+00 -0.00000000000E+00 -0.11829740912E+04  0.11829740912E+04  0.00000000000E+00 0. -1.
         25    1    1    2    0    0 -0.11494072911E+01 -0.88635361171E+02 -0.56091503034E+03  0.58041641917E+03  0.12000000000E+03 0.  0.
         25    1    1    2    0    0  0.11494072911E+01  0.88635361171E+02 -0.60322080956E+03  0.62139592328E+03  0.12000000000E+03 0.  0.
<mgrwt>
<rscale>  0 0.29856432E+03</rscale>
<asrwt>0</asrwt>
<pdfrwt beam="1">  1        4 0.18199604E+00 0.29856432E+03</pdfrwt>
<pdfrwt beam="2">  1       -4 0.28981921E-02 0.29856432E+03</pdfrwt>
<totfact> 0.20214937E+02</totfact>
</mgrwt>
</event>
<event>
 4    1  0.1866622E-004  0.2965281E+03  0.7818608E-02  0.1086989E+00
          1   -1    0    0  501    0  0.00000000000E+00  0.00000000000E+00  0.89789105563E+02  0.89789105563E+02  0.00000000000E+00 0. -1.
         -1   -1    0    0    0  501 -0.00000000000E+00 -0.00000000000E+00 -0.24482062002E+03  0.24482062002E+03  0.00000000000E+00 0. -1.
         25    1    1    2    0    0  0.24844800802E+02  0.81671541712E+02 -0.58143631217E+02  0.15832936147E+03  0.12000000000E+03 0.  0.
         25    1    1    2    0    0 -0.24844800802E+02 -0.81671541712E+02 -0.96887883236E+02  0.17628036411E+03  0.12000000000E+03 0.  0.
<mgrwt>
<rscale>  0 0.29652807E+03</rscale>
<asrwt>0</asrwt>
<pdfrwt beam="1">  1        1 0.13813709E-01 0.29652807E+03</pdfrwt>
<pdfrwt beam="2">  1       -1 0.37664710E-01 0.29652807E+03</pdfrwt>
<totfact> 0.28528480E+03</totfact>
</mgrwt>
</event>
<event>
 4    1  0.1866622E-004  0.3254234E+03  0.7818608E-02  0.1073180E+00
         -2   -1    0    0    0  501 -0.00000000000E+00  0.00000000000E+00  0.10432440130E+03  0.10432440130E+03  0.00000000000E+00 0. -1.
          2   -1    0    0  501    0  0.00000000000E+00 -0.00000000000E+00 -0.25377670957E+03  0.25377670957E+03  0.00000000000E+00 0. -1.
         25    1    1    2    0    0 -0.20218156229E+01  0.10429144293E+03 -0.36697105322E+02  0.16317925832E+03  0.12000000000E+03 0.  0.
         25    1    1    2    0    0  0.20218156229E+01 -0.10429144293E+03 -0.11275520295E+03  0.19492185255E+03  0.12000000000E+03 0.  0.
<mgrwt>
<rscale>  0 0.32542344E+03</rscale>
<asrwt>0</asrwt>
<pdfrwt beam="1">  1        2 0.39042571E-01 0.32542344E+03</pdfrwt>
<pdfrwt beam="2">  1       -2 0.16049908E-01 0.32542344E+03</pdfrwt>
<totfact> 0.40150101E+03</totfact>
</mgrwt>
</event>
<event>
 4    1  0.1866622E-004  0.4317975E+03  0.7818608E-02  0.1033294E+00
         -2   -1    0    0    0  501 -0.00000000000E+00  0.00000000000E+00  0.91819365012E+01  0.91819365012E+01  0.00000000000E+00 0.  1.
          2   -1    0    0  501    0  0.00000000000E+00 -0.00000000000E+00 -0.50765194384E+04  0.50765194384E+04  0.00000000000E+00 0.  1.
         25    1    1    2    0    0 -0.37838724852E+02  0.16291134797E+03 -0.17667060504E+04  0.17786573996E+04  0.12000000000E+03 0.  0.
         25    1    1    2    0    0  0.37838724852E+02 -0.16291134797E+03 -0.33006314515E+04  0.33070439754E+04  0.12000000000E+03 0.  0.
<mgrwt>
<rscale>  0 0.43179754E+03</rscale>
<asrwt>0</asrwt>
<pdfrwt beam="1">  1        2 0.78100398E+00 0.43179754E+03</pdfrwt>
<pdfrwt beam="2">  1       -2 0.14126038E-02 0.43179754E+03</pdfrwt>
<totfact> 0.49211641E+01</totfact>
</mgrwt>
</event>
<event>
 4    1  0.1866622E-004  0.3679246E+03  0.7818608E-02  0.1055489E+00
          1   -1    0    0  501    0  0.00000000000E+00  0.00000000000E+00  0.21066235876E+04  0.21066235876E+04  0.00000000000E+00 0.  1.
         -1   -1    0    0    0  501 -0.00000000000E+00 -0.00000000000E+00 -0.16064633063E+02  0.16064633063E+02  0.00000000000E+00 0.  1.
         25    1    1    2    0    0 -0.99986088452E+02 -0.66189263244E+02  0.14558330476E+04  0.14656834920E+04  0.12000000000E+03 0.  0.
         25    1    1    2    0    0  0.99986088452E+02  0.66189263244E+02  0.63472590696E+03  0.65700472862E+03  0.12000000000E+03 0.  0.
<mgrwt>
<rscale>  0 0.36792464E+03</rscale>
<asrwt>0</asrwt>
<pdfrwt beam="1">  1        1 0.32409572E+00 0.36792464E+03</pdfrwt>
<pdfrwt beam="2">  1       -1 0.24714837E-02 0.36792464E+03</pdfrwt>
<totfact> 0.14349539E+03</totfact>
</mgrwt>
</event>
<event>
 4    1  0.1866622E-004  0.2477289E+03  0.7818608E-02  0.1114749E+00
          1   -1    0    0  501    0  0.00000000000E+00  0.00000000000E+00  0.40881713823E+03  0.40881713823E+03  0.00000000000E+00 0. -1.
         -1   -1    0    0    0  501 -0.00000000000E+00 -0.00000000000E+00 -0.37528755713E+02  0.37528755713E+02  0.00000000000E+00 0. -1.
         25    1    1    2    0    0 -0.23857296487E+02  0.15359194241E+02  0.20675800414E+03  0.24073626174E+03  0.12000000000E+03 0.  0.
         25    1    1    2    0    0  0.23857296487E+02 -0.15359194241E+02  0.16453037838E+03  0.20560963220E+03  0.12000000000E+03 0.  0.
<mgrwt>
<rscale>  0 0.24772887E+03</rscale>
<asrwt>0</asrwt>
<pdfrwt beam="1">  1        1 0.62894941E-01 0.24772887E+03</pdfrwt>
<pdfrwt beam="2">  1       -1 0.57736550E-02 0.24772887E+03</pdfrwt>
<totfact> 0.82444230E+03</totfact>
</mgrwt>
</event>
<event>
 4    1  0.1866622E-004  0.2410719E+03  0.7818608E-02  0.1119081E+00
          2   -1    0    0  501    0  0.00000000000E+00  0.00000000000E+00  0.15880415811E+04  0.15880415811E+04  0.00000000000E+00 0. -1.
         -2   -1    0    0    0  501 -0.00000000000E+00 -0.00000000000E+00 -0.91489493997E+01  0.91489493997E+01  0.00000000000E+00 0. -1.
         25    1    1    2    0    0  0.49470178876E+01 -0.28412222384E+01  0.72440739650E+03  0.73430145147E+03  0.12000000000E+03 0.  0.
         25    1    1    2    0    0 -0.49470178876E+01  0.28412222384E+01  0.85448523519E+03  0.86288907901E+03  0.12000000000E+03 0.  0.
<mgrwt>
<rscale>  0 0.24107187E+03</rscale>
<asrwt>0</asrwt>
<pdfrwt beam="1">  1        2 0.24431387E+00 0.24107187E+03</pdfrwt>
<pdfrwt beam="2">  1       -2 0.14075319E-02 0.24107187E+03</pdfrwt>
<totfact> 0.15783662E+04</totfact>
</mgrwt>
</event>
<event>
 4    1  0.1866622E-004  0.3729744E+03  0.7818608E-02  0.1053561E+00
          1   -1    0    0  501    0  0.00000000000E+00  0.00000000000E+00  0.19933510070E+04  0.19933510070E+04  0.00000000000E+00 0.  1.
         -1   -1    0    0    0  501 -0.00000000000E+00 -0.00000000000E+00 -0.17446736328E+02  0.17446736328E+02  0.00000000000E+00 0.  1.
         25    1    1    2    0    0  0.16178989235E+02 -0.26219045773E+02  0.23649106756E+03  0.26697794495E+03  0.12000000000E+03 0.  0.
         25    1    1    2    0    0 -0.16178989235E+02  0.26219045773E+02  0.17394132031E+04  0.17438197984E+04  0.12000000000E+03 0.  0.
<mgrwt>
<rscale>  0 0.37297437E+03</rscale>
<asrwt>0</asrwt>
<pdfrwt beam="1">  1        1 0.30666921E+00 0.37297437E+03</pdfrwt>
<pdfrwt beam="2">  1       -1 0.26841149E-02 0.37297437E+03</pdfrwt>
<totfact> 0.15060215E+03</totfact>
</mgrwt>
</event>
<event>
 4    1  0.1866622E-004  0.2614608E+03  0.7818608E-02  0.1106269E+00
          4   -1    0    0  501    0  0.00000000000E+00  0.00000000000E+00  0.20888591414E+02  0.20888591414E+02  0.00000000000E+00 0.  1.
         -4   -1    0    0    0  501 -0.00000000000E+00 -0.00000000000E+00 -0.81817093466E+03  0.81817093466E+03  0.00000000000E+00 0.  1.
         25    1    1    2    0    0  0.48945625059E+02 -0.14805487292E+02 -0.37074548727E+03  0.39302301840E+03  0.12000000000E+03 0.  0.
         25    1    1    2    0    0 -0.48945625059E+02  0.14805487292E+02 -0.42653685598E+03  0.44603650767E+03  0.12000000000E+03 0.  0.
<mgrwt>
<rscale>  0 0.26146081E+03</rscale>
<asrwt>0</asrwt>
<pdfrwt beam="1">  1        4 0.32136292E-02 0.26146081E+03</pdfrwt>
<pdfrwt beam="2">  1       -4 0.12587246E+00 0.26146081E+03</pdfrwt>
<totfact> 0.44318636E+02</totfact>
</mgrwt>
</event>
<event>
 4    1  0.1866622E-004  0.4297945E+03  0.7818608E-02  0.1033925E+00
          2   -1    0    0  501    0  0.00000000000E+00  0.00000000000E+00  0.46778713151E+03  0.46778713151E+03  0.00000000000E+00 0. -1.
         -2   -1    0    0    0  501 -0.00000000000E+00 -0.00000000000E+00 -0.98721863704E+02  0.98721863704E+02  0.00000000000E+00 0. -1.
         25    1    1    2    0    0 -0.15518211026E+03 -0.14490721615E+02  0.29860174134E+03  0.35756743180E+03  0.12000000000E+03 0.  0.
         25    1    1    2    0    0  0.15518211026E+03  0.14490721615E+02  0.70463526465E+02  0.20894156341E+03  0.12000000000E+03 0.  0.
<mgrwt>
<rscale>  0 0.42979445E+03</rscale>
<asrwt>0</asrwt>
<pdfrwt beam="1">  1        2 0.71967250E-01 0.42979445E+03</pdfrwt>
<pdfrwt beam="2">  1       -2 0.15187979E-01 0.42979445E+03</pdfrwt>
<totfact> 0.22640369E+03</totfact>
</mgrwt>
</event>
<event>
 4    1  0.1866622E-004  0.3094880E+03  0.7818608E-02  0.1080592E+00
          2   -1    0    0  501    0  0.00000000000E+00  0.00000000000E+00  0.73462808506E+03  0.73462808506E+03  0.00000000000E+00 0.  1.
         -2   -1    0    0    0  501 -0.00000000000E+00 -0.00000000000E+00 -0.32595685704E+02  0.32595685704E+02  0.00000000000E+00 0.  1.
         25    1    1    2    0    0  0.20383941197E+02  0.87650239638E+02  0.25669528415E+03  0.29730546324E+03  0.12000000000E+03 0.  0.
         25    1    1    2    0    0 -0.20383941197E+02 -0.87650239638E+02  0.44533711520E+03  0.46991830752E+03  0.12000000000E+03 0.  0.
<mgrwt>
<rscale>  0 0.30948800E+03</rscale>
<asrwt>0</asrwt>
<pdfrwt beam="1">  1        2 0.11301969E+00 0.30948800E+03</pdfrwt>
<pdfrwt beam="2">  1       -2 0.50147214E-02 0.30948800E+03</pdfrwt>
<totfact> 0.77105922E+03</totfact>
</mgrwt>
</event>
<event>
 4    1  0.1866622E-004  0.4135333E+03  0.7818608E-02  0.1039192E+00
          1   -1    0    0  501    0  0.00000000000E+00  0.00000000000E+00  0.27454704567E+04  0.27454704567E+04  0.00000000000E+00 0.  1.
         -1   -1    0    0    0  501 -0.00000000000E+00 -0.00000000000E+00 -0.15571992345E+02  0.15571992345E+02  0.00000000000E+00 0.  1.
         25    1    1    2    0    0 -0.11157388763E+03 -0.49001564956E+02  0.58911193408E+03  0.61343520981E+03  0.12000000000E+03 0.  0.
         25    1    1    2    0    0  0.11157388763E+03  0.49001564956E+02  0.21407865303E+04  0.21476072392E+04  0.12000000000E+03 0.  0.
<mgrwt>
<rscale>  0 0.41353329E+03</rscale>
<asrwt>0</asrwt>
<pdfrwt beam="1">  1        1 0.42237969E+00 0.41353329E+03</pdfrwt>
<pdfrwt beam="2">  1       -1 0.23956933E-02 0.41353329E+03</pdfrwt>
<totfact> 0.55900725E+02</totfact>
</mgrwt>
</event>
<event>
 4    1  0.1866622E-004  0.3087289E+03  0.7818608E-02  0.1080957E+00
          4   -1    0    0  501    0  0.00000000000E+00  0.00000000000E+00  0.12697110415E+04  0.12697110415E+04  0.00000000000E+00 0.  1.
         -4   -1    0    0    0  501 -0.00000000000E+00 -0.00000000000E+00 -0.18766773458E+02  0.18766773458E+02  0.00000000000E+00 0.  1.
         25    1    1    2    0    0  0.60822310620E+02  0.70815310076E+02  0.73700812994E+03  0.75252584355E+03  0.12000000000E+03 0.  0.
         25    1    1    2    0    0 -0.60822310620E+02 -0.70815310076E+02  0.51393613809E+03  0.53595197140E+03  0.12000000000E+03 0.  0.
<mgrwt>
<rscale>  0 0.30872887E+03</rscale>
<asrwt>0</asrwt>
<pdfrwt beam="1">  1        4 0.19534009E+00 0.30872887E+03</pdfrwt>
<pdfrwt beam="2">  1       -4 0.28871969E-02 0.30872887E+03</pdfrwt>
<totfact> 0.16675580E+02</totfact>
</mgrwt>
</event>
<event>
 4    1  0.1866622E-004  0.3168612E+03  0.7818608E-02  0.1077103E+00
          1   -1    0    0  501    0  0.00000000000E+00  0.00000000000E+00  0.74491995354E+03  0.74491995354E+03  0.00000000000E+00 0.  1.
         -1   -1    0    0    0  501 -0.00000000000E+00 -0.00000000000E+00 -0.33695241937E+02  0.33695241937E+02  0.00000000000E+00 0.  1.
         25    1    1    2    0    0 -0.38923149180E+02 -0.85521911882E+02  0.24931570304E+03  0.29221110304E+03  0.12000000000E+03 0.  0.
         25    1    1    2    0    0  0.38923149180E+02  0.85521911882E+02  0.46190900856E+03  0.48640409244E+03  0.12000000000E+03 0.  0.
<mgrwt>
<rscale>  0 0.31686122E+03</rscale>
<asrwt>0</asrwt>
<pdfrwt beam="1">  1        1 0.11460306E+00 0.31686122E+03</pdfrwt>
<pdfrwt beam="2">  1       -1 0.51838840E-02 0.31686122E+03</pdfrwt>
<totfact> 0.42899571E+03</totfact>
</mgrwt>
</event>
<event>
 4    1  0.1866622E-004  0.2700278E+03  0.7818608E-02  0.1101264E+00
         -1   -1    0    0    0  501 -0.00000000000E+00  0.00000000000E+00  0.28245426886E+03  0.28245426886E+03  0.00000000000E+00 0. -1.
          1   -1    0    0  501    0  0.00000000000E+00 -0.00000000000E+00 -0.64537006338E+02  0.64537006338E+02  0.00000000000E+00 0. -1.
         25    1    1    2    0    0  0.17833635040E+01 -0.16505342711E+02  0.18555648831E+03  0.22160058005E+03  0.12000000000E+03 0.  0.
         25    1    1    2    0    0 -0.17833635040E+01  0.16505342711E+02  0.32360774215E+02  0.12539069515E+03  0.12000000000E+03 0.  0.
<mgrwt>
<rscale>  0 0.27002780E+03</rscale>
<asrwt>0</asrwt>
<pdfrwt beam="1">  1        1 0.99287704E-02 0.27002780E+03</pdfrwt>
<pdfrwt beam="2">  1       -1 0.43454502E-01 0.27002780E+03</pdfrwt>
<totfact> 0.34270523E+03</totfact>
</mgrwt>
</event>
<event>
 4    1  0.1866622E-004  0.3119759E+03  0.7818608E-02  0.1079403E+00
         -2   -1    0    0    0  501 -0.00000000000E+00  0.00000000000E+00  0.36767010870E+02  0.36767010870E+02  0.00000000000E+00 0.  1.
          2   -1    0    0  501    0  0.00000000000E+00 -0.00000000000E+00 -0.66179548566E+03  0.66179548566E+03  0.00000000000E+00 0.  1.
         25    1    1    2    0    0 -0.39372618574E+02  0.89625354480E+02 -0.35436515479E+03  0.38672673839E+03  0.12000000000E+03 0.  0.
         25    1    1    2    0    0  0.39372618574E+02 -0.89625354480E+02 -0.27066332000E+03  0.31183575814E+03  0.12000000000E+03 0.  0.
<mgrwt>
<rscale>  0 0.31197591E+03</rscale>
<asrwt>0</asrwt>
<pdfrwt beam="1">  1        2 0.10181468E+00 0.31197591E+03</pdfrwt>
<pdfrwt beam="2">  1       -2 0.56564635E-02 0.31197591E+03</pdfrwt>
<totfact> 0.72852064E+03</totfact>
</mgrwt>
</event>
<event>
 4    1  0.1866622E-004  0.2484995E+03  0.7818608E-02  0.1114257E+00
          2   -1    0    0  501    0  0.00000000000E+00  0.00000000000E+00  0.16296553401E+04  0.16296553401E+04  0.00000000000E+00 0.  1.
         -2   -1    0    0    0  501 -0.00000000000E+00 -0.00000000000E+00 -0.94731651759E+01  0.94731651759E+01  0.00000000000E+00 0.  1.
         25    1    1    2    0    0 -0.79472579575E+01  0.12451923693E+02  0.62123215576E+03  0.63288830030E+03  0.12000000000E+03 0.  0.
         25    1    1    2    0    0  0.79472579575E+01 -0.12451923693E+02  0.99895001920E+03  0.10062402050E+04  0.12000000000E+03 0.  0.
<mgrwt>
<rscale>  0 0.24849945E+03</rscale>
<asrwt>0</asrwt>
<pdfrwt beam="1">  1        2 0.25071598E+00 0.24849945E+03</pdfrwt>
<pdfrwt beam="2">  1       -2 0.14574113E-02 0.24849945E+03</pdfrwt>
<totfact> 0.14276405E+04</totfact>
</mgrwt>
</event>
<event>
 4    1  0.1866622E-004  0.2901946E+03  0.7818608E-02  0.1090248E+00
         -4   -1    0    0    0  501 -0.00000000000E+00  0.00000000000E+00  0.16240247026E+02  0.16240247026E+02  0.00000000000E+00 0.  1.
          4   -1    0    0  501    0  0.00000000000E+00 -0.00000000000E+00 -0.12963609944E+04  0.12963609944E+04  0.00000000000E+00 0.  1.
         25    1    1    2    0    0 -0.77825671686E+02  0.22867491523E+02 -0.60129133160E+03  0.61849092378E+03  0.12000000000E+03 0.  0.
         25    1    1    2    0    0  0.77825671686E+02 -0.22867491523E+02 -0.67882941576E+03  0.69411031763E+03  0.12000000000E+03 0.  0.
<mgrwt>
<rscale>  0 0.29019457E+03</rscale>
<asrwt>0</asrwt>
<pdfrwt beam="1">  1        4 0.19944016E+00 0.29019457E+03</pdfrwt>
<pdfrwt beam="2">  1       -4 0.24984994E-02 0.29019457E+03</pdfrwt>
<totfact> 0.19600175E+02</totfact>
</mgrwt>
</event>
<event>
 4    1  0.1866622E-004  0.2663221E+03  0.7818608E-02  0.1103403E+00
          3   -1    0    0  501    0  0.00000000000E+00  0.00000000000E+00  0.11441221534E+03  0.11441221534E+03  0.00000000000E+00 0.  1.
         -3   -1    0    0    0  501 -0.00000000000E+00 -0.00000000000E+00 -0.15498230080E+03  0.15498230080E+03  0.00000000000E+00 0.  1.
         25    1    1    2    0    0  0.31995104029E+02 -0.19911262483E+02 -0.64512709073E+02  0.14135782500E+03  0.12000000000E+03 0.  0.
         25    1    1    2    0    0 -0.31995104029E+02  0.19911262483E+02  0.23942623610E+02  0.12803669115E+03  0.12000000000E+03 0.  0.
<mgrwt>
<rscale>  0 0.26632212E+03</rscale>
<asrwt>0</asrwt>
<pdfrwt beam="1">  1        3 0.17601879E-01 0.26632212E+03</pdfrwt>
<pdfrwt beam="2">  1       -3 0.23843431E-01 0.26632212E+03</pdfrwt>
<totfact> 0.11667333E+03</totfact>
</mgrwt>
</event>
<event>
 4    1  0.1866622E-004  0.2701295E+03  0.7818608E-02  0.1101206E+00
          2   -1    0    0  501    0  0.00000000000E+00  0.00000000000E+00  0.39026871087E+03  0.39026871087E+03  0.00000000000E+00 0. -1.
         -2   -1    0    0    0  501 -0.00000000000E+00 -0.00000000000E+00 -0.46743395802E+02  0.46743395802E+02  0.00000000000E+00 0. -1.
         25    1    1    2    0    0 -0.55666601032E+02  0.24975080984E+02  0.15404366087E+03  0.20457755154E+03  0.12000000000E+03 0.  0.
         25    1    1    2    0    0  0.55666601032E+02 -0.24975080984E+02  0.18948165420E+03  0.23243455513E+03  0.12000000000E+03 0.  0.
<mgrwt>
<rscale>  0 0.27012949E+03</rscale>
<asrwt>0</asrwt>
<pdfrwt beam="1">  1        2 0.60041338E-01 0.27012949E+03</pdfrwt>
<pdfrwt beam="2">  1       -2 0.71912919E-02 0.27012949E+03</pdfrwt>
<totfact> 0.90932218E+03</totfact>
</mgrwt>
</event>
<event>
 4    1  0.1866622E-004  0.3611714E+03  0.7818608E-02  0.1058121E+00
         -1   -1    0    0    0  501 -0.00000000000E+00  0.00000000000E+00  0.26405137143E+02  0.26405137143E+02  0.00000000000E+00 0.  1.
          1   -1    0    0  501    0  0.00000000000E+00 -0.00000000000E+00 -0.12350322512E+04  0.12350322512E+04  0.00000000000E+00 0.  1.
         25    1    1    2    0    0 -0.11511759814E+03  0.13927765762E+01 -0.85022023932E+03  0.86633045461E+03  0.12000000000E+03 0.  0.
         25    1    1    2    0    0  0.11511759814E+03 -0.13927765762E+01 -0.35840687475E+03  0.39510693375E+03  0.12000000000E+03 0.  0.
<mgrwt>
<rscale>  0 0.36117141E+03</rscale>
<asrwt>0</asrwt>
<pdfrwt beam="1">  1        1 0.19000491E+00 0.36117141E+03</pdfrwt>
<pdfrwt beam="2">  1       -1 0.40623299E-02 0.36117141E+03</pdfrwt>
<totfact> 0.26042727E+03</totfact>
</mgrwt>
</event>
<event>
 4    1  0.1866622E-004  0.4061342E+03  0.7818608E-02  0.1041676E+00
          2   -1    0    0  501    0  0.00000000000E+00  0.00000000000E+00  0.48521503251E+02  0.48521503251E+02  0.00000000000E+00 0. -1.
         -2   -1    0    0    0  501 -0.00000000000E+00 -0.00000000000E+00 -0.84985497136E+03  0.84985497136E+03  0.00000000000E+00 0. -1.
         25    1    1    2    0    0  0.12532169803E+03  0.40236282276E+02 -0.18493245656E+03  0.25675766765E+03  0.12000000000E+03 0.  0.
         25    1    1    2    0    0 -0.12532169803E+03 -0.40236282276E+02 -0.61640101154E+03  0.64161880695E+03  0.12000000000E+03 0.  0.
<mgrwt>
<rscale>  0 0.40613417E+03</rscale>
<asrwt>0</asrwt>
<pdfrwt beam="1">  1        2 0.74648476E-02 0.40613417E+03</pdfrwt>
<pdfrwt beam="2">  1       -2 0.13074690E+00 0.40613417E+03</pdfrwt>
<totfact> 0.41969345E+02</totfact>
</mgrwt>
</event>
<event>
 4    1  0.1866622E-004  0.2797585E+03  0.7818608E-02  0.1095821E+00
          2   -1    0    0  501    0  0.00000000000E+00  0.00000000000E+00  0.11726741794E+04  0.11726741794E+04  0.00000000000E+00 0. -1.
         -2   -1    0    0    0  501 -0.00000000000E+00 -0.00000000000E+00 -0.16685115494E+02  0.16685115494E+02  0.00000000000E+00 0. -1.
         25    1    1    2    0    0  0.12066650276E+02 -0.48947895609E+02  0.79580057120E+03  0.80637463356E+03  0.12000000000E+03 0.  0.
         25    1    1    2    0    0 -0.12066650276E+02  0.48947895609E+02  0.36018849266E+03  0.38298466128E+03  0.12000000000E+03 0.  0.
<mgrwt>
<rscale>  0 0.27975850E+03</rscale>
<asrwt>0</asrwt>
<pdfrwt beam="1">  1        2 0.18041135E+00 0.27975850E+03</pdfrwt>
<pdfrwt beam="2">  1       -2 0.25669418E-02 0.27975850E+03</pdfrwt>
<totfact> 0.11060588E+04</totfact>
</mgrwt>
</event>
<event>
 4    1  0.1866622E-004  0.2740348E+03  0.7818608E-02  0.1098992E+00
          2   -1    0    0  501    0  0.00000000000E+00  0.00000000000E+00  0.98749552917E+03  0.98749552917E+03  0.00000000000E+00 0.  1.
         -2   -1    0    0    0  501 -0.00000000000E+00 -0.00000000000E+00 -0.19011493992E+02  0.19011493992E+02  0.00000000000E+00 0.  1.
         25    1    1    2    0    0  0.55472856210E+02  0.12849417853E+02  0.60778641294E+03  0.62213074917E+03  0.12000000000E+03 0.  0.
         25    1    1    2    0    0 -0.55472856210E+02 -0.12849417853E+02  0.36069762224E+03  0.38437627399E+03  0.12000000000E+03 0.  0.
<mgrwt>
<rscale>  0 0.27403478E+03</rscale>
<asrwt>0</asrwt>
<pdfrwt beam="1">  1        2 0.15192235E+00 0.27403478E+03</pdfrwt>
<pdfrwt beam="2">  1       -2 0.29248460E-02 0.27403478E+03</pdfrwt>
<totfact> 0.11726799E+04</totfact>
</mgrwt>
</event>
<event>
 4    1  0.1866622E-004  0.2633062E+03  0.7818608E-02  0.1105173E+00
          2   -1    0    0  501    0  0.00000000000E+00  0.00000000000E+00  0.39040927183E+04  0.39040927183E+04  0.00000000000E+00 0.  1.
         -2   -1    0    0    0  501 -0.00000000000E+00 -0.00000000000E+00 -0.44395825594E+01  0.44395825594E+01  0.00000000000E+00 0.  1.
         25    1    1    2    0    0 -0.14926315256E+02 -0.48999128954E+02  0.22106904903E+04  0.22145374581E+04  0.12000000000E+03 0.  0.
         25    1    1    2    0    0  0.14926315256E+02  0.48999128954E+02  0.16889626454E+04  0.16939948427E+04  0.12000000000E+03 0.  0.
<mgrwt>
<rscale>  0 0.26330622E+03</rscale>
<asrwt>0</asrwt>
<pdfrwt beam="1">  1        2 0.60062690E+00 0.26330622E+03</pdfrwt>
<pdfrwt beam="2">  1       -2 0.68301582E-03 0.26330622E+03</pdfrwt>
<totfact> 0.19619885E+03</totfact>
</mgrwt>
</event>
<event>
 4    1  0.1866622E-004  0.3443333E+03  0.7818608E-02  0.1064965E+00
         -2   -1    0    0    0  501 -0.00000000000E+00  0.00000000000E+00  0.10649705647E+03  0.10649705647E+03  0.00000000000E+00 0. -1.
          2   -1    0    0  501    0  0.00000000000E+00 -0.00000000000E+00 -0.27833025635E+03  0.27833025635E+03  0.00000000000E+00 0. -1.
         25    1    1    2    0    0  0.63396328271E+02  0.27376052008E+02 -0.20028827993E+03  0.24348293111E+03  0.12000000000E+03 0.  0.
         25    1    1    2    0    0 -0.63396328271E+02 -0.27376052008E+02  0.28455080052E+02  0.14134438172E+03  0.12000000000E+03 0.  0.
<mgrwt>
<rscale>  0 0.34433329E+03</rscale>
<asrwt>0</asrwt>
<pdfrwt beam="1">  1        2 0.42820040E-01 0.34433329E+03</pdfrwt>
<pdfrwt beam="2">  1       -2 0.16384162E-01 0.34433329E+03</pdfrwt>
<totfact> 0.35137567E+03</totfact>
</mgrwt>
</event>
<event>
 4    1  0.1866622E-004  0.3018135E+03  0.7818608E-02  0.1084338E+00
          2   -1    0    0  501    0  0.00000000000E+00  0.00000000000E+00  0.17158376731E+04  0.17158376731E+04  0.00000000000E+00 0. -1.
         -2   -1    0    0    0  501 -0.00000000000E+00 -0.00000000000E+00 -0.13272147614E+02  0.13272147614E+02  0.00000000000E+00 0. -1.
         25    1    1    2    0    0  0.33887149753E+02 -0.63338841361E+02  0.11760103452E+04  0.11842974625E+04  0.12000000000E+03 0.  0.
         25    1    1    2    0    0 -0.33887149753E+02  0.63338841361E+02  0.52655518034E+03  0.54481235824E+03  0.12000000000E+03 0.  0.
<mgrwt>
<rscale>  0 0.30181352E+03</rscale>
<asrwt>0</asrwt>
<pdfrwt beam="1">  1        2 0.26397485E+00 0.30181352E+03</pdfrwt>
<pdfrwt beam="2">  1       -2 0.20418702E-02 0.30181352E+03</pdfrwt>
<totfact> 0.78684551E+03</totfact>
</mgrwt>
</event>
<event>
 4    1  0.1866622E-004  0.2639929E+03  0.7818608E-02  0.1104768E+00
         -3   -1    0    0    0  501 -0.00000000000E+00  0.00000000000E+00  0.24721018665E+03  0.24721018665E+03  0.00000000000E+00 0.  1.
          3   -1    0    0  501    0  0.00000000000E+00 -0.00000000000E+00 -0.70478724544E+02  0.70478724544E+02  0.00000000000E+00 0.  1.
         25    1    1    2    0    0 -0.43026038376E+02 -0.33591993487E+02  0.96293261801E+02  0.16325456892E+03  0.12000000000E+03 0.  0.
         25    1    1    2    0    0  0.43026038376E+02  0.33591993487E+02  0.80438200302E+02  0.15443434227E+03  0.12000000000E+03 0.  0.
<mgrwt>
<rscale>  0 0.26399287E+03</rscale>
<asrwt>0</asrwt>
<pdfrwt beam="1">  1        3 0.10842881E-01 0.26399287E+03</pdfrwt>
<pdfrwt beam="2">  1       -3 0.38032336E-01 0.26399287E+03</pdfrwt>
<totfact> 0.11172953E+03</totfact>
</mgrwt>
</event>
<event>
 4    1  0.1866622E-004  0.3575493E+03  0.7818608E-02  0.1059558E+00
          2   -1    0    0  501    0  0.00000000000E+00  0.00000000000E+00  0.31512578653E+03  0.31512578653E+03  0.00000000000E+00 0. -1.
         -2   -1    0    0    0  501 -0.00000000000E+00 -0.00000000000E+00 -0.10142103810E+03  0.10142103810E+03  0.00000000000E+00 0. -1.
         25    1    1    2    0    0 -0.38803493224E+02  0.12527482899E+03  0.84720633055E+02  0.19691896691E+03  0.12000000000E+03 0.  0.
         25    1    1    2    0    0  0.38803493224E+02 -0.12527482899E+03  0.12898411537E+03  0.21962785771E+03  0.12000000000E+03 0.  0.
<mgrwt>
<rscale>  0 0.35754935E+03</rscale>
<asrwt>0</asrwt>
<pdfrwt beam="1">  1        2 0.48480890E-01 0.35754935E+03</pdfrwt>
<pdfrwt beam="2">  1       -2 0.15603237E-01 0.35754935E+03</pdfrwt>
<totfact> 0.33350116E+03</totfact>
</mgrwt>
</event>
<event>
 4    1  0.1866622E-004  0.4632942E+03  0.7818608E-02  0.1023830E+00
          1   -1    0    0  501    0  0.00000000000E+00  0.00000000000E+00  0.19053043121E+03  0.19053043121E+03  0.00000000000E+00 0. -1.
         -1   -1    0    0    0  501 -0.00000000000E+00 -0.00000000000E+00 -0.28163681206E+03  0.28163681206E+03  0.00000000000E+00 0. -1.
         25    1    1    2    0    0  0.15492587687E+03  0.11817148464E+03 -0.82212304830E+02  0.24315713062E+03  0.12000000000E+03 0.  0.
         25    1    1    2    0    0 -0.15492587687E+03 -0.11817148464E+03 -0.88940760221E+01  0.22901011265E+03  0.12000000000E+03 0.  0.
<mgrwt>
<rscale>  0 0.46329422E+03</rscale>
<asrwt>0</asrwt>
<pdfrwt beam="1">  1        1 0.29312374E-01 0.46329422E+03</pdfrwt>
<pdfrwt beam="2">  1       -1 0.43328740E-01 0.46329422E+03</pdfrwt>
<totfact> 0.83675097E+02</totfact>
</mgrwt>
</event>
<event>
 4    1  0.1866622E-004  0.2727114E+03  0.7818608E-02  0.1099738E+00
         -2   -1    0    0    0  501 -0.00000000000E+00  0.00000000000E+00  0.84466112987E+01  0.84466112987E+01  0.00000000000E+00 0. -1.
          2   -1    0    0  501    0  0.00000000000E+00 -0.00000000000E+00 -0.22012229154E+04  0.22012229154E+04  0.00000000000E+00 0. -1.
         25    1    1    2    0    0 -0.10882095417E+02 -0.47891027765E+02 -0.14383237330E+04  0.14441562005E+04  0.12000000000E+03 0.  0.
         25    1    1    2    0    0  0.10882095417E+02  0.47891027765E+02 -0.75445257108E+03  0.76551332617E+03  0.12000000000E+03 0.  0.
<mgrwt>
<rscale>  0 0.27271138E+03</rscale>
<asrwt>0</asrwt>
<pdfrwt beam="1">  1        2 0.33864929E+00 0.27271138E+03</pdfrwt>
<pdfrwt beam="2">  1       -2 0.12994802E-02 0.27271138E+03</pdfrwt>
<totfact> 0.84611158E+03</totfact>
</mgrwt>
</event>
<event>
 4    1  0.1866622E-004  0.2627436E+03  0.7818608E-02  0.1105506E+00
         -2   -1    0    0    0  501 -0.00000000000E+00  0.00000000000E+00  0.94867443524E+01  0.94867443524E+01  0.00000000000E+00 0. -1.
          2   -1    0    0  501    0  0.00000000000E+00 -0.00000000000E+00 -0.18192284332E+04  0.18192284332E+04  0.00000000000E+00 0. -1.
         25    1    1    2    0    0  0.63181778371E+00 -0.16020944156E-01 -0.53277330968E+03  0.54612068168E+03  0.12000000000E+03 0.  0.
         25    1    1    2    0    0 -0.63181778371E+00  0.16020944156E-01 -0.12769683792E+04  0.12825944959E+04  0.12000000000E+03 0.  0.
<mgrwt>
<rscale>  0 0.26274364E+03</rscale>
<asrwt>0</asrwt>
<pdfrwt beam="1">  1        2 0.27988100E+00 0.26274364E+03</pdfrwt>
<pdfrwt beam="2">  1       -2 0.14595007E-02 0.26274364E+03</pdfrwt>
<totfact> 0.11343778E+04</totfact>
</mgrwt>
</event>
<event>
 4    1  0.1866622E-004  0.2436490E+03  0.7818608E-02  0.1117386E+00
         -2   -1    0    0    0  501 -0.00000000000E+00  0.00000000000E+00  0.39941220113E+02  0.39941220113E+02  0.00000000000E+00 0.  1.
          2   -1    0    0  501    0  0.00000000000E+00 -0.00000000000E+00 -0.37157633475E+03  0.37157633475E+03  0.00000000000E+00 0.  1.
         25    1    1    2    0    0 -0.18760611030E+02 -0.36219884755E+01 -0.15108053561E+03  0.19388245812E+03  0.12000000000E+03 0.  0.
         25    1    1    2    0    0  0.18760611030E+02  0.36219884755E+01 -0.18055457903E+03  0.21763509675E+03  0.12000000000E+03 0.  0.
<mgrwt>
<rscale>  0 0.24364903E+03</rscale>
<asrwt>0</asrwt>
<pdfrwt beam="1">  1        2 0.57165591E-01 0.24364903E+03</pdfrwt>
<pdfrwt beam="2">  1       -2 0.61448029E-02 0.24364903E+03</pdfrwt>
<totfact> 0.12163537E+04</totfact>
</mgrwt>
</event>
<event>
 4    1  0.1866622E-004  0.2718603E+03  0.7818608E-02  0.1100220E+00
         -1   -1    0    0    0  501 -0.00000000000E+00  0.00000000000E+00  0.34382252087E+02  0.34382252087E+02  0.00000000000E+00 0.  1.
          1   -1    0    0  501    0  0.00000000000E+00 -0.00000000000E+00 -0.53739936540E+03  0.53739936540E+03  0.00000000000E+00 0.  1.
         25    1    1    2    0    0  0.50605882362E+02  0.35908437046E+02 -0.28317085671E+03  0.31374528725E+03  0.12000000000E+03 0.  0.
         25    1    1    2    0    0 -0.50605882362E+02 -0.35908437046E+02 -0.21984625660E+03  0.25803633024E+03  0.12000000000E+03 0.  0.
<mgrwt>
<rscale>  0 0.27186026E+03</rscale>
<asrwt>0</asrwt>
<pdfrwt beam="1">  1        1 0.82676819E-01 0.27186026E+03</pdfrwt>
<pdfrwt beam="2">  1       -1 0.52895776E-02 0.27186026E+03</pdfrwt>
<totfact> 0.65896821E+03</totfact>
</mgrwt>
</event>
<event>
 4    1  0.1866622E-004  0.2530147E+03  0.7818608E-02  0.1111414E+00
         -2   -1    0    0    0  501 -0.00000000000E+00  0.00000000000E+00  0.64842413418E+03  0.64842413418E+03  0.00000000000E+00 0. -1.
          2   -1    0    0  501    0  0.00000000000E+00 -0.00000000000E+00 -0.24681554192E+02  0.24681554192E+02  0.00000000000E+00 0. -1.
         25    1    1    2    0    0  0.16396062080E+02  0.36464822688E+01  0.21514352818E+03  0.24691874251E+03  0.12000000000E+03 0.  0.
         25    1    1    2    0    0 -0.16396062080E+02 -0.36464822688E+01  0.40859905181E+03  0.42618694586E+03  0.12000000000E+03 0.  0.
<mgrwt>
<rscale>  0 0.25301475E+03</rscale>
<asrwt>0</asrwt>
<pdfrwt beam="1">  1        2 0.37971627E-02 0.25301475E+03</pdfrwt>
<pdfrwt beam="2">  1       -2 0.99757546E-01 0.25301475E+03</pdfrwt>
<totfact> 0.19519575E+03</totfact>
</mgrwt>
</event>
<event>
 4    1  0.1866622E-004  0.2421646E+03  0.7818608E-02  0.1118359E+00
         -2   -1    0    0    0  501 -0.00000000000E+00  0.00000000000E+00  0.29100485354E+02  0.29100485354E+02  0.00000000000E+00 0.  1.
          2   -1    0    0  501    0  0.00000000000E+00 -0.00000000000E+00 -0.50380327748E+03  0.50380327748E+03  0.00000000000E+00 0.  1.
         25    1    1    2    0    0  0.97940038016E+01 -0.36247983665E+01 -0.21023341590E+03  0.24229558567E+03  0.12000000000E+03 0.  0.
         25    1    1    2    0    0 -0.97940038016E+01  0.36247983665E+01 -0.26446937622E+03  0.29060817716E+03  0.12000000000E+03 0.  0.
<mgrwt>
<rscale>  0 0.24216457E+03</rscale>
<asrwt>0</asrwt>
<pdfrwt beam="1">  1        2 0.77508192E-01 0.24216457E+03</pdfrwt>
<pdfrwt beam="2">  1       -2 0.44769980E-02 0.24216457E+03</pdfrwt>
<totfact> 0.14103608E+04</totfact>
</mgrwt>
</event>
<event>
 4    1  0.1866622E-004  0.2627598E+03  0.7818608E-02  0.1105496E+00
          1   -1    0    0  501    0  0.00000000000E+00  0.00000000000E+00  0.28071328415E+02  0.28071328415E+02  0.00000000000E+00 0.  1.
         -1   -1    0    0    0  501 -0.00000000000E+00 -0.00000000000E+00 -0.61488637125E+03  0.61488637125E+03  0.00000000000E+00 0.  1.
         25    1    1    2    0    0  0.21070509948E+02  0.19528932847E+02 -0.40380040647E+03  0.42223229848E+03  0.12000000000E+03 0.  0.
         25    1    1    2    0    0 -0.21070509948E+02 -0.19528932847E+02 -0.18301463636E+03  0.22072540119E+03  0.12000000000E+03 0.  0.
<mgrwt>
<rscale>  0 0.26275979E+03</rscale>
<asrwt>0</asrwt>
<pdfrwt beam="1">  1        1 0.43186659E-02 0.26275979E+03</pdfrwt>
<pdfrwt beam="2">  1       -1 0.94597903E-01 0.26275979E+03</pdfrwt>
<totfact> 0.23212136E+03</totfact>
</mgrwt>
</event>
<event>
 4    1  0.1866622E-004  0.3018249E+03  0.7818608E-02  0.1084332E+00
         -1   -1    0    0    0  501 -0.00000000000E+00  0.00000000000E+00  0.35034745088E+03  0.35034745088E+03  0.00000000000E+00 0. -1.
          1   -1    0    0  501    0  0.00000000000E+00 -0.00000000000E+00 -0.65005672276E+02  0.65005672276E+02  0.00000000000E+00 0. -1.
         25    1    1    2    0    0 -0.61040072557E+02  0.68012678961E+02  0.13607738450E+03  0.20314691612E+03  0.12000000000E+03 0.  0.
         25    1    1    2    0    0  0.61040072557E+02 -0.68012678961E+02  0.14926439411E+03  0.21220620704E+03  0.12000000000E+03 0.  0.
<mgrwt>
<rscale>  0 0.30182493E+03</rscale>
<asrwt>0</asrwt>
<pdfrwt beam="1">  1        1 0.10000873E-01 0.30182493E+03</pdfrwt>
<pdfrwt beam="2">  1       -1 0.53899606E-01 0.30182493E+03</pdfrwt>
<totfact> 0.22892257E+03</totfact>
</mgrwt>
</event>
<event>
 4    1  0.1866622E-004  0.3150070E+03  0.7818608E-02  0.1077970E+00
         -2   -1    0    0    0  501 -0.00000000000E+00  0.00000000000E+00  0.82038277624E+03  0.82038277624E+03  0.00000000000E+00 0.  1.
          2   -1    0    0  501    0  0.00000000000E+00 -0.00000000000E+00 -0.30238759082E+02  0.30238759082E+02  0.00000000000E+00 0.  1.
         25    1    1    2    0    0  0.36238380895E+02 -0.74147341030E+02  0.23313556020E+03  0.27488768227E+03  0.12000000000E+03 0.  0.
         25    1    1    2    0    0 -0.36238380895E+02  0.74147341030E+02  0.55700845695E+03  0.57573385305E+03  0.12000000000E+03 0.  0.
<mgrwt>
<rscale>  0 0.31500703E+03</rscale>
<asrwt>0</asrwt>
<pdfrwt beam="1">  1        2 0.46521174E-02 0.31500703E+03</pdfrwt>
<pdfrwt beam="2">  1       -2 0.12621272E+00 0.31500703E+03</pdfrwt>
<totfact> 0.85216081E+02</totfact>
</mgrwt>
</event>
<event>
 4    1  0.1866622E-004  0.4918267E+03  0.7818608E-02  0.1015935E+00
         -1   -1    0    0    0  501 -0.00000000000E+00  0.00000000000E+00  0.13902551017E+03  0.13902551017E+03  0.00000000000E+00 0. -1.
          1   -1    0    0  501    0  0.00000000000E+00 -0.00000000000E+00 -0.43498037042E+03  0.43498037042E+03  0.00000000000E+00 0. -1.
         25    1    1    2    0    0  0.20789288389E+03  0.28858953457E+02 -0.20044558075E+03  0.31405528368E+03  0.12000000000E+03 0.  0.
         25    1    1    2    0    0 -0.20789288389E+03 -0.28858953457E+02 -0.95509279495E+02  0.25995059691E+03  0.12000000000E+03 0.  0.
<mgrwt>
<rscale>  0 0.49182667E+03</rscale>
<asrwt>0</asrwt>
<pdfrwt beam="1">  1        1 0.66920056E-01 0.49182667E+03</pdfrwt>
<pdfrwt beam="2">  1       -1 0.21388540E-01 0.49182667E+03</pdfrwt>
<totfact> 0.98261276E+02</totfact>
</mgrwt>
</event>
<event>
 4    1  0.1866622E-004  0.3870058E+03  0.7818608E-02  0.1048374E+00
         -2   -1    0    0    0  501 -0.00000000000E+00  0.00000000000E+00  0.30663592352E+02  0.30663592352E+02  0.00000000000E+00 0.  1.
          2   -1    0    0  501    0  0.00000000000E+00 -0.00000000000E+00 -0.12211018128E+04  0.12211018128E+04  0.00000000000E+00 0.  1.
         25    1    1    2    0    0 -0.79132745591E+02  0.78833225683E+01 -0.17699060369E+03  0.22814427890E+03  0.12000000000E+03 0.  0.
         25    1    1    2    0    0  0.79132745591E+02 -0.78833225683E+01 -0.10134476167E+04  0.10236211262E+04  0.12000000000E+03 0.  0.
<mgrwt>
<rscale>  0 0.38700578E+03</rscale>
<asrwt>0</asrwt>
<pdfrwt beam="1">  1        2 0.18786185E+00 0.38700578E+03</pdfrwt>
<pdfrwt beam="2">  1       -2 0.47174750E-02 0.38700578E+03</pdfrwt>
<totfact> 0.41732372E+03</totfact>
</mgrwt>
</event>
<event>
 4    1  0.1866622E-004  0.2701254E+03  0.7818608E-02  0.1101208E+00
          1   -1    0    0  501    0  0.00000000000E+00  0.00000000000E+00  0.23156343046E+04  0.23156343046E+04  0.00000000000E+00 0. -1.
         -1   -1    0    0    0  501 -0.00000000000E+00 -0.00000000000E+00 -0.78777247513E+01  0.78777247513E+01  0.00000000000E+00 0. -1.
         25    1    1    2    0    0  0.59923664428E+02 -0.69188149912E+01  0.10312596547E+04  0.10399688414E+04  0.12000000000E+03 0.  0.
         25    1    1    2    0    0 -0.59923664428E+02  0.69188149912E+01  0.12764969251E+04  0.12835431879E+04  0.12000000000E+03 0.  0.
<mgrwt>
<rscale>  0 0.27012538E+03</rscale>
<asrwt>0</asrwt>
<pdfrwt beam="1">  1        1 0.35625089E+00 0.27012538E+03</pdfrwt>
<pdfrwt beam="2">  1       -1 0.12119595E-02 0.27012538E+03</pdfrwt>
<totfact> 0.29886535E+03</totfact>
</mgrwt>
</event>
<event>
 4    1  0.1866622E-004  0.4120093E+03  0.7818608E-02  0.1039699E+00
          2   -1    0    0  501    0  0.00000000000E+00  0.00000000000E+00  0.80333151670E+03  0.80333151670E+03  0.00000000000E+00 0. -1.
         -2   -1    0    0    0  501 -0.00000000000E+00 -0.00000000000E+00 -0.52827400815E+02  0.52827400815E+02  0.00000000000E+00 0. -1.
         25    1    1    2    0    0  0.12148383783E+03  0.39019817925E+02  0.14993374488E+03  0.23056668645E+03  0.12000000000E+03 0.  0.
         25    1    1    2    0    0 -0.12148383783E+03 -0.39019817925E+02  0.60057037100E+03  0.62559223107E+03  0.12000000000E+03 0.  0.
<mgrwt>
<rscale>  0 0.41200930E+03</rscale>
<asrwt>0</asrwt>
<pdfrwt beam="1">  1        2 0.12358945E+00 0.41200930E+03</pdfrwt>
<pdfrwt beam="2">  1       -2 0.81272930E-02 0.41200930E+03</pdfrwt>
<totfact> 0.32708066E+03</totfact>
</mgrwt>
</event>
<event>
 4    1  0.1866622E-004  0.3354565E+03  0.7818608E-02  0.1068748E+00
          2   -1    0    0  501    0  0.00000000000E+00  0.00000000000E+00  0.39423834654E+03  0.39423834654E+03  0.00000000000E+00 0. -1.
         -2   -1    0    0    0  501 -0.00000000000E+00 -0.00000000000E+00 -0.71359773761E+02  0.71359773761E+02  0.00000000000E+00 0. -1.
         25    1    1    2    0    0 -0.48856127635E+01 -0.10061765231E+03  0.24454259378E+03  0.29042875433E+03  0.12000000000E+03 0.  0.
         25    1    1    2    0    0  0.48856127635E+01  0.10061765231E+03  0.78335978994E+02  0.17516936597E+03  0.12000000000E+03 0.  0.
<mgrwt>
<rscale>  0 0.33545646E+03</rscale>
<asrwt>0</asrwt>
<pdfrwt beam="1">  1        2 0.60652052E-01 0.33545646E+03</pdfrwt>
<pdfrwt beam="2">  1       -2 0.10978427E-01 0.33545646E+03</pdfrwt>
<totfact> 0.46428819E+03</totfact>
</mgrwt>
</event>
<event>
 4    1  0.1866622E-004  0.2598152E+03  0.7818608E-02  0.1107254E+00
         -1   -1    0    0    0  501 -0.00000000000E+00  0.00000000000E+00  0.20711542575E+02  0.20711542575E+02  0.00000000000E+00 0.  1.
          1   -1    0    0  501    0  0.00000000000E+00 -0.00000000000E+00 -0.81481085697E+03  0.81481085697E+03  0.00000000000E+00 0.  1.
         25    1    1    2    0    0  0.47075390604E+01 -0.41068164725E+02 -0.30797429705E+03  0.33310197046E+03  0.12000000000E+03 0.  0.
         25    1    1    2    0    0 -0.47075390604E+01  0.41068164725E+02 -0.48612501734E+03  0.50242042909E+03  0.12000000000E+03 0.  0.
<mgrwt>
<rscale>  0 0.25981524E+03</rscale>
<asrwt>0</asrwt>
<pdfrwt beam="1">  1        1 0.12535549E+00 0.25981524E+03</pdfrwt>
<pdfrwt beam="2">  1       -1 0.31863918E-02 0.25981524E+03</pdfrwt>
<totfact> 0.76930321E+03</totfact>
</mgrwt>
</event>
<event>
 4    1  0.1866622E-004  0.3211156E+03  0.7818608E-02  0.1075137E+00
         -2   -1    0    0    0  501 -0.00000000000E+00  0.00000000000E+00  0.22436145299E+02  0.22436145299E+02  0.00000000000E+00 0.  1.
          2   -1    0    0  501    0  0.00000000000E+00 -0.00000000000E+00 -0.11489858771E+04  0.11489858771E+04  0.00000000000E+00 0.  1.
         25    1    1    2    0    0  0.86103484370E+01  0.93111583425E+00 -0.95112534025E+03  0.95870455196E+03  0.12000000000E+03 0.  0.
         25    1    1    2    0    0 -0.86103484370E+01 -0.93111583425E+00 -0.17542439151E+03  0.21271747040E+03  0.12000000000E+03 0.  0.
<mgrwt>
<rscale>  0 0.32111564E+03</rscale>
<asrwt>0</asrwt>
<pdfrwt beam="1">  1        2 0.17676707E+00 0.32111564E+03</pdfrwt>
<pdfrwt beam="2">  1       -2 0.34517144E-02 0.32111564E+03</pdfrwt>
<totfact> 0.73600668E+03</totfact>
</mgrwt>
</event>
<event>
 4    1  0.1866622E-004  0.3031875E+03  0.7818608E-02  0.1083658E+00
          1   -1    0    0  501    0  0.00000000000E+00  0.00000000000E+00  0.28207644374E+02  0.28207644374E+02  0.00000000000E+00 0.  1.
         -1   -1    0    0    0  501 -0.00000000000E+00 -0.00000000000E+00 -0.81469659927E+03  0.81469659927E+03  0.00000000000E+00 0.  1.
         25    1    1    2    0    0 -0.23967502806E+02  0.16972599886E+01 -0.14452901283E+03  0.18938309700E+03  0.12000000000E+03 0.  0.
         25    1    1    2    0    0  0.23967502806E+02 -0.16972599886E+01 -0.64195994207E+03  0.65352114664E+03  0.12000000000E+03 0.  0.
<mgrwt>
<rscale>  0 0.30318755E+03</rscale>
<asrwt>0</asrwt>
<pdfrwt beam="1">  1        1 0.43396372E-02 0.30318755E+03</pdfrwt>
<pdfrwt beam="2">  1       -1 0.12533795E+00 0.30318755E+03</pdfrwt>
<totfact> 0.12097071E+03</totfact>
</mgrwt>
</event>
<event>
 4    1  0.1866622E-004  0.2728718E+03  0.7818608E-02  0.1099647E+00
          2   -1    0    0  501    0  0.00000000000E+00  0.00000000000E+00  0.10799547601E+03  0.10799547601E+03  0.00000000000E+00 0.  1.
         -2   -1    0    0    0  501 -0.00000000000E+00 -0.00000000000E+00 -0.17236605690E+03  0.17236605690E+03  0.00000000000E+00 0.  1.
         25    1    1    2    0    0  0.83789931462E+01 -0.55463239654E+02  0.13978892846E+01  0.13247011955E+03  0.12000000000E+03 0.  0.
         25    1    1    2    0    0 -0.83789931462E+01  0.55463239654E+02 -0.65768470174E+02  0.14789141337E+03  0.12000000000E+03 0.  0.
<mgrwt>
<rscale>  0 0.27287180E+03</rscale>
<asrwt>0</asrwt>
<pdfrwt beam="1">  1        2 0.16614689E-01 0.27287180E+03</pdfrwt>
<pdfrwt beam="2">  1       -2 0.26517855E-01 0.27287180E+03</pdfrwt>
<totfact> 0.43852714E+03</totfact>
</mgrwt>
</event>
<event>
 4    1  0.1866622E-004  0.3331082E+03  0.7818608E-02  0.1069770E+00
          1   -1    0    0  501    0  0.00000000000E+00  0.00000000000E+00  0.13675726050E+04  0.13675726050E+04  0.00000000000E+00 0. -1.
         -1   -1    0    0    0  501 -0.00000000000E+00 -0.00000000000E+00 -0.20284309401E+02  0.20284309401E+02  0.00000000000E+00 0. -1.
         25    1    1    2    0    0  0.63848252151E+02  0.59139317346E+02  0.99002087471E+03  0.10010571365E+04  0.12000000000E+03 0.  0.
         25    1    1    2    0    0 -0.63848252151E+02 -0.59139317346E+02  0.35726742085E+03  0.38679977787E+03  0.12000000000E+03 0.  0.
<mgrwt>
<rscale>  0 0.33310819E+03</rscale>
<asrwt>0</asrwt>
<pdfrwt beam="1">  1        1 0.21039571E+00 0.33310819E+03</pdfrwt>
<pdfrwt beam="2">  1       -1 0.31206641E-02 0.33310819E+03</pdfrwt>
<totfact> 0.31279867E+03</totfact>
</mgrwt>
</event>
<event>
 4    1  0.1866622E-004  0.2918105E+03  0.7818608E-02  0.1089408E+00
         -2   -1    0    0    0  501 -0.00000000000E+00  0.00000000000E+00  0.19975750882E+02  0.19975750882E+02  0.00000000000E+00 0.  1.
          2   -1    0    0  501    0  0.00000000000E+00 -0.00000000000E+00 -0.10657091528E+04  0.10657091528E+04  0.00000000000E+00 0.  1.
         25    1    1    2    0    0  0.29311458302E+02  0.76917874022E+02 -0.56238472401E+03  0.58090627362E+03  0.12000000000E+03 0.  0.
         25    1    1    2    0    0 -0.29311458302E+02 -0.76917874022E+02 -0.48334867790E+03  0.50477863005E+03  0.12000000000E+03 0.  0.
<mgrwt>
<rscale>  0 0.29181049E+03</rscale>
<asrwt>0</asrwt>
<pdfrwt beam="1">  1        2 0.16395531E+00 0.29181049E+03</pdfrwt>
<pdfrwt beam="2">  1       -2 0.30731914E-02 0.29181049E+03</pdfrwt>
<totfact> 0.97846406E+03</totfact>
</mgrwt>
</event>
<event>
 4    1  0.1866622E-004  0.2613914E+03  0.7818608E-02  0.1106310E+00
          2   -1    0    0  501    0  0.00000000000E+00  0.00000000000E+00  0.43818806565E+03  0.43818806565E+03  0.00000000000E+00 0.  1.
         -2   -1    0    0    0  501 -0.00000000000E+00 -0.00000000000E+00 -0.38981809206E+02  0.38981809206E+02  0.00000000000E+00 0.  1.
         25    1    1    2    0    0 -0.51232029372E+02  0.55984498282E+01  0.20878524578E+03  0.24626681126E+03  0.12000000000E+03 0.  0.
         25    1    1    2    0    0  0.51232029372E+02 -0.55984498282E+01  0.19042101066E+03  0.23090306359E+03  0.12000000000E+03 0.  0.
<mgrwt>
<rscale>  0 0.26139138E+03</rscale>
<asrwt>0</asrwt>
<pdfrwt beam="1">  1        2 0.67413545E-01 0.26139138E+03</pdfrwt>
<pdfrwt beam="2">  1       -2 0.59972017E-02 0.26139138E+03</pdfrwt>
<totfact> 0.10589767E+04</totfact>
</mgrwt>
</event>
<event>
 4    1  0.1866622E-004  0.2583440E+03  0.7818608E-02  0.1108142E+00
          1   -1    0    0  501    0  0.00000000000E+00  0.00000000000E+00  0.10783639239E+04  0.10783639239E+04  0.00000000000E+00 0.  1.
         -1   -1    0    0    0  501 -0.00000000000E+00 -0.00000000000E+00 -0.15472887764E+02  0.15472887764E+02  0.00000000000E+00 0.  1.
         25    1    1    2    0    0 -0.39367138116E+02 -0.21807088185E+02  0.59972817538E+03  0.61326927609E+03  0.12000000000E+03 0.  0.
         25    1    1    2    0    0  0.39367138116E+02  0.21807088185E+02  0.46316286075E+03  0.48056753556E+03  0.12000000000E+03 0.  0.
<mgrwt>
<rscale>  0 0.25834399E+03</rscale>
<asrwt>0</asrwt>
<pdfrwt beam="1">  1        1 0.16590208E+00 0.25834399E+03</pdfrwt>
<pdfrwt beam="2">  1       -1 0.23804451E-02 0.25834399E+03</pdfrwt>
<totfact> 0.74069827E+03</totfact>
</mgrwt>
</event>
<event>
 4    1  0.1866622E-004  0.2645298E+03  0.7818608E-02  0.1104452E+00
         -2   -1    0    0    0  501 -0.00000000000E+00  0.00000000000E+00  0.16734204152E+02  0.16734204152E+02  0.00000000000E+00 0. -1.
          2   -1    0    0  501    0  0.00000000000E+00 -0.00000000000E+00 -0.10454043286E+04  0.10454043286E+04  0.00000000000E+00 0. -1.
         25    1    1    2    0    0 -0.50676650378E+01 -0.55308446854E+02 -0.52658234626E+03  0.54293063361E+03  0.12000000000E+03 0.  0.
         25    1    1    2    0    0  0.50676650378E+01  0.55308446854E+02 -0.50208777815E+03  0.51920789910E+03  0.12000000000E+03 0.  0.
<mgrwt>
<rscale>  0 0.26452984E+03</rscale>
<asrwt>0</asrwt>
<pdfrwt beam="1">  1        2 0.16083152E+00 0.26452984E+03</pdfrwt>
<pdfrwt beam="2">  1       -2 0.25744916E-02 0.26452984E+03</pdfrwt>
<totfact> 0.13052000E+04</totfact>
</mgrwt>
</event>
<event>
 4    1  0.1866622E-004  0.2876776E+03  0.7818608E-02  0.1091568E+00
          1   -1    0    0  501    0  0.00000000000E+00  0.00000000000E+00  0.92027891257E+03  0.92027891257E+03  0.00000000000E+00 0.  1.
         -1   -1    0    0    0  501 -0.00000000000E+00 -0.00000000000E+00 -0.22481877635E+02  0.22481877635E+02  0.00000000000E+00 0.  1.
         25    1    1    2    0    0 -0.16770367467E+02 -0.67342297049E+02  0.32310708458E+03  0.35158842174E+03  0.12000000000E+03 0.  0.
         25    1    1    2    0    0  0.16770367467E+02  0.67342297049E+02  0.57468995035E+03  0.59117236846E+03  0.12000000000E+03 0.  0.
<mgrwt>
<rscale>  0 0.28767758E+03</rscale>
<asrwt>0</asrwt>
<pdfrwt beam="1">  1        1 0.14158134E+00 0.28767758E+03</pdfrwt>
<pdfrwt beam="2">  1       -1 0.34587511E-02 0.28767758E+03</pdfrwt>
<totfact> 0.56235633E+03</totfact>
</mgrwt>
</event>
<event>
 4    1  0.1866622E-004  0.3171029E+03  0.7818608E-02  0.1076990E+00
          1   -1    0    0  501    0  0.00000000000E+00  0.00000000000E+00  0.36546813809E+03  0.36546813809E+03  0.00000000000E+00 0.  1.
         -1   -1    0    0    0  501 -0.00000000000E+00 -0.00000000000E+00 -0.68784548940E+02  0.68784548940E+02  0.00000000000E+00 0.  1.
         25    1    1    2    0    0 -0.35081672852E+02 -0.52775488013E+02  0.26062387908E+03  0.29383802043E+03  0.12000000000E+03 0.  0.
         25    1    1    2    0    0  0.35081672852E+02  0.52775488013E+02  0.36059710069E+02  0.14041466660E+03  0.12000000000E+03 0.  0.
<mgrwt>
<rscale>  0 0.31710289E+03</rscale>
<asrwt>0</asrwt>
<pdfrwt beam="1">  1        1 0.56225866E-01 0.31710289E+03</pdfrwt>
<pdfrwt beam="2">  1       -1 0.10582239E-01 0.31710289E+03</pdfrwt>
<totfact> 0.37994291E+03</totfact>
</mgrwt>
</event>
<event>
 4    1  0.1866622E-004  0.2699464E+03  0.7818608E-02  0.1101310E+00
         -1   -1    0    0    0  501 -0.00000000000E+00  0.00000000000E+00  0.37154816110E+02  0.37154816110E+02  0.00000000000E+00 0.  1.
          1   -1    0    0  501    0  0.00000000000E+00 -0.00000000000E+00 -0.49032026256E+03  0.49032026256E+03  0.00000000000E+00 0.  1.
         25    1    1    2    0    0 -0.28001448288E+02 -0.38112399110E+02 -0.30428027164E+03  0.33048921281E+03  0.12000000000E+03 0.  0.
         25    1    1    2    0    0  0.28001448288E+02  0.38112399110E+02 -0.14888517481E+03  0.19698586587E+03  0.12000000000E+03 0.  0.
<mgrwt>
<rscale>  0 0.26994636E+03</rscale>
<asrwt>0</asrwt>
<pdfrwt beam="1">  1        1 0.75433886E-01 0.26994636E+03</pdfrwt>
<pdfrwt beam="2">  1       -1 0.57161256E-02 0.26994636E+03</pdfrwt>
<totfact> 0.66271993E+03</totfact>
</mgrwt>
</event>
<event>
 4    1  0.1866622E-004  0.2649815E+03  0.7818608E-02  0.1104187E+00
         -2   -1    0    0    0  501 -0.00000000000E+00  0.00000000000E+00  0.10877734071E+02  0.10877734071E+02  0.00000000000E+00 0. -1.
          2   -1    0    0  501    0  0.00000000000E+00 -0.00000000000E+00 -0.16137365484E+04  0.16137365484E+04  0.00000000000E+00 0. -1.
         25    1    1    2    0    0  0.49078002296E+02 -0.24659913785E+02 -0.72965806217E+03  0.74149689774E+03  0.12000000000E+03 0.  0.
         25    1    1    2    0    0 -0.49078002296E+02  0.24659913785E+02 -0.87320075212E+03  0.88311738470E+03  0.12000000000E+03 0.  0.
<mgrwt>
<rscale>  0 0.26498149E+03</rscale>
<asrwt>0</asrwt>
<pdfrwt beam="1">  1        2 0.24826703E+00 0.26498149E+03</pdfrwt>
<pdfrwt beam="2">  1       -2 0.16734984E-02 0.26498149E+03</pdfrwt>
<totfact> 0.11911769E+04</totfact>
</mgrwt>
</event>
<event>
 4    1  0.1866622E-004  0.2667123E+03  0.7818608E-02  0.1103176E+00
         -1   -1    0    0    0  501 -0.00000000000E+00  0.00000000000E+00  0.23872239507E+02  0.23872239507E+02  0.00000000000E+00 0.  1.
          1   -1    0    0  501    0  0.00000000000E+00 -0.00000000000E+00 -0.74495971272E+03  0.74495971272E+03  0.00000000000E+00 0.  1.
         25    1    1    2    0    0  0.82954162307E+01 -0.50073128003E+02 -0.27861804617E+03  0.30757787263E+03  0.12000000000E+03 0.  0.
         25    1    1    2    0    0 -0.82954162307E+01  0.50073128003E+02 -0.44246942704E+03  0.46125407960E+03  0.12000000000E+03 0.  0.
<mgrwt>
<rscale>  0 0.26671225E+03</rscale>
<asrwt>0</asrwt>
<pdfrwt beam="1">  1        1 0.11460919E+00 0.26671225E+03</pdfrwt>
<pdfrwt beam="2">  1       -1 0.36726520E-02 0.26671225E+03</pdfrwt>
<totfact> 0.71511808E+03</totfact>
</mgrwt>
</event>
<event>
 4    1  0.1866622E-004  0.2651696E+03  0.7818608E-02  0.1104076E+00
         -1   -1    0    0    0  501 -0.00000000000E+00  0.00000000000E+00  0.81952969919E+02  0.81952969919E+02  0.00000000000E+00 0. -1.
          1   -1    0    0  501    0  0.00000000000E+00 -0.00000000000E+00 -0.21449769421E+03  0.21449769421E+03  0.00000000000E+00 0. -1.
         25    1    1    2    0    0  0.14936035454E+02  0.38043724880E+02 -0.22853894131E+02  0.12881269594E+03  0.12000000000E+03 0.  0.
         25    1    1    2    0    0 -0.14936035454E+02 -0.38043724880E+02 -0.10969083016E+03  0.16763796819E+03  0.12000000000E+03 0.  0.
<mgrwt>
<rscale>  0 0.26516955E+03</rscale>
<asrwt>0</asrwt>
<pdfrwt beam="1">  1        1 0.32999645E-01 0.26516955E+03</pdfrwt>
<pdfrwt beam="2">  1       -1 0.12608149E-01 0.26516955E+03</pdfrwt>
<totfact> 0.56326539E+03</totfact>
</mgrwt>
</event>
<event>
 4    1  0.1866622E-004  0.3478030E+03  0.7818608E-02  0.1063520E+00
         -2   -1    0    0    0  501 -0.00000000000E+00  0.00000000000E+00  0.68952930600E+02  0.68952930600E+02  0.00000000000E+00 0.  1.
          2   -1    0    0  501    0  0.00000000000E+00 -0.00000000000E+00 -0.43858508906E+03  0.43858508906E+03  0.00000000000E+00 0.  1.
         25    1    1    2    0    0 -0.50635872513E+02 -0.92440177414E+02 -0.28520432360E+03  0.32688022911E+03  0.12000000000E+03 0.  0.
         25    1    1    2    0    0  0.50635872513E+02  0.92440177414E+02 -0.84427834857E+02  0.18065779054E+03  0.12000000000E+03 0.  0.
<mgrwt>
<rscale>  0 0.34780297E+03</rscale>
<asrwt>0</asrwt>
<pdfrwt beam="1">  1        2 0.67474628E-01 0.34780297E+03</pdfrwt>
<pdfrwt beam="2">  1       -2 0.10608143E-01 0.34780297E+03</pdfrwt>
<totfact> 0.43668744E+03</totfact>
</mgrwt>
</event>
<event>
 4    1  0.1866622E-004  0.2629394E+03  0.7818608E-02  0.1105390E+00
         -1   -1    0    0    0  501 -0.00000000000E+00  0.00000000000E+00  0.56197104754E+02  0.56197104754E+02  0.00000000000E+00 0. -1.
          1   -1    0    0  501    0  0.00000000000E+00 -0.00000000000E+00 -0.30756528750E+03  0.30756528750E+03  0.00000000000E+00 0. -1.
         25    1    1    2    0    0  0.43958205919E+02  0.26932516182E+02 -0.14650917450E+03  0.19627180773E+03  0.12000000000E+03 0.  0.
         25    1    1    2    0    0 -0.43958205919E+02 -0.26932516182E+02 -0.10485900825E+03  0.16749058453E+03  0.12000000000E+03 0.  0.
<mgrwt>
<rscale>  0 0.26293937E+03</rscale>
<asrwt>0</asrwt>
<pdfrwt beam="1">  1        1 0.47317737E-01 0.26293937E+03</pdfrwt>
<pdfrwt beam="2">  1       -1 0.86457084E-02 0.26293937E+03</pdfrwt>
<totfact> 0.64248726E+03</totfact>
</mgrwt>
</event>
<event>
 4    1  0.1866622E-004  0.2495642E+03  0.7818608E-02  0.1113581E+00
          3   -1    0    0  501    0  0.00000000000E+00  0.00000000000E+00  0.20668969217E+03  0.20668969217E+03  0.00000000000E+00 0. -1.
         -3   -1    0    0    0  501 -0.00000000000E+00 -0.00000000000E+00 -0.75333076842E+02  0.75333076842E+02  0.00000000000E+00 0. -1.
         25    1    1    2    0    0  0.24463311224E+02 -0.19132723112E+02  0.49456684511E+02  0.13345590408E+03  0.12000000000E+03 0.  0.
         25    1    1    2    0    0 -0.24463311224E+02  0.19132723112E+02  0.81899930820E+02  0.14856686494E+03  0.12000000000E+03 0.  0.
<mgrwt>
<rscale>  0 0.24956418E+03</rscale>
<asrwt>0</asrwt>
<pdfrwt beam="1">  1        3 0.31798414E-01 0.24956418E+03</pdfrwt>
<pdfrwt beam="2">  1       -3 0.11589704E-01 0.24956418E+03</pdfrwt>
<totfact> 0.13960904E+03</totfact>
</mgrwt>
</event>
<event>
 4    1  0.1866622E-004  0.2615195E+03  0.7818608E-02  0.1106234E+00
          1   -1    0    0  501    0  0.00000000000E+00  0.00000000000E+00  0.16904603598E+03  0.16904603598E+03  0.00000000000E+00 0. -1.
         -1   -1    0    0    0  501 -0.00000000000E+00 -0.00000000000E+00 -0.10114468852E+03  0.10114468852E+03  0.00000000000E+00 0. -1.
         25    1    1    2    0    0 -0.42255387002E+02 -0.30127588802E+02  0.36242168091E+02  0.13567123529E+03  0.12000000000E+03 0.  0.
         25    1    1    2    0    0  0.42255387002E+02  0.30127588802E+02  0.31659179374E+02  0.13451948921E+03  0.12000000000E+03 0.  0.
<mgrwt>
<rscale>  0 0.26151947E+03</rscale>
<asrwt>0</asrwt>
<pdfrwt beam="1">  1        1 0.26007082E-01 0.26151947E+03</pdfrwt>
<pdfrwt beam="2">  1       -1 0.15560721E-01 0.26151947E+03</pdfrwt>
<totfact> 0.54559507E+03</totfact>
</mgrwt>
</event>
<event>
 4    1  0.1866622E-004  0.2663056E+03  0.7818608E-02  0.1103413E+00
         -3   -1    0    0    0  501 -0.00000000000E+00  0.00000000000E+00  0.10436237459E+03  0.10436237459E+03  0.00000000000E+00 0. -1.
          3   -1    0    0  501    0  0.00000000000E+00 -0.00000000000E+00 -0.16988559627E+03  0.16988559627E+03  0.00000000000E+00 0. -1.
         25    1    1    2    0    0  0.51756882387E+02 -0.19992783383E+02 -0.49082880810E+02  0.14102345709E+03  0.12000000000E+03 0.  0.
         25    1    1    2    0    0 -0.51756882387E+02  0.19992783383E+02 -0.16440340871E+02  0.13322451377E+03  0.12000000000E+03 0.  0.
<mgrwt>
<rscale>  0 0.26630557E+03</rscale>
<asrwt>0</asrwt>
<pdfrwt beam="1">  1        3 0.26136245E-01 0.26630557E+03</pdfrwt>
<pdfrwt beam="2">  1       -3 0.16055750E-01 0.26630557E+03</pdfrwt>
<totfact> 0.11587316E+03</totfact>
</mgrwt>
</event>
<event>
 4    1  0.1866622E-004  0.3338826E+03  0.7818608E-02  0.1069432E+00
         -2   -1    0    0    0  501 -0.00000000000E+00  0.00000000000E+00  0.82710657358E+02  0.82710657358E+02  0.00000000000E+00 0.  1.
          2   -1    0    0  501    0  0.00000000000E+00 -0.00000000000E+00 -0.33695047219E+03  0.33695047219E+03  0.00000000000E+00 0.  1.
         25    1    1    2    0    0 -0.51677970400E+02  0.81469474569E+02 -0.46036815573E+02  0.16070866902E+03  0.12000000000E+03 0.  0.
         25    1    1    2    0    0  0.51677970400E+02 -0.81469474569E+02 -0.20820299926E+03  0.25895246052E+03  0.12000000000E+03 0.  0.
<mgrwt>
<rscale>  0 0.33388258E+03</rscale>
<asrwt>0</asrwt>
<pdfrwt beam="1">  1        2 0.51838534E-01 0.33388258E+03</pdfrwt>
<pdfrwt beam="2">  1       -2 0.12724717E-01 0.33388258E+03</pdfrwt>
<totfact> 0.43361535E+03</totfact>
</mgrwt>
</event>
<event>
 4    1  0.1866622E-004  0.3353648E+03  0.7818608E-02  0.1068787E+00
          1   -1    0    0  501    0  0.00000000000E+00  0.00000000000E+00  0.38926974667E+03  0.38926974667E+03  0.00000000000E+00 0. -1.
         -1   -1    0    0    0  501 -0.00000000000E+00 -0.00000000000E+00 -0.72231134680E+02  0.72231134680E+02  0.00000000000E+00 0. -1.
         25    1    1    2    0    0 -0.88700999267E+02  0.75886423602E+02  0.14540795180E+03  0.22174329529E+03  0.12000000000E+03 0.  0.
         25    1    1    2    0    0  0.88700999267E+02 -0.75886423602E+02  0.17163066019E+03  0.23975758606E+03  0.12000000000E+03 0.  0.
<mgrwt>
<rscale>  0 0.33536485E+03</rscale>
<asrwt>0</asrwt>
<pdfrwt beam="1">  1        1 0.59887652E-01 0.33536485E+03</pdfrwt>
<pdfrwt beam="2">  1       -1 0.11112483E-01 0.33536485E+03</pdfrwt>
<totfact> 0.32503292E+03</totfact>
</mgrwt>
</event>
<event>
 4    1  0.1866622E-004  0.2585858E+03  0.7818608E-02  0.1107996E+00
          2   -1    0    0  501    0  0.00000000000E+00  0.00000000000E+00  0.23637170976E+03  0.23637170976E+03  0.00000000000E+00 0.  1.
         -2   -1    0    0    0  501 -0.00000000000E+00 -0.00000000000E+00 -0.70721865898E+02  0.70721865898E+02  0.00000000000E+00 0.  1.
         25    1    1    2    0    0  0.43820899027E+02  0.17517357282E+02  0.94061255446E+02  0.15960779672E+03  0.12000000000E+03 0.  0.
         25    1    1    2    0    0 -0.43820899027E+02 -0.17517357282E+02  0.71588588417E+02  0.14748577894E+03  0.12000000000E+03 0.  0.
<mgrwt>
<rscale>  0 0.25858576E+03</rscale>
<asrwt>0</asrwt>
<pdfrwt beam="1">  1        2 0.36364878E-01 0.25858576E+03</pdfrwt>
<pdfrwt beam="2">  1       -2 0.10880287E-01 0.25858576E+03</pdfrwt>
<totfact> 0.81210215E+03</totfact>
</mgrwt>
</event>
<event>
 4    1  0.1866622E-004  0.3962529E+03  0.7818608E-02  0.1045085E+00
          2   -1    0    0  501    0  0.00000000000E+00  0.00000000000E+00  0.22890518507E+04  0.22890518507E+04  0.00000000000E+00 0. -1.
         -2   -1    0    0    0  501 -0.00000000000E+00 -0.00000000000E+00 -0.17148627435E+02  0.17148627435E+02  0.00000000000E+00 0. -1.
         25    1    1    2    0    0 -0.62169000345E+02  0.11652606262E+02  0.29550086458E+03  0.32514847193E+03  0.12000000000E+03 0.  0.
         25    1    1    2    0    0  0.62169000345E+02 -0.11652606262E+02  0.19764023587E+04  0.19810520062E+04  0.12000000000E+03 0.  0.
<mgrwt>
<rscale>  0 0.39625294E+03</rscale>
<asrwt>0</asrwt>
<pdfrwt beam="1">  1        2 0.35216158E+00 0.39625294E+03</pdfrwt>
<pdfrwt beam="2">  1       -2 0.26382522E-02 0.39625294E+03</pdfrwt>
<totfact> 0.26564839E+03</totfact>
</mgrwt>
</event>
<event>
 4    1  0.1866622E-004  0.2874916E+03  0.7818608E-02  0.1091666E+00
          2   -1    0    0  501    0  0.00000000000E+00  0.00000000000E+00  0.19810715235E+03  0.19810715235E+03  0.00000000000E+00 0. -1.
         -2   -1    0    0    0  501 -0.00000000000E+00 -0.00000000000E+00 -0.10430138153E+03  0.10430138153E+03  0.00000000000E+00 0. -1.
         25    1    1    2    0    0  0.18895637944E+02  0.67107831022E+02  0.86293807909E+02  0.16342315442E+03  0.12000000000E+03 0.  0.
         25    1    1    2    0    0 -0.18895637944E+02 -0.67107831022E+02  0.75119629136E+01  0.13898537946E+03  0.12000000000E+03 0.  0.
<mgrwt>
<rscale>  0 0.28749156E+03</rscale>
<asrwt>0</asrwt>
<pdfrwt beam="1">  1        2 0.30478023E-01 0.28749156E+03</pdfrwt>
<pdfrwt beam="2">  1       -2 0.16046366E-01 0.28749156E+03</pdfrwt>
<totfact> 0.52442790E+03</totfact>
</mgrwt>
</event>
<event>
 4    1  0.1866622E-004  0.2452306E+03  0.7818608E-02  0.1116357E+00
          2   -1    0    0  501    0  0.00000000000E+00  0.00000000000E+00  0.38392183331E+02  0.38392183331E+02  0.00000000000E+00 0. -1.
         -2   -1    0    0    0  501 -0.00000000000E+00 -0.00000000000E+00 -0.39160330185E+03  0.39160330185E+03  0.00000000000E+00 0. -1.
         25    1    1    2    0    0  0.19143483380E+02  0.10309737925E+02 -0.15430576438E+03  0.19668002586E+03  0.12000000000E+03 0.  0.
         25    1    1    2    0    0 -0.19143483380E+02 -0.10309737925E+02 -0.19890535414E+03  0.23331545932E+03  0.12000000000E+03 0.  0.
<mgrwt>
<rscale>  0 0.24523055E+03</rscale>
<asrwt>0</asrwt>
<pdfrwt beam="1">  1        2 0.59064895E-02 0.24523055E+03</pdfrwt>
<pdfrwt beam="2">  1       -2 0.60246665E-01 0.24523055E+03</pdfrwt>
<totfact> 0.32759809E+03</totfact>
</mgrwt>
</event>
<event>
 4    1  0.1866622E-004  0.4057097E+03  0.7818608E-02  0.1041820E+00
         -1   -1    0    0    0  501 -0.00000000000E+00  0.00000000000E+00  0.58644908954E+03  0.58644908954E+03  0.00000000000E+00 0.  1.
          1   -1    0    0  501    0  0.00000000000E+00 -0.00000000000E+00 -0.70168211629E+02  0.70168211629E+02  0.00000000000E+00 0.  1.
         25    1    1    2    0    0  0.57543603747E+02 -0.13906950592E+03  0.36175216406E+03  0.40977581922E+03  0.12000000000E+03 0.  0.
         25    1    1    2    0    0 -0.57543603747E+02  0.13906950592E+03  0.15452871384E+03  0.24684148195E+03  0.12000000000E+03 0.  0.
<mgrwt>
<rscale>  0 0.40570967E+03</rscale>
<asrwt>0</asrwt>
<pdfrwt beam="1">  1        1 0.10795110E-01 0.40570967E+03</pdfrwt>
<pdfrwt beam="2">  1       -1 0.90222934E-01 0.40570967E+03</pdfrwt>
<totfact> 0.73275127E+02</totfact>
</mgrwt>
</event>
<event>
 4    1  0.1866622E-004  0.2448960E+03  0.7818608E-02  0.1116574E+00
          2   -1    0    0  501    0  0.00000000000E+00  0.00000000000E+00  0.22223490747E+04  0.22223490747E+04  0.00000000000E+00 0. -1.
         -2   -1    0    0    0  501 -0.00000000000E+00 -0.00000000000E+00 -0.67466938020E+01  0.67466938020E+01  0.00000000000E+00 0. -1.
         25    1    1    2    0    0  0.34296218081E+01 -0.11328044216E+02  0.91398131535E+03  0.92190125920E+03  0.12000000000E+03 0.  0.
         25    1    1    2    0    0 -0.34296218081E+01  0.11328044216E+02  0.13016210656E+04  0.13071945093E+04  0.12000000000E+03 0.  0.
<mgrwt>
<rscale>  0 0.24489597E+03</rscale>
<asrwt>0</asrwt>
<pdfrwt beam="1">  1        2 0.34189927E+00 0.24489597E+03</pdfrwt>
<pdfrwt beam="2">  1       -2 0.10379547E-02 0.24489597E+03</pdfrwt>
<totfact> 0.11419821E+04</totfact>
</mgrwt>
</event>
<event>
 4    1  0.1866622E-004  0.2719404E+03  0.7818608E-02  0.1100174E+00
          1   -1    0    0  501    0  0.00000000000E+00  0.00000000000E+00  0.44540362622E+02  0.44540362622E+02  0.00000000000E+00 0.  1.
         -1   -1    0    0    0  501 -0.00000000000E+00 -0.00000000000E+00 -0.41508193040E+03  0.41508193040E+03  0.00000000000E+00 0.  1.
         25    1    1    2    0    0  0.53958804833E+02 -0.20090083843E+02 -0.23225400243E+03  0.26768841165E+03  0.12000000000E+03 0.  0.
         25    1    1    2    0    0 -0.53958804833E+02  0.20090083843E+02 -0.13828756534E+03  0.19193388137E+03  0.12000000000E+03 0.  0.
<mgrwt>
<rscale>  0 0.27194043E+03</rscale>
<asrwt>0</asrwt>
<pdfrwt beam="1">  1        1 0.68523633E-02 0.27194043E+03</pdfrwt>
<pdfrwt beam="2">  1       -1 0.63858761E-01 0.27194043E+03</pdfrwt>
<totfact> 0.27588536E+03</totfact>
</mgrwt>
</event>
<event>
 4    1  0.1866622E-004  0.2637412E+03  0.7818608E-02  0.1104916E+00
         -3   -1    0    0    0  501 -0.00000000000E+00  0.00000000000E+00  0.57629440727E+03  0.57629440727E+03  0.00000000000E+00 0.  1.
          3   -1    0    0  501    0  0.00000000000E+00 -0.00000000000E+00 -0.30175288739E+02  0.30175288739E+02  0.00000000000E+00 0.  1.
         25    1    1    2    0    0  0.33913432891E+02  0.42732547612E+02  0.28155789734E+03  0.31088750556E+03  0.12000000000E+03 0.  0.
         25    1    1    2    0    0 -0.33913432891E+02 -0.42732547612E+02  0.26456122119E+03  0.29558219046E+03  0.12000000000E+03 0.  0.
<mgrwt>
<rscale>  0 0.26374116E+03</rscale>
<asrwt>0</asrwt>
<pdfrwt beam="1">  1        3 0.46423525E-02 0.26374116E+03</pdfrwt>
<pdfrwt beam="2">  1       -3 0.88660670E-01 0.26374116E+03</pdfrwt>
<totfact> 0.77059110E+02</totfact>
</mgrwt>
</event>
<event>
 4    1  0.1866622E-004  0.2718864E+03  0.7818608E-02  0.1100205E+00
          2   -1    0    0  501    0  0.00000000000E+00  0.00000000000E+00  0.38561017443E+03  0.38561017443E+03  0.00000000000E+00 0.  1.
         -2   -1    0    0    0  501 -0.00000000000E+00 -0.00000000000E+00 -0.47925492147E+02  0.47925492147E+02  0.00000000000E+00 0.  1.
         25    1    1    2    0    0 -0.20460212982E+02  0.60350562838E+02  0.17592805918E+03  0.22228696038E+03  0.12000000000E+03 0.  0.
         25    1    1    2    0    0  0.20460212982E+02 -0.60350562838E+02  0.16175662310E+03  0.21124870619E+03  0.12000000000E+03 0.  0.
<mgrwt>
<rscale>  0 0.27188643E+03</rscale>
<asrwt>0</asrwt>
<pdfrwt beam="1">  1        2 0.59324640E-01 0.27188643E+03</pdfrwt>
<pdfrwt beam="2">  1       -2 0.73731529E-02 0.27188643E+03</pdfrwt>
<totfact> 0.88643800E+03</totfact>
</mgrwt>
</event>
<event>
 4    1  0.1866622E-004  0.3061523E+03  0.7818608E-02  0.1082205E+00
          3   -1    0    0  501    0  0.00000000000E+00  0.00000000000E+00  0.82387004882E+03  0.82387004882E+03  0.00000000000E+00 0.  1.
         -3   -1    0    0    0  501 -0.00000000000E+00 -0.00000000000E+00 -0.28441749257E+02  0.28441749257E+02  0.00000000000E+00 0.  1.
         25    1    1    2    0    0  0.65195556918E+02  0.17092174985E+02  0.58425320214E+03  0.60024528928E+03  0.12000000000E+03 0.  0.
         25    1    1    2    0    0 -0.65195556918E+02 -0.17092174985E+02  0.21117509742E+03  0.25206650880E+03  0.12000000000E+03 0.  0.
<mgrwt>
<rscale>  0 0.30615228E+03</rscale>
<asrwt>0</asrwt>
<pdfrwt beam="1">  1        3 0.12674922E+00 0.30615228E+03</pdfrwt>
<pdfrwt beam="2">  1       -3 0.43756544E-02 0.30615228E+03</pdfrwt>
<totfact> 0.37444875E+02</totfact>
</mgrwt>
</event>
<event>
 4    1  0.1866622E-004  0.2526522E+03  0.7818608E-02  0.1111640E+00
          1   -1    0    0  501    0  0.00000000000E+00  0.00000000000E+00  0.14400258029E+04  0.14400258029E+04  0.00000000000E+00 0. -1.
         -1   -1    0    0    0  501 -0.00000000000E+00 -0.00000000000E+00 -0.11081941284E+02  0.11081941284E+02  0.00000000000E+00 0. -1.
         25    1    1    2    0    0  0.36502659688E+02  0.14718857868E+02  0.73188568230E+03  0.74270164999E+03  0.12000000000E+03 0.  0.
         25    1    1    2    0    0 -0.36502659688E+02 -0.14718857868E+02  0.69705817935E+03  0.70840609423E+03  0.12000000000E+03 0.  0.
<mgrwt>
<rscale>  0 0.25265218E+03</rscale>
<asrwt>0</asrwt>
<pdfrwt beam="1">  1        1 0.22154228E+00 0.25265218E+03</pdfrwt>
<pdfrwt beam="2">  1       -1 0.17049152E-02 0.25265218E+03</pdfrwt>
<totfact> 0.67822014E+03</totfact>
</mgrwt>
</event>
<event>
 4    1  0.1866622E-004  0.2406412E+03  0.7818608E-02  0.1119366E+00
          2   -1    0    0  501    0  0.00000000000E+00  0.00000000000E+00  0.23581212146E+04  0.23581212146E+04  0.00000000000E+00 0. -1.
         -2   -1    0    0    0  501 -0.00000000000E+00 -0.00000000000E+00 -0.61392272087E+01  0.61392272087E+01  0.00000000000E+00 0. -1.
         25    1    1    2    0    0 -0.42734034210E+01  0.76405168334E+01  0.11822237487E+04  0.11883306069E+04  0.12000000000E+03 0.  0.
         25    1    1    2    0    0  0.42734034210E+01 -0.76405168334E+01  0.11697582387E+04  0.11759298348E+04  0.12000000000E+03 0.  0.
<mgrwt>
<rscale>  0 0.24064116E+03</rscale>
<asrwt>0</asrwt>
<pdfrwt beam="1">  1        2 0.36278716E+00 0.24064116E+03</pdfrwt>
<pdfrwt beam="2">  1       -2 0.94449837E-03 0.24064116E+03</pdfrwt>
<totfact> 0.11077763E+04</totfact>
</mgrwt>
</event>
<event>
 4    1  0.1866622E-004  0.4587381E+03  0.7818608E-02  0.1025148E+00
          2   -1    0    0  501    0  0.00000000000E+00  0.00000000000E+00  0.98775247983E+03  0.98775247983E+03  0.00000000000E+00 0. -1.
         -2   -1    0    0    0  501 -0.00000000000E+00 -0.00000000000E+00 -0.53262490859E+02  0.53262490859E+02  0.00000000000E+00 0. -1.
         25    1    1    2    0    0 -0.11747504965E+03  0.11431670269E+03  0.22557279618E+03  0.30356512017E+03  0.12000000000E+03 0.  0.
         25    1    1    2    0    0  0.11747504965E+03 -0.11431670269E+03  0.70891719279E+03  0.73744985052E+03  0.12000000000E+03 0.  0.
<mgrwt>
<rscale>  0 0.45873808E+03</rscale>
<asrwt>0</asrwt>
<pdfrwt beam="1">  1        2 0.15196191E+00 0.45873808E+03</pdfrwt>
<pdfrwt beam="2">  1       -2 0.81942301E-02 0.45873808E+03</pdfrwt>
<totfact> 0.24378717E+03</totfact>
</mgrwt>
</event>
<event>
 4    1  0.1866622E-004  0.2411074E+03  0.7818608E-02  0.1119057E+00
         -2   -1    0    0    0  501 -0.00000000000E+00  0.00000000000E+00  0.13035435674E+02  0.13035435674E+02  0.00000000000E+00 0. -1.
          2   -1    0    0  501    0  0.00000000000E+00 -0.00000000000E+00 -0.11148993741E+04  0.11148993741E+04  0.00000000000E+00 0. -1.
         25    1    1    2    0    0  0.71279606689E+01  0.90769492135E+01 -0.55085897886E+03  0.56389610162E+03  0.12000000000E+03 0.  0.
         25    1    1    2    0    0 -0.71279606689E+01 -0.90769492135E+01 -0.55100495952E+03  0.56403870811E+03  0.12000000000E+03 0.  0.
<mgrwt>
<rscale>  0 0.24110744E+03</rscale>
<asrwt>0</asrwt>
<pdfrwt beam="1">  1        2 0.17152295E+00 0.24110744E+03</pdfrwt>
<pdfrwt beam="2">  1       -2 0.20054520E-02 0.24110744E+03</pdfrwt>
<totfact> 0.17099058E+04</totfact>
</mgrwt>
</event>
<event>
 4    1  0.1866622E-004  0.4742292E+03  0.7818608E-02  0.1020733E+00
          2   -1    0    0  501    0  0.00000000000E+00  0.00000000000E+00  0.18172148401E+04  0.18172148401E+04  0.00000000000E+00 0.  1.
         -2   -1    0    0    0  501 -0.00000000000E+00 -0.00000000000E+00 -0.30939289012E+02  0.30939289012E+02  0.00000000000E+00 0.  1.
         25    1    1    2    0    0 -0.95161690505E+02 -0.14304585446E+02  0.15963912253E+04  0.16037846841E+04  0.12000000000E+03 0.  0.
         25    1    1    2    0    0  0.95161690505E+02  0.14304585446E+02  0.18988432572E+03  0.24436944502E+03  0.12000000000E+03 0.  0.
<mgrwt>
<rscale>  0 0.47422921E+03</rscale>
<asrwt>0</asrwt>
<pdfrwt beam="1">  1        2 0.27957143E+00 0.47422921E+03</pdfrwt>
<pdfrwt beam="2">  1       -2 0.47598920E-02 0.47422921E+03</pdfrwt>
<totfact> 0.19376391E+03</totfact>
</mgrwt>
</event>
<event>
 4    1  0.1866622E-004  0.2529442E+03  0.7818608E-02  0.1111458E+00
          2   -1    0    0  501    0  0.00000000000E+00  0.00000000000E+00  0.20380405837E+03  0.20380405837E+03  0.00000000000E+00 0. -1.
         -2   -1    0    0    0  501 -0.00000000000E+00 -0.00000000000E+00 -0.78483169594E+02  0.78483169594E+02  0.00000000000E+00 0. -1.
         25    1    1    2    0    0  0.38339941730E+02 -0.11125567604E+02  0.61312389161E+02  0.14054514738E+03  0.12000000000E+03 0.  0.
         25    1    1    2    0    0 -0.38339941730E+02  0.11125567604E+02  0.64008499615E+02  0.14174208059E+03  0.12000000000E+03 0.  0.
<mgrwt>
<rscale>  0 0.25294417E+03</rscale>
<asrwt>0</asrwt>
<pdfrwt beam="1">  1        2 0.31354470E-01 0.25294417E+03</pdfrwt>
<pdfrwt beam="2">  1       -2 0.12074334E-01 0.25294417E+03</pdfrwt>
<totfact> 0.80636613E+03</totfact>
</mgrwt>
</event>
<event>
 4    1  0.1866622E-004  0.3402316E+03  0.7818608E-02  0.1066697E+00
          2   -1    0    0  501    0  0.00000000000E+00  0.00000000000E+00  0.11342664528E+04  0.11342664528E+04  0.00000000000E+00 0.  1.
         -2   -1    0    0    0  501 -0.00000000000E+00 -0.00000000000E+00 -0.25513744252E+02  0.25513744252E+02  0.00000000000E+00 0.  1.
         25    1    1    2    0    0 -0.29008072420E+02  0.10719797298E+03  0.39425323153E+03  0.42681200106E+03  0.12000000000E+03 0.  0.
         25    1    1    2    0    0  0.29008072420E+02 -0.10719797298E+03  0.71449947701E+03  0.73296819598E+03  0.12000000000E+03 0.  0.
<mgrwt>
<rscale>  0 0.34023159E+03</rscale>
<asrwt>0</asrwt>
<pdfrwt beam="1">  1        2 0.17450249E+00 0.34023159E+03</pdfrwt>
<pdfrwt beam="2">  1       -2 0.39251923E-02 0.34023159E+03</pdfrwt>
<totfact> 0.61905172E+03</totfact>
</mgrwt>
</event>
<event>
 4    1  0.1866622E-004  0.3658913E+03  0.7818608E-02  0.1056275E+00
         -1   -1    0    0    0  501 -0.00000000000E+00  0.00000000000E+00  0.26005383808E+03  0.26005383808E+03  0.00000000000E+00 0.  1.
          1   -1    0    0  501    0  0.00000000000E+00 -0.00000000000E+00 -0.12870066597E+03  0.12870066597E+03  0.00000000000E+00 0.  1.
         25    1    1    2    0    0  0.68209908616E+02  0.11782481974E+03  0.90224906853E+02  0.20267168919E+03  0.12000000000E+03 0.  0.
         25    1    1    2    0    0 -0.68209908616E+02 -0.11782481974E+03  0.41128265256E+02  0.18608281485E+03  0.12000000000E+03 0.  0.
<mgrwt>
<rscale>  0 0.36589125E+03</rscale>
<asrwt>0</asrwt>
<pdfrwt beam="1">  1        1 0.19800102E-01 0.36589125E+03</pdfrwt>
<pdfrwt beam="2">  1       -1 0.40008283E-01 0.36589125E+03</pdfrwt>
<totfact> 0.16034935E+03</totfact>
</mgrwt>
</event>
<event>
 4    1  0.1866622E-004  0.3749489E+03  0.7818608E-02  0.1052817E+00
         -2   -1    0    0    0  501 -0.00000000000E+00  0.00000000000E+00  0.83157253887E+03  0.83157253887E+03  0.00000000000E+00 0. -1.
          2   -1    0    0  501    0  0.00000000000E+00 -0.00000000000E+00 -0.42265310611E+02  0.42265310611E+02  0.00000000000E+00 0. -1.
         25    1    1    2    0    0  0.12796509516E+03 -0.46509291229E+02  0.50417694908E+03  0.53584753031E+03  0.12000000000E+03 0.  0.
         25    1    1    2    0    0 -0.12796509516E+03  0.46509291229E+02  0.28513027918E+03  0.33799031917E+03  0.12000000000E+03 0.  0.
<mgrwt>
<rscale>  0 0.37494891E+03</rscale>
<asrwt>0</asrwt>
<pdfrwt beam="1">  1        2 0.65023561E-02 0.37494891E+03</pdfrwt>
<pdfrwt beam="2">  1       -2 0.12793423E+00 0.37494891E+03</pdfrwt>
<totfact> 0.53019730E+02</totfact>
</mgrwt>
</event>
<event>
 4    1  0.1866622E-004  0.3576195E+03  0.7818608E-02  0.1059530E+00
          1   -1    0    0  501    0  0.00000000000E+00  0.00000000000E+00  0.12941016860E+04  0.12941016860E+04  0.00000000000E+00 0. -1.
         -1   -1    0    0    0  501 -0.00000000000E+00 -0.00000000000E+00 -0.24706661012E+02  0.24706661012E+02  0.00000000000E+00 0. -1.
         25    1    1    2    0    0 -0.13697131249E+02  0.94947712566E+02  0.29730943451E+03  0.33465740598E+03  0.12000000000E+03 0.  0.
         25    1    1    2    0    0  0.13697131249E+02 -0.94947712566E+02  0.97208559052E+03  0.98415094107E+03  0.12000000000E+03 0.  0.
<mgrwt>
<rscale>  0 0.35761953E+03</rscale>
<asrwt>0</asrwt>
<pdfrwt beam="1">  1        1 0.19909251E+00 0.35761953E+03</pdfrwt>
<pdfrwt beam="2">  1       -1 0.38010258E-02 0.35761953E+03</pdfrwt>
<totfact> 0.26173307E+03</totfact>
</mgrwt>
</event>
<event>
 4    1  0.1866622E-004  0.2628929E+03  0.7818608E-02  0.1105417E+00
         -2   -1    0    0    0  501 -0.00000000000E+00  0.00000000000E+00  0.36054151791E+02  0.36054151791E+02  0.00000000000E+00 0. -1.
          2   -1    0    0  501    0  0.00000000000E+00 -0.00000000000E+00 -0.47922830446E+03  0.47922830446E+03  0.00000000000E+00 0. -1.
         25    1    1    2    0    0  0.12755730107E+01  0.52449104000E+02 -0.24355660975E+03  0.27653635882E+03  0.12000000000E+03 0.  0.
         25    1    1    2    0    0 -0.12755730107E+01 -0.52449104000E+02 -0.19961754292E+03  0.23874609743E+03  0.12000000000E+03 0.  0.
<mgrwt>
<rscale>  0 0.26289291E+03</rscale>
<asrwt>0</asrwt>
<pdfrwt beam="1">  1        2 0.73727425E-01 0.26289291E+03</pdfrwt>
<pdfrwt beam="2">  1       -2 0.55467930E-02 0.26289291E+03</pdfrwt>
<totfact> 0.10813854E+04</totfact>
</mgrwt>
</event>
<event>
 4    1  0.1866622E-004  0.3313568E+03  0.7818608E-02  0.1070538E+00
         -1   -1    0    0    0  501 -0.00000000000E+00  0.00000000000E+00  0.55496872343E+02  0.55496872343E+02  0.00000000000E+00 0. -1.
          1   -1    0    0  501    0  0.00000000000E+00 -0.00000000000E+00 -0.49461037587E+03  0.49461037587E+03  0.00000000000E+00 0. -1.
         25    1    1    2    0    0 -0.34932383619E+02 -0.10155957713E+03 -0.28416920305E+03  0.32662938492E+03  0.12000000000E+03 0.  0.
         25    1    1    2    0    0  0.34932383619E+02  0.10155957713E+03 -0.15494430047E+03  0.22347786329E+03  0.12000000000E+03 0.  0.
<mgrwt>
<rscale>  0 0.33135678E+03</rscale>
<asrwt>0</asrwt>
<pdfrwt beam="1">  1        1 0.76093904E-01 0.33135678E+03</pdfrwt>
<pdfrwt beam="2">  1       -1 0.85379803E-02 0.33135678E+03</pdfrwt>
<totfact> 0.35748410E+03</totfact>
</mgrwt>
</event>
<event>
 4    1  0.1866622E-004  0.2985331E+03  0.7818608E-02  0.1085976E+00
         -1   -1    0    0    0  501 -0.00000000000E+00  0.00000000000E+00  0.81872536161E+03  0.81872536161E+03  0.00000000000E+00 0. -1.
          1   -1    0    0  501    0  0.00000000000E+00 -0.00000000000E+00 -0.27213640301E+02  0.27213640301E+02  0.00000000000E+00 0. -1.
         25    1    1    2    0    0 -0.70334410454E+02  0.45449084179E+02  0.31227369594E+03  0.34485853581E+03  0.12000000000E+03 0.  0.
         25    1    1    2    0    0  0.70334410454E+02 -0.45449084179E+02  0.47923802537E+03  0.50108046610E+03  0.12000000000E+03 0.  0.
<mgrwt>
<rscale>  0 0.29853306E+03</rscale>
<asrwt>0</asrwt>
<pdfrwt beam="1">  1        1 0.41867145E-02 0.29853306E+03</pdfrwt>
<pdfrwt beam="2">  1       -1 0.12595773E+00 0.29853306E+03</pdfrwt>
<totfact> 0.12565057E+03</totfact>
</mgrwt>
</event>
<event>
 4    1  0.1866622E-004  0.3414865E+03  0.7818608E-02  0.1066165E+00
          1   -1    0    0  501    0  0.00000000000E+00  0.00000000000E+00  0.78013326701E+03  0.78013326701E+03  0.00000000000E+00 0.  1.
         -1   -1    0    0    0  501 -0.00000000000E+00 -0.00000000000E+00 -0.37369592159E+02  0.37369592159E+02  0.00000000000E+00 0.  1.
         25    1    1    2    0    0  0.84652447858E+02  0.78040573684E+02  0.46400321221E+03  0.49290501013E+03  0.12000000000E+03 0.  0.
         25    1    1    2    0    0 -0.84652447858E+02 -0.78040573684E+02  0.27876046264E+03  0.32459784903E+03  0.12000000000E+03 0.  0.
<mgrwt>
<rscale>  0 0.34148653E+03</rscale>
<asrwt>0</asrwt>
<pdfrwt beam="1">  1        1 0.12002049E+00 0.34148653E+03</pdfrwt>
<pdfrwt beam="2">  1       -1 0.57491686E-02 0.34148653E+03</pdfrwt>
<totfact> 0.34240033E+03</totfact>
</mgrwt>
</event>
<event>
 4    1  0.1866622E-004  0.2487154E+03  0.7818608E-02  0.1114119E+00
          2   -1    0    0  501    0  0.00000000000E+00  0.00000000000E+00  0.10001223823E+03  0.10001223823E+03  0.00000000000E+00 0. -1.
         -2   -1    0    0    0  501 -0.00000000000E+00 -0.00000000000E+00 -0.15462950877E+03  0.15462950877E+03  0.00000000000E+00 0. -1.
         25    1    1    2    0    0 -0.20466976780E+02  0.21998160621E+02 -0.40340921892E+02  0.13011612578E+03  0.12000000000E+03 0.  0.
         25    1    1    2    0    0  0.20466976780E+02 -0.21998160621E+02 -0.14276348657E+02  0.12452562122E+03  0.12000000000E+03 0.  0.
<mgrwt>
<rscale>  0 0.24871545E+03</rscale>
<asrwt>0</asrwt>
<pdfrwt beam="1">  1        2 0.15386498E-01 0.24871545E+03</pdfrwt>
<pdfrwt beam="2">  1       -2 0.23789155E-01 0.24871545E+03</pdfrwt>
<totfact> 0.57926799E+03</totfact>
</mgrwt>
</event>
<event>
 4    1  0.1866622E-004  0.3502469E+03  0.7818608E-02  0.1062514E+00
          1   -1    0    0  501    0  0.00000000000E+00  0.00000000000E+00  0.12906369368E+04  0.12906369368E+04  0.00000000000E+00 0. -1.
         -1   -1    0    0    0  501 -0.00000000000E+00 -0.00000000000E+00 -0.23762086589E+02  0.23762086589E+02  0.00000000000E+00 0. -1.
         25    1    1    2    0    0 -0.24652363646E+02 -0.93090445349E+02  0.31957733228E+03  0.35468752636E+03  0.12000000000E+03 0.  0.
         25    1    1    2    0    0  0.24652363646E+02  0.93090445349E+02  0.94729751789E+03  0.95971149699E+03  0.12000000000E+03 0.  0.
<mgrwt>
<rscale>  0 0.35024692E+03</rscale>
<asrwt>0</asrwt>
<pdfrwt beam="1">  1        1 0.19855947E+00 0.35024692E+03</pdfrwt>
<pdfrwt beam="2">  1       -1 0.36557066E-02 0.35024692E+03</pdfrwt>
<totfact> 0.27899088E+03</totfact>
</mgrwt>
</event>
<event>
 4    1  0.1866622E-004  0.6573879E+03  0.7818608E-02  0.9793014E-01
          2   -1    0    0  501    0  0.00000000000E+00  0.00000000000E+00  0.67658000696E+02  0.67658000696E+02  0.00000000000E+00 0. -1.
         -2   -1    0    0    0  501 -0.00000000000E+00 -0.00000000000E+00 -0.15968502864E+04  0.15968502864E+04  0.00000000000E+00 0. -1.
         25    1    1    2    0    0  0.32507742750E+02 -0.11629706685E+03 -0.52666586299E+02  0.17820081484E+03  0.12000000000E+03 0.  0.
         25    1    1    2    0    0 -0.32507742750E+02  0.11629706685E+03 -0.14765256994E+04  0.14863074722E+04  0.12000000000E+03 0.  0.
<mgrwt>
<rscale>  0 0.65738785E+03</rscale>
<asrwt>0</asrwt>
<pdfrwt beam="1">  1        2 0.10408924E-01 0.65738785E+03</pdfrwt>
<pdfrwt beam="2">  1       -2 0.24566926E+00 0.65738785E+03</pdfrwt>
<totfact> 0.44627489E+01</totfact>
</mgrwt>
</event>
<event>
 4    1  0.1866622E-004  0.2414123E+03  0.7818608E-02  0.1118856E+00
          4   -1    0    0  501    0  0.00000000000E+00  0.00000000000E+00  0.26799128857E+02  0.26799128857E+02  0.00000000000E+00 0.  1.
         -4   -1    0    0    0  501 -0.00000000000E+00 -0.00000000000E+00 -0.54367323878E+03  0.54367323878E+03  0.00000000000E+00 0.  1.
         25    1    1    2    0    0 -0.72433840133E+01 -0.33440812271E+01 -0.23407117203E+03  0.26315957719E+03  0.12000000000E+03 0.  0.
         25    1    1    2    0    0  0.72433840133E+01  0.33440812271E+01 -0.28280293789E+03  0.30731279044E+03  0.12000000000E+03 0.  0.
<mgrwt>
<rscale>  0 0.24141225E+03</rscale>
<asrwt>0</asrwt>
<pdfrwt beam="1">  1        4 0.41229430E-02 0.24141225E+03</pdfrwt>
<pdfrwt beam="2">  1       -4 0.83642035E-01 0.24141225E+03</pdfrwt>
<totfact> 0.77082898E+02</totfact>
</mgrwt>
</event>
<event>
 4    1  0.1866622E-004  0.3044992E+03  0.7818608E-02  0.1083013E+00
         -2   -1    0    0    0  501 -0.00000000000E+00  0.00000000000E+00  0.36389006114E+02  0.36389006114E+02  0.00000000000E+00 0. -1.
          2   -1    0    0  501    0  0.00000000000E+00 -0.00000000000E+00 -0.63700415734E+03  0.63700415734E+03  0.00000000000E+00 0. -1.
         25    1    1    2    0    0  0.15460835992E+02  0.17296355735E+02 -0.99540676553E+02  0.15762787717E+03  0.12000000000E+03 0.  0.
         25    1    1    2    0    0 -0.15460835992E+02 -0.17296355735E+02 -0.50107447467E+03  0.51576528629E+03  0.12000000000E+03 0.  0.
<mgrwt>
<rscale>  0 0.30449925E+03</rscale>
<asrwt>0</asrwt>
<pdfrwt beam="1">  1        2 0.98000638E-01 0.30449925E+03</pdfrwt>
<pdfrwt beam="2">  1       -2 0.55983087E-02 0.30449925E+03</pdfrwt>
<totfact> 0.77408997E+03</totfact>
</mgrwt>
</event>
<event>
 4    1  0.1866622E-004  0.2891682E+03  0.7818608E-02  0.1090784E+00
          1   -1    0    0  501    0  0.00000000000E+00  0.00000000000E+00  0.70224453197E+02  0.70224453197E+02  0.00000000000E+00 0.  1.
         -1   -1    0    0    0  501 -0.00000000000E+00 -0.00000000000E+00 -0.29768198931E+03  0.29768198931E+03  0.00000000000E+00 0.  1.
         25    1    1    2    0    0  0.57310457740E+02 -0.46807697237E+02 -0.15454350068E+03  0.20918686070E+03  0.12000000000E+03 0.  0.
         25    1    1    2    0    0 -0.57310457740E+02  0.46807697237E+02 -0.72914035440E+02  0.15871958181E+03  0.12000000000E+03 0.  0.
<mgrwt>
<rscale>  0 0.28916815E+03</rscale>
<asrwt>0</asrwt>
<pdfrwt beam="1">  1        1 0.10803762E-01 0.28916815E+03</pdfrwt>
<pdfrwt beam="2">  1       -1 0.45797229E-01 0.28916815E+03</pdfrwt>
<totfact> 0.27871150E+03</totfact>
</mgrwt>
</event>
<event>
 4    1  0.1866622E-004  0.3550889E+03  0.7818608E-02  0.1060546E+00
          2   -1    0    0  501    0  0.00000000000E+00  0.00000000000E+00  0.45553399543E+03  0.45553399543E+03  0.00000000000E+00 0.  1.
         -2   -1    0    0    0  501 -0.00000000000E+00 -0.00000000000E+00 -0.69197976567E+02  0.69197976567E+02  0.00000000000E+00 0.  1.
         25    1    1    2    0    0  0.12302323597E+03 -0.39536489020E+02  0.16273284673E+03  0.23995797539E+03  0.12000000000E+03 0.  0.
         25    1    1    2    0    0 -0.12302323597E+03  0.39536489020E+02  0.22360317214E+03  0.28477399661E+03  0.12000000000E+03 0.  0.
<mgrwt>
<rscale>  0 0.35508889E+03</rscale>
<asrwt>0</asrwt>
<pdfrwt beam="1">  1        2 0.70082151E-01 0.35508889E+03</pdfrwt>
<pdfrwt beam="2">  1       -2 0.10645843E-01 0.35508889E+03</pdfrwt>
<totfact> 0.41647237E+03</totfact>
</mgrwt>
</event>
<event>
 4    1  0.1866622E-004  0.3653758E+03  0.7818608E-02  0.1056475E+00
         -1   -1    0    0    0  501 -0.00000000000E+00  0.00000000000E+00  0.73151671048E+03  0.73151671048E+03  0.00000000000E+00 0.  1.
          1   -1    0    0  501    0  0.00000000000E+00 -0.00000000000E+00 -0.45624207700E+02  0.45624207700E+02  0.00000000000E+00 0.  1.
         25    1    1    2    0    0 -0.42230641125E+02 -0.72760894930E+02  0.11094832116E+03  0.18381268958E+03  0.12000000000E+03 0.  0.
         25    1    1    2    0    0  0.42230641125E+02  0.72760894930E+02  0.57494418161E+03  0.59332822860E+03  0.12000000000E+03 0.  0.
<mgrwt>
<rscale>  0 0.36537581E+03</rscale>
<asrwt>0</asrwt>
<pdfrwt beam="1">  1        1 0.70191094E-02 0.36537581E+03</pdfrwt>
<pdfrwt beam="2">  1       -1 0.11254102E+00 0.36537581E+03</pdfrwt>
<totfact> 0.80248078E+02</totfact>
</mgrwt>
</event>
<event>
 4    1  0.1866622E-004  0.3055653E+03  0.7818608E-02  0.1082491E+00
         -2   -1    0    0    0  501 -0.00000000000E+00  0.00000000000E+00  0.27635146583E+02  0.27635146583E+02  0.00000000000E+00 0.  1.
          2   -1    0    0  501    0  0.00000000000E+00 -0.00000000000E+00 -0.84466844838E+03  0.84466844838E+03  0.00000000000E+00 0.  1.
         25    1    1    2    0    0 -0.33257464824E+02 -0.61571988673E+02 -0.22694725782E+03  0.26608687790E+03  0.12000000000E+03 0.  0.
         25    1    1    2    0    0  0.33257464824E+02  0.61571988673E+02 -0.59008604397E+03  0.60621671706E+03  0.12000000000E+03 0.  0.
<mgrwt>
<rscale>  0 0.30556529E+03</rscale>
<asrwt>0</asrwt>
<pdfrwt beam="1">  1        2 0.12994901E+00 0.30556529E+03</pdfrwt>
<pdfrwt beam="2">  1       -2 0.42515605E-02 0.30556529E+03</pdfrwt>
<totfact> 0.82932389E+03</totfact>
</mgrwt>
</event>
<event>
 4    1  0.1866622E-004  0.2662188E+03  0.7818608E-02  0.1103463E+00
         -1   -1    0    0    0  501 -0.00000000000E+00  0.00000000000E+00  0.24442426700E+02  0.24442426700E+02  0.00000000000E+00 0. -1.
          1   -1    0    0  501    0  0.00000000000E+00 -0.00000000000E+00 -0.72489172265E+03  0.72489172265E+03  0.00000000000E+00 0. -1.
         25    1    1    2    0    0 -0.31734078284E+01 -0.51789913278E+02 -0.27980871435E+03  0.30884491620E+03  0.12000000000E+03 0.  0.
         25    1    1    2    0    0  0.31734078284E+01  0.51789913278E+02 -0.42064058160E+03  0.44048923315E+03  0.12000000000E+03 0.  0.
<mgrwt>
<rscale>  0 0.26621880E+03</rscale>
<asrwt>0</asrwt>
<pdfrwt beam="1">  1        1 0.11152179E+00 0.26621880E+03</pdfrwt>
<pdfrwt beam="2">  1       -1 0.37603739E-02 0.26621880E+03</pdfrwt>
<totfact> 0.71904819E+03</totfact>
</mgrwt>
</event>
<event>
 4    1  0.1866622E-004  0.2786698E+03  0.7818608E-02  0.1096418E+00
          1   -1    0    0  501    0  0.00000000000E+00  0.00000000000E+00  0.29750130502E+02  0.29750130502E+02  0.00000000000E+00 0.  1.
         -1   -1    0    0    0  501 -0.00000000000E+00 -0.00000000000E+00 -0.65257582429E+03  0.65257582429E+03  0.00000000000E+00 0.  1.
         25    1    1    2    0    0  0.45966879120E+02 -0.29359129381E+02 -0.42198426978E+03  0.44209233922E+03  0.12000000000E+03 0.  0.
         25    1    1    2    0    0 -0.45966879120E+02  0.29359129381E+02 -0.20084142401E+03  0.24023361557E+03  0.12000000000E+03 0.  0.
<mgrwt>
<rscale>  0 0.27866981E+03</rscale>
<asrwt>0</asrwt>
<pdfrwt beam="1">  1        1 0.45769432E-02 0.27866981E+03</pdfrwt>
<pdfrwt beam="2">  1       -1 0.10039628E+00 0.27866981E+03</pdfrwt>
<totfact> 0.18801395E+03</totfact>
</mgrwt>
</event>
<event>
 4    1  0.1866622E-004  0.2556475E+03  0.7818608E-02  0.1109787E+00
         -1   -1    0    0    0  501 -0.00000000000E+00  0.00000000000E+00  0.24925521885E+03  0.24925521885E+03  0.00000000000E+00 0.  1.
          1   -1    0    0  501    0  0.00000000000E+00 -0.00000000000E+00 -0.65550937864E+02  0.65550937864E+02  0.00000000000E+00 0.  1.
         25    1    1    2    0    0  0.28148372990E+01  0.32820445839E+02  0.12783385434E+03  0.17840011012E+03  0.12000000000E+03 0.  0.
         25    1    1    2    0    0 -0.28148372990E+01 -0.32820445839E+02  0.55870426638E+02  0.13640604659E+03  0.12000000000E+03 0.  0.
<mgrwt>
<rscale>  0 0.25564752E+03</rscale>
<asrwt>0</asrwt>
<pdfrwt beam="1">  1        1 0.10084760E-01 0.25564752E+03</pdfrwt>
<pdfrwt beam="2">  1       -1 0.38346956E-01 0.25564752E+03</pdfrwt>
<totfact> 0.41855224E+03</totfact>
</mgrwt>
</event>
<event>
 4    1  0.1866622E-004  0.2820211E+03  0.7818608E-02  0.1094590E+00
          2   -1    0    0  501    0  0.00000000000E+00  0.00000000000E+00  0.10040633174E+04  0.10040633174E+04  0.00000000000E+00 0. -1.
         -2   -1    0    0    0  501 -0.00000000000E+00 -0.00000000000E+00 -0.19803510722E+02  0.19803510722E+02  0.00000000000E+00 0. -1.
         25    1    1    2    0    0  0.53695411660E+02 -0.49835584520E+02  0.53143221906E+03  0.54971536832E+03  0.12000000000E+03 0.  0.
         25    1    1    2    0    0 -0.53695411660E+02  0.49835584520E+02  0.45282758759E+03  0.47415145977E+03  0.12000000000E+03 0.  0.
<mgrwt>
<rscale>  0 0.28202112E+03</rscale>
<asrwt>0</asrwt>
<pdfrwt beam="1">  1        2 0.15447124E+00 0.28202112E+03</pdfrwt>
<pdfrwt beam="2">  1       -2 0.30466947E-02 0.28202112E+03</pdfrwt>
<totfact> 0.10789525E+04</totfact>
</mgrwt>
</event>
<event>
 4    1  0.1866622E-004  0.3371176E+03  0.7818608E-02  0.1068030E+00
         -1   -1    0    0    0  501 -0.00000000000E+00  0.00000000000E+00  0.24084193096E+02  0.24084193096E+02  0.00000000000E+00 0. -1.
          1   -1    0    0  501    0  0.00000000000E+00 -0.00000000000E+00 -0.11796976624E+04  0.11796976624E+04  0.00000000000E+00 0. -1.
         25    1    1    2    0    0 -0.66960258483E+02 -0.67044264493E+02 -0.32446919110E+03  0.35869048718E+03  0.12000000000E+03 0.  0.
         25    1    1    2    0    0  0.66960258483E+02  0.67044264493E+02 -0.83114427824E+03  0.84509136835E+03  0.12000000000E+03 0.  0.
<mgrwt>
<rscale>  0 0.33711758E+03</rscale>
<asrwt>0</asrwt>
<pdfrwt beam="1">  1        1 0.18149193E+00 0.33711758E+03</pdfrwt>
<pdfrwt beam="2">  1       -1 0.37052608E-02 0.33711758E+03</pdfrwt>
<totfact> 0.32693342E+03</totfact>
</mgrwt>
</event>
<event>
 4    1  0.1866622E-004  0.2464408E+03  0.7818608E-02  0.1115575E+00
         -2   -1    0    0    0  501 -0.00000000000E+00  0.00000000000E+00  0.40736907930E+02  0.40736907930E+02  0.00000000000E+00 0. -1.
          2   -1    0    0  501    0  0.00000000000E+00 -0.00000000000E+00 -0.37271529162E+03  0.37271529162E+03  0.00000000000E+00 0. -1.
         25    1    1    2    0    0  0.48693365436E+01 -0.26032534786E+02 -0.15080952034E+03  0.19453769488E+03  0.12000000000E+03 0.  0.
         25    1    1    2    0    0 -0.48693365436E+01  0.26032534786E+02 -0.18116886335E+03  0.21891450467E+03  0.12000000000E+03 0.  0.
<mgrwt>
<rscale>  0 0.24644081E+03</rscale>
<asrwt>0</asrwt>
<pdfrwt beam="1">  1        2 0.57340813E-01 0.24644081E+03</pdfrwt>
<pdfrwt beam="2">  1       -2 0.62672168E-02 0.24644081E+03</pdfrwt>
<totfact> 0.11768583E+04</totfact>
</mgrwt>
</event>
<event>
 4    1  0.1866622E-004  0.2687769E+03  0.7818608E-02  0.1101982E+00
          1   -1    0    0  501    0  0.00000000000E+00  0.00000000000E+00  0.14430620974E+04  0.14430620974E+04  0.00000000000E+00 0. -1.
         -1   -1    0    0    0  501 -0.00000000000E+00 -0.00000000000E+00 -0.12515230758E+02  0.12515230758E+02  0.00000000000E+00 0. -1.
         25    1    1    2    0    0 -0.13803723880E+02 -0.57018303707E+02  0.79534782560E+03  0.80648607764E+03  0.12000000000E+03 0.  0.
         25    1    1    2    0    0  0.13803723880E+02  0.57018303707E+02  0.63519904107E+03  0.64909125054E+03  0.12000000000E+03 0.  0.
<mgrwt>
<rscale>  0 0.26877690E+03</rscale>
<asrwt>0</asrwt>
<pdfrwt beam="1">  1        1 0.22200942E+00 0.26877690E+03</pdfrwt>
<pdfrwt beam="2">  1       -1 0.19254213E-02 0.26877690E+03</pdfrwt>
<totfact> 0.56589840E+03</totfact>
</mgrwt>
</event>
<event>
 4    1  0.1866622E-004  0.2513324E+03  0.7818608E-02  0.1112466E+00
          2   -1    0    0  501    0  0.00000000000E+00  0.00000000000E+00  0.88346905842E+03  0.88346905842E+03  0.00000000000E+00 0. -1.
         -2   -1    0    0    0  501 -0.00000000000E+00 -0.00000000000E+00 -0.17874980348E+02  0.17874980348E+02  0.00000000000E+00 0. -1.
         25    1    1    2    0    0  0.13728677594E+02  0.22489961556E+02  0.33806828620E+03  0.35970048804E+03  0.12000000000E+03 0.  0.
         25    1    1    2    0    0 -0.13728677594E+02 -0.22489961556E+02  0.52752579187E+03  0.54164355073E+03  0.12000000000E+03 0.  0.
<mgrwt>
<rscale>  0 0.25133239E+03</rscale>
<asrwt>0</asrwt>
<pdfrwt beam="1">  1        2 0.13591828E+00 0.25133239E+03</pdfrwt>
<pdfrwt beam="2">  1       -2 0.27499977E-02 0.25133239E+03</pdfrwt>
<totfact> 0.14904298E+04</totfact>
</mgrwt>
</event>
<event>
 4    1  0.1866622E-004  0.2626151E+03  0.7818608E-02  0.1105582E+00
         -1   -1    0    0    0  501 -0.00000000000E+00  0.00000000000E+00  0.36156264281E+02  0.36156264281E+02  0.00000000000E+00 0. -1.
          1   -1    0    0  501    0  0.00000000000E+00 -0.00000000000E+00 -0.47686537670E+03  0.47686537670E+03  0.00000000000E+00 0. -1.
         25    1    1    2    0    0  0.96043825018E+01 -0.74527987671E+01 -0.32174693671E+03  0.34361152433E+03  0.12000000000E+03 0.  0.
         25    1    1    2    0    0 -0.96043825018E+01  0.74527987671E+01 -0.11896217571E+03  0.16941011665E+03  0.12000000000E+03 0.  0.
<mgrwt>
<rscale>  0 0.26261508E+03</rscale>
<asrwt>0</asrwt>
<pdfrwt beam="1">  1        1 0.73363898E-01 0.26261508E+03</pdfrwt>
<pdfrwt beam="2">  1       -1 0.55625027E-02 0.26261508E+03</pdfrwt>
<totfact> 0.71557699E+03</totfact>
</mgrwt>
</event>
<event>
 4    1  0.1866622E-004  0.2514308E+03  0.7818608E-02  0.1112404E+00
          1   -1    0    0  501    0  0.00000000000E+00  0.00000000000E+00  0.15353027376E+02  0.15353027376E+02  0.00000000000E+00 0.  1.
         -1   -1    0    0    0  501 -0.00000000000E+00 -0.00000000000E+00 -0.10293972644E+04  0.10293972644E+04  0.00000000000E+00 0.  1.
         25    1    1    2    0    0  0.31606303021E+01 -0.39360802802E+01 -0.66131914277E+03  0.67213725601E+03  0.12000000000E+03 0.  0.
         25    1    1    2    0    0 -0.31606303021E+01  0.39360802802E+01 -0.35272509424E+03  0.37261303576E+03  0.12000000000E+03 0.  0.
<mgrwt>
<rscale>  0 0.25143082E+03</rscale>
<asrwt>0</asrwt>
<pdfrwt beam="1">  1        1 0.23620038E-02 0.25143082E+03</pdfrwt>
<pdfrwt beam="2">  1       -1 0.15836884E+00 0.25143082E+03</pdfrwt>
<totfact> 0.15587320E+03</totfact>
</mgrwt>
</event>
<event>
 4    1  0.1866622E-004  0.3255286E+03  0.7818608E-02  0.1073133E+00
          1   -1    0    0  501    0  0.00000000000E+00  0.00000000000E+00  0.27235137414E+04  0.27235137414E+04  0.00000000000E+00 0.  1.
         -1   -1    0    0    0  501 -0.00000000000E+00 -0.00000000000E+00 -0.97272227948E+01  0.97272227948E+01  0.00000000000E+00 0.  1.
         25    1    1    2    0    0 -0.10182037997E+03 -0.41531125558E+02  0.13566587583E+04  0.13663876503E+04  0.12000000000E+03 0.  0.
         25    1    1    2    0    0  0.10182037997E+03  0.41531125558E+02  0.13571277603E+04  0.13668533140E+04  0.12000000000E+03 0.  0.
<mgrwt>
<rscale>  0 0.32552865E+03</rscale>
<asrwt>0</asrwt>
<pdfrwt beam="1">  1        1 0.41900151E+00 0.32552865E+03</pdfrwt>
<pdfrwt beam="2">  1       -1 0.14964980E-02 0.32552865E+03</pdfrwt>
<totfact> 0.11690681E+03</totfact>
</mgrwt>
</event>
<event>
 4    1  0.1866622E-004  0.4324012E+03  0.7818608E-02  0.1033104E+00
         -2   -1    0    0    0  501 -0.00000000000E+00  0.00000000000E+00  0.11642373320E+02  0.11642373320E+02  0.00000000000E+00 0.  1.
          2   -1    0    0  501    0  0.00000000000E+00 -0.00000000000E+00 -0.40148776302E+04  0.40148776302E+04  0.00000000000E+00 0.  1.
         25    1    1    2    0    0 -0.45967932197E+02 -0.17368410762E+03 -0.19274224500E+04  0.19394938826E+04  0.12000000000E+03 0.  0.
         25    1    1    2    0    0  0.45967932197E+02  0.17368410762E+03 -0.20758128069E+04  0.20870261209E+04  0.12000000000E+03 0.  0.
<mgrwt>
<rscale>  0 0.43240122E+03</rscale>
<asrwt>0</asrwt>
<pdfrwt beam="1">  1        2 0.61767367E+00 0.43240122E+03</pdfrwt>
<pdfrwt beam="2">  1       -2 0.17911338E-02 0.43240122E+03</pdfrwt>
<totfact> 0.38084204E+02</totfact>
</mgrwt>
</event>
<event>
 4    1  0.1866622E-004  0.2588697E+03  0.7818608E-02  0.1107824E+00
         -2   -1    0    0    0  501 -0.00000000000E+00  0.00000000000E+00  0.25549398365E+02  0.25549398365E+02  0.00000000000E+00 0. -1.
          2   -1    0    0  501    0  0.00000000000E+00 -0.00000000000E+00 -0.65572511858E+03  0.65572511858E+03  0.00000000000E+00 0. -1.
         25    1    1    2    0    0  0.12534259677E+02  0.33339780193E+02 -0.22841114204E+03  0.26046170240E+03  0.12000000000E+03 0.  0.
         25    1    1    2    0    0 -0.12534259677E+02 -0.33339780193E+02 -0.40176457818E+03  0.42081281455E+03  0.12000000000E+03 0.  0.
<mgrwt>
<rscale>  0 0.25886971E+03</rscale>
<asrwt>0</asrwt>
<pdfrwt beam="1">  1        2 0.10088078E+00 0.25886971E+03</pdfrwt>
<pdfrwt beam="2">  1       -2 0.39306770E-02 0.25886971E+03</pdfrwt>
<totfact> 0.12713745E+04</totfact>
</mgrwt>
</event>
<event>
 4    1  0.1866622E-004  0.2901455E+03  0.7818608E-02  0.1090273E+00
          2   -1    0    0  501    0  0.00000000000E+00  0.00000000000E+00  0.19897878386E+02  0.19897878386E+02  0.00000000000E+00 0. -1.
         -2   -1    0    0    0  501 -0.00000000000E+00 -0.00000000000E+00 -0.10577058258E+04  0.10577058258E+04  0.00000000000E+00 0. -1.
         25    1    1    2    0    0 -0.56414276922E+02  0.43029534262E+02 -0.36978789476E+03  0.39519260946E+03  0.12000000000E+03 0.  0.
         25    1    1    2    0    0  0.56414276922E+02 -0.43029534262E+02 -0.66802005261E+03  0.68241109469E+03  0.12000000000E+03 0.  0.
<mgrwt>
<rscale>  0 0.29014549E+03</rscale>
<asrwt>0</asrwt>
<pdfrwt beam="1">  1        2 0.30612120E-02 0.29014549E+03</pdfrwt>
<pdfrwt beam="2">  1       -2 0.16272398E+00 0.29014549E+03</pdfrwt>
<totfact> 0.78150745E+02</totfact>
</mgrwt>
</event>
<event>
 4    1  0.1866622E-004  0.2628568E+03  0.7818608E-02  0.1105439E+00
          1   -1    0    0  501    0  0.00000000000E+00  0.00000000000E+00  0.23821577265E+03  0.23821577265E+03  0.00000000000E+00 0.  1.
         -1   -1    0    0    0  501 -0.00000000000E+00 -0.00000000000E+00 -0.72511685935E+02  0.72511685935E+02  0.00000000000E+00 0.  1.
         25    1    1    2    0    0  0.73472428713E+01  0.28237450144E+02  0.13600908523E+03  0.18371120497E+03  0.12000000000E+03 0.  0.
         25    1    1    2    0    0 -0.73472428713E+01 -0.28237450144E+02  0.29695001488E+02  0.12701625361E+03  0.12000000000E+03 0.  0.
<mgrwt>
<rscale>  0 0.26285682E+03</rscale>
<asrwt>0</asrwt>
<pdfrwt beam="1">  1        1 0.36648580E-01 0.26285682E+03</pdfrwt>
<pdfrwt beam="2">  1       -1 0.11155644E-01 0.26285682E+03</pdfrwt>
<totfact> 0.59743849E+03</totfact>
</mgrwt>
</event>
<event>
 4    1  0.1866622E-004  0.2451928E+03  0.7818608E-02  0.1116381E+00
          3   -1    0    0  501    0  0.00000000000E+00  0.00000000000E+00  0.84152490602E+02  0.84152490602E+02  0.00000000000E+00 0. -1.
         -3   -1    0    0    0  501 -0.00000000000E+00 -0.00000000000E+00 -0.17860286053E+03  0.17860286053E+03  0.00000000000E+00 0. -1.
         25    1    1    2    0    0  0.11129666536E+02 -0.20868954028E+02 -0.38227799406E+02  0.12814346400E+03  0.12000000000E+03 0.  0.
         25    1    1    2    0    0 -0.11129666536E+02  0.20868954028E+02 -0.56222570519E+02  0.13461188712E+03  0.12000000000E+03 0.  0.
<mgrwt>
<rscale>  0 0.24519279E+03</rscale>
<asrwt>0</asrwt>
<pdfrwt beam="1">  1        3 0.12946537E-01 0.24519279E+03</pdfrwt>
<pdfrwt beam="2">  1       -3 0.27477363E-01 0.24519279E+03</pdfrwt>
<totfact> 0.15156779E+03</totfact>
</mgrwt>
</event>
<event>
 4    1  0.1866622E-004  0.2533564E+03  0.7818608E-02  0.1111202E+00
         -1   -1    0    0    0  501 -0.00000000000E+00  0.00000000000E+00  0.81503543735E+03  0.81503543735E+03  0.00000000000E+00 0. -1.
          1   -1    0    0  501    0  0.00000000000E+00 -0.00000000000E+00 -0.19689157021E+02  0.19689157021E+02  0.00000000000E+00 0. -1.
         25    1    1    2    0    0  0.37496282509E+01 -0.38857818423E+02  0.36107846961E+03  0.38249398816E+03  0.12000000000E+03 0.  0.
         25    1    1    2    0    0 -0.37496282509E+01  0.38857818423E+02  0.43426781072E+03  0.45223060621E+03  0.12000000000E+03 0.  0.
<mgrwt>
<rscale>  0 0.25335636E+03</rscale>
<asrwt>0</asrwt>
<pdfrwt beam="1">  1        1 0.30291017E-02 0.25335636E+03</pdfrwt>
<pdfrwt beam="2">  1       -1 0.12539004E+00 0.25335636E+03</pdfrwt>
<totfact> 0.19928577E+03</totfact>
</mgrwt>
</event>
<event>
 4    1  0.1866622E-004  0.2859335E+03  0.7818608E-02  0.1092492E+00
          4   -1    0    0  501    0  0.00000000000E+00  0.00000000000E+00  0.16524883033E+04  0.16524883033E+04  0.00000000000E+00 0. -1.
         -4   -1    0    0    0  501 -0.00000000000E+00 -0.00000000000E+00 -0.12368917706E+02  0.12368917706E+02  0.00000000000E+00 0. -1.
         25    1    1    2    0    0 -0.34896999458E+02 -0.41960241749E+02  0.49791891713E+03  0.51507447082E+03  0.12000000000E+03 0.  0.
         25    1    1    2    0    0  0.34896999458E+02  0.41960241749E+02  0.11422004685E+04  0.11497827502E+04  0.12000000000E+03 0.  0.
<mgrwt>
<rscale>  0 0.28593350E+03</rscale>
<asrwt>0</asrwt>
<pdfrwt beam="1">  1        4 0.25422879E+00 0.28593350E+03</pdfrwt>
<pdfrwt beam="2">  1       -4 0.19029117E-02 0.28593350E+03</pdfrwt>
<totfact> 0.13888692E+02</totfact>
</mgrwt>
</event>
<event>
 4    1  0.1866622E-004  0.3466089E+03  0.7818608E-02  0.1064016E+00
         -1   -1    0    0    0  501 -0.00000000000E+00  0.00000000000E+00  0.78197474662E+01  0.78197474662E+01  0.00000000000E+00 0.  1.
          1   -1    0    0  501    0  0.00000000000E+00 -0.00000000000E+00 -0.38408441338E+04  0.38408441338E+04  0.00000000000E+00 0.  1.
         25    1    1    2    0    0  0.18030065148E+02  0.18874428735E+02 -0.32743126733E+04  0.32766148400E+04  0.12000000000E+03 0.  0.
         25    1    1    2    0    0 -0.18030065148E+02 -0.18874428735E+02 -0.55871171304E+03  0.57204904125E+03  0.12000000000E+03 0.  0.
<mgrwt>
<rscale>  0 0.34660889E+03</rscale>
<asrwt>0</asrwt>
<pdfrwt beam="1">  1        1 0.59090024E+00 0.34660889E+03</pdfrwt>
<pdfrwt beam="2">  1       -1 0.12030357E-02 0.34660889E+03</pdfrwt>
<totfact> 0.24030856E+02</totfact>
</mgrwt>
</event>
<event>
 4    1  0.1866622E-004  0.3774723E+03  0.7818608E-02  0.1051872E+00
         -2   -1    0    0    0  501 -0.00000000000E+00  0.00000000000E+00  0.14213037438E+03  0.14213037438E+03  0.00000000000E+00 0.  1.
          2   -1    0    0  501    0  0.00000000000E+00 -0.00000000000E+00 -0.25062438393E+03  0.25062438393E+03  0.00000000000E+00 0.  1.
         25    1    1    2    0    0  0.37959289300E+02  0.13626443645E+03 -0.18017260865E+02  0.18636932681E+03  0.12000000000E+03 0.  0.
         25    1    1    2    0    0 -0.37959289300E+02 -0.13626443645E+03 -0.90476748683E+02  0.20638543151E+03  0.12000000000E+03 0.  0.
<mgrwt>
<rscale>  0 0.37747232E+03</rscale>
<asrwt>0</asrwt>
<pdfrwt beam="1">  1        2 0.38557597E-01 0.37747232E+03</pdfrwt>
<pdfrwt beam="2">  1       -2 0.21866211E-01 0.37747232E+03</pdfrwt>
<totfact> 0.24081359E+03</totfact>
</mgrwt>
</event>
<event>
 4    1  0.1866622E-004  0.2612155E+03  0.7818608E-02  0.1106415E+00
         -1   -1    0    0    0  501 -0.00000000000E+00  0.00000000000E+00  0.12341034284E+03  0.12341034284E+03  0.00000000000E+00 0.  1.
          1   -1    0    0  501    0  0.00000000000E+00 -0.00000000000E+00 -0.13822491922E+03  0.13822491922E+03  0.00000000000E+00 0.  1.
         25    1    1    2    0    0  0.48284159344E+02  0.27955145773E+01 -0.25302439932E+02  0.13183090841E+03  0.12000000000E+03 0.  0.
         25    1    1    2    0    0 -0.48284159344E+02 -0.27955145773E+01  0.10487863557E+02  0.12980435365E+03  0.12000000000E+03 0.  0.
<mgrwt>
<rscale>  0 0.26121550E+03</rscale>
<asrwt>0</asrwt>
<pdfrwt beam="1">  1        1 0.21265372E-01 0.26121550E+03</pdfrwt>
<pdfrwt beam="2">  1       -1 0.18986207E-01 0.26121550E+03</pdfrwt>
<totfact> 0.51274132E+03</totfact>
</mgrwt>
</event>
<event>
 4    1  0.1866622E-004  0.3046567E+03  0.7818608E-02  0.1082936E+00
          1   -1    0    0  501    0  0.00000000000E+00  0.00000000000E+00  0.20652846821E+03  0.20652846821E+03  0.00000000000E+00 0.  1.
         -1   -1    0    0    0  501 -0.00000000000E+00 -0.00000000000E+00 -0.11235218517E+03  0.11235218517E+03  0.00000000000E+00 0.  1.
         25    1    1    2    0    0  0.74905993881E+02  0.44946655233E+01  0.10604574349E+03  0.17685250818E+03  0.12000000000E+03 0.  0.
         25    1    1    2    0    0 -0.74905993881E+02 -0.44946655233E+01 -0.11869460442E+02  0.14202814520E+03  0.12000000000E+03 0.  0.
<mgrwt>
<rscale>  0 0.30465669E+03</rscale>
<asrwt>0</asrwt>
<pdfrwt beam="1">  1        1 0.31773611E-01 0.30465669E+03</pdfrwt>
<pdfrwt beam="2">  1       -1 0.17284952E-01 0.30465669E+03</pdfrwt>
<totfact> 0.35955591E+03</totfact>
</mgrwt>
</event>
<event>
 4    1  0.1866622E-004  0.2905630E+03  0.7818608E-02  0.1090056E+00
          2   -1    0    0  501    0  0.00000000000E+00  0.00000000000E+00  0.58988139676E+03  0.58988139676E+03  0.00000000000E+00 0.  1.
         -2   -1    0    0    0  501 -0.00000000000E+00 -0.00000000000E+00 -0.35781293864E+02  0.35781293864E+02  0.00000000000E+00 0.  1.
         25    1    1    2    0    0  0.30939043570E+02 -0.60551232938E+01  0.11429833867E+03  0.16869498854E+03  0.12000000000E+03 0.  0.
         25    1    1    2    0    0 -0.30939043570E+02  0.60551232938E+01  0.43980176422E+03  0.45696770209E+03  0.12000000000E+03 0.  0.
<mgrwt>
<rscale>  0 0.29056304E+03</rscale>
<asrwt>0</asrwt>
<pdfrwt beam="1">  1        2 0.90750977E-01 0.29056304E+03</pdfrwt>
<pdfrwt beam="2">  1       -2 0.55048149E-02 0.29056304E+03</pdfrwt>
<totfact> 0.86791437E+03</totfact>
</mgrwt>
</event>
<event>
 4    1  0.1866622E-004  0.3437907E+03  0.7818608E-02  0.1065193E+00
         -2   -1    0    0    0  501 -0.00000000000E+00  0.00000000000E+00  0.73430356938E+02  0.73430356938E+02  0.00000000000E+00 0. -1.
          2   -1    0    0  501    0  0.00000000000E+00 -0.00000000000E+00 -0.40239513572E+03  0.40239513572E+03  0.00000000000E+00 0. -1.
         25    1    1    2    0    0 -0.91169325788E+02 -0.58988501741E+02 -0.24466842466E+03  0.29334983779E+03  0.12000000000E+03 0.  0.
         25    1    1    2    0    0  0.91169325788E+02  0.58988501741E+02 -0.84296354115E+02  0.18247565487E+03  0.12000000000E+03 0.  0.
<mgrwt>
<rscale>  0 0.34379074E+03</rscale>
<asrwt>0</asrwt>
<pdfrwt beam="1">  1        2 0.61906945E-01 0.34379074E+03</pdfrwt>
<pdfrwt beam="2">  1       -2 0.11296978E-01 0.34379074E+03</pdfrwt>
<totfact> 0.43376905E+03</totfact>
</mgrwt>
</event>
<event>
 4    1  0.1866622E-004  0.3284236E+03  0.7818608E-02  0.1071837E+00
         -2   -1    0    0    0  501 -0.00000000000E+00  0.00000000000E+00  0.25196757415E+02  0.25196757415E+02  0.00000000000E+00 0.  1.
          2   -1    0    0  501    0  0.00000000000E+00 -0.00000000000E+00 -0.10701977487E+04  0.10701977487E+04  0.00000000000E+00 0.  1.
         25    1    1    2    0    0  0.69411672270E+02 -0.55839770131E+01 -0.81548336948E+03  0.82720147906E+03  0.12000000000E+03 0.  0.
         25    1    1    2    0    0 -0.69411672270E+02  0.55839770131E+01 -0.22951762180E+03  0.26819302706E+03  0.12000000000E+03 0.  0.
<mgrwt>
<rscale>  0 0.32842359E+03</rscale>
<asrwt>0</asrwt>
<pdfrwt beam="1">  1        2 0.16464582E+00 0.32842359E+03</pdfrwt>
<pdfrwt beam="2">  1       -2 0.38764240E-02 0.32842359E+03</pdfrwt>
<totfact> 0.68804115E+03</totfact>
</mgrwt>
</event>
<event>
 4    1  0.1866622E-004  0.4450781E+03  0.7818608E-02  0.1029200E+00
          1   -1    0    0  501    0  0.00000000000E+00  0.00000000000E+00  0.32637344922E+03  0.32637344922E+03  0.00000000000E+00 0.  1.
         -1   -1    0    0    0  501 -0.00000000000E+00 -0.00000000000E+00 -0.15173917115E+03  0.15173917115E+03  0.00000000000E+00 0.  1.
         25    1    1    2    0    0  0.16959217281E+03 -0.27284583425E+02  0.68029235255E+01  0.20964787941E+03  0.12000000000E+03 0.  0.
         25    1    1    2    0    0 -0.16959217281E+03  0.27284583425E+02  0.16783135455E+03  0.26846474096E+03  0.12000000000E+03 0.  0.
<mgrwt>
<rscale>  0 0.44507814E+03</rscale>
<asrwt>0</asrwt>
<pdfrwt beam="1">  1        1 0.50211300E-01 0.44507814E+03</pdfrwt>
<pdfrwt beam="2">  1       -1 0.23344488E-01 0.44507814E+03</pdfrwt>
<totfact> 0.12342851E+03</totfact>
</mgrwt>
</event>
<event>
 4    1  0.1866622E-004  0.2815875E+03  0.7818608E-02  0.1094825E+00
         -1   -1    0    0    0  501 -0.00000000000E+00  0.00000000000E+00  0.12397293977E+03  0.12397293977E+03  0.00000000000E+00 0.  1.
          1   -1    0    0  501    0  0.00000000000E+00 -0.00000000000E+00 -0.15989684507E+03  0.15989684507E+03  0.00000000000E+00 0.  1.
         25    1    1    2    0    0  0.44153173168E+02 -0.52237866741E+02 -0.45470190925E+02  0.14541607781E+03  0.12000000000E+03 0.  0.
         25    1    1    2    0    0 -0.44153173168E+02  0.52237866741E+02  0.95462856279E+01  0.13845370703E+03  0.12000000000E+03 0.  0.
<mgrwt>
<rscale>  0 0.28158751E+03</rscale>
<asrwt>0</asrwt>
<pdfrwt beam="1">  1        1 0.24599515E-01 0.28158751E+03</pdfrwt>
<pdfrwt beam="2">  1       -1 0.19072760E-01 0.28158751E+03</pdfrwt>
<totfact> 0.42353428E+03</totfact>
</mgrwt>
</event>
<event>
 4    1  0.1866622E-004  0.2810801E+03  0.7818608E-02  0.1095100E+00
         -2   -1    0    0    0  501 -0.00000000000E+00  0.00000000000E+00  0.29569043699E+03  0.29569043699E+03  0.00000000000E+00 0.  1.
          2   -1    0    0  501    0  0.00000000000E+00 -0.00000000000E+00 -0.66797927256E+02  0.66797927256E+02  0.00000000000E+00 0.  1.
         25    1    1    2    0    0  0.53495046124E+02  0.40327339276E+02  0.76550233557E+02  0.15731481974E+03  0.12000000000E+03 0.  0.
         25    1    1    2    0    0 -0.53495046124E+02 -0.40327339276E+02  0.15234227617E+03  0.20517354450E+03  0.12000000000E+03 0.  0.
<mgrwt>
<rscale>  0 0.28108012E+03</rscale>
<asrwt>0</asrwt>
<pdfrwt beam="1">  1        2 0.10276604E-01 0.28108012E+03</pdfrwt>
<pdfrwt beam="2">  1       -2 0.45490836E-01 0.28108012E+03</pdfrwt>
<totfact> 0.28632112E+03</totfact>
</mgrwt>
</event>
<event>
 4    1  0.1866622E-004  0.2909899E+03  0.7818608E-02  0.1089833E+00
         -1   -1    0    0    0  501 -0.00000000000E+00  0.00000000000E+00  0.70832547977E+02  0.70832547977E+02  0.00000000000E+00 0.  1.
          1   -1    0    0  501    0  0.00000000000E+00 -0.00000000000E+00 -0.29885663600E+03  0.29885663600E+03  0.00000000000E+00 0.  1.
         25    1    1    2    0    0 -0.23245654112E+02  0.42186089935E+02 -0.29274107453E+02  0.13257827871E+03  0.12000000000E+03 0.  0.
         25    1    1    2    0    0  0.23245654112E+02 -0.42186089935E+02 -0.19874998057E+03  0.23711090527E+03  0.12000000000E+03 0.  0.
<mgrwt>
<rscale>  0 0.29098988E+03</rscale>
<asrwt>0</asrwt>
<pdfrwt beam="1">  1        1 0.45977944E-01 0.29098988E+03</pdfrwt>
<pdfrwt beam="2">  1       -1 0.10897315E-01 0.29098988E+03</pdfrwt>
<totfact> 0.46753946E+03</totfact>
</mgrwt>
</event>
<event>
 4    1  0.1866622E-004  0.3023988E+03  0.7818608E-02  0.1084048E+00
         -4   -1    0    0    0  501 -0.00000000000E+00  0.00000000000E+00  0.11087390666E+04  0.11087390666E+04  0.00000000000E+00 0. -1.
          4   -1    0    0  501    0  0.00000000000E+00 -0.00000000000E+00 -0.20619150415E+02  0.20619150415E+02  0.00000000000E+00 0. -1.
         25    1    1    2    0    0  0.64288884235E+02  0.37905008438E+02  0.74487965038E+03  0.75816590787E+03  0.12000000000E+03 0.  0.
         25    1    1    2    0    0 -0.64288884235E+02 -0.37905008438E+02  0.34324026580E+03  0.37119230915E+03  0.12000000000E+03 0.  0.
<mgrwt>
<rscale>  0 0.30239879E+03</rscale>
<asrwt>0</asrwt>
<pdfrwt beam="1">  1        4 0.31721778E-02 0.30239879E+03</pdfrwt>
<pdfrwt beam="2">  1       -4 0.17057519E+00 0.30239879E+03</pdfrwt>
<totfact> 0.20982227E+02</totfact>
</mgrwt>
</event>
<event>
 4    1  0.1866622E-004  0.2593635E+03  0.7818608E-02  0.1107526E+00
          2   -1    0    0  501    0  0.00000000000E+00  0.00000000000E+00  0.27065103615E+03  0.27065103615E+03  0.00000000000E+00 0.  1.
         -2   -1    0    0    0  501 -0.00000000000E+00 -0.00000000000E+00 -0.62136688027E+02  0.62136688027E+02  0.00000000000E+00 0.  1.
         25    1    1    2    0    0 -0.30520012415E+02 -0.32175810384E+02  0.13149399649E+03  0.18345960058E+03  0.12000000000E+03 0.  0.
         25    1    1    2    0    0  0.30520012415E+02  0.32175810384E+02  0.77020351633E+02  0.14932812360E+03  0.12000000000E+03 0.  0.
<mgrwt>
<rscale>  0 0.25936352E+03</rscale>
<asrwt>0</asrwt>
<pdfrwt beam="1">  1        2 0.41638620E-01 0.25936352E+03</pdfrwt>
<pdfrwt beam="2">  1       -2 0.95594906E-02 0.25936352E+03</pdfrwt>
<totfact> 0.86223126E+03</totfact>
</mgrwt>
</event>
<event>
 4    1  0.1866622E-004  0.3038066E+03  0.7818608E-02  0.1083353E+00
         -2   -1    0    0    0  501 -0.00000000000E+00  0.00000000000E+00  0.68415698256E+02  0.68415698256E+02  0.00000000000E+00 0.  1.
          2   -1    0    0  501    0  0.00000000000E+00 -0.00000000000E+00 -0.33727072809E+03  0.33727072809E+03  0.00000000000E+00 0.  1.
         25    1    1    2    0    0  0.53962529233E+02  0.72412314280E+02 -0.10400291525E+03  0.18268033337E+03  0.12000000000E+03 0.  0.
         25    1    1    2    0    0 -0.53962529233E+02 -0.72412314280E+02 -0.16485211459E+03  0.22300609298E+03  0.12000000000E+03 0.  0.
<mgrwt>
<rscale>  0 0.30380660E+03</rscale>
<asrwt>0</asrwt>
<pdfrwt beam="1">  1        2 0.51887805E-01 0.30380660E+03</pdfrwt>
<pdfrwt beam="2">  1       -2 0.10525492E-01 0.30380660E+03</pdfrwt>
<totfact> 0.58704285E+03</totfact>
</mgrwt>
</event>
<event>
 4    1  0.1866622E-004  0.2919860E+03  0.7818608E-02  0.1089317E+00
         -2   -1    0    0    0  501 -0.00000000000E+00  0.00000000000E+00  0.27754759047E+03  0.27754759047E+03  0.00000000000E+00 0.  1.
          2   -1    0    0  501    0  0.00000000000E+00 -0.00000000000E+00 -0.76793876455E+02  0.76793876455E+02  0.00000000000E+00 0.  1.
         25    1    1    2    0    0 -0.40763194337E+02 -0.72413338872E+02  0.96812694642E+02  0.17515144162E+03  0.12000000000E+03 0.  0.
         25    1    1    2    0    0  0.40763194337E+02  0.72413338872E+02  0.10394101937E+03  0.17919002530E+03  0.12000000000E+03 0.  0.
<mgrwt>
<rscale>  0 0.29198600E+03</rscale>
<asrwt>0</asrwt>
<pdfrwt beam="1">  1        2 0.11814443E-01 0.29198600E+03</pdfrwt>
<pdfrwt beam="2">  1       -2 0.42699629E-01 0.29198600E+03</pdfrwt>
<totfact> 0.27308278E+03</totfact>
</mgrwt>
</event>
<event>
 4    1  0.1866622E-004  0.2576307E+03  0.7818608E-02  0.1108575E+00
         -1   -1    0    0    0  501 -0.00000000000E+00  0.00000000000E+00  0.72613019226E+02  0.72613019226E+02  0.00000000000E+00 0.  1.
          1   -1    0    0  501    0  0.00000000000E+00 -0.00000000000E+00 -0.22851823133E+03  0.22851823133E+03  0.00000000000E+00 0.  1.
         25    1    1    2    0    0  0.46743019747E+02  0.18678732490E+01 -0.75339013283E+02  0.14921248530E+03  0.12000000000E+03 0.  0.
         25    1    1    2    0    0 -0.46743019747E+02 -0.18678732490E+01 -0.80566198818E+02  0.15191876526E+03  0.12000000000E+03 0.  0.
<mgrwt>
<rscale>  0 0.25763073E+03</rscale>
<asrwt>0</asrwt>
<pdfrwt beam="1">  1        1 0.35156651E-01 0.25763073E+03</pdfrwt>
<pdfrwt beam="2">  1       -1 0.11171234E-01 0.25763073E+03</pdfrwt>
<totfact> 0.62758762E+03</totfact>
</mgrwt>
</event>
<event>
 4    1  0.1866622E-004  0.2481811E+03  0.7818608E-02  0.1114460E+00
         -2   -1    0    0    0  501 -0.00000000000E+00  0.00000000000E+00  0.21914398448E+02  0.21914398448E+02  0.00000000000E+00 0.  1.
          2   -1    0    0  501    0  0.00000000000E+00 -0.00000000000E+00 -0.70266438545E+03  0.70266438545E+03  0.00000000000E+00 0.  1.
         25    1    1    2    0    0 -0.10723890413E+02 -0.88949200992E-01 -0.42715301032E+03  0.44381832314E+03  0.12000000000E+03 0.  0.
         25    1    1    2    0    0  0.10723890413E+02  0.88949200992E-01 -0.25359697669E+03  0.28076046075E+03  0.12000000000E+03 0.  0.
<mgrwt>
<rscale>  0 0.24818112E+03</rscale>
<asrwt>0</asrwt>
<pdfrwt beam="1">  1        2 0.10810221E+00 0.24818112E+03</pdfrwt>
<pdfrwt beam="2">  1       -2 0.33714460E-02 0.24818112E+03</pdfrwt>
<totfact> 0.14695759E+04</totfact>
</mgrwt>
</event>
<event>
 4    1  0.1866622E-004  0.2424392E+03  0.7818608E-02  0.1118179E+00
         -1   -1    0    0    0  501 -0.00000000000E+00  0.00000000000E+00  0.25795236910E+02  0.25795236910E+02  0.00000000000E+00 0.  1.
          1   -1    0    0  501    0  0.00000000000E+00 -0.00000000000E+00 -0.56964737175E+03  0.56964737175E+03  0.00000000000E+00 0.  1.
         25    1    1    2    0    0  0.16972900190E+02 -0.10161640599E+00 -0.27799168532E+03  0.30326138358E+03  0.12000000000E+03 0.  0.
         25    1    1    2    0    0 -0.16972900190E+02  0.10161640599E+00 -0.26586044952E+03  0.29218122507E+03  0.12000000000E+03 0.  0.
<mgrwt>
<rscale>  0 0.24243918E+03</rscale>
<asrwt>0</asrwt>
<pdfrwt beam="1">  1        1 0.87638053E-01 0.24243918E+03</pdfrwt>
<pdfrwt beam="2">  1       -1 0.39684982E-02 0.24243918E+03</pdfrwt>
<totfact> 0.93089753E+03</totfact>
</mgrwt>
</event>
<event>
 4    1  0.1866622E-004  0.2407768E+03  0.7818608E-02  0.1119276E+00
         -1   -1    0    0    0  501 -0.00000000000E+00  0.00000000000E+00  0.11435048831E+02  0.11435048831E+02  0.00000000000E+00 0.  1.
          1   -1    0    0  501    0  0.00000000000E+00 -0.00000000000E+00 -0.12674515463E+04  0.12674515463E+04  0.00000000000E+00 0.  1.
         25    1    1    2    0    0  0.31703494808E+01  0.90387929006E+01 -0.62124900030E+03  0.63280492355E+03  0.12000000000E+03 0.  0.
         25    1    1    2    0    0 -0.31703494808E+01 -0.90387929006E+01 -0.63476749716E+03  0.64608167157E+03  0.12000000000E+03 0.  0.
<mgrwt>
<rscale>  0 0.24077683E+03</rscale>
<asrwt>0</asrwt>
<pdfrwt beam="1">  1        1 0.19499244E+00 0.24077683E+03</pdfrwt>
<pdfrwt beam="2">  1       -1 0.17592392E-02 0.24077683E+03</pdfrwt>
<totfact> 0.84639152E+03</totfact>
</mgrwt>
</event>
<event>
 4    1  0.1866622E-004  0.2720831E+03  0.7818608E-02  0.1100093E+00
         -1   -1    0    0    0  501 -0.00000000000E+00  0.00000000000E+00  0.14632664033E+04  0.14632664033E+04  0.00000000000E+00 0. -1.
          1   -1    0    0  501    0  0.00000000000E+00 -0.00000000000E+00 -0.12647941602E+02  0.12647941602E+02  0.00000000000E+00 0. -1.
         25    1    1    2    0    0  0.58510808451E+02  0.20574330379E+02  0.63775941021E+03  0.65190787930E+03  0.12000000000E+03 0.  0.
         25    1    1    2    0    0 -0.58510808451E+02 -0.20574330379E+02  0.81285905148E+03  0.82400646560E+03  0.12000000000E+03 0.  0.
<mgrwt>
<rscale>  0 0.27208313E+03</rscale>
<asrwt>0</asrwt>
<pdfrwt beam="1">  1        1 0.19458383E-02 0.27208313E+03</pdfrwt>
<pdfrwt beam="2">  1       -1 0.22511777E+00 0.27208313E+03</pdfrwt>
<totfact> 0.71863044E+02</totfact>
</mgrwt>
</event>
<event>
 4    1  0.1866622E-004  0.2552093E+03  0.7818608E-02  0.1110056E+00
          2   -1    0    0  501    0  0.00000000000E+00  0.00000000000E+00  0.28653690306E+04  0.28653690306E+04  0.00000000000E+00 0. -1.
         -2   -1    0    0    0  501 -0.00000000000E+00 -0.00000000000E+00 -0.56826713974E+01  0.56826713974E+01  0.00000000000E+00 0. -1.
         25    1    1    2    0    0 -0.48616315480E+01 -0.43009829577E+02  0.13952242770E+04  0.14010439907E+04  0.12000000000E+03 0.  0.
         25    1    1    2    0    0  0.48616315480E+01  0.43009829577E+02  0.14644620822E+04  0.14700077112E+04  0.12000000000E+03 0.  0.
<mgrwt>
<rscale>  0 0.25520933E+03</rscale>
<asrwt>0</asrwt>
<pdfrwt beam="1">  1        2 0.44082485E+00 0.25520933E+03</pdfrwt>
<pdfrwt beam="2">  1       -2 0.87425943E-03 0.25520933E+03</pdfrwt>
<totfact> 0.64788860E+03</totfact>
</mgrwt>
</event>
<event>
 4    1  0.1866622E-004  0.2681586E+03  0.7818608E-02  0.1102338E+00
          2   -1    0    0  501    0  0.00000000000E+00  0.00000000000E+00  0.45517479939E+03  0.45517479939E+03  0.00000000000E+00 0. -1.
         -2   -1    0    0    0  501 -0.00000000000E+00 -0.00000000000E+00 -0.39495271808E+02  0.39495271808E+02  0.00000000000E+00 0. -1.
         25    1    1    2    0    0 -0.81546279558E+01  0.58676688353E+02  0.22302918054E+03  0.26009895633E+03  0.12000000000E+03 0.  0.
         25    1    1    2    0    0  0.81546279558E+01 -0.58676688353E+02  0.19265034704E+03  0.23457111486E+03  0.12000000000E+03 0.  0.
<mgrwt>
<rscale>  0 0.26815855E+03</rscale>
<asrwt>0</asrwt>
<pdfrwt beam="1">  1        2 0.70026888E-01 0.26815855E+03</pdfrwt>
<pdfrwt beam="2">  1       -2 0.60761960E-02 0.26815855E+03</pdfrwt>
<totfact> 0.99651662E+03</totfact>
</mgrwt>
</event>
<event>
 4    1  0.1866622E-004  0.2851797E+03  0.7818608E-02  0.1092893E+00
          2   -1    0    0  501    0  0.00000000000E+00  0.00000000000E+00  0.40940158936E+03  0.40940158936E+03  0.00000000000E+00 0. -1.
         -2   -1    0    0    0  501 -0.00000000000E+00 -0.00000000000E+00 -0.49662382460E+02  0.49662382460E+02  0.00000000000E+00 0. -1.
         25    1    1    2    0    0  0.36114772865E+01  0.73072709499E+02  0.14112894884E+03  0.19917340145E+03  0.12000000000E+03 0.  0.
         25    1    1    2    0    0 -0.36114772865E+01 -0.73072709499E+02  0.21861025805E+03  0.25989057037E+03  0.12000000000E+03 0.  0.
<mgrwt>
<rscale>  0 0.28517965E+03</rscale>
<asrwt>0</asrwt>
<pdfrwt beam="1">  1        2 0.62984858E-01 0.28517965E+03</pdfrwt>
<pdfrwt beam="2">  1       -2 0.76403668E-02 0.28517965E+03</pdfrwt>
<totfact> 0.78722507E+03</totfact>
</mgrwt>
</event>
<event>
 4    1  0.1866622E-004  0.2754944E+03  0.7818608E-02  0.1098176E+00
         -1   -1    0    0    0  501 -0.00000000000E+00  0.00000000000E+00  0.77264149936E+02  0.77264149936E+02  0.00000000000E+00 0. -1.
          1   -1    0    0  501    0  0.00000000000E+00 -0.00000000000E+00 -0.24557692360E+03  0.24557692360E+03  0.00000000000E+00 0. -1.
         25    1    1    2    0    0  0.25587414413E+02  0.53887897426E+02 -0.46809662457E+02  0.14194987060E+03  0.12000000000E+03 0.  0.
         25    1    1    2    0    0 -0.25587414413E+02 -0.53887897426E+02 -0.12150311121E+03  0.18089120293E+03  0.12000000000E+03 0.  0.
<mgrwt>
<rscale>  0 0.27549441E+03</rscale>
<asrwt>0</asrwt>
<pdfrwt beam="1">  1        1 0.37781066E-01 0.27549441E+03</pdfrwt>
<pdfrwt beam="2">  1       -1 0.11886792E-01 0.27549441E+03</pdfrwt>
<totfact> 0.52175051E+03</totfact>
</mgrwt>
</event>
<event>
 4    1  0.1866622E-004  0.3358803E+03  0.7818608E-02  0.1068564E+00
         -1   -1    0    0    0  501 -0.00000000000E+00  0.00000000000E+00  0.65014372278E+02  0.65014372278E+02  0.00000000000E+00 0.  1.
          1   -1    0    0  501    0  0.00000000000E+00 -0.00000000000E+00 -0.43381021461E+03  0.43381021461E+03  0.00000000000E+00 0.  1.
         25    1    1    2    0    0 -0.95440452204E+02 -0.16604881819E+02 -0.85670028829E+02  0.17641982841E+03  0.12000000000E+03 0.  0.
         25    1    1    2    0    0  0.95440452204E+02  0.16604881819E+02 -0.28312581351E+03  0.32240475848E+03  0.12000000000E+03 0.  0.
<mgrwt>
<rscale>  0 0.33588033E+03</rscale>
<asrwt>0</asrwt>
<pdfrwt beam="1">  1        1 0.66740037E-01 0.33588033E+03</pdfrwt>
<pdfrwt beam="2">  1       -1 0.10002210E-01 0.33588033E+03</pdfrwt>
<totfact> 0.33280395E+03</totfact>
</mgrwt>
</event>
<event>
 4    1  0.1866622E-004  0.2887011E+03  0.7818608E-02  0.1091029E+00
          1   -1    0    0  501    0  0.00000000000E+00  0.00000000000E+00  0.11188998349E+04  0.11188998349E+04  0.00000000000E+00 0. -1.
         -1   -1    0    0    0  501 -0.00000000000E+00 -0.00000000000E+00 -0.18622833257E+02  0.18622833257E+02  0.00000000000E+00 0. -1.
         25    1    1    2    0    0  0.12034718626E+02 -0.33412266640E+02  0.83360602179E+03  0.84294733737E+03  0.12000000000E+03 0.  0.
         25    1    1    2    0    0 -0.12034718626E+02  0.33412266640E+02  0.26667097989E+03  0.29457533082E+03  0.12000000000E+03 0.  0.
<mgrwt>
<rscale>  0 0.28870113E+03</rscale>
<asrwt>0</asrwt>
<pdfrwt beam="1">  1        1 0.17213838E+00 0.28870113E+03</pdfrwt>
<pdfrwt beam="2">  1       -1 0.28650521E-02 0.28870113E+03</pdfrwt>
<totfact> 0.52845633E+03</totfact>
</mgrwt>
</event>
<event>
 4    1  0.1866622E-004  0.2405596E+03  0.7818608E-02  0.1119421E+00
         -1   -1    0    0    0  501 -0.00000000000E+00  0.00000000000E+00  0.86015645997E+02  0.86015645997E+02  0.00000000000E+00 0.  1.
          1   -1    0    0  501    0  0.00000000000E+00 -0.00000000000E+00 -0.16819297152E+03  0.16819297152E+03  0.00000000000E+00 0.  1.
         25    1    1    2    0    0 -0.34797212904E+01 -0.49331092198E+01 -0.46951712732E+02  0.12899964091E+03  0.12000000000E+03 0.  0.
         25    1    1    2    0    0  0.34797212904E+01  0.49331092198E+01 -0.35225612796E+02  0.12520897661E+03  0.12000000000E+03 0.  0.
<mgrwt>
<rscale>  0 0.24055957E+03</rscale>
<asrwt>0</asrwt>
<pdfrwt beam="1">  1        1 0.25875841E-01 0.24055957E+03</pdfrwt>
<pdfrwt beam="2">  1       -1 0.13233177E-01 0.24055957E+03</pdfrwt>
<totfact> 0.70683860E+03</totfact>
</mgrwt>
</event>
<event>
 4    1  0.1866622E-004  0.2809918E+03  0.7818608E-02  0.1095148E+00
          2   -1    0    0  501    0  0.00000000000E+00  0.00000000000E+00  0.12395713959E+04  0.12395713959E+04  0.00000000000E+00 0.  1.
         -2   -1    0    0    0  501 -0.00000000000E+00 -0.00000000000E+00 -0.15924132022E+02  0.15924132022E+02  0.00000000000E+00 0.  1.
         25    1    1    2    0    0 -0.12898570981E+02  0.70268172980E+02  0.54331324603E+03  0.56097528696E+03  0.12000000000E+03 0.  0.
         25    1    1    2    0    0  0.12898570981E+02 -0.70268172980E+02  0.68033401790E+03  0.69452024101E+03  0.12000000000E+03 0.  0.
<mgrwt>
<rscale>  0 0.28099180E+03</rscale>
<asrwt>0</asrwt>
<pdfrwt beam="1">  1        2 0.19070322E+00 0.28099180E+03</pdfrwt>
<pdfrwt beam="2">  1       -2 0.24498674E-02 0.28099180E+03</pdfrwt>
<totfact> 0.10860850E+04</totfact>
</mgrwt>
</event>
<event>
 4    1  0.1866622E-004  0.4225870E+03  0.7818608E-02  0.1036228E+00
         -3   -1    0    0    0  501 -0.00000000000E+00  0.00000000000E+00  0.28697144651E+03  0.28697144651E+03  0.00000000000E+00 0. -1.
          3   -1    0    0  501    0  0.00000000000E+00 -0.00000000000E+00 -0.15557276523E+03  0.15557276523E+03  0.00000000000E+00 0. -1.
         25    1    1    2    0    0  0.86105936542E+02 -0.14979263108E+03  0.44942141349E+02  0.21510895077E+03  0.12000000000E+03 0.  0.
         25    1    1    2    0    0 -0.86105936542E+02  0.14979263108E+03  0.86456539930E+02  0.22743526096E+03  0.12000000000E+03 0.  0.
<mgrwt>
<rscale>  0 0.42258699E+03</rscale>
<asrwt>0</asrwt>
<pdfrwt beam="1">  1        3 0.23934272E-01 0.42258699E+03</pdfrwt>
<pdfrwt beam="2">  1       -3 0.44149453E-01 0.42258699E+03</pdfrwt>
<totfact> 0.21726113E+02</totfact>
</mgrwt>
</event>
<event>
 4    1  0.1866622E-004  0.2429002E+03  0.7818608E-02  0.1117876E+00
          2   -1    0    0  501    0  0.00000000000E+00  0.00000000000E+00  0.62160919449E+03  0.62160919449E+03  0.00000000000E+00 0. -1.
         -2   -1    0    0    0  501 -0.00000000000E+00 -0.00000000000E+00 -0.23728945461E+02  0.23728945461E+02  0.00000000000E+00 0. -1.
         25    1    1    2    0    0  0.95209702740E+01 -0.57382795324E-01  0.25614344270E+03  0.28301963784E+03  0.12000000000E+03 0.  0.
         25    1    1    2    0    0 -0.95209702740E+01  0.57382795324E-01  0.34173680633E+03  0.36231850211E+03  0.12000000000E+03 0.  0.
<mgrwt>
<rscale>  0 0.24290023E+03</rscale>
<asrwt>0</asrwt>
<pdfrwt beam="1">  1        2 0.95632171E-01 0.24290023E+03</pdfrwt>
<pdfrwt beam="2">  1       -2 0.36506075E-02 0.24290023E+03</pdfrwt>
<totfact> 0.15081082E+04</totfact>
</mgrwt>
</event>
<event>
 4    1  0.1866622E-004  0.2823835E+03  0.7818608E-02  0.1094394E+00
         -1   -1    0    0    0  501 -0.00000000000E+00  0.00000000000E+00  0.19805448912E+02  0.19805448912E+02  0.00000000000E+00 0.  1.
          1   -1    0    0  501    0  0.00000000000E+00 -0.00000000000E+00 -0.10065470603E+04  0.10065470603E+04  0.00000000000E+00 0.  1.
         25    1    1    2    0    0  0.50421404404E+02 -0.43150603147E+01 -0.69158770954E+03  0.70374320442E+03  0.12000000000E+03 0.  0.
         25    1    1    2    0    0 -0.50421404404E+02  0.43150603147E+01 -0.29515390183E+03  0.32260930479E+03  0.12000000000E+03 0.  0.
<mgrwt>
<rscale>  0 0.28238354E+03</rscale>
<asrwt>0</asrwt>
<pdfrwt beam="1">  1        1 0.15485337E+00 0.28238354E+03</pdfrwt>
<pdfrwt beam="2">  1       -1 0.30469925E-02 0.28238354E+03</pdfrwt>
<totfact> 0.58288278E+03</totfact>
</mgrwt>
</event>
<event>
 4    1  0.1866622E-004  0.4082113E+03  0.7818608E-02  0.1040973E+00
         -2   -1    0    0    0  501 -0.00000000000E+00  0.00000000000E+00  0.73723400693E+02  0.73723400693E+02  0.00000000000E+00 0.  1.
          2   -1    0    0  501    0  0.00000000000E+00 -0.00000000000E+00 -0.56507326521E+03  0.56507326521E+03  0.00000000000E+00 0.  1.
         25    1    1    2    0    0 -0.32553753357E+02 -0.13027839859E+03 -0.39599114983E+03  0.43501861884E+03  0.12000000000E+03 0.  0.
         25    1    1    2    0    0  0.32553753357E+02  0.13027839859E+03 -0.95358714688E+02  0.20377804706E+03  0.12000000000E+03 0.  0.
<mgrwt>
<rscale>  0 0.40821133E+03</rscale>
<asrwt>0</asrwt>
<pdfrwt beam="1">  1        2 0.86934351E-01 0.40821133E+03</pdfrwt>
<pdfrwt beam="2">  1       -2 0.11342061E-01 0.40821133E+03</pdfrwt>
<totfact> 0.29491476E+03</totfact>
</mgrwt>
</event>
<event>
 4    1  0.1866622E-004  0.2797940E+03  0.7818608E-02  0.1095802E+00
         -2   -1    0    0    0  501 -0.00000000000E+00  0.00000000000E+00  0.45657436927E+02  0.45657436927E+02  0.00000000000E+00 0.  1.
          2   -1    0    0  501    0  0.00000000000E+00 -0.00000000000E+00 -0.42865243597E+03  0.42865243597E+03  0.00000000000E+00 0.  1.
         25    1    1    2    0    0  0.62630868620E+02 -0.27608647218E+02 -0.15411402473E+03  0.20696858632E+03  0.12000000000E+03 0.  0.
         25    1    1    2    0    0 -0.62630868620E+02  0.27608647218E+02 -0.22888097431E+03  0.26734128657E+03  0.12000000000E+03 0.  0.
<mgrwt>
<rscale>  0 0.27979401E+03</rscale>
<asrwt>0</asrwt>
<pdfrwt beam="1">  1        2 0.65946531E-01 0.27979401E+03</pdfrwt>
<pdfrwt beam="2">  1       -2 0.70242208E-02 0.27979401E+03</pdfrwt>
<totfact> 0.85261046E+03</totfact>
</mgrwt>
</event>
<event>
 4    1  0.1866622E-004  0.2695049E+03  0.7818608E-02  0.1101563E+00
         -2   -1    0    0    0  501 -0.00000000000E+00  0.00000000000E+00  0.17475586803E+02  0.17475586803E+02  0.00000000000E+00 0.  1.
          2   -1    0    0  501    0  0.00000000000E+00 -0.00000000000E+00 -0.10390625371E+04  0.10390625371E+04  0.00000000000E+00 0.  1.
         25    1    1    2    0    0 -0.11817307968E+01  0.47445752549E+02 -0.35867140123E+03  0.38117931473E+03  0.12000000000E+03 0.  0.
         25    1    1    2    0    0  0.11817307968E+01 -0.47445752549E+02 -0.66291554903E+03  0.67535880913E+03  0.12000000000E+03 0.  0.
<mgrwt>
<rscale>  0 0.26950494E+03</rscale>
<asrwt>0</asrwt>
<pdfrwt beam="1">  1        2 0.15985579E+00 0.26950494E+03</pdfrwt>
<pdfrwt beam="2">  1       -2 0.26885515E-02 0.26950494E+03</pdfrwt>
<totfact> 0.12355803E+04</totfact>
</mgrwt>
</event>
<event>
 4    1  0.1866622E-004  0.3046212E+03  0.7818608E-02  0.1082953E+00
          3   -1    0    0  501    0  0.00000000000E+00  0.00000000000E+00  0.14183471589E+03  0.14183471589E+03  0.00000000000E+00 0.  1.
         -3   -1    0    0    0  501 -0.00000000000E+00 -0.00000000000E+00 -0.16356023544E+03  0.16356023544E+03  0.00000000000E+00 0.  1.
         25    1    1    2    0    0  0.86101743007E+01  0.20716907882E+02  0.80446537431E+02  0.14620181517E+03  0.12000000000E+03 0.  0.
         25    1    1    2    0    0 -0.86101743007E+01 -0.20716907882E+02 -0.10217205698E+03  0.15919313616E+03  0.12000000000E+03 0.  0.
<mgrwt>
<rscale>  0 0.30462120E+03</rscale>
<asrwt>0</asrwt>
<pdfrwt beam="1">  1        3 0.21820725E-01 0.30462120E+03</pdfrwt>
<pdfrwt beam="2">  1       -3 0.25163113E-01 0.30462120E+03</pdfrwt>
<totfact> 0.73202584E+02</totfact>
</mgrwt>
</event>
<event>
 4    1  0.1866622E-004  0.2690874E+03  0.7818608E-02  0.1101803E+00
          2   -1    0    0  501    0  0.00000000000E+00  0.00000000000E+00  0.20847624854E+04  0.20847624854E+04  0.00000000000E+00 0.  1.
         -2   -1    0    0    0  501 -0.00000000000E+00 -0.00000000000E+00 -0.86830096657E+01  0.86830096657E+01  0.00000000000E+00 0.  1.
         25    1    1    2    0    0 -0.18375407072E+02  0.12956970639E+02  0.59819051805E+03  0.61052226377E+03  0.12000000000E+03 0.  0.
         25    1    1    2    0    0  0.18375407072E+02 -0.12956970639E+02  0.14778889577E+04  0.14829232313E+04  0.12000000000E+03 0.  0.
<mgrwt>
<rscale>  0 0.26908744E+03</rscale>
<asrwt>0</asrwt>
<pdfrwt beam="1">  1        2 0.32073229E+00 0.26908744E+03</pdfrwt>
<pdfrwt beam="2">  1       -2 0.13358493E-02 0.26908744E+03</pdfrwt>
<totfact> 0.93665850E+03</totfact>
</mgrwt>
</event>
<event>
 4    1  0.1866622E-004  0.3009919E+03  0.7818608E-02  0.1084746E+00
         -1   -1    0    0    0  501 -0.00000000000E+00  0.00000000000E+00  0.25680166815E+03  0.25680166815E+03  0.00000000000E+00 0. -1.
          1   -1    0    0  501    0  0.00000000000E+00 -0.00000000000E+00 -0.88196601264E+02  0.88196601264E+02  0.00000000000E+00 0. -1.
         25    1    1    2    0    0  0.19996641353E+01  0.45406164409E+02  0.17443324371E+03  0.21654716561E+03  0.12000000000E+03 0.  0.
         25    1    1    2    0    0 -0.19996641353E+01 -0.45406164409E+02 -0.58281768253E+01  0.12845110380E+03  0.12000000000E+03 0.  0.
<mgrwt>
<rscale>  0 0.30099192E+03</rscale>
<asrwt>0</asrwt>
<pdfrwt beam="1">  1        1 0.13568708E-01 0.30099192E+03</pdfrwt>
<pdfrwt beam="2">  1       -1 0.39507949E-01 0.30099192E+03</pdfrwt>
<totfact> 0.26854109E+03</totfact>
</mgrwt>
</event>
<event>
 4    1  0.1866622E-004  0.2760238E+03  0.7818608E-02  0.1097881E+00
          2   -1    0    0  501    0  0.00000000000E+00  0.00000000000E+00  0.62007504021E+03  0.62007504021E+03  0.00000000000E+00 0.  1.
         -2   -1    0    0    0  501 -0.00000000000E+00 -0.00000000000E+00 -0.30717713341E+02  0.30717713341E+02  0.00000000000E+00 0.  1.
         25    1    1    2    0    0 -0.54544198166E+02  0.25029647351E+02  0.37092287391E+03  0.39444306458E+03  0.12000000000E+03 0.  0.
         25    1    1    2    0    0  0.54544198166E+02 -0.25029647351E+02  0.21843445296E+03  0.25634968898E+03  0.12000000000E+03 0.  0.
<mgrwt>
<rscale>  0 0.27602382E+03</rscale>
<asrwt>0</asrwt>
<pdfrwt beam="1">  1        2 0.95396151E-01 0.27602382E+03</pdfrwt>
<pdfrwt beam="2">  1       -2 0.47258025E-02 0.27602382E+03</pdfrwt>
<totfact> 0.10311710E+04</totfact>
</mgrwt>
</event>
<event>
 4    1  0.1866622E-004  0.2441850E+03  0.7818608E-02  0.1117036E+00
         -1   -1    0    0    0  501 -0.00000000000E+00  0.00000000000E+00  0.15226659993E+03  0.15226659993E+03  0.00000000000E+00 0.  1.
          1   -1    0    0  501    0  0.00000000000E+00 -0.00000000000E+00 -0.97897871556E+02  0.97897871556E+02  0.00000000000E+00 0.  1.
         25    1    1    2    0    0 -0.55732892139E+01 -0.17846328492E+02  0.40022098650E+02  0.12787228540E+03  0.12000000000E+03 0.  0.
         25    1    1    2    0    0  0.55732892139E+01  0.17846328492E+02  0.14346629727E+02  0.12229218609E+03  0.12000000000E+03 0.  0.
<mgrwt>
<rscale>  0 0.24418498E+03</rscale>
<asrwt>0</asrwt>
<pdfrwt beam="1">  1        1 0.15061211E-01 0.24418498E+03</pdfrwt>
<pdfrwt beam="2">  1       -1 0.23425631E-01 0.24418498E+03</pdfrwt>
<totfact> 0.56751302E+03</totfact>
</mgrwt>
</event>
<event>
 4    1  0.1866622E-004  0.2457994E+03  0.7818608E-02  0.1115989E+00
          4   -1    0    0  501    0  0.00000000000E+00  0.00000000000E+00  0.80617267543E+03  0.80617267543E+03  0.00000000000E+00 0.  1.
         -4   -1    0    0    0  501 -0.00000000000E+00 -0.00000000000E+00 -0.18735856405E+02  0.18735856405E+02  0.00000000000E+00 0.  1.
         25    1    1    2    0    0 -0.15089879589E+02  0.37645468573E+01  0.46588923991E+03  0.48134671511E+03  0.12000000000E+03 0.  0.
         25    1    1    2    0    0  0.15089879589E+02 -0.37645468573E+01  0.32154757911E+03  0.34356181672E+03  0.12000000000E+03 0.  0.
<mgrwt>
<rscale>  0 0.24579939E+03</rscale>
<asrwt>0</asrwt>
<pdfrwt beam="1">  1        4 0.12402654E+00 0.24579939E+03</pdfrwt>
<pdfrwt beam="2">  1       -4 0.28824401E-02 0.24579939E+03</pdfrwt>
<totfact> 0.54133334E+02</totfact>
</mgrwt>
</event>
<event>
 4    1  0.1866622E-004  0.2824201E+03  0.7818608E-02  0.1094374E+00
         -2   -1    0    0    0  501 -0.00000000000E+00  0.00000000000E+00  0.15366295380E+02  0.15366295380E+02  0.00000000000E+00 0.  1.
          2   -1    0    0  501    0  0.00000000000E+00 -0.00000000000E+00 -0.12976634405E+04  0.12976634405E+04  0.00000000000E+00 0.  1.
         25    1    1    2    0    0 -0.66866983109E+02  0.26538854857E+02 -0.72994423731E+03  0.74323219376E+03  0.12000000000E+03 0.  0.
         25    1    1    2    0    0  0.66866983109E+02 -0.26538854857E+02 -0.55235290779E+03  0.56979754210E+03  0.12000000000E+03 0.  0.
<mgrwt>
<rscale>  0 0.28242011E+03</rscale>
<asrwt>0</asrwt>
<pdfrwt beam="1">  1        2 0.19964051E+00 0.28242011E+03</pdfrwt>
<pdfrwt beam="2">  1       -2 0.23640457E-02 0.28242011E+03</pdfrwt>
<totfact> 0.10626236E+04</totfact>
</mgrwt>
</event>
<event>
 4    1  0.1866622E-004  0.2975702E+03  0.7818608E-02  0.1086462E+00
          1   -1    0    0  501    0  0.00000000000E+00  0.00000000000E+00  0.24587850055E+03  0.24587850055E+03  0.00000000000E+00 0.  1.
         -1   -1    0    0    0  501 -0.00000000000E+00 -0.00000000000E+00 -0.90032320781E+02  0.90032320781E+02  0.00000000000E+00 0.  1.
         25    1    1    2    0    0  0.51129891144E+02  0.70930708204E+02  0.67120274540E+02  0.16294343310E+03  0.12000000000E+03 0.  0.
         25    1    1    2    0    0 -0.51129891144E+02 -0.70930708204E+02  0.88725905231E+02  0.17296738824E+03  0.12000000000E+03 0.  0.
<mgrwt>
<rscale>  0 0.29757024E+03</rscale>
<asrwt>0</asrwt>
<pdfrwt beam="1">  1        1 0.37827461E-01 0.29757024E+03</pdfrwt>
<pdfrwt beam="2">  1       -1 0.13851126E-01 0.29757024E+03</pdfrwt>
<totfact> 0.41057332E+03</totfact>
</mgrwt>
</event>
<event>
 4    1  0.1866622E-004  0.2941067E+03  0.7818608E-02  0.1088224E+00
          2   -1    0    0  501    0  0.00000000000E+00  0.00000000000E+00  0.44413501319E+03  0.44413501319E+03  0.00000000000E+00 0.  1.
         -2   -1    0    0    0  501 -0.00000000000E+00 -0.00000000000E+00 -0.48689433148E+02  0.48689433148E+02  0.00000000000E+00 0.  1.
         25    1    1    2    0    0  0.40550736474E+02 -0.73111663826E+01  0.73148943382E+02  0.14645334855E+03  0.12000000000E+03 0.  0.
         25    1    1    2    0    0 -0.40550736474E+02  0.73111663826E+01  0.32229663666E+03  0.34637109779E+03  0.12000000000E+03 0.  0.
<mgrwt>
<rscale>  0 0.29410666E+03</rscale>
<asrwt>0</asrwt>
<pdfrwt beam="1">  1        2 0.68328461E-01 0.29410666E+03</pdfrwt>
<pdfrwt beam="2">  1       -2 0.74906823E-02 0.29410666E+03</pdfrwt>
<totfact> 0.74329972E+03</totfact>
</mgrwt>
</event>
<event>
 4    1  0.1866622E-004  0.3463091E+03  0.7818608E-02  0.1064140E+00
          2   -1    0    0  501    0  0.00000000000E+00  0.00000000000E+00  0.42119973340E+03  0.42119973340E+03  0.00000000000E+00 0. -1.
         -2   -1    0    0    0  501 -0.00000000000E+00 -0.00000000000E+00 -0.71183552933E+02  0.71183552933E+02  0.00000000000E+00 0. -1.
         25    1    1    2    0    0 -0.46414322488E+02 -0.79345272669E+00  0.10253235716E+02  0.12907380734E+03  0.12000000000E+03 0.  0.
         25    1    1    2    0    0  0.46414322488E+02  0.79345272669E+00  0.33976294475E+03  0.36330947899E+03  0.12000000000E+03 0.  0.
<mgrwt>
<rscale>  0 0.34630907E+03</rscale>
<asrwt>0</asrwt>
<pdfrwt beam="1">  1        2 0.64799957E-01 0.34630907E+03</pdfrwt>
<pdfrwt beam="2">  1       -2 0.10951316E-01 0.34630907E+03</pdfrwt>
<totfact> 0.43380017E+03</totfact>
</mgrwt>
</event>
<event>
 4    1  0.1866622E-004  0.2426137E+03  0.7818608E-02  0.1118064E+00
          1   -1    0    0  501    0  0.00000000000E+00  0.00000000000E+00  0.93879933024E+03  0.93879933024E+03  0.00000000000E+00 0.  1.
         -1   -1    0    0    0  501 -0.00000000000E+00 -0.00000000000E+00 -0.15674645703E+02  0.15674645703E+02  0.00000000000E+00 0.  1.
         25    1    1    2    0    0  0.24158232109E+01 -0.62451461245E+01  0.52626759999E+03  0.53981702905E+03  0.12000000000E+03 0.  0.
         25    1    1    2    0    0 -0.24158232109E+01  0.62451461245E+01  0.39685708455E+03  0.41465694690E+03  0.12000000000E+03 0.  0.
<mgrwt>
<rscale>  0 0.24261366E+03</rscale>
<asrwt>0</asrwt>
<pdfrwt beam="1">  1        1 0.14443062E+00 0.24261366E+03</pdfrwt>
<pdfrwt beam="2">  1       -1 0.24114847E-02 0.24261366E+03</pdfrwt>
<totfact> 0.92150372E+03</totfact>
</mgrwt>
</event>
<event>
 4    1  0.1866622E-004  0.2934656E+03  0.7818608E-02  0.1088553E+00
         -2   -1    0    0    0  501 -0.00000000000E+00  0.00000000000E+00  0.71349661755E+01  0.71349661755E+01  0.00000000000E+00 0. -1.
          2   -1    0    0  501    0  0.00000000000E+00 -0.00000000000E+00 -0.30176066779E+04  0.30176066779E+04  0.00000000000E+00 0. -1.
         25    1    1    2    0    0  0.33822510558E+02 -0.77047401218E+02 -0.14321672720E+04  0.14396469565E+04  0.12000000000E+03 0.  0.
         25    1    1    2    0    0 -0.33822510558E+02  0.77047401218E+02 -0.15783044397E+04  0.15850946876E+04  0.12000000000E+03 0.  0.
<mgrwt>
<rscale>  0 0.29346565E+03</rscale>
<asrwt>0</asrwt>
<pdfrwt beam="1">  1        2 0.46424839E+00 0.29346565E+03</pdfrwt>
<pdfrwt beam="2">  1       -2 0.10976842E-02 0.29346565E+03</pdfrwt>
<totfact> 0.37811570E+03</totfact>
</mgrwt>
</event>
<event>
 4    1  0.1866622E-004  0.3500962E+03  0.7818608E-02  0.1062576E+00
          1   -1    0    0  501    0  0.00000000000E+00  0.00000000000E+00  0.32282822465E+03  0.32282822465E+03  0.00000000000E+00 0.  1.
         -1   -1    0    0    0  501 -0.00000000000E+00 -0.00000000000E+00 -0.94916842743E+02  0.94916842743E+02  0.00000000000E+00 0.  1.
         25    1    1    2    0    0 -0.11377183732E+03  0.56027419547E+02  0.98922273255E+02  0.20067067263E+03  0.12000000000E+03 0.  0.
         25    1    1    2    0    0  0.11377183732E+03 -0.56027419547E+02  0.12898910865E+03  0.21707439476E+03  0.12000000000E+03 0.  0.
<mgrwt>
<rscale>  0 0.35009619E+03</rscale>
<asrwt>0</asrwt>
<pdfrwt beam="1">  1        1 0.49665880E-01 0.35009619E+03</pdfrwt>
<pdfrwt beam="2">  1       -1 0.14602591E-01 0.35009619E+03</pdfrwt>
<totfact> 0.26854539E+03</totfact>
</mgrwt>
</event>
<event>
 4    1  0.1866622E-004  0.2736654E+03  0.7818608E-02  0.1099200E+00
          2   -1    0    0  501    0  0.00000000000E+00  0.00000000000E+00  0.71145948047E+03  0.71145948047E+03  0.00000000000E+00 0. -1.
         -2   -1    0    0    0  501 -0.00000000000E+00 -0.00000000000E+00 -0.26316599392E+02  0.26316599392E+02  0.00000000000E+00 0. -1.
         25    1    1    2    0    0 -0.34436992679E+02 -0.18198855604E+02  0.19976251549E+03  0.23626715262E+03  0.12000000000E+03 0.  0.
         25    1    1    2    0    0  0.34436992679E+02  0.18198855604E+02  0.48538036558E+03  0.50150892724E+03  0.12000000000E+03 0.  0.
<mgrwt>
<rscale>  0 0.27366545E+03</rscale>
<asrwt>0</asrwt>
<pdfrwt beam="1">  1        2 0.10945529E+00 0.27366545E+03</pdfrwt>
<pdfrwt beam="2">  1       -2 0.40487081E-02 0.27366545E+03</pdfrwt>
<totfact> 0.11048185E+04</totfact>
</mgrwt>
</event>
<event>
 4    1  0.1866622E-004  0.2778348E+03  0.7818608E-02  0.1096877E+00
          1   -1    0    0  501    0  0.00000000000E+00  0.00000000000E+00  0.17424575299E+03  0.17424575299E+03  0.00000000000E+00 0. -1.
         -1   -1    0    0    0  501 -0.00000000000E+00 -0.00000000000E+00 -0.11075184235E+03  0.11075184235E+03  0.00000000000E+00 0. -1.
         25    1    1    2    0    0 -0.17369402301E+02  0.31941035725E+02  0.93089274532E+02  0.15616510152E+03  0.12000000000E+03 0.  0.
         25    1    1    2    0    0  0.17369402301E+02 -0.31941035725E+02 -0.29595363893E+02  0.12883249382E+03  0.12000000000E+03 0.  0.
<mgrwt>
<rscale>  0 0.27783476E+03</rscale>
<asrwt>0</asrwt>
<pdfrwt beam="1">  1        1 0.26807039E-01 0.27783476E+03</pdfrwt>
<pdfrwt beam="2">  1       -1 0.17038745E-01 0.27783476E+03</pdfrwt>
<totfact> 0.45514551E+03</totfact>
</mgrwt>
</event>
<event>
 4    1  0.1866622E-004  0.4438357E+03  0.7818608E-02  0.1029576E+00
          1   -1    0    0  501    0  0.00000000000E+00  0.00000000000E+00  0.82638774708E+03  0.82638774708E+03  0.00000000000E+00 0.  1.
         -1   -1    0    0    0  501 -0.00000000000E+00 -0.00000000000E+00 -0.59593733252E+02  0.59593733252E+02  0.00000000000E+00 0.  1.
         25    1    1    2    0    0 -0.11238963159E+03 -0.22251035147E+02  0.89197286146E+02  0.18836850509E+03  0.12000000000E+03 0.  0.
         25    1    1    2    0    0  0.11238963159E+03  0.22251035147E+02  0.67759672768E+03  0.69761297524E+03  0.12000000000E+03 0.  0.
<mgrwt>
<rscale>  0 0.44383569E+03</rscale>
<asrwt>0</asrwt>
<pdfrwt beam="1">  1        1 0.12713657E+00 0.44383569E+03</pdfrwt>
<pdfrwt beam="2">  1       -1 0.91682672E-02 0.44383569E+03</pdfrwt>
<totfact> 0.15287857E+03</totfact>
</mgrwt>
</event>
<event>
 4    1  0.1866622E-004  0.3137465E+03  0.7818608E-02  0.1078564E+00
         -2   -1    0    0    0  501 -0.00000000000E+00  0.00000000000E+00  0.11677653126E+02  0.11677653126E+02  0.00000000000E+00 0.  1.
          2   -1    0    0  501    0  0.00000000000E+00 -0.00000000000E+00 -0.21073771943E+04  0.21073771943E+04  0.00000000000E+00 0.  1.
         25    1    1    2    0    0 -0.60266787137E+02  0.58648190053E+02 -0.66953193998E+03  0.68537924865E+03  0.12000000000E+03 0.  0.
         25    1    1    2    0    0  0.60266787137E+02 -0.58648190053E+02 -0.14261676012E+04  0.14336755988E+04  0.12000000000E+03 0.  0.
<mgrwt>
<rscale>  0 0.31374652E+03</rscale>
<asrwt>0</asrwt>
<pdfrwt beam="1">  1        2 0.32421177E+00 0.31374652E+03</pdfrwt>
<pdfrwt beam="2">  1       -2 0.17965626E-02 0.31374652E+03</pdfrwt>
<totfact> 0.59039301E+03</totfact>
</mgrwt>
</event>
<event>
 4    1  0.1866622E-004  0.3180176E+03  0.7818608E-02  0.1076565E+00
         -2   -1    0    0    0  501 -0.00000000000E+00  0.00000000000E+00  0.60868982647E+01  0.60868982647E+01  0.00000000000E+00 0. -1.
          2   -1    0    0  501    0  0.00000000000E+00 -0.00000000000E+00 -0.41538055530E+04  0.41538055530E+04  0.00000000000E+00 0. -1.
         25    1    1    2    0    0  0.78772722982E+02 -0.27866715611E+01 -0.29678450091E+04  0.29713156859E+04  0.12000000000E+03 0.  0.
         25    1    1    2    0    0 -0.78772722982E+02  0.27866715611E+01 -0.11798736456E+04  0.11885767653E+04  0.12000000000E+03 0.  0.
<mgrwt>
<rscale>  0 0.31801756E+03</rscale>
<asrwt>0</asrwt>
<pdfrwt beam="1">  1        2 0.63904729E+00 0.31801756E+03</pdfrwt>
<pdfrwt beam="2">  1       -2 0.93644547E-03 0.31801756E+03</pdfrwt>
<totfact> 0.78542112E+02</totfact>
</mgrwt>
</event>
<event>
 4    1  0.1866622E-004  0.2722444E+03  0.7818608E-02  0.1100002E+00
          1   -1    0    0  501    0  0.00000000000E+00  0.00000000000E+00  0.36310475838E+04  0.36310475838E+04  0.00000000000E+00 0. -1.
         -1   -1    0    0    0  501 -0.00000000000E+00 -0.00000000000E+00 -0.51030037270E+01  0.51030037270E+01  0.00000000000E+00 0. -1.
         25    1    1    2    0    0 -0.19446919946E+02  0.47151854177E+02  0.23350219803E+04  0.23386596864E+04  0.12000000000E+03 0.  0.
         25    1    1    2    0    0  0.19446919946E+02 -0.47151854177E+02  0.12909225998E+04  0.12974909012E+04  0.12000000000E+03 0.  0.
<mgrwt>
<rscale>  0 0.27224437E+03</rscale>
<asrwt>0</asrwt>
<pdfrwt beam="1">  1        1 0.55862064E+00 0.27224437E+03</pdfrwt>
<pdfrwt beam="2">  1       -1 0.78508040E-03 0.27224437E+03</pdfrwt>
<totfact> 0.66489621E+02</totfact>
</mgrwt>
</event>
<event>
 4    1  0.1866622E-004  0.2657523E+03  0.7818608E-02  0.1103736E+00
          1   -1    0    0  501    0  0.00000000000E+00  0.00000000000E+00  0.12707031561E+02  0.12707031561E+02  0.00000000000E+00 0.  1.
         -1   -1    0    0    0  501 -0.00000000000E+00 -0.00000000000E+00 -0.13894728483E+04  0.13894728483E+04  0.00000000000E+00 0.  1.
         25    1    1    2    0    0 -0.48672660847E+02  0.19266031237E+02 -0.80822122967E+03  0.81875622987E+03  0.12000000000E+03 0.  0.
         25    1    1    2    0    0  0.48672660847E+02 -0.19266031237E+02 -0.56854458706E+03  0.58342364998E+03  0.12000000000E+03 0.  0.
<mgrwt>
<rscale>  0 0.26575233E+03</rscale>
<asrwt>0</asrwt>
<pdfrwt beam="1">  1        1 0.19549274E-02 0.26575233E+03</pdfrwt>
<pdfrwt beam="2">  1       -1 0.21376512E+00 0.26575233E+03</pdfrwt>
<totfact> 0.84561068E+02</totfact>
</mgrwt>
</event>
<event>
 4    1  0.1866622E-004  0.2728807E+03  0.7818608E-02  0.1099642E+00
         -2   -1    0    0    0  501 -0.00000000000E+00  0.00000000000E+00  0.17019193062E+02  0.17019193062E+02  0.00000000000E+00 0. -1.
          2   -1    0    0  501    0  0.00000000000E+00 -0.00000000000E+00 -0.10938224126E+04  0.10938224126E+04  0.00000000000E+00 0. -1.
         25    1    1    2    0    0 -0.19908662114E+02  0.15424147681E+02 -0.78202826524E+03  0.79158225523E+03  0.12000000000E+03 0.  0.
         25    1    1    2    0    0  0.19908662114E+02 -0.15424147681E+02 -0.29477495433E+03  0.31925935047E+03  0.12000000000E+03 0.  0.
<mgrwt>
<rscale>  0 0.27288074E+03</rscale>
<asrwt>0</asrwt>
<pdfrwt beam="1">  1        2 0.16828040E+00 0.27288074E+03</pdfrwt>
<pdfrwt beam="2">  1       -2 0.26183370E-02 0.27288074E+03</pdfrwt>
<totfact> 0.11926143E+04</totfact>
</mgrwt>
</event>
<event>
 4    1  0.1866622E-004  0.2541060E+03  0.7818608E-02  0.1110737E+00
         -1   -1    0    0    0  501 -0.00000000000E+00  0.00000000000E+00  0.65088651008E+03  0.65088651008E+03  0.00000000000E+00 0.  1.
          1   -1    0    0  501    0  0.00000000000E+00 -0.00000000000E+00 -0.24800738716E+02  0.24800738716E+02  0.00000000000E+00 0.  1.
         25    1    1    2    0    0  0.46086845216E+01  0.16466312189E+02  0.21178524772E+03  0.24401920121E+03  0.12000000000E+03 0.  0.
         25    1    1    2    0    0 -0.46086845216E+01 -0.16466312189E+02  0.41430052365E+03  0.43166804759E+03  0.12000000000E+03 0.  0.
<mgrwt>
<rscale>  0 0.25410601E+03</rscale>
<asrwt>0</asrwt>
<pdfrwt beam="1">  1        1 0.38154988E-02 0.25410601E+03</pdfrwt>
<pdfrwt beam="2">  1       -1 0.10013637E+00 0.25410601E+03</pdfrwt>
<totfact> 0.24312870E+03</totfact>
</mgrwt>
</event>
<event>
 4    1  0.1866622E-004  0.3578153E+03  0.7818608E-02  0.1059452E+00
          1   -1    0    0  501    0  0.00000000000E+00  0.00000000000E+00  0.17279041966E+03  0.17279041966E+03  0.00000000000E+00 0.  1.
         -1   -1    0    0    0  501 -0.00000000000E+00 -0.00000000000E+00 -0.18524144337E+03  0.18524144337E+03  0.00000000000E+00 0.  1.
         25    1    1    2    0    0  0.11088963098E+03 -0.59296317573E+02  0.36172095989E+02  0.17754149956E+03  0.12000000000E+03 0.  0.
         25    1    1    2    0    0 -0.11088963098E+03  0.59296317573E+02 -0.48623119695E+02  0.18049036347E+03  0.12000000000E+03 0.  0.
<mgrwt>
<rscale>  0 0.35781530E+03</rscale>
<asrwt>0</asrwt>
<pdfrwt beam="1">  1        1 0.26583142E-01 0.35781530E+03</pdfrwt>
<pdfrwt beam="2">  1       -1 0.28498683E-01 0.35781530E+03</pdfrwt>
<totfact> 0.19800944E+03</totfact>
</mgrwt>
</event>
<event>
 4    1  0.1866622E-004  0.2424045E+03  0.7818608E-02  0.1118201E+00
          2   -1    0    0  501    0  0.00000000000E+00  0.00000000000E+00  0.16879970494E+04  0.16879970494E+04  0.00000000000E+00 0. -1.
         -2   -1    0    0    0  501 -0.00000000000E+00 -0.00000000000E+00 -0.87026166676E+01  0.87026166676E+01  0.00000000000E+00 0. -1.
         25    1    1    2    0    0 -0.59508066256E+01 -0.11192700367E+02  0.76005550093E+03  0.76957459231E+03  0.12000000000E+03 0.  0.
         25    1    1    2    0    0  0.59508066256E+01  0.11192700367E+02  0.91923893176E+03  0.92712507372E+03  0.12000000000E+03 0.  0.
<mgrwt>
<rscale>  0 0.24240455E+03</rscale>
<asrwt>0</asrwt>
<pdfrwt beam="1">  1        2 0.25969159E+00 0.24240455E+03</pdfrwt>
<pdfrwt beam="2">  1       -2 0.13388654E-02 0.24240455E+03</pdfrwt>
<totfact> 0.15042383E+04</totfact>
</mgrwt>
</event>
<event>
 4    1  0.1866622E-004  0.2595823E+03  0.7818608E-02  0.1107394E+00
          1   -1    0    0  501    0  0.00000000000E+00  0.00000000000E+00  0.14014258804E+04  0.14014258804E+04  0.00000000000E+00 0.  1.
         -1   -1    0    0    0  501 -0.00000000000E+00 -0.00000000000E+00 -0.12020435039E+02  0.12020435039E+02  0.00000000000E+00 0.  1.
         25    1    1    2    0    0 -0.16725015647E+02 -0.11416606345E+02  0.94037678850E+03  0.94821862953E+03  0.12000000000E+03 0.  0.
         25    1    1    2    0    0  0.16725015647E+02  0.11416606345E+02  0.44902865689E+03  0.46522768593E+03  0.12000000000E+03 0.  0.
<mgrwt>
<rscale>  0 0.25958235E+03</rscale>
<asrwt>0</asrwt>
<pdfrwt beam="1">  1        1 0.21560385E+00 0.25958235E+03</pdfrwt>
<pdfrwt beam="2">  1       -1 0.18492988E-02 0.25958235E+03</pdfrwt>
<totfact> 0.63963778E+03</totfact>
</mgrwt>
</event>
<event>
 4    1  0.1866622E-004  0.3083111E+03  0.7818608E-02  0.1081158E+00
          2   -1    0    0  501    0  0.00000000000E+00  0.00000000000E+00  0.35574430490E+04  0.35574430490E+04  0.00000000000E+00 0.  1.
         -2   -1    0    0    0  501 -0.00000000000E+00 -0.00000000000E+00 -0.66800605781E+01  0.66800605781E+01  0.00000000000E+00 0.  1.
         25    1    1    2    0    0 -0.89223985241E+02  0.34117498707E+02  0.19541015136E+04  0.19601116419E+04  0.12000000000E+03 0.  0.
         25    1    1    2    0    0  0.89223985241E+02 -0.34117498707E+02  0.15966614748E+04  0.16040114677E+04  0.12000000000E+03 0.  0.
<mgrwt>
<rscale>  0 0.30831111E+03</rscale>
<asrwt>0</asrwt>
<pdfrwt beam="1">  1        2 0.54729742E+00 0.30831111E+03</pdfrwt>
<pdfrwt beam="2">  1       -2 0.10277045E-02 0.30831111E+03</pdfrwt>
<totfact> 0.18926170E+03</totfact>
</mgrwt>
</event>
<event>
 4    1  0.1866622E-004  0.3304481E+03  0.7818608E-02  0.1070939E+00
         -2   -1    0    0    0  501 -0.00000000000E+00  0.00000000000E+00  0.28496873258E+02  0.28496873258E+02  0.00000000000E+00 0. -1.
          2   -1    0    0  501    0  0.00000000000E+00 -0.00000000000E+00 -0.95796412197E+03  0.95796412197E+03  0.00000000000E+00 0. -1.
         25    1    1    2    0    0  0.26284130462E+02  0.10064381565E+02 -0.13626642736E+03  0.18374081342E+03  0.12000000000E+03 0.  0.
         25    1    1    2    0    0 -0.26284130462E+02 -0.10064381565E+02 -0.79320082135E+03  0.80272018181E+03  0.12000000000E+03 0.  0.
<mgrwt>
<rscale>  0 0.33044807E+03</rscale>
<asrwt>0</asrwt>
<pdfrwt beam="1">  1        2 0.14737909E+00 0.33044807E+03</pdfrwt>
<pdfrwt beam="2">  1       -2 0.43841346E-02 0.33044807E+03</pdfrwt>
<totfact> 0.66931176E+03</totfact>
</mgrwt>
</event>
<event>
 4    1  0.1866622E-004  0.2779283E+03  0.7818608E-02  0.1096826E+00
         -2   -1    0    0    0  501 -0.00000000000E+00  0.00000000000E+00  0.16880327315E+03  0.16880327315E+03  0.00000000000E+00 0. -1.
          2   -1    0    0  501    0  0.00000000000E+00 -0.00000000000E+00 -0.11439966245E+03  0.11439966245E+03  0.00000000000E+00 0. -1.
         25    1    1    2    0    0 -0.63095487628E+02  0.30450726669E+02  0.28891637434E+02  0.14192608649E+03  0.12000000000E+03 0.  0.
         25    1    1    2    0    0  0.63095487628E+02 -0.30450726669E+02  0.25511973260E+02  0.14127684911E+03  0.12000000000E+03 0.  0.
<mgrwt>
<rscale>  0 0.27792832E+03</rscale>
<asrwt>0</asrwt>
<pdfrwt beam="1">  1        2 0.17599948E-01 0.27792832E+03</pdfrwt>
<pdfrwt beam="2">  1       -2 0.25969734E-01 0.27792832E+03</pdfrwt>
<totfact> 0.42577705E+03</totfact>
</mgrwt>
</event>
<event>
 4    1  0.1866622E-004  0.2506903E+03  0.7818608E-02  0.1112869E+00
         -2   -1    0    0    0  501 -0.00000000000E+00  0.00000000000E+00  0.57981254080E+03  0.57981254080E+03  0.00000000000E+00 0. -1.
          2   -1    0    0  501    0  0.00000000000E+00 -0.00000000000E+00 -0.27097385676E+02  0.27097385676E+02  0.00000000000E+00 0. -1.
         25    1    1    2    0    0  0.33378706887E+02 -0.12658282247E+02  0.26162474660E+03  0.29003771861E+03  0.12000000000E+03 0.  0.
         25    1    1    2    0    0 -0.33378706887E+02  0.12658282247E+02  0.29109040852E+03  0.31687220787E+03  0.12000000000E+03 0.  0.
<mgrwt>
<rscale>  0 0.25069028E+03</rscale>
<asrwt>0</asrwt>
<pdfrwt beam="1">  1        2 0.41688290E-02 0.25069028E+03</pdfrwt>
<pdfrwt beam="2">  1       -2 0.89201920E-01 0.25069028E+03</pdfrwt>
<totfact> 0.22235669E+03</totfact>
</mgrwt>
</event>
<event>
 4    1  0.1866622E-004  0.2579922E+03  0.7818608E-02  0.1108356E+00
          1   -1    0    0  501    0  0.00000000000E+00  0.00000000000E+00  0.10641198307E+03  0.10641198307E+03  0.00000000000E+00 0.  1.
         -1   -1    0    0    0  501 -0.00000000000E+00 -0.00000000000E+00 -0.15637327535E+03  0.15637327535E+03  0.00000000000E+00 0.  1.
         25    1    1    2    0    0 -0.27880976240E+01 -0.21163203394E+02 -0.68006821818E+02  0.13957285725E+03  0.12000000000E+03 0.  0.
         25    1    1    2    0    0  0.27880976240E+01  0.21163203394E+02  0.18045529538E+02  0.12321240117E+03  0.12000000000E+03 0.  0.
<mgrwt>
<rscale>  0 0.25799217E+03</rscale>
<asrwt>0</asrwt>
<pdfrwt beam="1">  1        1 0.16371074E-01 0.25799217E+03</pdfrwt>
<pdfrwt beam="2">  1       -1 0.24057427E-01 0.25799217E+03</pdfrwt>
<totfact> 0.48808415E+03</totfact>
</mgrwt>
</event>
<event>
 4    1  0.1866622E-004  0.2429797E+03  0.7818608E-02  0.1117824E+00
         -1   -1    0    0    0  501 -0.00000000000E+00  0.00000000000E+00  0.41303216582E+02  0.41303216582E+02  0.00000000000E+00 0.  1.
          1   -1    0    0  501    0  0.00000000000E+00 -0.00000000000E+00 -0.35735179900E+03  0.35735179900E+03  0.00000000000E+00 0.  1.
         25    1    1    2    0    0 -0.12635893592E+02 -0.13672796005E+02 -0.15207067954E+03  0.19460756084E+03  0.12000000000E+03 0.  0.
         25    1    1    2    0    0  0.12635893592E+02  0.13672796005E+02 -0.16397790287E+03  0.20404745474E+03  0.12000000000E+03 0.  0.
<mgrwt>
<rscale>  0 0.24297966E+03</rscale>
<asrwt>0</asrwt>
<pdfrwt beam="1">  1        1 0.54977201E-01 0.24297966E+03</pdfrwt>
<pdfrwt beam="2">  1       -1 0.63543409E-02 0.24297966E+03</pdfrwt>
<totfact> 0.84637987E+03</totfact>
</mgrwt>
</event>
<event>
 4    1  0.1866622E-004  0.2752989E+03  0.7818608E-02  0.1098285E+00
         -2   -1    0    0    0  501 -0.00000000000E+00  0.00000000000E+00  0.12703473133E+02  0.12703473133E+02  0.00000000000E+00 0.  1.
          2   -1    0    0  501    0  0.00000000000E+00 -0.00000000000E+00 -0.14915107165E+04  0.14915107165E+04  0.00000000000E+00 0.  1.
         25    1    1    2    0    0 -0.40413459844E+02 -0.22691225691E+02 -0.10070373947E+04  0.10152203966E+04  0.12000000000E+03 0.  0.
         25    1    1    2    0    0  0.40413459844E+02  0.22691225691E+02 -0.47176984868E+03  0.48899379299E+03  0.12000000000E+03 0.  0.
<mgrwt>
<rscale>  0 0.27529887E+03</rscale>
<asrwt>0</asrwt>
<pdfrwt beam="1">  1        2 0.22946307E+00 0.27529887E+03</pdfrwt>
<pdfrwt beam="2">  1       -2 0.19543815E-02 0.27529887E+03</pdfrwt>
<totfact> 0.11027589E+04</totfact>
</mgrwt>
</event>
<event>
 4    1  0.1866622E-004  0.2575512E+03  0.7818608E-02  0.1108624E+00
          1   -1    0    0  501    0  0.00000000000E+00  0.00000000000E+00  0.76098738596E+03  0.76098738596E+03  0.00000000000E+00 0.  1.
         -1   -1    0    0    0  501 -0.00000000000E+00 -0.00000000000E+00 -0.21791627588E+02  0.21791627588E+02  0.00000000000E+00 0.  1.
         25    1    1    2    0    0  0.44912790200E+02 -0.88482931038E+01  0.34113478590E+03  0.36451117015E+03  0.12000000000E+03 0.  0.
         25    1    1    2    0    0 -0.44912790200E+02  0.88482931038E+01  0.39806097247E+03  0.41826784339E+03  0.12000000000E+03 0.  0.
<mgrwt>
<rscale>  0 0.25755119E+03</rscale>
<asrwt>0</asrwt>
<pdfrwt beam="1">  1        1 0.11707496E+00 0.25755119E+03</pdfrwt>
<pdfrwt beam="2">  1       -1 0.33525587E-02 0.25755119E+03</pdfrwt>
<totfact> 0.79192766E+03</totfact>
</mgrwt>
</event>
<event>
 4    1  0.1866622E-004  0.3356832E+03  0.7818608E-02  0.1068650E+00
         -2   -1    0    0    0  501 -0.00000000000E+00  0.00000000000E+00  0.26824829912E+03  0.26824829912E+03  0.00000000000E+00 0. -1.
          2   -1    0    0  501    0  0.00000000000E+00 -0.00000000000E+00 -0.10501764430E+03  0.10501764430E+03  0.00000000000E+00 0. -1.
         25    1    1    2    0    0 -0.53466781266E+02  0.76757466874E+02  0.16040292639E+03  0.22108709644E+03  0.12000000000E+03 0.  0.
         25    1    1    2    0    0  0.53466781266E+02 -0.76757466874E+02  0.28277284396E+01  0.15217884698E+03  0.12000000000E+03 0.  0.
<mgrwt>
<rscale>  0 0.33568321E+03</rscale>
<asrwt>0</asrwt>
<pdfrwt beam="1">  1        2 0.16156561E-01 0.33568321E+03</pdfrwt>
<pdfrwt beam="2">  1       -2 0.41268969E-01 0.33568321E+03</pdfrwt>
<totfact> 0.20083317E+03</totfact>
</mgrwt>
</event>
<event>
 4    1  0.1866622E-004  0.2526339E+03  0.7818608E-02  0.1111651E+00
          2   -1    0    0  501    0  0.00000000000E+00  0.00000000000E+00  0.19648961041E+02  0.19648961041E+02  0.00000000000E+00 0. -1.
         -2   -1    0    0    0  501 -0.00000000000E+00 -0.00000000000E+00 -0.81205153363E+03  0.81205153363E+03  0.00000000000E+00 0. -1.
         25    1    1    2    0    0  0.23466163657E+02 -0.26100048057E+02 -0.45546814946E+03  0.47231674597E+03  0.12000000000E+03 0.  0.
         25    1    1    2    0    0 -0.23466163657E+02  0.26100048057E+02 -0.33693442313E+03  0.35938374871E+03  0.12000000000E+03 0.  0.
<mgrwt>
<rscale>  0 0.25263388E+03</rscale>
<asrwt>0</asrwt>
<pdfrwt beam="1">  1        2 0.30229165E-02 0.25263388E+03</pdfrwt>
<pdfrwt beam="2">  1       -2 0.12493103E+00 0.25263388E+03</pdfrwt>
<totfact> 0.15539428E+03</totfact>
</mgrwt>
</event>
<event>
 4    1  0.1866622E-004  0.3204910E+03  0.7818608E-02  0.1075424E+00
         -3   -1    0    0    0  501 -0.00000000000E+00  0.00000000000E+00  0.62668474501E+03  0.62668474501E+03  0.00000000000E+00 0. -1.
          3   -1    0    0  501    0  0.00000000000E+00 -0.00000000000E+00 -0.40975339437E+02  0.40975339437E+02  0.00000000000E+00 0. -1.
         25    1    1    2    0    0 -0.38769671968E+02 -0.79956436121E+02  0.17169490410E+03  0.22754177471E+03  0.12000000000E+03 0.  0.
         25    1    1    2    0    0  0.38769671968E+02  0.79956436121E+02  0.41401450147E+03  0.44011830974E+03  0.12000000000E+03 0.  0.
<mgrwt>
<rscale>  0 0.32049100E+03</rscale>
<asrwt>0</asrwt>
<pdfrwt beam="1">  1        3 0.63038988E-02 0.32049100E+03</pdfrwt>
<pdfrwt beam="2">  1       -3 0.96413031E-01 0.32049100E+03</pdfrwt>
<totfact> 0.39708766E+02</totfact>
</mgrwt>
</event>
<event>
 4    1  0.1866622E-004  0.3114174E+03  0.7818608E-02  0.1079668E+00
         -2   -1    0    0    0  501 -0.00000000000E+00  0.00000000000E+00  0.29651311006E+02  0.29651311006E+02  0.00000000000E+00 0. -1.
          2   -1    0    0  501    0  0.00000000000E+00 -0.00000000000E+00 -0.81767712735E+03  0.81767712735E+03  0.00000000000E+00 0. -1.
         25    1    1    2    0    0  0.84747982501E+02  0.29095267319E+02 -0.50997602546E+03  0.53151133728E+03  0.12000000000E+03 0.  0.
         25    1    1    2    0    0 -0.84747982501E+02 -0.29095267319E+02 -0.27804979089E+03  0.31581710108E+03  0.12000000000E+03 0.  0.
<mgrwt>
<rscale>  0 0.31141740E+03</rscale>
<asrwt>0</asrwt>
<pdfrwt beam="1">  1        2 0.12579646E+00 0.31141740E+03</pdfrwt>
<pdfrwt beam="2">  1       -2 0.45617410E-02 0.31141740E+03</pdfrwt>
<totfact> 0.77787510E+03</totfact>
</mgrwt>
</event>
<event>
 4    1  0.1866622E-004  0.2896733E+03  0.7818608E-02  0.1090520E+00
         -2   -1    0    0    0  501 -0.00000000000E+00  0.00000000000E+00  0.26348617182E+03  0.26348617182E+03  0.00000000000E+00 0. -1.
          2   -1    0    0  501    0  0.00000000000E+00 -0.00000000000E+00 -0.79615776284E+02  0.79615776284E+02  0.00000000000E+00 0. -1.
         25    1    1    2    0    0 -0.44970491481E+02  0.67120736176E+02  0.83550051890E+02  0.16705732399E+03  0.12000000000E+03 0.  0.
         25    1    1    2    0    0  0.44970491481E+02 -0.67120736176E+02  0.10032034364E+03  0.17604462411E+03  0.12000000000E+03 0.  0.
<mgrwt>
<rscale>  0 0.28967331E+03</rscale>
<asrwt>0</asrwt>
<pdfrwt beam="1">  1        2 0.12248581E-01 0.28967331E+03</pdfrwt>
<pdfrwt beam="2">  1       -2 0.40536334E-01 0.28967331E+03</pdfrwt>
<totfact> 0.28880577E+03</totfact>
</mgrwt>
</event>
<event>
 4    1  0.1866622E-004  0.2494770E+03  0.7818608E-02  0.1113636E+00
         -1   -1    0    0    0  501 -0.00000000000E+00  0.00000000000E+00  0.94892927707E+01  0.94892927707E+01  0.00000000000E+00 0.  1.
          1   -1    0    0  501    0  0.00000000000E+00 -0.00000000000E+00 -0.16397099863E+04  0.16397099863E+04  0.00000000000E+00 0.  1.
         25    1    1    2    0    0 -0.10351036029E+02 -0.19924074842E+02 -0.64585046792E+03  0.65728756235E+03  0.12000000000E+03 0.  0.
         25    1    1    2    0    0  0.10351036029E+02  0.19924074842E+02 -0.98437022561E+03  0.99191171672E+03  0.12000000000E+03 0.  0.
<mgrwt>
<rscale>  0 0.24947696E+03</rscale>
<asrwt>0</asrwt>
<pdfrwt beam="1">  1        1 0.25226346E+00 0.24947696E+03</pdfrwt>
<pdfrwt beam="2">  1       -1 0.14598890E-02 0.24947696E+03</pdfrwt>
<totfact> 0.62758737E+03</totfact>
</mgrwt>
</event>
<event>
 4    1  0.1866622E-004  0.4237863E+03  0.7818608E-02  0.1035841E+00
         -1   -1    0    0    0  501 -0.00000000000E+00  0.00000000000E+00  0.16246747951E+03  0.16246747951E+03  0.00000000000E+00 0.  1.
          1   -1    0    0  501    0  0.00000000000E+00 -0.00000000000E+00 -0.27635506674E+03  0.27635506674E+03  0.00000000000E+00 0.  1.
         25    1    1    2    0    0  0.10640060441E+02 -0.10397903213E+03  0.87926804006E+02  0.18181301623E+03  0.12000000000E+03 0.  0.
         25    1    1    2    0    0 -0.10640060441E+02  0.10397903213E+03 -0.20181439123E+03  0.25700953001E+03  0.12000000000E+03 0.  0.
<mgrwt>
<rscale>  0 0.42378632E+03</rscale>
<asrwt>0</asrwt>
<pdfrwt beam="1">  1        1 0.42516164E-01 0.42378632E+03</pdfrwt>
<pdfrwt beam="2">  1       -1 0.24994997E-01 0.42378632E+03</pdfrwt>
<totfact> 0.13612127E+03</totfact>
</mgrwt>
</event>
<event>
 4    1  0.1866622E-004  0.4197416E+03  0.7818608E-02  0.1037150E+00
         -1   -1    0    0    0  501 -0.00000000000E+00  0.00000000000E+00  0.31940715095E+03  0.31940715095E+03  0.00000000000E+00 0.  1.
          1   -1    0    0  501    0  0.00000000000E+00 -0.00000000000E+00 -0.13789848547E+03  0.13789848547E+03  0.00000000000E+00 0.  1.
         25    1    1    2    0    0 -0.15644935803E+03 -0.30553049740E+02  0.16166244135E+03  0.25679687580E+03  0.12000000000E+03 0.  0.
         25    1    1    2    0    0  0.15644935803E+03  0.30553049740E+02  0.19846224128E+02  0.20050876062E+03  0.12000000000E+03 0.  0.
<mgrwt>
<rscale>  0 0.41974165E+03</rscale>
<asrwt>0</asrwt>
<pdfrwt beam="1">  1        1 0.21215152E-01 0.41974165E+03</pdfrwt>
<pdfrwt beam="2">  1       -1 0.49139562E-01 0.41974165E+03</pdfrwt>
<totfact> 0.10078259E+03</totfact>
</mgrwt>
</event>
<event>
 4    1  0.1866622E-004  0.2749833E+03  0.7818608E-02  0.1098461E+00
         -2   -1    0    0    0  501 -0.00000000000E+00  0.00000000000E+00  0.12705236897E+03  0.12705236897E+03  0.00000000000E+00 0. -1.
          2   -1    0    0  501    0  0.00000000000E+00 -0.00000000000E+00 -0.14878866424E+03  0.14878866424E+03  0.00000000000E+00 0. -1.
         25    1    1    2    0    0 -0.17268166055E+02  0.33593753133E+02 -0.66513899639E+02  0.14230540627E+03  0.12000000000E+03 0.  0.
         25    1    1    2    0    0  0.17268166055E+02 -0.33593753133E+02  0.44777604376E+02  0.13353562694E+03  0.12000000000E+03 0.  0.
<mgrwt>
<rscale>  0 0.27498329E+03</rscale>
<asrwt>0</asrwt>
<pdfrwt beam="1">  1        2 0.22890564E-01 0.27498329E+03</pdfrwt>
<pdfrwt beam="2">  1       -2 0.19546518E-01 0.27498329E+03</pdfrwt>
<totfact> 0.51631530E+03</totfact>
</mgrwt>
</event>
<event>
 4    1  0.1866622E-004  0.2907189E+03  0.7818608E-02  0.1089974E+00
         -2   -1    0    0    0  501 -0.00000000000E+00  0.00000000000E+00  0.16122552286E+03  0.16122552286E+03  0.00000000000E+00 0.  1.
          2   -1    0    0  501    0  0.00000000000E+00 -0.00000000000E+00 -0.13105471841E+03  0.13105471841E+03  0.00000000000E+00 0.  1.
         25    1    1    2    0    0  0.48884473730E+02  0.65874408512E+02  0.15573841558E+02  0.14619054008E+03  0.12000000000E+03 0.  0.
         25    1    1    2    0    0 -0.48884473730E+02 -0.65874408512E+02  0.14596962895E+02  0.14608970119E+03  0.12000000000E+03 0.  0.
<mgrwt>
<rscale>  0 0.29071887E+03</rscale>
<asrwt>0</asrwt>
<pdfrwt beam="1">  1        2 0.20162264E-01 0.29071887E+03</pdfrwt>
<pdfrwt beam="2">  1       -2 0.24803926E-01 0.29071887E+03</pdfrwt>
<totfact> 0.39528537E+03</totfact>
</mgrwt>
</event>
<event>
 4    1  0.1866622E-004  0.2413664E+03  0.7818608E-02  0.1118886E+00
         -2   -1    0    0    0  501 -0.00000000000E+00  0.00000000000E+00  0.14762072688E+02  0.14762072688E+02  0.00000000000E+00 0. -1.
          2   -1    0    0  501    0  0.00000000000E+00 -0.00000000000E+00 -0.98661201716E+03  0.98661201716E+03  0.00000000000E+00 0. -1.
         25    1    1    2    0    0  0.12684001821E+02  0.20808813067E-01 -0.49374623338E+03  0.50827770688E+03  0.12000000000E+03 0.  0.
         25    1    1    2    0    0 -0.12684001821E+02 -0.20808813067E-01 -0.47810371110E+03  0.49309638298E+03  0.12000000000E+03 0.  0.
<mgrwt>
<rscale>  0 0.24136643E+03</rscale>
<asrwt>0</asrwt>
<pdfrwt beam="1">  1        2 0.15178640E+00 0.24136643E+03</pdfrwt>
<pdfrwt beam="2">  1       -2 0.22710890E-02 0.24136643E+03</pdfrwt>
<totfact> 0.16988064E+04</totfact>
</mgrwt>
</event>
<event>
 4    1  0.1866622E-004  0.2839329E+03  0.7818608E-02  0.1093560E+00
         -3   -1    0    0    0  501 -0.00000000000E+00  0.00000000000E+00  0.34687129500E+03  0.34687129500E+03  0.00000000000E+00 0.  1.
          3   -1    0    0  501    0  0.00000000000E+00 -0.00000000000E+00 -0.58103613984E+02  0.58103613984E+02  0.00000000000E+00 0.  1.
         25    1    1    2    0    0 -0.57841911902E+02  0.15338968182E+01  0.74415826913E+02  0.15259670674E+03  0.12000000000E+03 0.  0.
         25    1    1    2    0    0  0.57841911902E+02 -0.15338968182E+01  0.21435185410E+03  0.25237820225E+03  0.12000000000E+03 0.  0.
<mgrwt>
<rscale>  0 0.28393292E+03</rscale>
<asrwt>0</asrwt>
<pdfrwt beam="1">  1        3 0.89390178E-02 0.28393292E+03</pdfrwt>
<pdfrwt beam="2">  1       -3 0.53364813E-01 0.28393292E+03</pdfrwt>
<totfact> 0.79348203E+02</totfact>
</mgrwt>
</event>
<event>
 4    1  0.1866622E-004  0.2795042E+03  0.7818608E-02  0.1095960E+00
         -2   -1    0    0    0  501 -0.00000000000E+00  0.00000000000E+00  0.39445350578E+03  0.39445350578E+03  0.00000000000E+00 0. -1.
          2   -1    0    0  501    0  0.00000000000E+00 -0.00000000000E+00 -0.49513180352E+02  0.49513180352E+02  0.00000000000E+00 0. -1.
         25    1    1    2    0    0 -0.28972189512E+01 -0.54808096837E+02  0.99363242888E+02  0.16518285442E+03  0.12000000000E+03 0.  0.
         25    1    1    2    0    0  0.28972189512E+01  0.54808096837E+02  0.24557708254E+03  0.27878383172E+03  0.12000000000E+03 0.  0.
<mgrwt>
<rscale>  0 0.27950419E+03</rscale>
<asrwt>0</asrwt>
<pdfrwt beam="1">  1        2 0.76174126E-02 0.27950419E+03</pdfrwt>
<pdfrwt beam="2">  1       -2 0.60685153E-01 0.27950419E+03</pdfrwt>
<totfact> 0.23340611E+03</totfact>
</mgrwt>
</event>
<event>
 4    1  0.1866622E-004  0.3237369E+03  0.7818608E-02  0.1073942E+00
          2   -1    0    0  501    0  0.00000000000E+00  0.00000000000E+00  0.18375873850E+04  0.18375873850E+04  0.00000000000E+00 0. -1.
         -2   -1    0    0    0  501 -0.00000000000E+00 -0.00000000000E+00 -0.14258583985E+02  0.14258583985E+02  0.00000000000E+00 0. -1.
         25    1    1    2    0    0  0.82575331040E+02 -0.42943458202E+02  0.12321278091E+04  0.12414514747E+04  0.12000000000E+03 0.  0.
         25    1    1    2    0    0 -0.82575331040E+02  0.42943458202E+02  0.59120099189E+03  0.61039449433E+03  0.12000000000E+03 0.  0.
<mgrwt>
<rscale>  0 0.32373689E+03</rscale>
<asrwt>0</asrwt>
<pdfrwt beam="1">  1        2 0.28270556E+00 0.32373689E+03</pdfrwt>
<pdfrwt beam="2">  1       -2 0.21936298E-02 0.32373689E+03</pdfrwt>
<totfact> 0.61052573E+03</totfact>
</mgrwt>
</event>
<event>
 4    1  0.1866622E-004  0.2889750E+03  0.7818608E-02  0.1090886E+00
         -2   -1    0    0    0  501 -0.00000000000E+00  0.00000000000E+00  0.22183457083E+02  0.22183457083E+02  0.00000000000E+00 0.  1.
          2   -1    0    0  501    0  0.00000000000E+00 -0.00000000000E+00 -0.94109029203E+03  0.94109029203E+03  0.00000000000E+00 0.  1.
         25    1    1    2    0    0 -0.34711162784E+02 -0.67416268995E+02 -0.36958599343E+03  0.39590860649E+03  0.12000000000E+03 0.  0.
         25    1    1    2    0    0  0.34711162784E+02  0.67416268995E+02 -0.54932084151E+03  0.56736514263E+03  0.12000000000E+03 0.  0.
<mgrwt>
<rscale>  0 0.28897499E+03</rscale>
<asrwt>0</asrwt>
<pdfrwt beam="1">  1        2 0.14478310E+00 0.28897499E+03</pdfrwt>
<pdfrwt beam="2">  1       -2 0.34128400E-02 0.28897499E+03</pdfrwt>
<totfact> 0.99735664E+03</totfact>
</mgrwt>
</event>
<event>
 4    1  0.1866622E-004  0.2416208E+03  0.7818608E-02  0.1118718E+00
          2   -1    0    0  501    0  0.00000000000E+00  0.00000000000E+00  0.76544635866E+02  0.76544635866E+02  0.00000000000E+00 0.  1.
         -2   -1    0    0    0  501 -0.00000000000E+00 -0.00000000000E+00 -0.19067500864E+03  0.19067500864E+03  0.00000000000E+00 0.  1.
         25    1    1    2    0    0  0.23856792791E+01 -0.10876350176E+02 -0.66394724906E+02  0.13759449827E+03  0.12000000000E+03 0.  0.
         25    1    1    2    0    0 -0.23856792791E+01  0.10876350176E+02 -0.47735647865E+02  0.12962514623E+03  0.12000000000E+03 0.  0.
<mgrwt>
<rscale>  0 0.24162077E+03</rscale>
<asrwt>0</asrwt>
<pdfrwt beam="1">  1        2 0.11776098E-01 0.24162077E+03</pdfrwt>
<pdfrwt beam="2">  1       -2 0.29334617E-01 0.24162077E+03</pdfrwt>
<totfact> 0.54935789E+03</totfact>
</mgrwt>
</event>
<event>
 4    1  0.1866622E-004  0.3973828E+03  0.7818608E-02  0.1044690E+00
         -1   -1    0    0    0  501 -0.00000000000E+00  0.00000000000E+00  0.77690343693E+02  0.77690343693E+02  0.00000000000E+00 0.  1.
          1   -1    0    0  501    0  0.00000000000E+00 -0.00000000000E+00 -0.50814899206E+03  0.50814899206E+03  0.00000000000E+00 0.  1.
         25    1    1    2    0    0  0.14874131350E+03  0.98463095444E+01 -0.29403374221E+03  0.35082298914E+03  0.12000000000E+03 0.  0.
         25    1    1    2    0    0 -0.14874131350E+03 -0.98463095444E+01 -0.13642490616E+03  0.23501634661E+03  0.12000000000E+03 0.  0.
<mgrwt>
<rscale>  0 0.39738279E+03</rscale>
<asrwt>0</asrwt>
<pdfrwt beam="1">  1        1 0.78176769E-01 0.39738279E+03</pdfrwt>
<pdfrwt beam="2">  1       -1 0.11952360E-01 0.39738279E+03</pdfrwt>
<totfact> 0.20451487E+03</totfact>
</mgrwt>
</event>
<event>
 4    1  0.1866622E-004  0.3074045E+03  0.7818608E-02  0.1081597E+00
         -1   -1    0    0    0  501 -0.00000000000E+00  0.00000000000E+00  0.56955474553E+02  0.56955474553E+02  0.00000000000E+00 0. -1.
          1   -1    0    0  501    0  0.00000000000E+00 -0.00000000000E+00 -0.41478696261E+03  0.41478696261E+03  0.00000000000E+00 0. -1.
         25    1    1    2    0    0 -0.46852254057E+01  0.16424677489E+02 -0.33876597669E+02  0.12585446054E+03  0.12000000000E+03 0.  0.
         25    1    1    2    0    0  0.46852254057E+01 -0.16424677489E+02 -0.32395489039E+03  0.34588797663E+03  0.12000000000E+03 0.  0.
<mgrwt>
<rscale>  0 0.30740454E+03</rscale>
<asrwt>0</asrwt>
<pdfrwt beam="1">  1        1 0.63813378E-01 0.30740454E+03</pdfrwt>
<pdfrwt beam="2">  1       -1 0.87623808E-02 0.30740454E+03</pdfrwt>
<totfact> 0.43211148E+03</totfact>
</mgrwt>
</event>
<event>
 4    1  0.1866622E-004  0.3168766E+03  0.7818608E-02  0.1077096E+00
         -1   -1    0    0    0  501 -0.00000000000E+00  0.00000000000E+00  0.56829838354E+02  0.56829838354E+02  0.00000000000E+00 0.  1.
          1   -1    0    0  501    0  0.00000000000E+00 -0.00000000000E+00 -0.44171675160E+03  0.44171675160E+03  0.00000000000E+00 0.  1.
         25    1    1    2    0    0 -0.25491494189E+02 -0.23433644172E+02 -0.39065525949E+02  0.13086278032E+03  0.12000000000E+03 0.  0.
         25    1    1    2    0    0  0.25491494189E+02  0.23433644172E+02 -0.34582138730E+03  0.36768380964E+03  0.12000000000E+03 0.  0.
<mgrwt>
<rscale>  0 0.31687658E+03</rscale>
<asrwt>0</asrwt>
<pdfrwt beam="1">  1        1 0.67956423E-01 0.31687658E+03</pdfrwt>
<pdfrwt beam="2">  1       -1 0.87430521E-02 0.31687658E+03</pdfrwt>
<totfact> 0.39980451E+03</totfact>
</mgrwt>
</event>
<event>
 4    1  0.1866622E-004  0.3854539E+03  0.7818608E-02  0.1048936E+00
          2   -1    0    0  501    0  0.00000000000E+00  0.00000000000E+00  0.23028624543E+03  0.23028624543E+03  0.00000000000E+00 0. -1.
         -2   -1    0    0    0  501 -0.00000000000E+00 -0.00000000000E+00 -0.16129352765E+03  0.16129352765E+03  0.00000000000E+00 0. -1.
         25    1    1    2    0    0  0.55673827501E+02  0.65053417615E+02 -0.91622351365E+02  0.17356894158E+03  0.12000000000E+03 0.  0.
         25    1    1    2    0    0 -0.55673827501E+02 -0.65053417615E+02  0.16061506915E+03  0.21801083150E+03  0.12000000000E+03 0.  0.
<mgrwt>
<rscale>  0 0.38545392E+03</rscale>
<asrwt>0</asrwt>
<pdfrwt beam="1">  1        2 0.35428653E-01 0.38545392E+03</pdfrwt>
<pdfrwt beam="2">  1       -2 0.24814389E-01 0.38545392E+03</pdfrwt>
<totfact> 0.21153085E+03</totfact>
</mgrwt>
</event>
<event>
 4    1  0.1866622E-004  0.2437670E+03  0.7818608E-02  0.1117308E+00
         -1   -1    0    0    0  501 -0.00000000000E+00  0.00000000000E+00  0.30276271985E+03  0.30276271985E+03  0.00000000000E+00 0.  1.
          1   -1    0    0  501    0  0.00000000000E+00 -0.00000000000E+00 -0.49066771638E+02  0.49066771638E+02  0.00000000000E+00 0.  1.
         25    1    1    2    0    0  0.12001192114E+01 -0.11449378962E+02  0.10090621938E+03  0.15720875826E+03  0.12000000000E+03 0.  0.
         25    1    1    2    0    0 -0.12001192114E+01  0.11449378962E+02  0.15278972883E+03  0.19462073322E+03  0.12000000000E+03 0.  0.
<mgrwt>
<rscale>  0 0.24376701E+03</rscale>
<asrwt>0</asrwt>
<pdfrwt beam="1">  1        1 0.75487343E-02 0.24376701E+03</pdfrwt>
<pdfrwt beam="2">  1       -1 0.46578879E-01 0.24376701E+03</pdfrwt>
<totfact> 0.43633895E+03</totfact>
</mgrwt>
</event>
<event>
 4    1  0.1866622E-004  0.2986027E+03  0.7818608E-02  0.1085941E+00
          2   -1    0    0  501    0  0.00000000000E+00  0.00000000000E+00  0.15280081037E+04  0.15280081037E+04  0.00000000000E+00 0.  1.
         -2   -1    0    0    0  501 -0.00000000000E+00 -0.00000000000E+00 -0.14588202947E+02  0.14588202947E+02  0.00000000000E+00 0.  1.
         25    1    1    2    0    0 -0.24035670538E+02 -0.44336938497E+02  0.11344825888E+04  0.11419256639E+04  0.12000000000E+03 0.  0.
         25    1    1    2    0    0  0.24035670538E+02  0.44336938497E+02  0.37893731197E+03  0.40067064277E+03  0.12000000000E+03 0.  0.
<mgrwt>
<rscale>  0 0.29860269E+03</rscale>
<asrwt>0</asrwt>
<pdfrwt beam="1">  1        2 0.23507804E+00 0.29860269E+03</pdfrwt>
<pdfrwt beam="2">  1       -2 0.22443401E-02 0.29860269E+03</pdfrwt>
<totfact> 0.86087734E+03</totfact>
</mgrwt>
</event>
<event>
 4    1  0.1866622E-004  0.2548647E+03  0.7818608E-02  0.1110268E+00
         -1   -1    0    0    0  501 -0.00000000000E+00  0.00000000000E+00  0.39664033562E+03  0.39664033562E+03  0.00000000000E+00 0.  1.
          1   -1    0    0  501    0  0.00000000000E+00 -0.00000000000E+00 -0.40941373168E+02  0.40941373168E+02  0.00000000000E+00 0.  1.
         25    1    1    2    0    0 -0.29547232029E+02  0.16146572035E+02  0.13225410006E+03  0.18172753696E+03  0.12000000000E+03 0.  0.
         25    1    1    2    0    0  0.29547232029E+02 -0.16146572035E+02  0.22344486240E+03  0.25585417183E+03  0.12000000000E+03 0.  0.
<mgrwt>
<rscale>  0 0.25486467E+03</rscale>
<asrwt>0</asrwt>
<pdfrwt beam="1">  1        1 0.62986730E-02 0.25486467E+03</pdfrwt>
<pdfrwt beam="2">  1       -1 0.61021588E-01 0.25486467E+03</pdfrwt>
<totfact> 0.33758334E+03</totfact>
</mgrwt>
</event>
<event>
 4    1  0.1866622E-004  0.2831206E+03  0.7818608E-02  0.1093997E+00
         -1   -1    0    0    0  501 -0.00000000000E+00  0.00000000000E+00  0.51310284049E+02  0.51310284049E+02  0.00000000000E+00 0.  1.
          1   -1    0    0  501    0  0.00000000000E+00 -0.00000000000E+00 -0.39055179051E+03  0.39055179051E+03  0.00000000000E+00 0.  1.
         25    1    1    2    0    0  0.19405289117E+02 -0.15969319668E+02 -0.59178300333E+02  0.13613836949E+03  0.12000000000E+03 0.  0.
         25    1    1    2    0    0 -0.19405289117E+02  0.15969319668E+02 -0.28006320613E+03  0.30572370507E+03  0.12000000000E+03 0.  0.
<mgrwt>
<rscale>  0 0.28312063E+03</rscale>
<asrwt>0</asrwt>
<pdfrwt beam="1">  1        1 0.60084893E-01 0.28312063E+03</pdfrwt>
<pdfrwt beam="2">  1       -1 0.78938896E-02 0.28312063E+03</pdfrwt>
<totfact> 0.54682520E+03</totfact>
</mgrwt>
</event>
<event>
 4    1  0.1866622E-004  0.2731038E+03  0.7818608E-02  0.1099516E+00
          1   -1    0    0  501    0  0.00000000000E+00  0.00000000000E+00  0.14149866144E+03  0.14149866144E+03  0.00000000000E+00 0. -1.
         -1   -1    0    0    0  501 -0.00000000000E+00 -0.00000000000E+00 -0.13177803767E+03  0.13177803767E+03  0.00000000000E+00 0. -1.
         25    1    1    2    0    0  0.84365761556E+01  0.64040840843E+02 -0.37480901686E+01  0.13633214329E+03  0.12000000000E+03 0.  0.
         25    1    1    2    0    0 -0.84365761556E+01 -0.64040840843E+02  0.13468713938E+02  0.13694455582E+03  0.12000000000E+03 0.  0.
<mgrwt>
<rscale>  0 0.27310376E+03</rscale>
<asrwt>0</asrwt>
<pdfrwt beam="1">  1        1 0.21769025E-01 0.27310376E+03</pdfrwt>
<pdfrwt beam="2">  1       -1 0.20273544E-01 0.27310376E+03</pdfrwt>
<totfact> 0.44801577E+03</totfact>
</mgrwt>
</event>
<event>
 4    1  0.1866622E-004  0.2892911E+03  0.7818608E-02  0.1090720E+00
          1   -1    0    0  501    0  0.00000000000E+00  0.00000000000E+00  0.21544743241E+03  0.21544743241E+03  0.00000000000E+00 0. -1.
         -1   -1    0    0    0  501 -0.00000000000E+00 -0.00000000000E+00 -0.97111089932E+02  0.97111089932E+02  0.00000000000E+00 0. -1.
         25    1    1    2    0    0 -0.33204415897E+02  0.97765573079E+01  0.13800411983E+03  0.18612697654E+03  0.12000000000E+03 0.  0.
         25    1    1    2    0    0  0.33204415897E+02 -0.97765573079E+01 -0.19667777346E+02  0.12643154580E+03  0.12000000000E+03 0.  0.
<mgrwt>
<rscale>  0 0.28929110E+03</rscale>
<asrwt>0</asrwt>
<pdfrwt beam="1">  1        1 0.33145759E-01 0.28929110E+03</pdfrwt>
<pdfrwt beam="2">  1       -1 0.14940168E-01 0.28929110E+03</pdfrwt>
<totfact> 0.42977677E+03</totfact>
</mgrwt>
</event>
<event>
 4    1  0.1866622E-004  0.2573923E+03  0.7818608E-02  0.1108720E+00
         -3   -1    0    0    0  501 -0.00000000000E+00  0.00000000000E+00  0.10879987717E+04  0.10879987717E+04  0.00000000000E+00 0.  1.
          3   -1    0    0  501    0  0.00000000000E+00 -0.00000000000E+00 -0.15223085271E+02  0.15223085271E+02  0.00000000000E+00 0.  1.
         25    1    1    2    0    0 -0.34338275929E+02 -0.45335096743E+01  0.66939861564E+03  0.68095093548E+03  0.12000000000E+03 0.  0.
         25    1    1    2    0    0  0.34338275929E+02  0.45335096743E+01  0.40337707080E+03  0.42227092151E+03  0.12000000000E+03 0.  0.
<mgrwt>
<rscale>  0 0.25739229E+03</rscale>
<asrwt>0</asrwt>
<pdfrwt beam="1">  1        3 0.23420140E-02 0.25739229E+03</pdfrwt>
<pdfrwt beam="2">  1       -3 0.16738437E+00 0.25739229E+03</pdfrwt>
<totfact> 0.48623207E+02</totfact>
</mgrwt>
</event>
<event>
 4    1  0.1866622E-004  0.3718168E+03  0.7818608E-02  0.1054000E+00
         -1   -1    0    0    0  501 -0.00000000000E+00  0.00000000000E+00  0.81586252912E+02  0.81586252912E+02  0.00000000000E+00 0. -1.
          1   -1    0    0  501    0  0.00000000000E+00 -0.00000000000E+00 -0.42362443948E+03  0.42362443948E+03  0.00000000000E+00 0. -1.
         25    1    1    2    0    0 -0.56713291679E+02 -0.12704095382E+03 -0.20959764171E+03  0.27872382893E+03  0.12000000000E+03 0.  0.
         25    1    1    2    0    0  0.56713291679E+02  0.12704095382E+03 -0.13244054486E+03  0.22648686347E+03  0.12000000000E+03 0.  0.
<mgrwt>
<rscale>  0 0.37181679E+03</rscale>
<asrwt>0</asrwt>
<pdfrwt beam="1">  1        1 0.65172990E-01 0.37181679E+03</pdfrwt>
<pdfrwt beam="2">  1       -1 0.12551731E-01 0.37181679E+03</pdfrwt>
<totfact> 0.24087516E+03</totfact>
</mgrwt>
</event>
<event>
 4    1  0.1866622E-004  0.2415836E+03  0.7818608E-02  0.1118742E+00
         -1   -1    0    0    0  501 -0.00000000000E+00  0.00000000000E+00  0.16441189276E+02  0.16441189276E+02  0.00000000000E+00 0. -1.
          1   -1    0    0  501    0  0.00000000000E+00 -0.00000000000E+00 -0.88744531591E+03  0.88744531591E+03  0.00000000000E+00 0. -1.
         25    1    1    2    0    0  0.39725738711E+01 -0.11858069701E+02 -0.45740226410E+03  0.47304674860E+03  0.12000000000E+03 0.  0.
         25    1    1    2    0    0 -0.39725738711E+01  0.11858069701E+02 -0.41360186254E+03  0.43083975659E+03  0.12000000000E+03 0.  0.
<mgrwt>
<rscale>  0 0.24158358E+03</rscale>
<asrwt>0</asrwt>
<pdfrwt beam="1">  1        1 0.13653006E+00 0.24158358E+03</pdfrwt>
<pdfrwt beam="2">  1       -1 0.25294135E-02 0.24158358E+03</pdfrwt>
<totfact> 0.94184360E+03</totfact>
</mgrwt>
</event>
<event>
 4    1  0.1866622E-004  0.2819439E+03  0.7818608E-02  0.1094632E+00
          2   -1    0    0  501    0  0.00000000000E+00  0.00000000000E+00  0.11346265867E+04  0.11346265867E+04  0.00000000000E+00 0.  1.
         -2   -1    0    0    0  501 -0.00000000000E+00 -0.00000000000E+00 -0.17515087353E+02  0.17515087353E+02  0.00000000000E+00 0.  1.
         25    1    1    2    0    0 -0.22636693737E+02 -0.68203476222E+02  0.48672884481E+03  0.50642778601E+03  0.12000000000E+03 0.  0.
         25    1    1    2    0    0  0.22636693737E+02  0.68203476222E+02  0.63038265452E+03  0.64571388803E+03  0.12000000000E+03 0.  0.
<mgrwt>
<rscale>  0 0.28194385E+03</rscale>
<asrwt>0</asrwt>
<pdfrwt beam="1">  1        2 0.17455788E+00 0.28194385E+03</pdfrwt>
<pdfrwt beam="2">  1       -2 0.26946297E-02 0.28194385E+03</pdfrwt>
<totfact> 0.10828222E+04</totfact>
</mgrwt>
</event>
<event>
 4    1  0.1866622E-004  0.2441759E+03  0.7818608E-02  0.1117042E+00
         -2   -1    0    0    0  501 -0.00000000000E+00  0.00000000000E+00  0.85295111672E+01  0.85295111672E+01  0.00000000000E+00 0. -1.
          2   -1    0    0  501    0  0.00000000000E+00 -0.00000000000E+00 -0.17475168325E+04  0.17475168325E+04  0.00000000000E+00 0. -1.
         25    1    1    2    0    0  0.45456686169E+01 -0.13771518126E+02 -0.99304630872E+03  0.10003755740E+04  0.12000000000E+03 0.  0.
         25    1    1    2    0    0 -0.45456686169E+01  0.13771518126E+02 -0.74594101257E+03  0.75567076961E+03  0.12000000000E+03 0.  0.
<mgrwt>
<rscale>  0 0.24417587E+03</rscale>
<asrwt>0</asrwt>
<pdfrwt beam="1">  1        2 0.26884852E+00 0.24417587E+03</pdfrwt>
<pdfrwt beam="2">  1       -2 0.13122336E-02 0.24417587E+03</pdfrwt>
<totfact> 0.14418435E+04</totfact>
</mgrwt>
</event>
<event>
 4    1  0.1866622E-004  0.3838726E+03  0.7818608E-02  0.1049512E+00
         -2   -1    0    0    0  501 -0.00000000000E+00  0.00000000000E+00  0.20897438451E+02  0.20897438451E+02  0.00000000000E+00 0.  1.
          2   -1    0    0  501    0  0.00000000000E+00 -0.00000000000E+00 -0.17628734528E+04  0.17628734528E+04  0.00000000000E+00 0.  1.
         25    1    1    2    0    0 -0.12278889842E+03 -0.85606413899E+02 -0.89807031613E+03  0.91833319900E+03  0.12000000000E+03 0.  0.
         25    1    1    2    0    0  0.12278889842E+03  0.85606413899E+02 -0.84390569820E+03  0.86543769223E+03  0.12000000000E+03 0.  0.
<mgrwt>
<rscale>  0 0.38387258E+03</rscale>
<asrwt>0</asrwt>
<pdfrwt beam="1">  1        2 0.27121131E+00 0.38387258E+03</pdfrwt>
<pdfrwt beam="2">  1       -2 0.32149905E-02 0.38387258E+03</pdfrwt>
<totfact> 0.37765336E+03</totfact>
</mgrwt>
</event>
<event>
 4    1  0.1866622E-004  0.2695043E+03  0.7818608E-02  0.1101564E+00
         -2   -1    0    0    0  501 -0.00000000000E+00  0.00000000000E+00  0.13658871638E+02  0.13658871638E+02  0.00000000000E+00 0. -1.
          2   -1    0    0  501    0  0.00000000000E+00 -0.00000000000E+00 -0.13294024836E+04  0.13294024836E+04  0.00000000000E+00 0. -1.
         25    1    1    2    0    0  0.54689874310E+02 -0.14673215611E+02 -0.54080288385E+03  0.55684292649E+03  0.12000000000E+03 0.  0.
         25    1    1    2    0    0 -0.54689874310E+02  0.14673215611E+02 -0.77494072816E+03  0.78621842879E+03  0.12000000000E+03 0.  0.
<mgrwt>
<rscale>  0 0.26950427E+03</rscale>
<asrwt>0</asrwt>
<pdfrwt beam="1">  1        2 0.20452346E+00 0.26950427E+03</pdfrwt>
<pdfrwt beam="2">  1       -2 0.21013649E-02 0.26950427E+03</pdfrwt>
<totfact> 0.12128981E+04</totfact>
</mgrwt>
</event>
<event>
 4    1  0.1866622E-004  0.2423042E+03  0.7818608E-02  0.1118267E+00
         -2   -1    0    0    0  501 -0.00000000000E+00  0.00000000000E+00  0.73008947883E+02  0.73008947883E+02  0.00000000000E+00 0.  1.
          2   -1    0    0  501    0  0.00000000000E+00 -0.00000000000E+00 -0.20104149525E+03  0.20104149525E+03  0.00000000000E+00 0.  1.
         25    1    1    2    0    0  0.60609040520E+00 -0.16355569038E+02 -0.67585001935E+02  0.13869248167E+03  0.12000000000E+03 0.  0.
         25    1    1    2    0    0 -0.60609040520E+00  0.16355569038E+02 -0.60447545435E+02  0.13535796147E+03  0.12000000000E+03 0.  0.
<mgrwt>
<rscale>  0 0.24230417E+03</rscale>
<asrwt>0</asrwt>
<pdfrwt beam="1">  1        2 0.30929461E-01 0.24230417E+03</pdfrwt>
<pdfrwt beam="2">  1       -2 0.11232146E-01 0.24230417E+03</pdfrwt>
<totfact> 0.91754610E+03</totfact>
</mgrwt>
</event>
<event>
 4    1  0.1866622E-004  0.4831766E+03  0.7818608E-02  0.1018266E+00
          1   -1    0    0  501    0  0.00000000000E+00  0.00000000000E+00  0.42288223784E+03  0.42288223784E+03  0.00000000000E+00 0.  1.
         -1   -1    0    0    0  501 -0.00000000000E+00 -0.00000000000E+00 -0.13801692717E+03  0.13801692717E+03  0.00000000000E+00 0.  1.
         25    1    1    2    0    0  0.89917580569E+02 -0.10218429518E+03  0.32758161719E+03  0.37448166497E+03  0.12000000000E+03 0.  0.
         25    1    1    2    0    0 -0.89917580569E+02  0.10218429518E+03 -0.42716306521E+02  0.18641750004E+03  0.12000000000E+03 0.  0.
<mgrwt>
<rscale>  0 0.48317660E+03</rscale>
<asrwt>0</asrwt>
<pdfrwt beam="1">  1        1 0.65058805E-01 0.48317660E+03</pdfrwt>
<pdfrwt beam="2">  1       -1 0.21233374E-01 0.48317660E+03</pdfrwt>
<totfact> 0.10324191E+03</totfact>
</mgrwt>
</event>
<event>
 4    1  0.1866622E-004  0.2993755E+03  0.7818608E-02  0.1085553E+00
          1   -1    0    0  501    0  0.00000000000E+00  0.00000000000E+00  0.16255808729E+03  0.16255808729E+03  0.00000000000E+00 0. -1.
         -1   -1    0    0    0  501 -0.00000000000E+00 -0.00000000000E+00 -0.13783642716E+03  0.13783642716E+03  0.00000000000E+00 0. -1.
         25    1    1    2    0    0 -0.67490002014E+01  0.48103202310E+02  0.87762857034E+02  0.15640264113E+03  0.12000000000E+03 0.  0.
         25    1    1    2    0    0  0.67490002014E+01 -0.48103202310E+02 -0.63041196911E+02  0.14399187333E+03  0.12000000000E+03 0.  0.
<mgrwt>
<rscale>  0 0.29937552E+03</rscale>
<asrwt>0</asrwt>
<pdfrwt beam="1">  1        1 0.25008937E-01 0.29937552E+03</pdfrwt>
<pdfrwt beam="2">  1       -1 0.21205604E-01 0.29937552E+03</pdfrwt>
<totfact> 0.34947438E+03</totfact>
</mgrwt>
</event>
<event>
 4    1  0.1866622E-004  0.4116893E+03  0.7818608E-02  0.1039806E+00
          1   -1    0    0  501    0  0.00000000000E+00  0.00000000000E+00  0.12564823865E+04  0.12564823865E+04  0.00000000000E+00 0. -1.
         -1   -1    0    0    0  501 -0.00000000000E+00 -0.00000000000E+00 -0.33722729342E+02  0.33722729342E+02  0.00000000000E+00 0. -1.
         25    1    1    2    0    0 -0.51740917035E+02  0.15460087742E+03  0.72836658866E+03  0.75597383637E+03  0.12000000000E+03 0.  0.
         25    1    1    2    0    0  0.51740917035E+02 -0.15460087742E+03  0.49439306853E+03  0.53423127951E+03  0.12000000000E+03 0.  0.
<mgrwt>
<rscale>  0 0.41168928E+03</rscale>
<asrwt>0</asrwt>
<pdfrwt beam="1">  1        1 0.19330495E+00 0.41168928E+03</pdfrwt>
<pdfrwt beam="2">  1       -1 0.51881132E-02 0.41168928E+03</pdfrwt>
<totfact> 0.17378230E+03</totfact>
</mgrwt>
</event>
<event>
 4    1  0.1866622E-004  0.2481942E+03  0.7818608E-02  0.1114451E+00
         -2   -1    0    0    0  501 -0.00000000000E+00  0.00000000000E+00  0.68307699186E+02  0.68307699186E+02  0.00000000000E+00 0. -1.
          2   -1    0    0  501    0  0.00000000000E+00 -0.00000000000E+00 -0.22545171168E+03  0.22545171168E+03  0.00000000000E+00 0. -1.
         25    1    1    2    0    0  0.23933427716E+02  0.96434137708E+01 -0.10021202055E+03  0.15845584071E+03  0.12000000000E+03 0.  0.
         25    1    1    2    0    0 -0.23933427716E+02 -0.96434137708E+01 -0.56931991947E+02  0.13530357016E+03  0.12000000000E+03 0.  0.
<mgrwt>
<rscale>  0 0.24819418E+03</rscale>
<asrwt>0</asrwt>
<pdfrwt beam="1">  1        2 0.34684878E-01 0.24819418E+03</pdfrwt>
<pdfrwt beam="2">  1       -2 0.10508877E-01 0.24819418E+03</pdfrwt>
<totfact> 0.90187525E+03</totfact>
</mgrwt>
</event>
<event>
 4    1  0.1866622E-004  0.2568976E+03  0.7818608E-02  0.1109022E+00
          2   -1    0    0  501    0  0.00000000000E+00  0.00000000000E+00  0.18250827657E+04  0.18250827657E+04  0.00000000000E+00 0.  1.
         -2   -1    0    0    0  501 -0.00000000000E+00 -0.00000000000E+00 -0.90401918894E+01  0.90401918894E+01  0.00000000000E+00 0.  1.
         25    1    1    2    0    0  0.32801617936E+02 -0.20929882138E+02  0.10807165955E+04  0.10880543948E+04  0.12000000000E+03 0.  0.
         25    1    1    2    0    0 -0.32801617936E+02  0.20929882138E+02  0.73532597825E+03  0.74606856280E+03  0.12000000000E+03 0.  0.
<mgrwt>
<rscale>  0 0.25689763E+03</rscale>
<asrwt>0</asrwt>
<pdfrwt beam="1">  1        2 0.28078167E+00 0.25689763E+03</pdfrwt>
<pdfrwt beam="2">  1       -2 0.13908002E-02 0.25689763E+03</pdfrwt>
<totfact> 0.12079848E+04</totfact>
</mgrwt>
</event>
<event>
 4    1  0.1866622E-004  0.2453245E+03  0.7818608E-02  0.1116296E+00
          2   -1    0    0  501    0  0.00000000000E+00  0.00000000000E+00  0.25129089679E+04  0.25129089679E+04  0.00000000000E+00 0.  1.
         -2   -1    0    0    0  501 -0.00000000000E+00 -0.00000000000E+00 -0.59874961129E+01  0.59874961129E+01  0.00000000000E+00 0.  1.
         25    1    1    2    0    0  0.18241429629E+02  0.11515498921E+02  0.11154477973E+04  0.11220914156E+04  0.12000000000E+03 0.  0.
         25    1    1    2    0    0 -0.18241429629E+02 -0.11515498921E+02  0.13914736744E+04  0.13968050483E+04  0.12000000000E+03 0.  0.
<mgrwt>
<rscale>  0 0.24532454E+03</rscale>
<asrwt>0</asrwt>
<pdfrwt beam="1">  1        2 0.38660054E+00 0.24532454E+03</pdfrwt>
<pdfrwt beam="2">  1       -2 0.92115526E-03 0.24532454E+03</pdfrwt>
<totfact> 0.94715150E+03</totfact>
</mgrwt>
</event>
<event>
 4    1  0.1866622E-004  0.3347913E+03  0.7818608E-02  0.1069036E+00
          2   -1    0    0  501    0  0.00000000000E+00  0.00000000000E+00  0.17747656663E+04  0.17747656663E+04  0.00000000000E+00 0. -1.
         -2   -1    0    0    0  501 -0.00000000000E+00 -0.00000000000E+00 -0.15788736948E+02  0.15788736948E+02  0.00000000000E+00 0. -1.
         25    1    1    2    0    0  0.11581112367E+02 -0.15608798045E+02  0.26400618463E+03  0.29064931148E+03  0.12000000000E+03 0.  0.
         25    1    1    2    0    0 -0.11581112367E+02  0.15608798045E+02  0.14949707447E+04  0.14999050918E+04  0.12000000000E+03 0.  0.
<mgrwt>
<rscale>  0 0.33479133E+03</rscale>
<asrwt>0</asrwt>
<pdfrwt beam="1">  1        2 0.27304071E+00 0.33479133E+03</pdfrwt>
<pdfrwt beam="2">  1       -2 0.24290379E-02 0.33479133E+03</pdfrwt>
<totfact> 0.56650732E+03</totfact>
</mgrwt>
</event>
<event>
 4    1  0.1866622E-004  0.3396688E+03  0.7818608E-02  0.1066937E+00
         -1   -1    0    0    0  501 -0.00000000000E+00  0.00000000000E+00  0.86943984001E+02  0.86943984001E+02  0.00000000000E+00 0. -1.
          1   -1    0    0  501    0  0.00000000000E+00 -0.00000000000E+00 -0.33175066783E+03  0.33175066783E+03  0.00000000000E+00 0. -1.
         25    1    1    2    0    0 -0.23010530671E+02 -0.87185548535E+02 -0.24464063075E+02  0.15208318374E+03  0.12000000000E+03 0.  0.
         25    1    1    2    0    0  0.23010530671E+02  0.87185548535E+02 -0.22034262075E+03  0.26661146809E+03  0.12000000000E+03 0.  0.
<mgrwt>
<rscale>  0 0.33966881E+03</rscale>
<asrwt>0</asrwt>
<pdfrwt beam="1">  1        1 0.51038564E-01 0.33966881E+03</pdfrwt>
<pdfrwt beam="2">  1       -1 0.13375998E-01 0.33966881E+03</pdfrwt>
<totfact> 0.29804259E+03</totfact>
</mgrwt>
</event>
<event>
 4    1  0.1866622E-004  0.3099117E+03  0.7818608E-02  0.1080388E+00
          1   -1    0    0  501    0  0.00000000000E+00  0.00000000000E+00  0.15714510420E+04  0.15714510420E+04  0.00000000000E+00 0.  1.
         -1   -1    0    0    0  501 -0.00000000000E+00 -0.00000000000E+00 -0.15279705410E+02  0.15279705410E+02  0.00000000000E+00 0.  1.
         25    1    1    2    0    0 -0.15092882003E+02  0.31391342227E+01  0.12737868063E+04  0.12795196275E+04  0.12000000000E+03 0.  0.
         25    1    1    2    0    0  0.15092882003E+02 -0.31391342227E+01  0.28238453031E+03  0.30721111993E+03  0.12000000000E+03 0.  0.
<mgrwt>
<rscale>  0 0.30991166E+03</rscale>
<asrwt>0</asrwt>
<pdfrwt beam="1">  1        1 0.24176157E+00 0.30991166E+03</pdfrwt>
<pdfrwt beam="2">  1       -1 0.23507251E-02 0.30991166E+03</pdfrwt>
<totfact> 0.34733554E+03</totfact>
</mgrwt>
</event>
<event>
 4    1  0.1866622E-004  0.3004654E+03  0.7818608E-02  0.1085008E+00
          2   -1    0    0  501    0  0.00000000000E+00  0.00000000000E+00  0.16910299971E+04  0.16910299971E+04  0.00000000000E+00 0.  1.
         -2   -1    0    0    0  501 -0.00000000000E+00 -0.00000000000E+00 -0.13346816309E+02  0.13346816309E+02  0.00000000000E+00 0.  1.
         25    1    1    2    0    0  0.13990012583E+02 -0.72834504415E+01  0.33398990830E+03  0.35524361775E+03  0.12000000000E+03 0.  0.
         25    1    1    2    0    0 -0.13990012583E+02  0.72834504415E+01  0.13436932725E+04  0.13491331956E+04  0.12000000000E+03 0.  0.
<mgrwt>
<rscale>  0 0.30046542E+03</rscale>
<asrwt>0</asrwt>
<pdfrwt beam="1">  1        2 0.26015829E+00 0.30046542E+03</pdfrwt>
<pdfrwt beam="2">  1       -2 0.20533577E-02 0.30046542E+03</pdfrwt>
<totfact> 0.80423783E+03</totfact>
</mgrwt>
</event>
