<event>
 5    1  0.1140254E+001  0.2739479E+03  0.7818608E-02  0.1099041E+00
         -1   -1    0    0    0  501 -0.00000000000E+00  0.00000000000E+00  0.16354002680E+02  0.16354002680E+02  0.00000000000E+00 0. -1.
          1   -1    0    0  501    0  0.00000000000E+00 -0.00000000000E+00 -0.11472333205E+04  0.11472333205E+04  0.00000000000E+00 0. -1.
         35    2    1    2    0    0  0.00000000000E+00  0.00000000000E+00 -0.11308793178E+04  0.11635873231E+04  0.27394785487E+03 0.  0.
         25    1    3    3    0    0  0.36397590944E+02 -0.53247486372E+02 -0.50510493899E+03  0.52315492813E+03  0.12000000000E+03 0.  0.
         25    1    3    3    0    0 -0.36397590944E+02  0.53247486372E+02 -0.62577437879E+03  0.64043239501E+03  0.12000000000E+03 0.  0.
<mgrwt>
<rscale>  0 0.27394785E+03</rscale>
<asrwt>0</asrwt>
<pdfrwt beam="1">  1        1 0.17649749E+00 0.27394785E+03</pdfrwt>
<pdfrwt beam="2">  1       -1 0.25159996E-02 0.27394785E+03</pdfrwt>
<totfact> 0.61023701E+03</totfact>
</mgrwt>
</event>
<event>
 5    1  0.1140254E+001  0.2739502E+03  0.7818608E-02  0.1099040E+00
          1   -1    0    0  501    0  0.00000000000E+00  0.00000000000E+00  0.11048250035E+03  0.11048250035E+03  0.00000000000E+00 0.  1.
         -1   -1    0    0    0  501 -0.00000000000E+00 -0.00000000000E+00 -0.16982033830E+03  0.16982033830E+03  0.00000000000E+00 0.  1.
         35    2    1    2    0    0  0.00000000000E+00  0.00000000000E+00 -0.59337837945E+02  0.28030283865E+03  0.27395018223E+03 0.  0.
         25    1    3    3    0    0 -0.63895894451E+01  0.18930923764E+01 -0.96902369381E+02  0.15438419558E+03  0.12000000000E+03 0.  0.
         25    1    3    3    0    0  0.63895894451E+01 -0.18930923764E+01  0.37564531436E+02  0.12591864308E+03  0.12000000000E+03 0.  0.
<mgrwt>
<rscale>  0 0.27395018E+03</rscale>
<asrwt>0</asrwt>
<pdfrwt beam="1">  1        1 0.16997308E-01 0.27395018E+03</pdfrwt>
<pdfrwt beam="2">  1       -1 0.26126206E-01 0.27395018E+03</pdfrwt>
<totfact> 0.40601062E+03</totfact>
</mgrwt>
</event>
<event>
 5    1  0.1140254E+001  0.2761856E+03  0.7818608E-02  0.1097791E+00
         -2   -1    0    0    0  501 -0.00000000000E+00  0.00000000000E+00  0.16739600649E+02  0.16739600649E+02  0.00000000000E+00 0. -1.
          2   -1    0    0  501    0  0.00000000000E+00 -0.00000000000E+00 -0.11391921063E+04  0.11391921063E+04  0.00000000000E+00 0. -1.
         35    2    1    2    0    0  0.00000000000E+00  0.00000000000E+00 -0.11224525056E+04  0.11559317069E+04  0.27618559645E+03 0.  0.
         25    1    3    3    0    0  0.54678590618E+01  0.66403217454E+02 -0.49770600211E+03  0.51628533710E+03  0.12000000000E+03 0.  0.
         25    1    3    3    0    0 -0.54678590618E+01 -0.66403217454E+02 -0.62474650351E+03  0.63964636982E+03  0.12000000000E+03 0.  0.
<mgrwt>
<rscale>  0 0.27618560E+03</rscale>
<asrwt>0</asrwt>
<pdfrwt beam="1">  1        2 0.17526034E+00 0.27618560E+03</pdfrwt>
<pdfrwt beam="2">  1       -2 0.25753230E-02 0.27618560E+03</pdfrwt>
<totfact> 0.11503281E+04</totfact>
</mgrwt>
</event>
<event>
 5    1  0.1140254E+001  0.2747900E+03  0.7818608E-02  0.1098569E+00
          2   -1    0    0  501    0  0.00000000000E+00  0.00000000000E+00  0.22176851020E+02  0.22176851020E+02  0.00000000000E+00 0. -1.
         -2   -1    0    0    0  501 -0.00000000000E+00 -0.00000000000E+00 -0.85122061892E+03  0.85122061892E+03  0.00000000000E+00 0. -1.
         35    2    1    2    0    0  0.00000000000E+00  0.00000000000E+00 -0.82904376790E+03  0.87339746994E+03  0.27479004968E+03 0.  0.
         25    1    3    3    0    0 -0.36061541965E+02 -0.52720113219E+02 -0.35114869639E+03  0.37654382497E+03  0.12000000000E+03 0.  0.
         25    1    3    3    0    0  0.36061541965E+02  0.52720113219E+02 -0.47789507151E+03  0.49685364497E+03  0.12000000000E+03 0.  0.
<mgrwt>
<rscale>  0 0.27479005E+03</rscale>
<asrwt>0</asrwt>
<pdfrwt beam="1">  1        2 0.34118235E-02 0.27479005E+03</pdfrwt>
<pdfrwt beam="2">  1       -2 0.13095701E+00 0.27479005E+03</pdfrwt>
<totfact> 0.11769615E+03</totfact>
</mgrwt>
</event>
<event>
 5    1  0.1140254E+001  0.2751571E+03  0.7818608E-02  0.1098364E+00
         -2   -1    0    0    0  501 -0.00000000000E+00  0.00000000000E+00  0.42809769173E+01  0.42809769173E+01  0.00000000000E+00 0.  1.
          2   -1    0    0  501    0  0.00000000000E+00 -0.00000000000E+00 -0.44213872264E+04  0.44213872264E+04  0.00000000000E+00 0.  1.
         35    2    1    2    0    0  0.00000000000E+00  0.00000000000E+00 -0.44171062495E+04  0.44256682033E+04  0.27515709447E+03 0.  0.
         25    1    3    3    0    0 -0.58219773949E+02 -0.26188890791E+02 -0.25506795269E+04  0.25542986217E+04  0.12000000000E+03 0.  0.
         25    1    3    3    0    0  0.58219773949E+02  0.26188890791E+02 -0.18664267226E+04  0.18713695816E+04  0.12000000000E+03 0.  0.
<mgrwt>
<rscale>  0 0.27515709E+03</rscale>
<asrwt>0</asrwt>
<pdfrwt beam="1">  1        2 0.68021560E+00 0.27515709E+03</pdfrwt>
<pdfrwt beam="2">  1       -2 0.65860972E-03 0.27515709E+03</pdfrwt>
<totfact> 0.78206226E+02</totfact>
</mgrwt>
</event>
<event>
 5    1  0.1140254E+001  0.2748142E+03  0.7818608E-02  0.1098556E+00
         -1   -1    0    0    0  501 -0.00000000000E+00  0.00000000000E+00  0.79498815575E+03  0.79498815575E+03  0.00000000000E+00 0. -1.
          1   -1    0    0  501    0  0.00000000000E+00 -0.00000000000E+00 -0.23749675622E+02  0.23749675622E+02  0.00000000000E+00 0. -1.
         35    2    1    2    0    0  0.00000000000E+00  0.00000000000E+00  0.77123848012E+03  0.81873783137E+03  0.27481419776E+03 0.  0.
         25    1    3    3    0    0  0.59105451610E+02  0.45646849868E+01  0.47823580322E+03  0.49661229771E+03  0.12000000000E+03 0.  0.
         25    1    3    3    0    0 -0.59105451610E+02 -0.45646849868E+01  0.29300267691E+03  0.32212553366E+03  0.12000000000E+03 0.  0.
<mgrwt>
<rscale>  0 0.27481420E+03</rscale>
<asrwt>0</asrwt>
<pdfrwt beam="1">  1        1 0.36537969E-02 0.27481420E+03</pdfrwt>
<pdfrwt beam="2">  1       -1 0.12230585E+00 0.27481420E+03</pdfrwt>
<totfact> 0.16302590E+03</totfact>
</mgrwt>
</event>
<event>
 5    1  0.1140254E+001  0.2745994E+03  0.7818608E-02  0.1098676E+00
         -1   -1    0    0    0  501 -0.00000000000E+00  0.00000000000E+00  0.13927777045E+03  0.13927777045E+03  0.00000000000E+00 0.  1.
          1   -1    0    0  501    0  0.00000000000E+00 -0.00000000000E+00 -0.13534975107E+03  0.13534975107E+03  0.00000000000E+00 0.  1.
         35    2    1    2    0    0  0.00000000000E+00  0.00000000000E+00  0.39280193873E+01  0.27462752152E+03  0.27459942869E+03 0.  0.
         25    1    3    3    0    0  0.17011684198E+02 -0.64450927192E+02 -0.84557382456E+00  0.13727357506E+03  0.12000000000E+03 0.  0.
         25    1    3    3    0    0 -0.17011684198E+02  0.64450927192E+02  0.47735932119E+01  0.13735394646E+03  0.12000000000E+03 0.  0.
<mgrwt>
<rscale>  0 0.27459943E+03</rscale>
<asrwt>0</asrwt>
<pdfrwt beam="1">  1        1 0.20823039E-01 0.27459943E+03</pdfrwt>
<pdfrwt beam="2">  1       -1 0.21427349E-01 0.27459943E+03</pdfrwt>
<totfact> 0.43341505E+03</totfact>
</mgrwt>
</event>
<event>
 5    1  0.1140254E+001  0.2753465E+03  0.7818608E-02  0.1098258E+00
          1   -1    0    0  501    0  0.00000000000E+00  0.00000000000E+00  0.71957639479E+02  0.71957639479E+02  0.00000000000E+00 0. -1.
         -1   -1    0    0    0  501 -0.00000000000E+00 -0.00000000000E+00 -0.26340386506E+03  0.26340386506E+03  0.00000000000E+00 0. -1.
         35    2    1    2    0    0  0.00000000000E+00  0.00000000000E+00 -0.19144622558E+03  0.33536150454E+03  0.27534647526E+03 0.  0.
         25    1    3    3    0    0 -0.56674660247E+02 -0.30474968987E+02 -0.12048040122E+03  0.18181382766E+03  0.12000000000E+03 0.  0.
         25    1    3    3    0    0  0.56674660247E+02  0.30474968987E+02 -0.70965824358E+02  0.15354767688E+03  0.12000000000E+03 0.  0.
<mgrwt>
<rscale>  0 0.27534648E+03</rscale>
<asrwt>0</asrwt>
<pdfrwt beam="1">  1        1 0.11070406E-01 0.27534648E+03</pdfrwt>
<pdfrwt beam="2">  1       -1 0.40523671E-01 0.27534648E+03</pdfrwt>
<totfact> 0.33580351E+03</totfact>
</mgrwt>
</event>
<event>
 5    1  0.1140254E+001  0.2732569E+03  0.7818608E-02  0.1099430E+00
         -1   -1    0    0    0  501 -0.00000000000E+00  0.00000000000E+00  0.15390316325E+02  0.15390316325E+02  0.00000000000E+00 0.  1.
          1   -1    0    0  501    0  0.00000000000E+00 -0.00000000000E+00 -0.12129268634E+04  0.12129268634E+04  0.00000000000E+00 0.  1.
         35    2    1    2    0    0  0.00000000000E+00  0.00000000000E+00 -0.11975365471E+04  0.12283171797E+04  0.27325686163E+03 0.  0.
         25    1    3    3    0    0  0.35041133894E+02  0.48346978178E+02 -0.47966788314E+03  0.49804275868E+03  0.12000000000E+03 0.  0.
         25    1    3    3    0    0 -0.35041133894E+02 -0.48346978178E+02 -0.71786866396E+03  0.73027442107E+03  0.12000000000E+03 0.  0.
<mgrwt>
<rscale>  0 0.27325686E+03</rscale>
<asrwt>0</asrwt>
<pdfrwt beam="1">  1        1 0.18660419E+00 0.27325686E+03</pdfrwt>
<pdfrwt beam="2">  1       -1 0.23677402E-02 0.27325686E+03</pdfrwt>
<totfact> 0.59978084E+03</totfact>
</mgrwt>
</event>
<event>
 5    1  0.1140254E+001  0.2752456E+03  0.7818608E-02  0.1098314E+00
          4   -1    0    0  501    0  0.00000000000E+00  0.00000000000E+00  0.30126590287E+02  0.30126590287E+02  0.00000000000E+00 0.  1.
         -4   -1    0    0    0  501 -0.00000000000E+00 -0.00000000000E+00 -0.62868146596E+03  0.62868146596E+03  0.00000000000E+00 0.  1.
         35    2    1    2    0    0  0.00000000000E+00  0.00000000000E+00 -0.59855487567E+03  0.65880805625E+03  0.27524555543E+03 0.  0.
         25    1    3    3    0    0 -0.28507893043E+02 -0.38649542326E+02 -0.18615841774E+03  0.22663063249E+03  0.12000000000E+03 0.  0.
         25    1    3    3    0    0  0.28507893043E+02  0.38649542326E+02 -0.41239645794E+03  0.43217742376E+03  0.12000000000E+03 0.  0.
<mgrwt>
<rscale>  0 0.27524556E+03</rscale>
<asrwt>0</asrwt>
<pdfrwt beam="1">  1        4 0.46348604E-02 0.27524556E+03</pdfrwt>
<pdfrwt beam="2">  1       -4 0.96720218E-01 0.27524556E+03</pdfrwt>
<totfact> 0.46652959E+02</totfact>
</mgrwt>
</event>
<event>
 5    1  0.1140254E+001  0.2747667E+03  0.7818608E-02  0.1098582E+00
         -1   -1    0    0    0  501 -0.00000000000E+00  0.00000000000E+00  0.66781096358E+02  0.66781096358E+02  0.00000000000E+00 0. -1.
          1   -1    0    0  501    0  0.00000000000E+00 -0.00000000000E+00 -0.28262768382E+03  0.28262768382E+03  0.00000000000E+00 0. -1.
         35    2    1    2    0    0  0.00000000000E+00  0.00000000000E+00 -0.21584658746E+03  0.34940878018E+03  0.27476671259E+03 0.  0.
         25    1    3    3    0    0 -0.39091173661E+02 -0.22251027816E+02 -0.44967214352E+02  0.13581339574E+03  0.12000000000E+03 0.  0.
         25    1    3    3    0    0  0.39091173661E+02  0.22251027816E+02 -0.17087937311E+03  0.21359538443E+03  0.12000000000E+03 0.  0.
<mgrwt>
<rscale>  0 0.27476671E+03</rscale>
<asrwt>0</asrwt>
<pdfrwt beam="1">  1        1 0.43481182E-01 0.27476671E+03</pdfrwt>
<pdfrwt beam="2">  1       -1 0.10274015E-01 0.27476671E+03</pdfrwt>
<totfact> 0.54861676E+03</totfact>
</mgrwt>
</event>
<event>
 5    1  0.1140254E+001  0.2762890E+03  0.7818608E-02  0.1097733E+00
         -2   -1    0    0    0  501 -0.00000000000E+00  0.00000000000E+00  0.21374193122E+03  0.21374193122E+03  0.00000000000E+00 0. -1.
          2   -1    0    0  501    0  0.00000000000E+00 -0.00000000000E+00 -0.89284811488E+02  0.89284811488E+02  0.00000000000E+00 0. -1.
         35    2    1    2    0    0  0.00000000000E+00  0.00000000000E+00  0.12445711973E+03  0.30302674270E+03  0.27628903732E+03 0.  0.
         25    1    3    3    0    0 -0.62319633989E+02  0.27567410760E+02  0.69183278795E+02  0.15436976706E+03  0.12000000000E+03 0.  0.
         25    1    3    3    0    0  0.62319633989E+02 -0.27567410760E+02  0.55273840932E+02  0.14865697565E+03  0.12000000000E+03 0.  0.
<mgrwt>
<rscale>  0 0.27628904E+03</rscale>
<asrwt>0</asrwt>
<pdfrwt beam="1">  1        2 0.13736125E-01 0.27628904E+03</pdfrwt>
<pdfrwt beam="2">  1       -2 0.32883374E-01 0.27628904E+03</pdfrwt>
<totfact> 0.37218208E+03</totfact>
</mgrwt>
</event>
<event>
 5    1  0.1140254E+001  0.2687775E+03  0.7818608E-02  0.1101981E+00
         -2   -1    0    0    0  501 -0.00000000000E+00  0.00000000000E+00  0.18551229502E+02  0.18551229502E+02  0.00000000000E+00 0. -1.
          2   -1    0    0  501    0  0.00000000000E+00 -0.00000000000E+00 -0.97353882702E+03  0.97353882702E+03  0.00000000000E+00 0. -1.
         35    2    1    2    0    0  0.00000000000E+00  0.00000000000E+00 -0.95498759752E+03  0.99209005652E+03  0.26877754526E+03 0.  0.
         25    1    3    3    0    0  0.29418850159E+02 -0.11635299411E+02 -0.66784585019E+03  0.67927824090E+03  0.12000000000E+03 0.  0.
         25    1    3    3    0    0 -0.29418850159E+02  0.11635299411E+02 -0.28714174733E+03  0.31281181563E+03  0.12000000000E+03 0.  0.
<mgrwt>
<rscale>  0 0.26877755E+03</rscale>
<asrwt>0</asrwt>
<pdfrwt beam="1">  1        2 0.14977522E+00 0.26877755E+03</pdfrwt>
<pdfrwt beam="2">  1       -2 0.28540349E-02 0.26877755E+03</pdfrwt>
<totfact> 0.12397741E+04</totfact>
</mgrwt>
</event>
<event>
 5    1  0.1140254E+001  0.2687428E+03  0.7818608E-02  0.1102001E+00
          1   -1    0    0  501    0  0.00000000000E+00  0.00000000000E+00  0.72997439093E+03  0.72997439093E+03  0.00000000000E+00 0. -1.
         -1   -1    0    0    0  501 -0.00000000000E+00 -0.00000000000E+00 -0.24734659050E+02  0.24734659050E+02  0.00000000000E+00 0. -1.
         35    2    1    2    0    0  0.00000000000E+00  0.00000000000E+00  0.70523973188E+03  0.75470904998E+03  0.26874275934E+03 0.  0.
         25    1    3    3    0    0  0.32200418624E+01 -0.56953889431E+02  0.40889473393E+03  0.42994071409E+03  0.12000000000E+03 0.  0.
         25    1    3    3    0    0 -0.32200418624E+01  0.56953889431E+02  0.29634499794E+03  0.32476833589E+03  0.12000000000E+03 0.  0.
<mgrwt>
<rscale>  0 0.26874276E+03</rscale>
<asrwt>0</asrwt>
<pdfrwt beam="1">  1        1 0.11230374E+00 0.26874276E+03</pdfrwt>
<pdfrwt beam="2">  1       -1 0.38053327E-02 0.26874276E+03</pdfrwt>
<totfact> 0.69940783E+03</totfact>
</mgrwt>
</event>
<event>
 5    1  0.1140254E+001  0.2716237E+03  0.7818608E-02  0.1100354E+00
          1   -1    0    0  501    0  0.00000000000E+00  0.00000000000E+00  0.27965369582E+04  0.27965369582E+04  0.00000000000E+00 0.  1.
         -1   -1    0    0    0  501 -0.00000000000E+00 -0.00000000000E+00 -0.65956055267E+01  0.65956055267E+01  0.00000000000E+00 0.  1.
         35    2    1    2    0    0  0.00000000000E+00  0.00000000000E+00  0.27899413527E+04  0.28031325637E+04  0.27162367067E+03 0.  0.
         25    1    3    3    0    0 -0.46900378284E+02 -0.41338673049E+02  0.15154634439E+04  0.15214920247E+04  0.12000000000E+03 0.  0.
         25    1    3    3    0    0  0.46900378284E+02  0.41338673049E+02  0.12744779088E+04  0.12816405390E+04  0.12000000000E+03 0.  0.
<mgrwt>
<rscale>  0 0.27162367E+03</rscale>
<asrwt>0</asrwt>
<pdfrwt beam="1">  1        1 0.43023551E+00 0.27162367E+03</pdfrwt>
<pdfrwt beam="2">  1       -1 0.10147108E-02 0.27162367E+03</pdfrwt>
<totfact> 0.18436567E+03</totfact>
</mgrwt>
</event>
<event>
 5    1  0.1140254E+001  0.2772254E+03  0.7818608E-02  0.1097214E+00
          1   -1    0    0  501    0  0.00000000000E+00  0.00000000000E+00  0.18183550143E+04  0.18183550143E+04  0.00000000000E+00 0. -1.
         -1   -1    0    0    0  501 -0.00000000000E+00 -0.00000000000E+00 -0.10566410510E+02  0.10566410510E+02  0.00000000000E+00 0. -1.
         35    2    1    2    0    0  0.00000000000E+00  0.00000000000E+00  0.18077886038E+04  0.18289214249E+04  0.27722543559E+03 0.  0.
         25    1    3    3    0    0 -0.11117362408E+02 -0.64272666908E+02  0.10598619404E+04  0.10686261761E+04  0.12000000000E+03 0.  0.
         25    1    3    3    0    0  0.11117362408E+02  0.64272666908E+02  0.74792666344E+03  0.76029524879E+03  0.12000000000E+03 0.  0.
<mgrwt>
<rscale>  0 0.27722544E+03</rscale>
<asrwt>0</asrwt>
<pdfrwt beam="1">  1        1 0.27974668E+00 0.27722544E+03</pdfrwt>
<pdfrwt beam="2">  1       -1 0.16256031E-02 0.27722544E+03</pdfrwt>
<totfact> 0.41094779E+03</totfact>
</mgrwt>
</event>
<event>
 5    1  0.1140254E+001  0.2754124E+03  0.7818608E-02  0.1098221E+00
          2   -1    0    0  501    0  0.00000000000E+00  0.00000000000E+00  0.74519454427E+03  0.74519454427E+03  0.00000000000E+00 0.  1.
         -2   -1    0    0    0  501 -0.00000000000E+00 -0.00000000000E+00 -0.25447049492E+02  0.25447049492E+02  0.00000000000E+00 0.  1.
         35    2    1    2    0    0  0.00000000000E+00  0.00000000000E+00  0.71974749477E+03  0.77064159376E+03  0.27541243581E+03 0.  0.
         25    1    3    3    0    0 -0.14450572989E+02  0.63602023405E+02  0.31068970159E+03  0.33938492470E+03  0.12000000000E+03 0.  0.
         25    1    3    3    0    0  0.14450572989E+02 -0.63602023405E+02  0.40905779319E+03  0.43125666906E+03  0.12000000000E+03 0.  0.
<mgrwt>
<rscale>  0 0.27541244E+03</rscale>
<asrwt>0</asrwt>
<pdfrwt beam="1">  1        2 0.11464530E+00 0.27541244E+03</pdfrwt>
<pdfrwt beam="2">  1       -2 0.39149313E-02 0.27541244E+03</pdfrwt>
<totfact> 0.10979946E+04</totfact>
</mgrwt>
</event>
<event>
 5    1  0.1140254E+001  0.2747565E+03  0.7818608E-02  0.1098588E+00
          1   -1    0    0  501    0  0.00000000000E+00  0.00000000000E+00  0.83689916976E+03  0.83689916976E+03  0.00000000000E+00 0. -1.
         -1   -1    0    0    0  501 -0.00000000000E+00 -0.00000000000E+00 -0.22550850315E+02  0.22550850315E+02  0.00000000000E+00 0. -1.
         35    2    1    2    0    0  0.00000000000E+00  0.00000000000E+00  0.81434831944E+03  0.85945002007E+03  0.27475653154E+03 0.  0.
         25    1    3    3    0    0  0.48379561104E+02 -0.37529750128E+02  0.32302320711E+03  0.34999008044E+03  0.12000000000E+03 0.  0.
         25    1    3    3    0    0 -0.48379561104E+02  0.37529750128E+02  0.49132511233E+03  0.50945993963E+03  0.12000000000E+03 0.  0.
<mgrwt>
<rscale>  0 0.27475653E+03</rscale>
<asrwt>0</asrwt>
<pdfrwt beam="1">  1        1 0.12875369E+00 0.27475653E+03</pdfrwt>
<pdfrwt beam="2">  1       -1 0.34693622E-02 0.27475653E+03</pdfrwt>
<totfact> 0.65162516E+03</totfact>
</mgrwt>
</event>
<event>
 5    1  0.1140254E+001  0.2753561E+03  0.7818608E-02  0.1098253E+00
          2   -1    0    0  501    0  0.00000000000E+00  0.00000000000E+00  0.17899034422E+03  0.17899034422E+03  0.00000000000E+00 0.  1.
         -2   -1    0    0    0  501 -0.00000000000E+00 -0.00000000000E+00 -0.10590094422E+03  0.10590094422E+03  0.00000000000E+00 0.  1.
         35    2    1    2    0    0  0.00000000000E+00  0.00000000000E+00  0.73089400004E+02  0.28489128844E+03  0.27535610731E+03 0.  0.
         25    1    3    3    0    0  0.25025566928E+02  0.91139672189E+01  0.10070754649E+03  0.15890674409E+03  0.12000000000E+03 0.  0.
         25    1    3    3    0    0 -0.25025566928E+02 -0.91139672189E+01 -0.27618146484E+02  0.12598454434E+03  0.12000000000E+03 0.  0.
<mgrwt>
<rscale>  0 0.27535611E+03</rscale>
<asrwt>0</asrwt>
<pdfrwt beam="1">  1        2 0.27536976E-01 0.27535611E+03</pdfrwt>
<pdfrwt beam="2">  1       -2 0.16292453E-01 0.27535611E+03</pdfrwt>
<totfact> 0.57094308E+03</totfact>
</mgrwt>
</event>
<event>
 5    1  0.1140254E+001  0.2729997E+03  0.7818608E-02  0.1099575E+00
          1   -1    0    0  501    0  0.00000000000E+00  0.00000000000E+00  0.55050770092E+03  0.55050770092E+03  0.00000000000E+00 0.  1.
         -1   -1    0    0    0  501 -0.00000000000E+00 -0.00000000000E+00 -0.33845489345E+02  0.33845489345E+02  0.00000000000E+00 0.  1.
         35    2    1    2    0    0  0.00000000000E+00  0.00000000000E+00  0.51666221158E+03  0.58435319027E+03  0.27299965221E+03 0.  0.
         25    1    3    3    0    0 -0.37655393588E+02  0.51739322570E+02  0.28341381634E+03  0.31435374574E+03  0.12000000000E+03 0.  0.
         25    1    3    3    0    0  0.37655393588E+02 -0.51739322570E+02  0.23324839523E+03  0.26999944453E+03  0.12000000000E+03 0.  0.
<mgrwt>
<rscale>  0 0.27299965E+03</rscale>
<asrwt>0</asrwt>
<pdfrwt beam="1">  1        1 0.84693485E-01 0.27299965E+03</pdfrwt>
<pdfrwt beam="2">  1       -1 0.52069988E-02 0.27299965E+03</pdfrwt>
<totfact> 0.65314193E+03</totfact>
</mgrwt>
</event>
<event>
 5    1  0.1140254E+001  0.2776329E+03  0.7818608E-02  0.1096989E+00
         -1   -1    0    0    0  501 -0.00000000000E+00  0.00000000000E+00  0.57064408638E+02  0.57064408638E+02  0.00000000000E+00 0.  1.
          1   -1    0    0  501    0  0.00000000000E+00 -0.00000000000E+00 -0.33768861945E+03  0.33768861945E+03  0.00000000000E+00 0.  1.
         35    2    1    2    0    0  0.00000000000E+00  0.00000000000E+00 -0.28062421081E+03  0.39475302809E+03  0.27763286097E+03 0.  0.
         25    1    3    3    0    0  0.22933600320E+02  0.53203976068E+02 -0.19562543285E+03  0.23669795747E+03  0.12000000000E+03 0.  0.
         25    1    3    3    0    0 -0.22933600320E+02 -0.53203976068E+02 -0.84998777964E+02  0.15805507062E+03  0.12000000000E+03 0.  0.
<mgrwt>
<rscale>  0 0.27763286E+03</rscale>
<asrwt>0</asrwt>
<pdfrwt beam="1">  1        1 0.51952095E-01 0.27763286E+03</pdfrwt>
<pdfrwt beam="2">  1       -1 0.87791398E-02 0.27763286E+03</pdfrwt>
<totfact> 0.55884716E+03</totfact>
</mgrwt>
</event>
<event>
 5    1  0.1140254E+001  0.2763596E+03  0.7818608E-02  0.1097694E+00
          2   -1    0    0  501    0  0.00000000000E+00  0.00000000000E+00  0.93704097943E+03  0.93704097943E+03  0.00000000000E+00 0.  1.
         -2   -1    0    0    0  501 -0.00000000000E+00 -0.00000000000E+00 -0.20376544415E+02  0.20376544415E+02  0.00000000000E+00 0.  1.
         35    2    1    2    0    0  0.00000000000E+00  0.00000000000E+00  0.91666443502E+03  0.95741752385E+03  0.27635960006E+03 0.  0.
         25    1    3    3    0    0 -0.46712569372E+02  0.35844456373E+02  0.57967334517E+03  0.59488492693E+03  0.12000000000E+03 0.  0.
         25    1    3    3    0    0  0.46712569372E+02 -0.35844456373E+02  0.33699108985E+03  0.36253259692E+03  0.12000000000E+03 0.  0.
<mgrwt>
<rscale>  0 0.27635960E+03</rscale>
<asrwt>0</asrwt>
<pdfrwt beam="1">  1        2 0.14416012E+00 0.27635960E+03</pdfrwt>
<pdfrwt beam="2">  1       -2 0.31348537E-02 0.27635960E+03</pdfrwt>
<totfact> 0.11375095E+04</totfact>
</mgrwt>
</event>
<event>
 5    1  0.1140254E+001  0.2764531E+03  0.7818608E-02  0.1097642E+00
         -1   -1    0    0    0  501 -0.00000000000E+00  0.00000000000E+00  0.57984369910E+03  0.57984369910E+03  0.00000000000E+00 0. -1.
          1   -1    0    0  501    0  0.00000000000E+00 -0.00000000000E+00 -0.32951258985E+02  0.32951258985E+02  0.00000000000E+00 0. -1.
         35    2    1    2    0    0  0.00000000000E+00  0.00000000000E+00  0.54689244011E+03  0.61279495808E+03  0.27645310561E+03 0.  0.
         25    1    3    3    0    0 -0.57703897096E+02 -0.36120669058E+02  0.25461952742E+03  0.28959548721E+03  0.12000000000E+03 0.  0.
         25    1    3    3    0    0  0.57703897096E+02  0.36120669058E+02  0.29227291270E+03  0.32319947087E+03  0.12000000000E+03 0.  0.
<mgrwt>
<rscale>  0 0.27645311E+03</rscale>
<asrwt>0</asrwt>
<pdfrwt beam="1">  1        1 0.50694249E-02 0.27645311E+03</pdfrwt>
<pdfrwt beam="2">  1       -1 0.89206715E-01 0.27645311E+03</pdfrwt>
<totfact> 0.21119990E+03</totfact>
</mgrwt>
</event>
<event>
 5    1  0.1140254E+001  0.2751532E+03  0.7818608E-02  0.1098366E+00
          1   -1    0    0  501    0  0.00000000000E+00  0.00000000000E+00  0.64739071279E+03  0.64739071279E+03  0.00000000000E+00 0.  1.
         -1   -1    0    0    0  501 -0.00000000000E+00 -0.00000000000E+00 -0.29236315986E+02  0.29236315986E+02  0.00000000000E+00 0.  1.
         35    2    1    2    0    0  0.00000000000E+00  0.00000000000E+00  0.61815439681E+03  0.67662702878E+03  0.27515318967E+03 0.  0.
         25    1    3    3    0    0 -0.15814848223E+02 -0.42993846996E+02  0.43026676341E+03  0.44903014153E+03  0.12000000000E+03 0.  0.
         25    1    3    3    0    0  0.15814848223E+02  0.42993846996E+02  0.18788763339E+03  0.22759688725E+03  0.12000000000E+03 0.  0.
<mgrwt>
<rscale>  0 0.27515319E+03</rscale>
<asrwt>0</asrwt>
<pdfrwt beam="1">  1        1 0.99598560E-01 0.27515319E+03</pdfrwt>
<pdfrwt beam="2">  1       -1 0.44978953E-02 0.27515319E+03</pdfrwt>
<totfact> 0.64946957E+03</totfact>
</mgrwt>
</event>
<event>
 5    1  0.1140254E+001  0.2781373E+03  0.7818608E-02  0.1096711E+00
         -1   -1    0    0    0  501 -0.00000000000E+00  0.00000000000E+00  0.48760896969E+02  0.48760896969E+02  0.00000000000E+00 0. -1.
          1   -1    0    0  501    0  0.00000000000E+00 -0.00000000000E+00 -0.39663102430E+03  0.39663102430E+03  0.00000000000E+00 0. -1.
         35    2    1    2    0    0  0.00000000000E+00  0.00000000000E+00 -0.34787012733E+03  0.44539192127E+03  0.27813726475E+03 0.  0.
         25    1    3    3    0    0 -0.56632367056E+02 -0.38486178272E+02 -0.19933905652E+03  0.24253756486E+03  0.12000000000E+03 0.  0.
         25    1    3    3    0    0  0.56632367056E+02  0.38486178272E+02 -0.14853107081E+03  0.20285435641E+03  0.12000000000E+03 0.  0.
<mgrwt>
<rscale>  0 0.27813726E+03</rscale>
<asrwt>0</asrwt>
<pdfrwt beam="1">  1        1 0.61020156E-01 0.27813726E+03</pdfrwt>
<pdfrwt beam="2">  1       -1 0.75016766E-02 0.27813726E+03</pdfrwt>
<totfact> 0.57914379E+03</totfact>
</mgrwt>
</event>
<event>
 5    1  0.1140254E+001  0.2719487E+03  0.7818608E-02  0.1100169E+00
          2   -1    0    0  501    0  0.00000000000E+00  0.00000000000E+00  0.56002685161E+03  0.56002685161E+03  0.00000000000E+00 0.  1.
         -2   -1    0    0    0  501 -0.00000000000E+00 -0.00000000000E+00 -0.33014534671E+02  0.33014534671E+02  0.00000000000E+00 0.  1.
         35    2    1    2    0    0  0.00000000000E+00  0.00000000000E+00  0.52701231694E+03  0.59304138628E+03  0.27194871508E+03 0.  0.
         25    1    3    3    0    0 -0.44182569716E+02  0.43237434608E+02  0.22784299591E+03  0.26482825756E+03  0.12000000000E+03 0.  0.
         25    1    3    3    0    0  0.44182569716E+02 -0.43237434608E+02  0.29916932103E+03  0.32821312872E+03  0.12000000000E+03 0.  0.
<mgrwt>
<rscale>  0 0.27194872E+03</rscale>
<asrwt>0</asrwt>
<pdfrwt beam="1">  1        2 0.86157970E-01 0.27194872E+03</pdfrwt>
<pdfrwt beam="2">  1       -2 0.50791596E-02 0.27194872E+03</pdfrwt>
<totfact> 0.10392119E+04</totfact>
</mgrwt>
</event>
<event>
 5    1  0.1140254E+001  0.2754345E+03  0.7818608E-02  0.1098209E+00
          1   -1    0    0  501    0  0.00000000000E+00  0.00000000000E+00  0.76726517878E+02  0.76726517878E+02  0.00000000000E+00 0. -1.
         -1   -1    0    0    0  501 -0.00000000000E+00 -0.00000000000E+00 -0.24719015153E+03  0.24719015153E+03  0.00000000000E+00 0. -1.
         35    2    1    2    0    0  0.00000000000E+00  0.00000000000E+00 -0.17046363366E+03  0.32391666941E+03  0.27543449008E+03 0.  0.
         25    1    3    3    0    0  0.46148129034E+02 -0.17419471757E+02 -0.13954502971E+03  0.19054107989E+03  0.12000000000E+03 0.  0.
         25    1    3    3    0    0 -0.46148129034E+02  0.17419471757E+02 -0.30918603944E+02  0.13337558952E+03  0.12000000000E+03 0.  0.
<mgrwt>
<rscale>  0 0.27543449E+03</rscale>
<asrwt>0</asrwt>
<pdfrwt beam="1">  1        1 0.11804080E-01 0.27543449E+03</pdfrwt>
<pdfrwt beam="2">  1       -1 0.38029254E-01 0.27543449E+03</pdfrwt>
<totfact> 0.34493478E+03</totfact>
</mgrwt>
</event>
<event>
 5    1  0.1140254E+001  0.2746986E+03  0.7818608E-02  0.1098620E+00
          1   -1    0    0  501    0  0.00000000000E+00  0.00000000000E+00  0.18354260083E+02  0.18354260083E+02  0.00000000000E+00 0. -1.
         -1   -1    0    0    0  501 -0.00000000000E+00 -0.00000000000E+00 -0.10278174617E+04  0.10278174617E+04  0.00000000000E+00 0. -1.
         35    2    1    2    0    0  0.00000000000E+00  0.00000000000E+00 -0.10094632016E+04  0.10461717218E+04  0.27469859126E+03 0.  0.
         25    1    3    3    0    0 -0.35520810522E+02 -0.25446716350E+02 -0.31220530011E+03  0.33731500525E+03  0.12000000000E+03 0.  0.
         25    1    3    3    0    0  0.35520810522E+02  0.25446716350E+02 -0.69725790148E+03  0.70885671650E+03  0.12000000000E+03 0.  0.
<mgrwt>
<rscale>  0 0.27469859E+03</rscale>
<asrwt>0</asrwt>
<pdfrwt beam="1">  1        1 0.28237328E-02 0.27469859E+03</pdfrwt>
<pdfrwt beam="2">  1       -1 0.15812574E+00 0.27469859E+03</pdfrwt>
<totfact> 0.12191704E+03</totfact>
</mgrwt>
</event>
<event>
 5    1  0.1140254E+001  0.2745099E+03  0.7818608E-02  0.1098726E+00
         -1   -1    0    0    0  501 -0.00000000000E+00  0.00000000000E+00  0.46749902746E+02  0.46749902746E+02  0.00000000000E+00 0. -1.
          1   -1    0    0  501    0  0.00000000000E+00 -0.00000000000E+00 -0.40297252818E+03  0.40297252818E+03  0.00000000000E+00 0. -1.
         35    2    1    2    0    0  0.00000000000E+00  0.00000000000E+00 -0.35622262543E+03  0.44972243092E+03  0.27450993790E+03 0.  0.
         25    1    3    3    0    0  0.10622370104E+02  0.33301358816E+02 -0.27103352012E+03  0.29846437689E+03  0.12000000000E+03 0.  0.
         25    1    3    3    0    0 -0.10622370104E+02 -0.33301358816E+02 -0.85189105314E+02  0.15125805403E+03  0.12000000000E+03 0.  0.
<mgrwt>
<rscale>  0 0.27450994E+03</rscale>
<asrwt>0</asrwt>
<pdfrwt beam="1">  1        1 0.61995770E-01 0.27450994E+03</pdfrwt>
<pdfrwt beam="2">  1       -1 0.71922932E-02 0.27450994E+03</pdfrwt>
<totfact> 0.60478351E+03</totfact>
</mgrwt>
</event>
<event>
 5    1  0.1140254E+001  0.2750471E+03  0.7818608E-02  0.1098425E+00
          1   -1    0    0  501    0  0.00000000000E+00  0.00000000000E+00  0.54794600420E+03  0.54794600420E+03  0.00000000000E+00 0.  1.
         -1   -1    0    0    0  501 -0.00000000000E+00 -0.00000000000E+00 -0.34515673803E+02  0.34515673803E+02  0.00000000000E+00 0.  1.
         35    2    1    2    0    0  0.00000000000E+00  0.00000000000E+00  0.51343033040E+03  0.58246167801E+03  0.27504709083E+03 0.  0.
         25    1    3    3    0    0 -0.40760049385E+01 -0.49801793072E+02  0.35179623380E+03  0.37504322754E+03  0.12000000000E+03 0.  0.
         25    1    3    3    0    0  0.40760049385E+01  0.49801793072E+02  0.16163409660E+03  0.20741845047E+03  0.12000000000E+03 0.  0.
<mgrwt>
<rscale>  0 0.27504709E+03</rscale>
<asrwt>0</asrwt>
<pdfrwt beam="1">  1        1 0.84299379E-01 0.27504709E+03</pdfrwt>
<pdfrwt beam="2">  1       -1 0.53101041E-02 0.27504709E+03</pdfrwt>
<totfact> 0.63837348E+03</totfact>
</mgrwt>
</event>
<event>
 5    1  0.1140254E+001  0.2735190E+03  0.7818608E-02  0.1099282E+00
          2   -1    0    0  501    0  0.00000000000E+00  0.00000000000E+00  0.25944260796E+03  0.25944260796E+03  0.00000000000E+00 0.  1.
         -2   -1    0    0    0  501 -0.00000000000E+00 -0.00000000000E+00 -0.72089792049E+02  0.72089792049E+02  0.00000000000E+00 0.  1.
         35    2    1    2    0    0  0.00000000000E+00  0.00000000000E+00  0.18735281591E+03  0.33153240001E+03  0.27351902059E+03 0.  0.
         25    1    3    3    0    0  0.54492435556E+02  0.26127675773E+02  0.62748074657E+02  0.14828823907E+03  0.12000000000E+03 0.  0.
         25    1    3    3    0    0 -0.54492435556E+02 -0.26127675773E+02  0.12460474125E+03  0.18324416093E+03  0.12000000000E+03 0.  0.
<mgrwt>
<rscale>  0 0.27351902E+03</rscale>
<asrwt>0</asrwt>
<pdfrwt beam="1">  1        2 0.39914247E-01 0.27351902E+03</pdfrwt>
<pdfrwt beam="2">  1       -2 0.11090737E-01 0.27351902E+03</pdfrwt>
<totfact> 0.71380079E+03</totfact>
</mgrwt>
</event>
<event>
 5    1  0.1140254E+001  0.2805776E+03  0.7818608E-02  0.1095374E+00
          1   -1    0    0  501    0  0.00000000000E+00  0.00000000000E+00  0.19199618311E+04  0.19199618311E+04  0.00000000000E+00 0.  1.
         -1   -1    0    0    0  501 -0.00000000000E+00 -0.00000000000E+00 -0.10250694509E+02  0.10250694509E+02  0.00000000000E+00 0.  1.
         35    2    1    2    0    0  0.00000000000E+00  0.00000000000E+00  0.19097111366E+04  0.19302125256E+04  0.28057756289E+03 0.  0.
         25    1    3    3    0    0 -0.19684880913E+02 -0.63023915351E+02  0.11636814146E+04  0.11717141047E+04  0.12000000000E+03 0.  0.
         25    1    3    3    0    0  0.19684880913E+02  0.63023915351E+02  0.74602972198E+03  0.75849842091E+03  0.12000000000E+03 0.  0.
<mgrwt>
<rscale>  0 0.28057756E+03</rscale>
<asrwt>0</asrwt>
<pdfrwt beam="1">  1        1 0.29537846E+00 0.28057756E+03</pdfrwt>
<pdfrwt beam="2">  1       -1 0.15770315E-02 0.28057756E+03</pdfrwt>
<totfact> 0.36895631E+03</totfact>
</mgrwt>
</event>
<event>
 5    1  0.1140254E+001  0.2755094E+03  0.7818608E-02  0.1098167E+00
         -2   -1    0    0    0  501 -0.00000000000E+00  0.00000000000E+00  0.86704778696E+01  0.86704778696E+01  0.00000000000E+00 0. -1.
          2   -1    0    0  501    0  0.00000000000E+00 -0.00000000000E+00 -0.21886169739E+04  0.21886169739E+04  0.00000000000E+00 0. -1.
         35    2    1    2    0    0  0.00000000000E+00  0.00000000000E+00 -0.21799464960E+04  0.21972874518E+04  0.27550938305E+03 0.  0.
         25    1    3    3    0    0  0.55540495121E+02 -0.36144231598E+02 -0.11985094061E+04  0.12063233184E+04  0.12000000000E+03 0.  0.
         25    1    3    3    0    0 -0.55540495121E+02  0.36144231598E+02 -0.98143708997E+03  0.99096413338E+03  0.12000000000E+03 0.  0.
<mgrwt>
<rscale>  0 0.27550938E+03</rscale>
<asrwt>0</asrwt>
<pdfrwt beam="1">  1        2 0.33671049E+00 0.27550938E+03</pdfrwt>
<pdfrwt beam="2">  1       -2 0.13339189E-02 0.27550938E+03</pdfrwt>
<totfact> 0.82712575E+03</totfact>
</mgrwt>
</event>
<event>
 5    1  0.1140254E+001  0.2738777E+03  0.7818608E-02  0.1099081E+00
          2   -1    0    0  501    0  0.00000000000E+00  0.00000000000E+00  0.97663673445E+03  0.97663673445E+03  0.00000000000E+00 0. -1.
         -2   -1    0    0    0  501 -0.00000000000E+00 -0.00000000000E+00 -0.19200841956E+02  0.19200841956E+02  0.00000000000E+00 0. -1.
         35    2    1    2    0    0  0.00000000000E+00  0.00000000000E+00  0.95743589249E+03  0.99583757640E+03  0.27387769232E+03 0.  0.
         25    1    3    3    0    0  0.58791989716E+02  0.28907874516E+02  0.45053330983E+03  0.47082101326E+03  0.12000000000E+03 0.  0.
         25    1    3    3    0    0 -0.58791989716E+02 -0.28907874516E+02  0.50690258266E+03  0.52501656314E+03  0.12000000000E+03 0.  0.
<mgrwt>
<rscale>  0 0.27387769E+03</rscale>
<asrwt>0</asrwt>
<pdfrwt beam="1">  1        2 0.15025177E+00 0.27387769E+03</pdfrwt>
<pdfrwt beam="2">  1       -2 0.29539764E-02 0.27387769E+03</pdfrwt>
<totfact> 0.11734887E+04</totfact>
</mgrwt>
</event>
<event>
 5    1  0.1140254E+001  0.2713019E+03  0.7818608E-02  0.1100537E+00
         -2   -1    0    0    0  501 -0.00000000000E+00  0.00000000000E+00  0.22743435355E+02  0.22743435355E+02  0.00000000000E+00 0. -1.
          2   -1    0    0  501    0  0.00000000000E+00 -0.00000000000E+00 -0.80907652852E+03  0.80907652852E+03  0.00000000000E+00 0. -1.
         35    2    1    2    0    0  0.00000000000E+00  0.00000000000E+00 -0.78633309316E+03  0.83181996387E+03  0.27130189622E+03 0.  0.
         25    1    3    3    0    0 -0.34101342938E+02 -0.56400214060E+01 -0.23074016106E+03  0.26236564821E+03  0.12000000000E+03 0.  0.
         25    1    3    3    0    0  0.34101342938E+02  0.56400214060E+01 -0.55559293210E+03  0.56945431567E+03  0.12000000000E+03 0.  0.
<mgrwt>
<rscale>  0 0.27130190E+03</rscale>
<asrwt>0</asrwt>
<pdfrwt beam="1">  1        2 0.12447331E+00 0.27130190E+03</pdfrwt>
<pdfrwt beam="2">  1       -2 0.34989901E-02 0.27130190E+03</pdfrwt>
<totfact> 0.11710117E+04</totfact>
</mgrwt>
</event>
<event>
 5    1  0.1140254E+001  0.2740136E+03  0.7818608E-02  0.1099004E+00
         -2   -1    0    0    0  501 -0.00000000000E+00  0.00000000000E+00  0.72960549749E+02  0.72960549749E+02  0.00000000000E+00 0. -1.
          2   -1    0    0  501    0  0.00000000000E+00 -0.00000000000E+00 -0.25727418808E+03  0.25727418808E+03  0.00000000000E+00 0. -1.
         35    2    1    2    0    0  0.00000000000E+00  0.00000000000E+00 -0.18431363833E+03  0.33023473783E+03  0.27401362155E+03 0.  0.
         25    1    3    3    0    0 -0.19632556763E+01 -0.61662323684E+02 -0.63515944090E+02  0.14913206124E+03  0.12000000000E+03 0.  0.
         25    1    3    3    0    0  0.19632556763E+01  0.61662323684E+02 -0.12079769424E+03  0.18110267659E+03  0.12000000000E+03 0.  0.
<mgrwt>
<rscale>  0 0.27401362E+03</rscale>
<asrwt>0</asrwt>
<pdfrwt beam="1">  1        2 0.39580644E-01 0.27401362E+03</pdfrwt>
<pdfrwt beam="2">  1       -2 0.11224700E-01 0.27401362E+03</pdfrwt>
<totfact> 0.70659610E+03</totfact>
</mgrwt>
</event>
<event>
 5    1  0.1140254E+001  0.2749574E+03  0.7818608E-02  0.1098475E+00
          2   -1    0    0  501    0  0.00000000000E+00  0.00000000000E+00  0.17737058635E+04  0.17737058635E+04  0.00000000000E+00 0.  1.
         -2   -1    0    0    0  501 -0.00000000000E+00 -0.00000000000E+00 -0.10655875489E+02  0.10655875489E+02  0.00000000000E+00 0.  1.
         35    2    1    2    0    0  0.00000000000E+00  0.00000000000E+00  0.17630499880E+04  0.17843617390E+04  0.27495737004E+03 0.  0.
         25    1    3    3    0    0 -0.59682986443E+02  0.29718786865E+02  0.83334279650E+03  0.84457414218E+03  0.12000000000E+03 0.  0.
         25    1    3    3    0    0  0.59682986443E+02 -0.29718786865E+02  0.92970719149E+03  0.93978759679E+03  0.12000000000E+03 0.  0.
<mgrwt>
<rscale>  0 0.27495737E+03</rscale>
<asrwt>0</asrwt>
<pdfrwt beam="1">  1        2 0.27287759E+00 0.27495737E+03</pdfrwt>
<pdfrwt beam="2">  1       -2 0.16393669E-02 0.27495737E+03</pdfrwt>
<totfact> 0.10119005E+04</totfact>
</mgrwt>
</event>
<event>
 5    1  0.1140254E+001  0.2751135E+03  0.7818608E-02  0.1098388E+00
          2   -1    0    0  501    0  0.00000000000E+00  0.00000000000E+00  0.13923020900E+03  0.13923020900E+03  0.00000000000E+00 0.  1.
         -2   -1    0    0    0  501 -0.00000000000E+00 -0.00000000000E+00 -0.13590337224E+03  0.13590337224E+03  0.00000000000E+00 0.  1.
         35    2    1    2    0    0  0.00000000000E+00  0.00000000000E+00  0.33268367557E+01  0.27513358124E+03  0.27511346692E+03 0.  0.
         25    1    3    3    0    0 -0.20929403150E+00  0.31051288042E+02 -0.57986802599E+02  0.13684551717E+03  0.12000000000E+03 0.  0.
         25    1    3    3    0    0  0.20929403150E+00 -0.31051288042E+02  0.61313639355E+02  0.13828806407E+03  0.12000000000E+03 0.  0.
<mgrwt>
<rscale>  0 0.27511347E+03</rscale>
<asrwt>0</asrwt>
<pdfrwt beam="1">  1        2 0.21420032E-01 0.27511347E+03</pdfrwt>
<pdfrwt beam="2">  1       -2 0.20908211E-01 0.27511347E+03</pdfrwt>
<totfact> 0.49597767E+03</totfact>
</mgrwt>
</event>
<event>
 5    1  0.1140254E+001  0.2741013E+03  0.7818608E-02  0.1098955E+00
         -1   -1    0    0    0  501 -0.00000000000E+00  0.00000000000E+00  0.48651658922E+01  0.48651658922E+01  0.00000000000E+00 0.  1.
          1   -1    0    0  501    0  0.00000000000E+00 -0.00000000000E+00 -0.38606868957E+04  0.38606868957E+04  0.00000000000E+00 0.  1.
         35    2    1    2    0    0  0.00000000000E+00  0.00000000000E+00 -0.38558217298E+04  0.38655520616E+04  0.27410131124E+03 0.  0.
         25    1    3    3    0    0  0.40369826007E+02  0.51723178734E+02 -0.20523598774E+04  0.20569117814E+04  0.12000000000E+03 0.  0.
         25    1    3    3    0    0 -0.40369826007E+02 -0.51723178734E+02 -0.18034618524E+04  0.18086402802E+04  0.12000000000E+03 0.  0.
<mgrwt>
<rscale>  0 0.27410131E+03</rscale>
<asrwt>0</asrwt>
<pdfrwt beam="1">  1        1 0.59395063E+00 0.27410131E+03</pdfrwt>
<pdfrwt beam="2">  1       -1 0.74848857E-03 0.27410131E+03</pdfrwt>
<totfact> 0.46787042E+02</totfact>
</mgrwt>
</event>
<event>
 5    1  0.1140254E+001  0.2753646E+03  0.7818608E-02  0.1098248E+00
          1   -1    0    0  501    0  0.00000000000E+00  0.00000000000E+00  0.77899978177E+02  0.77899978177E+02  0.00000000000E+00 0. -1.
         -1   -1    0    0    0  501 -0.00000000000E+00 -0.00000000000E+00 -0.24334294235E+03  0.24334294235E+03  0.00000000000E+00 0. -1.
         35    2    1    2    0    0  0.00000000000E+00  0.00000000000E+00 -0.16544296417E+03  0.32124292053E+03  0.27536455762E+03 0.  0.
         25    1    3    3    0    0 -0.48047353554E+02 -0.43492331946E+02 -0.60701320538E+02  0.14928088102E+03  0.12000000000E+03 0.  0.
         25    1    3    3    0    0  0.48047353554E+02  0.43492331946E+02 -0.10474164363E+03  0.17196203951E+03  0.12000000000E+03 0.  0.
<mgrwt>
<rscale>  0 0.27536456E+03</rscale>
<asrwt>0</asrwt>
<pdfrwt beam="1">  1        1 0.11984612E-01 0.27536456E+03</pdfrwt>
<pdfrwt beam="2">  1       -1 0.37437376E-01 0.27536456E+03</pdfrwt>
<totfact> 0.34748485E+03</totfact>
</mgrwt>
</event>
<event>
 5    1  0.1140254E+001  0.2710562E+03  0.7818608E-02  0.1100677E+00
          2   -1    0    0  501    0  0.00000000000E+00  0.00000000000E+00  0.14677939767E+04  0.14677939767E+04  0.00000000000E+00 0.  1.
         -2   -1    0    0    0  501 -0.00000000000E+00 -0.00000000000E+00 -0.12513927153E+02  0.12513927153E+02  0.00000000000E+00 0.  1.
         35    2    1    2    0    0  0.00000000000E+00  0.00000000000E+00  0.14552800496E+04  0.14803079039E+04  0.27105620745E+03 0.  0.
         25    1    3    3    0    0 -0.16861828510E+02 -0.60448849407E+02  0.69798672900E+03  0.71100201020E+03  0.12000000000E+03 0.  0.
         25    1    3    3    0    0  0.16861828510E+02  0.60448849407E+02  0.75729332056E+03  0.76930589366E+03  0.12000000000E+03 0.  0.
<mgrwt>
<rscale>  0 0.27105621E+03</rscale>
<asrwt>0</asrwt>
<pdfrwt beam="1">  1        2 0.22581432E+00 0.27105621E+03</pdfrwt>
<pdfrwt beam="2">  1       -2 0.19252207E-02 0.27105621E+03</pdfrwt>
<totfact> 0.11605236E+04</totfact>
</mgrwt>
</event>
<event>
 5    1  0.1140254E+001  0.2747284E+03  0.7818608E-02  0.1098603E+00
         -1   -1    0    0    0  501 -0.00000000000E+00  0.00000000000E+00  0.13776068391E+02  0.13776068391E+02  0.00000000000E+00 0. -1.
          1   -1    0    0  501    0  0.00000000000E+00 -0.00000000000E+00 -0.13696888433E+04  0.13696888433E+04  0.00000000000E+00 0. -1.
         35    2    1    2    0    0  0.00000000000E+00  0.00000000000E+00 -0.13559127749E+04  0.13834649117E+04  0.27472842722E+03 0.  0.
         25    1    3    3    0    0 -0.47033581889E+02  0.43417868530E+02 -0.77503785199E+03  0.78688051263E+03  0.12000000000E+03 0.  0.
         25    1    3    3    0    0  0.47033581889E+02 -0.43417868530E+02 -0.58087492292E+03  0.59658439907E+03  0.12000000000E+03 0.  0.
<mgrwt>
<rscale>  0 0.27472843E+03</rscale>
<asrwt>0</asrwt>
<pdfrwt beam="1">  1        1 0.21072139E+00 0.27472843E+03</pdfrwt>
<pdfrwt beam="2">  1       -1 0.21193949E-02 0.27472843E+03</pdfrwt>
<totfact> 0.55096372E+03</totfact>
</mgrwt>
</event>
<event>
 5    1  0.1140254E+001  0.2649028E+03  0.7818608E-02  0.1104233E+00
          1   -1    0    0  501    0  0.00000000000E+00  0.00000000000E+00  0.11128601482E+03  0.11128601482E+03  0.00000000000E+00 0. -1.
         -1   -1    0    0    0  501 -0.00000000000E+00 -0.00000000000E+00 -0.15764219477E+03  0.15764219477E+03  0.00000000000E+00 0. -1.
         35    2    1    2    0    0  0.00000000000E+00  0.00000000000E+00 -0.46356179950E+02  0.26892820958E+03  0.26490278687E+03 0.  0.
         25    1    3    3    0    0  0.50751042239E+02 -0.14256046717E+02 -0.42559252032E+02  0.13780490953E+03  0.12000000000E+03 0.  0.
         25    1    3    3    0    0 -0.50751042239E+02  0.14256046717E+02 -0.37969279186E+01  0.13112330006E+03  0.12000000000E+03 0.  0.
<mgrwt>
<rscale>  0 0.26490279E+03</rscale>
<asrwt>0</asrwt>
<pdfrwt beam="1">  1        1 0.17120925E-01 0.26490279E+03</pdfrwt>
<pdfrwt beam="2">  1       -1 0.24252645E-01 0.26490279E+03</pdfrwt>
<totfact> 0.45473319E+03</totfact>
</mgrwt>
</event>
<event>
 5    1  0.1140254E+001  0.2747520E+03  0.7818608E-02  0.1098590E+00
          2   -1    0    0  501    0  0.00000000000E+00  0.00000000000E+00  0.67710697371E+03  0.67710697371E+03  0.00000000000E+00 0.  1.
         -2   -1    0    0    0  501 -0.00000000000E+00 -0.00000000000E+00 -0.27871770060E+02  0.27871770060E+02  0.00000000000E+00 0.  1.
         35    2    1    2    0    0  0.00000000000E+00  0.00000000000E+00  0.64923520365E+03  0.70497874377E+03  0.27475203277E+03 0.  0.
         25    1    3    3    0    0 -0.39899662410E+02 -0.52268600156E+02  0.35585179391E+03  0.38125383782E+03  0.12000000000E+03 0.  0.
         25    1    3    3    0    0  0.39899662410E+02  0.52268600156E+02  0.29338340974E+03  0.32372490595E+03  0.12000000000E+03 0.  0.
<mgrwt>
<rscale>  0 0.27475203E+03</rscale>
<asrwt>0</asrwt>
<pdfrwt beam="1">  1        2 0.10417029E+00 0.27475203E+03</pdfrwt>
<pdfrwt beam="2">  1       -2 0.42879651E-02 0.27475203E+03</pdfrwt>
<totfact> 0.10759576E+04</totfact>
</mgrwt>
</event>
<event>
 5    1  0.1140254E+001  0.2747498E+03  0.7818608E-02  0.1098592E+00
         -2   -1    0    0    0  501 -0.00000000000E+00  0.00000000000E+00  0.12523061413E+02  0.12523061413E+02  0.00000000000E+00 0. -1.
          2   -1    0    0  501    0  0.00000000000E+00 -0.00000000000E+00 -0.15069685382E+04  0.15069685382E+04  0.00000000000E+00 0. -1.
         35    2    1    2    0    0  0.00000000000E+00  0.00000000000E+00 -0.14944454768E+04  0.15194915996E+04  0.27474977380E+03 0.  0.
         25    1    3    3    0    0 -0.56940847902E+02  0.45256018413E+01 -0.55491561988E+03  0.57060852291E+03  0.12000000000E+03 0.  0.
         25    1    3    3    0    0  0.56940847902E+02 -0.45256018413E+01 -0.93952985692E+03  0.94888307671E+03  0.12000000000E+03 0.  0.
<mgrwt>
<rscale>  0 0.27474977E+03</rscale>
<asrwt>0</asrwt>
<pdfrwt beam="1">  1        2 0.23184139E+00 0.27474977E+03</pdfrwt>
<pdfrwt beam="2">  1       -2 0.19266242E-02 0.27474977E+03</pdfrwt>
<totfact> 0.11048923E+04</totfact>
</mgrwt>
</event>
<event>
 5    1  0.1140254E+001  0.2745753E+03  0.7818608E-02  0.1098689E+00
          1   -1    0    0  501    0  0.00000000000E+00  0.00000000000E+00  0.71966636780E+02  0.71966636780E+02  0.00000000000E+00 0.  1.
         -1   -1    0    0    0  501 -0.00000000000E+00 -0.00000000000E+00 -0.26189767129E+03  0.26189767129E+03  0.00000000000E+00 0.  1.
         35    2    1    2    0    0  0.00000000000E+00  0.00000000000E+00 -0.18993103451E+03  0.33386430807E+03  0.27457526898E+03 0.  0.
         25    1    3    3    0    0  0.50647551528E+00 -0.59277218444E+02 -0.13212306175E+03  0.18807059470E+03  0.12000000000E+03 0.  0.
         25    1    3    3    0    0 -0.50647551528E+00  0.59277218444E+02 -0.57807972757E+02  0.14579371337E+03  0.12000000000E+03 0.  0.
<mgrwt>
<rscale>  0 0.27457527E+03</rscale>
<asrwt>0</asrwt>
<pdfrwt beam="1">  1        1 0.11071790E-01 0.27457527E+03</pdfrwt>
<pdfrwt beam="2">  1       -1 0.40291949E-01 0.27457527E+03</pdfrwt>
<totfact> 0.33916317E+03</totfact>
</mgrwt>
</event>
<event>
 5    1  0.1140254E+001  0.2740151E+03  0.7818608E-02  0.1099003E+00
          2   -1    0    0  501    0  0.00000000000E+00  0.00000000000E+00  0.59169765424E+03  0.59169765424E+03  0.00000000000E+00 0. -1.
         -2   -1    0    0    0  501 -0.00000000000E+00 -0.00000000000E+00 -0.31724096131E+02  0.31724096131E+02  0.00000000000E+00 0. -1.
         35    2    1    2    0    0  0.00000000000E+00  0.00000000000E+00  0.55997355811E+03  0.62342175037E+03  0.27401513289E+03 0.  0.
         25    1    3    3    0    0  0.21901498819E+01 -0.66076437349E+02  0.27901901838E+03  0.31084160749E+03  0.12000000000E+03 0.  0.
         25    1    3    3    0    0 -0.21901498819E+01  0.66076437349E+02  0.28095453973E+03  0.31258014288E+03  0.12000000000E+03 0.  0.
<mgrwt>
<rscale>  0 0.27401513E+03</rscale>
<asrwt>0</asrwt>
<pdfrwt beam="1">  1        2 0.91030400E-01 0.27401513E+03</pdfrwt>
<pdfrwt beam="2">  1       -2 0.48806306E-02 0.27401513E+03</pdfrwt>
<totfact> 0.10367278E+04</totfact>
</mgrwt>
</event>
<event>
 5    1  0.1140254E+001  0.2750262E+03  0.7818608E-02  0.1098437E+00
         -2   -1    0    0    0  501 -0.00000000000E+00  0.00000000000E+00  0.81105380389E+01  0.81105380389E+01  0.00000000000E+00 0. -1.
          2   -1    0    0  501    0  0.00000000000E+00 -0.00000000000E+00 -0.23315164596E+04  0.23315164596E+04  0.00000000000E+00 0. -1.
         35    2    1    2    0    0  0.00000000000E+00  0.00000000000E+00 -0.23234059216E+04  0.23396269977E+04  0.27502620191E+03 0.  0.
         25    1    3    3    0    0  0.20556896564E+02 -0.55633961599E+02 -0.14296547620E+04  0.14359075396E+04  0.12000000000E+03 0.  0.
         25    1    3    3    0    0 -0.20556896564E+02  0.55633961599E+02 -0.89375115961E+03  0.90371945811E+03  0.12000000000E+03 0.  0.
<mgrwt>
<rscale>  0 0.27502620E+03</rscale>
<asrwt>0</asrwt>
<pdfrwt beam="1">  1        2 0.35869440E+00 0.27502620E+03</pdfrwt>
<pdfrwt beam="2">  1       -2 0.12477766E-02 0.27502620E+03</pdfrwt>
<totfact> 0.76466602E+03</totfact>
</mgrwt>
</event>
<event>
 5    1  0.1140254E+001  0.2758898E+03  0.7818608E-02  0.1097955E+00
         -1   -1    0    0    0  501 -0.00000000000E+00  0.00000000000E+00  0.21642790746E+02  0.21642790746E+02  0.00000000000E+00 0.  1.
          1   -1    0    0  501    0  0.00000000000E+00 -0.00000000000E+00 -0.87922096545E+03  0.87922096545E+03  0.00000000000E+00 0.  1.
         35    2    1    2    0    0  0.00000000000E+00  0.00000000000E+00 -0.85757817471E+03  0.90086375620E+03  0.27588979956E+03 0.  0.
         25    1    3    3    0    0 -0.40985224452E+02 -0.52657923052E+02 -0.38545150694E+03  0.40917662407E+03  0.12000000000E+03 0.  0.
         25    1    3    3    0    0  0.40985224452E+02  0.52657923052E+02 -0.47212666776E+03  0.49168713212E+03  0.12000000000E+03 0.  0.
<mgrwt>
<rscale>  0 0.27588980E+03</rscale>
<asrwt>0</asrwt>
<pdfrwt beam="1">  1        1 0.13526474E+00 0.27588980E+03</pdfrwt>
<pdfrwt beam="2">  1       -1 0.33296607E-02 0.27588980E+03</pdfrwt>
<totfact> 0.64032484E+03</totfact>
</mgrwt>
</event>
<event>
 5    1  0.1140254E+001  0.2755166E+03  0.7818608E-02  0.1098163E+00
          2   -1    0    0  501    0  0.00000000000E+00  0.00000000000E+00  0.22607931330E+04  0.22607931330E+04  0.00000000000E+00 0.  1.
         -2   -1    0    0    0  501 -0.00000000000E+00 -0.00000000000E+00 -0.83941106663E+01  0.83941106663E+01  0.00000000000E+00 0.  1.
         35    2    1    2    0    0  0.00000000000E+00  0.00000000000E+00  0.22523990224E+04  0.22691872437E+04  0.27551658935E+03 0.  0.
         25    1    3    3    0    0 -0.41578514893E+00 -0.20481221049E+02  0.16572659604E+04  0.16617310603E+04  0.12000000000E+03 0.  0.
         25    1    3    3    0    0  0.41578514893E+00  0.20481221049E+02  0.59513306192E+03  0.60745618335E+03  0.12000000000E+03 0.  0.
<mgrwt>
<rscale>  0 0.27551659E+03</rscale>
<asrwt>0</asrwt>
<pdfrwt beam="1">  1        2 0.34781384E+00 0.27551659E+03</pdfrwt>
<pdfrwt beam="2">  1       -2 0.12914034E-02 0.27551659E+03</pdfrwt>
<totfact> 0.79365452E+03</totfact>
</mgrwt>
</event>
<event>
 5    1  0.1140254E+001  0.2747223E+03  0.7818608E-02  0.1098607E+00
          2   -1    0    0  501    0  0.00000000000E+00  0.00000000000E+00  0.20105588314E+04  0.20105588314E+04  0.00000000000E+00 0. -1.
         -2   -1    0    0    0  501 -0.00000000000E+00 -0.00000000000E+00 -0.93844996697E+01  0.93844996697E+01  0.00000000000E+00 0. -1.
         35    2    1    2    0    0  0.00000000000E+00  0.00000000000E+00  0.20011743317E+04  0.20199433310E+04  0.27472232300E+03 0.  0.
         25    1    3    3    0    0  0.59498350826E+01  0.64932557597E+02  0.11087617288E+04  0.11171410873E+04  0.12000000000E+03 0.  0.
         25    1    3    3    0    0 -0.59498350826E+01 -0.64932557597E+02  0.89241260284E+03  0.90280224373E+03  0.12000000000E+03 0.  0.
<mgrwt>
<rscale>  0 0.27472232E+03</rscale>
<asrwt>0</asrwt>
<pdfrwt beam="1">  1        2 0.30931640E+00 0.27472232E+03</pdfrwt>
<pdfrwt beam="2">  1       -2 0.14437708E-02 0.27472232E+03</pdfrwt>
<totfact> 0.91514803E+03</totfact>
</mgrwt>
</event>
<event>
 5    1  0.1140254E+001  0.2756278E+03  0.7818608E-02  0.1098101E+00
         -1   -1    0    0    0  501 -0.00000000000E+00  0.00000000000E+00  0.31230998486E+03  0.31230998486E+03  0.00000000000E+00 0.  1.
          1   -1    0    0  501    0  0.00000000000E+00 -0.00000000000E+00 -0.60813513592E+02  0.60813513592E+02  0.00000000000E+00 0.  1.
         35    2    1    2    0    0  0.00000000000E+00  0.00000000000E+00  0.25149647127E+03  0.37312349845E+03  0.27562777443E+03 0.  0.
         25    1    3    3    0    0  0.13602885179E+02  0.41598069008E+02  0.55703993964E+02  0.13934982158E+03  0.12000000000E+03 0.  0.
         25    1    3    3    0    0 -0.13602885179E+02 -0.41598069008E+02  0.19579247730E+03  0.23377367687E+03  0.12000000000E+03 0.  0.
<mgrwt>
<rscale>  0 0.27562777E+03</rscale>
<asrwt>0</asrwt>
<pdfrwt beam="1">  1        1 0.93559254E-02 0.27562777E+03</pdfrwt>
<pdfrwt beam="2">  1       -1 0.48047689E-01 0.27562777E+03</pdfrwt>
<totfact> 0.30946825E+03</totfact>
</mgrwt>
</event>
<event>
 5    1  0.1140254E+001  0.2754930E+03  0.7818608E-02  0.1098176E+00
          1   -1    0    0  501    0  0.00000000000E+00  0.00000000000E+00  0.16293550089E+04  0.16293550089E+04  0.00000000000E+00 0.  1.
         -1   -1    0    0    0  501 -0.00000000000E+00 -0.00000000000E+00 -0.11645156102E+02  0.11645156102E+02  0.00000000000E+00 0.  1.
         35    2    1    2    0    0  0.00000000000E+00  0.00000000000E+00  0.16177098528E+04  0.16410001650E+04  0.27549296487E+03 0.  0.
         25    1    3    3    0    0  0.11880609524E+02  0.29696699824E+02  0.11638125758E+04  0.11704199051E+04  0.12000000000E+03 0.  0.
         25    1    3    3    0    0 -0.11880609524E+02 -0.29696699824E+02  0.45389727703E+03  0.47058025984E+03  0.12000000000E+03 0.  0.
<mgrwt>
<rscale>  0 0.27549296E+03</rscale>
<asrwt>0</asrwt>
<pdfrwt beam="1">  1        1 0.25066982E+00 0.27549296E+03</pdfrwt>
<pdfrwt beam="2">  1       -1 0.17915638E-02 0.27549296E+03</pdfrwt>
<totfact> 0.47365276E+03</totfact>
</mgrwt>
</event>
<event>
 5    1  0.1140254E+001  0.2752515E+03  0.7818608E-02  0.1098311E+00
         -1   -1    0    0    0  501 -0.00000000000E+00  0.00000000000E+00  0.51508745504E+02  0.51508745504E+02  0.00000000000E+00 0. -1.
          1   -1    0    0  501    0  0.00000000000E+00 -0.00000000000E+00 -0.36772100409E+03  0.36772100409E+03  0.00000000000E+00 0. -1.
         35    2    1    2    0    0  0.00000000000E+00  0.00000000000E+00 -0.31621225859E+03  0.41922974960E+03  0.27525150402E+03 0.  0.
         25    1    3    3    0    0 -0.21726417116E+02  0.63232082215E+02 -0.14531642018E+03  0.19996798592E+03  0.12000000000E+03 0.  0.
         25    1    3    3    0    0  0.21726417116E+02 -0.63232082215E+02 -0.17089583841E+03  0.21926176367E+03  0.12000000000E+03 0.  0.
<mgrwt>
<rscale>  0 0.27525150E+03</rscale>
<asrwt>0</asrwt>
<pdfrwt beam="1">  1        1 0.56572461E-01 0.27525150E+03</pdfrwt>
<pdfrwt beam="2">  1       -1 0.79244226E-02 0.27525150E+03</pdfrwt>
<totfact> 0.58655294E+03</totfact>
</mgrwt>
</event>
<event>
 5    1  0.1140254E+001  0.2724005E+03  0.7818608E-02  0.1099914E+00
          1   -1    0    0  501    0  0.00000000000E+00  0.00000000000E+00  0.90621329749E+03  0.90621329749E+03  0.00000000000E+00 0. -1.
         -1   -1    0    0    0  501 -0.00000000000E+00 -0.00000000000E+00 -0.20470348057E+02  0.20470348057E+02  0.00000000000E+00 0. -1.
         35    2    1    2    0    0  0.00000000000E+00  0.00000000000E+00  0.88574294944E+03  0.92668364555E+03  0.27240045238E+03 0.  0.
         25    1    3    3    0    0  0.43429445637E+02 -0.30177732586E+02  0.31770639637E+03  0.34370651228E+03  0.12000000000E+03 0.  0.
         25    1    3    3    0    0 -0.43429445637E+02  0.30177732586E+02  0.56803655307E+03  0.58297713327E+03  0.12000000000E+03 0.  0.
<mgrwt>
<rscale>  0 0.27240045E+03</rscale>
<asrwt>0</asrwt>
<pdfrwt beam="1">  1        1 0.13941740E+00 0.27240045E+03</pdfrwt>
<pdfrwt beam="2">  1       -1 0.31492850E-02 0.27240045E+03</pdfrwt>
<totfact> 0.66181570E+03</totfact>
</mgrwt>
</event>
<event>
 5    1  0.1140254E+001  0.2754628E+03  0.7818608E-02  0.1098193E+00
          2   -1    0    0  501    0  0.00000000000E+00  0.00000000000E+00  0.25385108583E+04  0.25385108583E+04  0.00000000000E+00 0.  1.
         -2   -1    0    0    0  501 -0.00000000000E+00 -0.00000000000E+00 -0.74728594745E+01  0.74728594745E+01  0.00000000000E+00 0.  1.
         35    2    1    2    0    0  0.00000000000E+00  0.00000000000E+00  0.25310379988E+04  0.25459837177E+04  0.27546277366E+03 0.  0.
         25    1    3    3    0    0 -0.22247694254E+01 -0.62200227502E+02  0.15093752159E+04  0.15154165633E+04  0.12000000000E+03 0.  0.
         25    1    3    3    0    0  0.22247694254E+01  0.62200227502E+02  0.10216627829E+04  0.10305671545E+04  0.12000000000E+03 0.  0.
<mgrwt>
<rscale>  0 0.27546277E+03</rscale>
<asrwt>0</asrwt>
<pdfrwt beam="1">  1        2 0.39053944E+00 0.27546277E+03</pdfrwt>
<pdfrwt beam="2">  1       -2 0.11496727E-02 0.27546277E+03</pdfrwt>
<totfact> 0.66476543E+03</totfact>
</mgrwt>
</event>
<event>
 5    1  0.1140254E+001  0.2750492E+03  0.7818608E-02  0.1098424E+00
         -2   -1    0    0    0  501 -0.00000000000E+00  0.00000000000E+00  0.20451284387E+02  0.20451284387E+02  0.00000000000E+00 0. -1.
          2   -1    0    0  501    0  0.00000000000E+00 -0.00000000000E+00 -0.92478394925E+03  0.92478394925E+03  0.00000000000E+00 0. -1.
         35    2    1    2    0    0  0.00000000000E+00  0.00000000000E+00 -0.90433266486E+03  0.94523523364E+03  0.27504922863E+03 0.  0.
         25    1    3    3    0    0 -0.64035621130E+02 -0.20265949355E+02 -0.44762004698E+03  0.46826805991E+03  0.12000000000E+03 0.  0.
         25    1    3    3    0    0  0.64035621130E+02  0.20265949355E+02 -0.45671261789E+03  0.47696717373E+03  0.12000000000E+03 0.  0.
<mgrwt>
<rscale>  0 0.27504923E+03</rscale>
<asrwt>0</asrwt>
<pdfrwt beam="1">  1        2 0.14227447E+00 0.27504923E+03</pdfrwt>
<pdfrwt beam="2">  1       -2 0.31463511E-02 0.27504923E+03</pdfrwt>
<totfact> 0.11515873E+04</totfact>
</mgrwt>
</event>
<event>
 5    1  0.1140254E+001  0.2666281E+03  0.7818608E-02  0.1103225E+00
          4   -1    0    0  501    0  0.00000000000E+00  0.00000000000E+00  0.88496304616E+01  0.88496304616E+01  0.00000000000E+00 0. -1.
         -4   -1    0    0    0  501 -0.00000000000E+00 -0.00000000000E+00 -0.20082910736E+04  0.20082910736E+04  0.00000000000E+00 0. -1.
         35    2    1    2    0    0  0.00000000000E+00  0.00000000000E+00 -0.19994414431E+04  0.20171407040E+04  0.26662808450E+03 0.  0.
         25    1    3    3    0    0  0.79136240785E+01 -0.57244210641E+02 -0.10432520353E+04  0.10517197033E+04  0.12000000000E+03 0.  0.
         25    1    3    3    0    0 -0.79136240785E+01  0.57244210641E+02 -0.95618940777E+03  0.96542100072E+03  0.12000000000E+03 0.  0.
<mgrwt>
<rscale>  0 0.26662808E+03</rscale>
<asrwt>0</asrwt>
<pdfrwt beam="1">  1        4 0.13614821E-02 0.26662808E+03</pdfrwt>
<pdfrwt beam="2">  1       -4 0.30896775E+00 0.26662808E+03</pdfrwt>
<totfact> 0.10997908E+02</totfact>
</mgrwt>
</event>
<event>
 5    1  0.1140254E+001  0.2746817E+03  0.7818608E-02  0.1098630E+00
          2   -1    0    0  501    0  0.00000000000E+00  0.00000000000E+00  0.11635978588E+04  0.11635978588E+04  0.00000000000E+00 0. -1.
         -2   -1    0    0    0  501 -0.00000000000E+00 -0.00000000000E+00 -0.16210509353E+02  0.16210509353E+02  0.00000000000E+00 0. -1.
         35    2    1    2    0    0  0.00000000000E+00  0.00000000000E+00  0.11473873494E+04  0.11798083681E+04  0.27468173564E+03 0.  0.
         25    1    3    3    0    0 -0.18465864826E+02  0.60967248799E+02  0.48730597814E+03  0.50589041295E+03  0.12000000000E+03 0.  0.
         25    1    3    3    0    0  0.18465864826E+02 -0.60967248799E+02  0.66008137128E+03  0.67391795517E+03  0.12000000000E+03 0.  0.
<mgrwt>
<rscale>  0 0.27468174E+03</rscale>
<asrwt>0</asrwt>
<pdfrwt beam="1">  1        2 0.17901499E+00 0.27468174E+03</pdfrwt>
<pdfrwt beam="2">  1       -2 0.24939254E-02 0.27468174E+03</pdfrwt>
<totfact> 0.11676829E+04</totfact>
</mgrwt>
</event>
<event>
 5    1  0.1140254E+001  0.2778696E+03  0.7818608E-02  0.1096858E+00
         -2   -1    0    0    0  501 -0.00000000000E+00  0.00000000000E+00  0.86486495477E+02  0.86486495477E+02  0.00000000000E+00 0.  1.
          2   -1    0    0  501    0  0.00000000000E+00 -0.00000000000E+00 -0.22318955064E+03  0.22318955064E+03  0.00000000000E+00 0.  1.
         35    2    1    2    0    0  0.00000000000E+00  0.00000000000E+00 -0.13670305516E+03  0.30967604611E+03  0.27786962455E+03 0.  0.
         25    1    3    3    0    0 -0.62174118344E+02 -0.32171040237E+02 -0.66666789326E+02  0.15409431404E+03  0.12000000000E+03 0.  0.
         25    1    3    3    0    0  0.62174118344E+02  0.32171040237E+02 -0.70036265832E+02  0.15558173207E+03  0.12000000000E+03 0.  0.
<mgrwt>
<rscale>  0 0.27786962E+03</rscale>
<asrwt>0</asrwt>
<pdfrwt beam="1">  1        2 0.34336853E-01 0.27786962E+03</pdfrwt>
<pdfrwt beam="2">  1       -2 0.13305615E-01 0.27786962E+03</pdfrwt>
<totfact> 0.62625727E+03</totfact>
</mgrwt>
</event>
<event>
 5    1  0.1140254E+001  0.2744307E+03  0.7818608E-02  0.1098770E+00
         -1   -1    0    0    0  501 -0.00000000000E+00  0.00000000000E+00  0.12256513376E+02  0.12256513376E+02  0.00000000000E+00 0.  1.
          1   -1    0    0  501    0  0.00000000000E+00 -0.00000000000E+00 -0.15361670066E+04  0.15361670066E+04  0.00000000000E+00 0.  1.
         35    2    1    2    0    0  0.00000000000E+00  0.00000000000E+00 -0.15239104932E+04  0.15484235200E+04  0.27443069409E+03 0.  0.
         25    1    3    3    0    0 -0.32324472278E+02  0.50791061762E+02 -0.60202302765E+03  0.61681142117E+03  0.12000000000E+03 0.  0.
         25    1    3    3    0    0  0.32324472278E+02 -0.50791061762E+02 -0.92188746555E+03  0.93161209878E+03  0.12000000000E+03 0.  0.
<mgrwt>
<rscale>  0 0.27443069E+03</rscale>
<asrwt>0</asrwt>
<pdfrwt beam="1">  1        1 0.23633331E+00 0.27443069E+03</pdfrwt>
<pdfrwt beam="2">  1       -1 0.18856181E-02 0.27443069E+03</pdfrwt>
<totfact> 0.50616773E+03</totfact>
</mgrwt>
</event>
<event>
 5    1  0.1140254E+001  0.2737993E+03  0.7818608E-02  0.1099125E+00
         -2   -1    0    0    0  501 -0.00000000000E+00  0.00000000000E+00  0.59928226253E+02  0.59928226253E+02  0.00000000000E+00 0.  1.
          2   -1    0    0  501    0  0.00000000000E+00 -0.00000000000E+00 -0.31273273224E+03  0.31273273224E+03  0.00000000000E+00 0.  1.
         35    2    1    2    0    0  0.00000000000E+00  0.00000000000E+00 -0.25280450598E+03  0.37266095849E+03  0.27379932750E+03 0.  0.
         25    1    3    3    0    0  0.43597807100E+00 -0.37580855775E+02 -0.20006395248E+03  0.23630085882E+03  0.12000000000E+03 0.  0.
         25    1    3    3    0    0 -0.43597807100E+00  0.37580855775E+02 -0.52740553502E+02  0.13636009967E+03  0.12000000000E+03 0.  0.
<mgrwt>
<rscale>  0 0.27379933E+03</rscale>
<asrwt>0</asrwt>
<pdfrwt beam="1">  1        2 0.48112728E-01 0.27379933E+03</pdfrwt>
<pdfrwt beam="2">  1       -2 0.92197271E-02 0.27379933E+03</pdfrwt>
<totfact> 0.78336676E+03</totfact>
</mgrwt>
</event>
<event>
 5    1  0.1140254E+001  0.2753097E+03  0.7818608E-02  0.1098279E+00
          2   -1    0    0  501    0  0.00000000000E+00  0.00000000000E+00  0.32321070680E+04  0.32321070680E+04  0.00000000000E+00 0. -1.
         -2   -1    0    0    0  501 -0.00000000000E+00 -0.00000000000E+00 -0.58626957793E+01  0.58626957793E+01  0.00000000000E+00 0. -1.
         35    2    1    2    0    0  0.00000000000E+00  0.00000000000E+00  0.32262443722E+04  0.32379697638E+04  0.27530971989E+03 0.  0.
         25    1    3    3    0    0 -0.25735291755E+02  0.62142543105E+02  0.16717627270E+04  0.16774130727E+04  0.12000000000E+03 0.  0.
         25    1    3    3    0    0  0.25735291755E+02 -0.62142543105E+02  0.15544816452E+04  0.15605566911E+04  0.12000000000E+03 0.  0.
<mgrwt>
<rscale>  0 0.27530972E+03</rscale>
<asrwt>0</asrwt>
<pdfrwt beam="1">  1        2 0.49724582E+00 0.27530972E+03</pdfrwt>
<pdfrwt beam="2">  1       -2 0.90195578E-03 0.27530972E+03</pdfrwt>
<totfact> 0.37310446E+03</totfact>
</mgrwt>
</event>
<event>
 5    1  0.1140254E+001  0.2754828E+03  0.7818608E-02  0.1098182E+00
         -2   -1    0    0    0  501 -0.00000000000E+00  0.00000000000E+00  0.83422812790E+02  0.83422812790E+02  0.00000000000E+00 0. -1.
          2   -1    0    0  501    0  0.00000000000E+00 -0.00000000000E+00 -0.22742808811E+03  0.22742808811E+03  0.00000000000E+00 0. -1.
         35    2    1    2    0    0  0.00000000000E+00  0.00000000000E+00 -0.14400527532E+03  0.31085090090E+03  0.27548278217E+03 0.  0.
         25    1    3    3    0    0  0.48085787706E+02  0.20851836410E+01 -0.18406088533E+02  0.13059622914E+03  0.12000000000E+03 0.  0.
         25    1    3    3    0    0 -0.48085787706E+02 -0.20851836410E+01 -0.12559918679E+03  0.18025467176E+03  0.12000000000E+03 0.  0.
<mgrwt>
<rscale>  0 0.27548278E+03</rscale>
<asrwt>0</asrwt>
<pdfrwt beam="1">  1        2 0.34988936E-01 0.27548278E+03</pdfrwt>
<pdfrwt beam="2">  1       -2 0.12834279E-01 0.27548278E+03</pdfrwt>
<totfact> 0.65050321E+03</totfact>
</mgrwt>
</event>
<event>
 5    1  0.1140254E+001  0.2749307E+03  0.7818608E-02  0.1098490E+00
          2   -1    0    0  501    0  0.00000000000E+00  0.00000000000E+00  0.16073994731E+04  0.16073994731E+04  0.00000000000E+00 0. -1.
         -2   -1    0    0    0  501 -0.00000000000E+00 -0.00000000000E+00 -0.11756083098E+02  0.11756083098E+02  0.00000000000E+00 0. -1.
         35    2    1    2    0    0  0.00000000000E+00  0.00000000000E+00  0.15956433900E+04  0.16191555562E+04  0.27493069511E+03 0.  0.
         25    1    3    3    0    0  0.20851120583E+01  0.59681554529E+02  0.61817455920E+03  0.63253934367E+03  0.12000000000E+03 0.  0.
         25    1    3    3    0    0 -0.20851120583E+01 -0.59681554529E+02  0.97746883083E+03  0.98661621256E+03  0.12000000000E+03 0.  0.
<mgrwt>
<rscale>  0 0.27493070E+03</rscale>
<asrwt>0</asrwt>
<pdfrwt beam="1">  1        2 0.24729205E+00 0.27493070E+03</pdfrwt>
<pdfrwt beam="2">  1       -2 0.18086294E-02 0.27493070E+03</pdfrwt>
<totfact> 0.10720368E+04</totfact>
</mgrwt>
</event>
<event>
 5    1  0.1140254E+001  0.2754012E+03  0.7818608E-02  0.1098228E+00
         -2   -1    0    0    0  501 -0.00000000000E+00  0.00000000000E+00  0.38916840039E+02  0.38916840039E+02  0.00000000000E+00 0.  1.
          2   -1    0    0  501    0  0.00000000000E+00 -0.00000000000E+00 -0.48723013868E+03  0.48723013868E+03  0.00000000000E+00 0.  1.
         35    2    1    2    0    0  0.00000000000E+00  0.00000000000E+00 -0.44831329864E+03  0.52614697872E+03  0.27540121546E+03 0.  0.
         25    1    3    3    0    0  0.35645427769E+02  0.52312869603E+02 -0.17918031080E+03  0.22475056535E+03  0.12000000000E+03 0.  0.
         25    1    3    3    0    0 -0.35645427769E+02 -0.52312869603E+02 -0.26913298784E+03  0.30139641337E+03  0.12000000000E+03 0.  0.
<mgrwt>
<rscale>  0 0.27540122E+03</rscale>
<asrwt>0</asrwt>
<pdfrwt beam="1">  1        2 0.74958482E-01 0.27540122E+03</pdfrwt>
<pdfrwt beam="2">  1       -2 0.59872063E-02 0.27540122E+03</pdfrwt>
<totfact> 0.94630087E+03</totfact>
</mgrwt>
</event>
<event>
 5    1  0.1140254E+001  0.2743652E+03  0.7818608E-02  0.1098807E+00
          2   -1    0    0  501    0  0.00000000000E+00  0.00000000000E+00  0.11561784842E+04  0.11561784842E+04  0.00000000000E+00 0.  1.
         -2   -1    0    0    0  501 -0.00000000000E+00 -0.00000000000E+00 -0.16276955878E+02  0.16276955878E+02  0.00000000000E+00 0.  1.
         35    2    1    2    0    0  0.00000000000E+00  0.00000000000E+00  0.11399015284E+04  0.11724554401E+04  0.27436520316E+03 0.  0.
         25    1    3    3    0    0 -0.36503031179E+02 -0.22358198032E+02  0.78729135339E+03  0.79753372056E+03  0.12000000000E+03 0.  0.
         25    1    3    3    0    0  0.36503031179E+02  0.22358198032E+02  0.35261017497E+03  0.37492171955E+03  0.12000000000E+03 0.  0.
<mgrwt>
<rscale>  0 0.27436520E+03</rscale>
<asrwt>0</asrwt>
<pdfrwt beam="1">  1        2 0.17787355E+00 0.27436520E+03</pdfrwt>
<pdfrwt beam="2">  1       -2 0.25041480E-02 0.27436520E+03</pdfrwt>
<totfact> 0.11720595E+04</totfact>
</mgrwt>
</event>
<event>
 5    1  0.1140254E+001  0.2719069E+03  0.7818608E-02  0.1100193E+00
          2   -1    0    0  501    0  0.00000000000E+00  0.00000000000E+00  0.26175857391E+03  0.26175857391E+03  0.00000000000E+00 0. -1.
         -2   -1    0    0    0  501 -0.00000000000E+00 -0.00000000000E+00 -0.70612189812E+02  0.70612189812E+02  0.00000000000E+00 0. -1.
         35    2    1    2    0    0  0.00000000000E+00  0.00000000000E+00  0.19114638409E+03  0.33237076372E+03  0.27190694074E+03 0.  0.
         25    1    3    3    0    0 -0.10520491563E+02 -0.16944703679E+01  0.17259017722E+03  0.21047784027E+03  0.12000000000E+03 0.  0.
         25    1    3    3    0    0  0.10520491563E+02  0.16944703679E+01  0.18556206873E+02  0.12189292345E+03  0.12000000000E+03 0.  0.
<mgrwt>
<rscale>  0 0.27190694E+03</rscale>
<asrwt>0</asrwt>
<pdfrwt beam="1">  1        2 0.40270549E-01 0.27190694E+03</pdfrwt>
<pdfrwt beam="2">  1       -2 0.10863414E-01 0.27190694E+03</pdfrwt>
<totfact> 0.73067742E+03</totfact>
</mgrwt>
</event>
<event>
 5    1  0.1140254E+001  0.2775101E+03  0.7818608E-02  0.1097057E+00
          2   -1    0    0  501    0  0.00000000000E+00  0.00000000000E+00  0.10649555415E+04  0.10649555415E+04  0.00000000000E+00 0. -1.
         -2   -1    0    0    0  501 -0.00000000000E+00 -0.00000000000E+00 -0.18078650217E+02  0.18078650217E+02  0.00000000000E+00 0. -1.
         35    2    1    2    0    0  0.00000000000E+00  0.00000000000E+00  0.10468768912E+04  0.10830341917E+04  0.27751006275E+03 0.  0.
         25    1    3    3    0    0 -0.31509946026E+01  0.46883120958E+02  0.72415191183E+03  0.73552970519E+03  0.12000000000E+03 0.  0.
         25    1    3    3    0    0  0.31509946026E+01 -0.46883120958E+02  0.32272497941E+03  0.34750448650E+03  0.12000000000E+03 0.  0.
<mgrwt>
<rscale>  0 0.27751006E+03</rscale>
<asrwt>0</asrwt>
<pdfrwt beam="1">  1        2 0.16383927E+00 0.27751006E+03</pdfrwt>
<pdfrwt beam="2">  1       -2 0.27813316E-02 0.27751006E+03</pdfrwt>
<totfact> 0.11347757E+04</totfact>
</mgrwt>
</event>
<event>
 5    1  0.1140254E+001  0.2759641E+03  0.7818608E-02  0.1097914E+00
          1   -1    0    0  501    0  0.00000000000E+00  0.00000000000E+00  0.15206551110E+03  0.15206551110E+03  0.00000000000E+00 0.  1.
         -1   -1    0    0    0  501 -0.00000000000E+00 -0.00000000000E+00 -0.12520289731E+03  0.12520289731E+03  0.00000000000E+00 0.  1.
         35    2    1    2    0    0  0.00000000000E+00  0.00000000000E+00  0.26862613798E+02  0.27726840841E+03  0.27596407426E+03 0.  0.
         25    1    3    3    0    0 -0.60480497449E+02  0.25869090003E+02  0.31176670142E+02  0.14035342942E+03  0.12000000000E+03 0.  0.
         25    1    3    3    0    0  0.60480497449E+02 -0.25869090003E+02 -0.43140563443E+01  0.13691497899E+03  0.12000000000E+03 0.  0.
<mgrwt>
<rscale>  0 0.27596407E+03</rscale>
<asrwt>0</asrwt>
<pdfrwt beam="1">  1        1 0.23394694E-01 0.27596407E+03</pdfrwt>
<pdfrwt beam="2">  1       -1 0.19261984E-01 0.27596407E+03</pdfrwt>
<totfact> 0.44412714E+03</totfact>
</mgrwt>
</event>
<event>
 5    1  0.1140254E+001  0.2748640E+03  0.7818608E-02  0.1098528E+00
          2   -1    0    0  501    0  0.00000000000E+00  0.00000000000E+00  0.19408103802E+04  0.19408103802E+04  0.00000000000E+00 0. -1.
         -2   -1    0    0    0  501 -0.00000000000E+00 -0.00000000000E+00 -0.97317844891E+01  0.97317844891E+01  0.00000000000E+00 0. -1.
         35    2    1    2    0    0  0.00000000000E+00  0.00000000000E+00  0.19310785957E+04  0.19505421646E+04  0.27486395438E+03 0.  0.
         25    1    3    3    0    0  0.59637472693E+02  0.21890877275E+02  0.81471640744E+03  0.82595318464E+03  0.12000000000E+03 0.  0.
         25    1    3    3    0    0 -0.59637472693E+02 -0.21890877275E+02  0.11163621882E+04  0.11245889800E+04  0.12000000000E+03 0.  0.
<mgrwt>
<rscale>  0 0.27486395E+03</rscale>
<asrwt>0</asrwt>
<pdfrwt beam="1">  1        2 0.29858590E+00 0.27486395E+03</pdfrwt>
<pdfrwt beam="2">  1       -2 0.14971992E-02 0.27486395E+03</pdfrwt>
<totfact> 0.94424796E+03</totfact>
</mgrwt>
</event>
<event>
 5    1  0.1140254E+001  0.2772548E+03  0.7818608E-02  0.1097198E+00
         -2   -1    0    0    0  501 -0.00000000000E+00  0.00000000000E+00  0.16526729854E+02  0.16526729854E+02  0.00000000000E+00 0.  1.
          2   -1    0    0  501    0  0.00000000000E+00 -0.00000000000E+00 -0.11628162859E+04  0.11628162859E+04  0.00000000000E+00 0.  1.
         35    2    1    2    0    0  0.00000000000E+00  0.00000000000E+00 -0.11462895560E+04  0.11793430157E+04  0.27725476101E+03 0.  0.
         25    1    3    3    0    0  0.52098452640E+02 -0.20713934774E+02 -0.39909667079E+03  0.42050144887E+03  0.12000000000E+03 0.  0.
         25    1    3    3    0    0 -0.52098452640E+02  0.20713934774E+02 -0.74719288521E+03  0.75884156685E+03  0.12000000000E+03 0.  0.
<mgrwt>
<rscale>  0 0.27725476E+03</rscale>
<asrwt>0</asrwt>
<pdfrwt beam="1">  1        2 0.17889484E+00 0.27725476E+03</pdfrwt>
<pdfrwt beam="2">  1       -2 0.25425734E-02 0.27725476E+03</pdfrwt>
<totfact> 0.11362332E+04</totfact>
</mgrwt>
</event>
<event>
 5    1  0.1140254E+001  0.2738863E+03  0.7818608E-02  0.1099076E+00
          3   -1    0    0  501    0  0.00000000000E+00  0.00000000000E+00  0.27026327465E+03  0.27026327465E+03  0.00000000000E+00 0. -1.
         -3   -1    0    0    0  501 -0.00000000000E+00 -0.00000000000E+00 -0.69389477035E+02  0.69389477035E+02  0.00000000000E+00 0. -1.
         35    2    1    2    0    0  0.00000000000E+00  0.00000000000E+00  0.20087379762E+03  0.33965275169E+03  0.27388630699E+03 0.  0.
         25    1    3    3    0    0  0.14620646673E+02 -0.25356220321E+02  0.17376925227E+03  0.21319581199E+03  0.12000000000E+03 0.  0.
         25    1    3    3    0    0 -0.14620646673E+02  0.25356220321E+02  0.27104545351E+02  0.12645693969E+03  0.12000000000E+03 0.  0.
<mgrwt>
<rscale>  0 0.27388631E+03</rscale>
<asrwt>0</asrwt>
<pdfrwt beam="1">  1        3 0.41578965E-01 0.27388631E+03</pdfrwt>
<pdfrwt beam="2">  1       -3 0.10675304E-01 0.27388631E+03</pdfrwt>
<totfact> 0.96858205E+02</totfact>
</mgrwt>
</event>
<event>
 5    1  0.1140254E+001  0.2751210E+03  0.7818608E-02  0.1098384E+00
         -2   -1    0    0    0  501 -0.00000000000E+00  0.00000000000E+00  0.10736130625E+02  0.10736130625E+02  0.00000000000E+00 0. -1.
          2   -1    0    0  501    0  0.00000000000E+00 -0.00000000000E+00 -0.17625426227E+04  0.17625426227E+04  0.00000000000E+00 0. -1.
         35    2    1    2    0    0  0.00000000000E+00  0.00000000000E+00 -0.17518064921E+04  0.17732787534E+04  0.27512097579E+03 0.  0.
         25    1    3    3    0    0  0.44836686602E+02  0.38987872237E+02 -0.67284543550E+03  0.68604035065E+03  0.12000000000E+03 0.  0.
         25    1    3    3    0    0 -0.44836686602E+02 -0.38987872237E+02 -0.10789610566E+04  0.10872384027E+04  0.12000000000E+03 0.  0.
<mgrwt>
<rscale>  0 0.27512098E+03</rscale>
<asrwt>0</asrwt>
<pdfrwt beam="1">  1        2 0.27116038E+00 0.27512098E+03</pdfrwt>
<pdfrwt beam="2">  1       -2 0.16517125E-02 0.27512098E+03</pdfrwt>
<totfact> 0.10144520E+04</totfact>
</mgrwt>
</event>
<event>
 5    1  0.1140254E+001  0.2741926E+03  0.7818608E-02  0.1098904E+00
          2   -1    0    0  501    0  0.00000000000E+00  0.00000000000E+00  0.25464140833E+04  0.25464140833E+04  0.00000000000E+00 0. -1.
         -2   -1    0    0    0  501 -0.00000000000E+00 -0.00000000000E+00 -0.73811253767E+01  0.73811253767E+01  0.00000000000E+00 0. -1.
         35    2    1    2    0    0  0.00000000000E+00  0.00000000000E+00  0.25390329579E+04  0.25537952087E+04  0.27419264476E+03 0.  0.
         25    1    3    3    0    0  0.14079237401E+02  0.40052531698E+02  0.17437902743E+04  0.17484298530E+04  0.12000000000E+03 0.  0.
         25    1    3    3    0    0 -0.14079237401E+02 -0.40052531698E+02  0.79524268367E+03  0.80536535569E+03  0.12000000000E+03 0.  0.
<mgrwt>
<rscale>  0 0.27419264E+03</rscale>
<asrwt>0</asrwt>
<pdfrwt beam="1">  1        2 0.39175531E+00 0.27419264E+03</pdfrwt>
<pdfrwt beam="2">  1       -2 0.11355598E-02 0.27419264E+03</pdfrwt>
<totfact> 0.67009409E+03</totfact>
</mgrwt>
</event>
<event>
 5    1  0.1140254E+001  0.2752586E+03  0.7818608E-02  0.1098307E+00
          2   -1    0    0  501    0  0.00000000000E+00  0.00000000000E+00  0.14022958199E+04  0.14022958199E+04  0.00000000000E+00 0. -1.
         -2   -1    0    0    0  501 -0.00000000000E+00 -0.00000000000E+00 -0.13507718608E+02  0.13507718608E+02  0.00000000000E+00 0. -1.
         35    2    1    2    0    0  0.00000000000E+00  0.00000000000E+00  0.13887881013E+04  0.14158035385E+04  0.27525855002E+03 0.  0.
         25    1    3    3    0    0 -0.57191117569E+02  0.21315656425E+02  0.54740787510E+03  0.56372028779E+03  0.12000000000E+03 0.  0.
         25    1    3    3    0    0  0.57191117569E+02 -0.21315656425E+02  0.84138022621E+03  0.85208325074E+03  0.12000000000E+03 0.  0.
<mgrwt>
<rscale>  0 0.27525855E+03</rscale>
<asrwt>0</asrwt>
<pdfrwt beam="1">  1        2 0.21573770E+00 0.27525855E+03</pdfrwt>
<pdfrwt beam="2">  1       -2 0.20781117E-02 0.27525855E+03</pdfrwt>
<totfact> 0.11255151E+04</totfact>
</mgrwt>
</event>
<event>
 5    1  0.1140254E+001  0.2747572E+03  0.7818608E-02  0.1098587E+00
         -1   -1    0    0    0  501 -0.00000000000E+00  0.00000000000E+00  0.22176723565E+02  0.22176723565E+02  0.00000000000E+00 0. -1.
          1   -1    0    0  501    0  0.00000000000E+00 -0.00000000000E+00 -0.85102195702E+03  0.85102195702E+03  0.00000000000E+00 0. -1.
         35    2    1    2    0    0  0.00000000000E+00  0.00000000000E+00 -0.82884523346E+03  0.87319868059E+03  0.27475719236E+03 0.  0.
         25    1    3    3    0    0  0.79694474480E+01  0.67408239620E+01 -0.62436628621E+03  0.63587908454E+03  0.12000000000E+03 0.  0.
         25    1    3    3    0    0 -0.79694474480E+01 -0.67408239620E+01 -0.20447894724E+03  0.23731959604E+03  0.12000000000E+03 0.  0.
<mgrwt>
<rscale>  0 0.27475719E+03</rscale>
<asrwt>0</asrwt>
<pdfrwt beam="1">  1        1 0.13092646E+00 0.27475719E+03</pdfrwt>
<pdfrwt beam="2">  1       -1 0.34118035E-02 0.27475719E+03</pdfrwt>
<totfact> 0.65056615E+03</totfact>
</mgrwt>
</event>
<event>
 5    1  0.1140254E+001  0.2759379E+03  0.7818608E-02  0.1097928E+00
          2   -1    0    0  501    0  0.00000000000E+00  0.00000000000E+00  0.31672591325E+03  0.31672591325E+03  0.00000000000E+00 0.  1.
         -2   -1    0    0    0  501 -0.00000000000E+00 -0.00000000000E+00 -0.60100630666E+02  0.60100630666E+02  0.00000000000E+00 0.  1.
         35    2    1    2    0    0  0.00000000000E+00  0.00000000000E+00  0.25662528258E+03  0.37682654391E+03  0.27593787079E+03 0.  0.
         25    1    3    3    0    0 -0.65357036507E+02  0.15706749022E+02  0.14309563490E+03  0.19848074192E+03  0.12000000000E+03 0.  0.
         25    1    3    3    0    0  0.65357036507E+02 -0.15706749022E+02  0.11352964768E+03  0.17834580199E+03  0.12000000000E+03 0.  0.
<mgrwt>
<rscale>  0 0.27593787E+03</rscale>
<asrwt>0</asrwt>
<pdfrwt beam="1">  1        2 0.48727063E-01 0.27593787E+03</pdfrwt>
<pdfrwt beam="2">  1       -2 0.92462510E-02 0.27593787E+03</pdfrwt>
<totfact> 0.76947828E+03</totfact>
</mgrwt>
</event>
<event>
 5    1  0.1140254E+001  0.2750294E+03  0.7818608E-02  0.1098435E+00
         -2   -1    0    0    0  501 -0.00000000000E+00  0.00000000000E+00  0.14017704264E+02  0.14017704264E+02  0.00000000000E+00 0.  1.
          2   -1    0    0  501    0  0.00000000000E+00 -0.00000000000E+00 -0.13490288039E+04  0.13490288039E+04  0.00000000000E+00 0.  1.
         35    2    1    2    0    0  0.00000000000E+00  0.00000000000E+00 -0.13350110996E+04  0.13630465081E+04  0.27502935710E+03 0.  0.
         25    1    3    3    0    0  0.40776029067E+02 -0.48943921136E+02 -0.77288268868E+03  0.78473297524E+03  0.12000000000E+03 0.  0.
         25    1    3    3    0    0 -0.40776029067E+02  0.48943921136E+02 -0.56212841093E+03  0.57831353290E+03  0.12000000000E+03 0.  0.
<mgrwt>
<rscale>  0 0.27502936E+03</rscale>
<asrwt>0</asrwt>
<pdfrwt beam="1">  1        2 0.20754288E+00 0.27502936E+03</pdfrwt>
<pdfrwt beam="2">  1       -2 0.21565700E-02 0.27502936E+03</pdfrwt>
<totfact> 0.11394129E+04</totfact>
</mgrwt>
</event>
<event>
 5    1  0.1140254E+001  0.2750785E+03  0.7818608E-02  0.1098408E+00
         -2   -1    0    0    0  501 -0.00000000000E+00  0.00000000000E+00  0.36016102131E+02  0.36016102131E+02  0.00000000000E+00 0. -1.
          2   -1    0    0  501    0  0.00000000000E+00 -0.00000000000E+00 -0.52523867555E+03  0.52523867555E+03  0.00000000000E+00 0. -1.
         35    2    1    2    0    0  0.00000000000E+00  0.00000000000E+00 -0.48922257342E+03  0.56125477768E+03  0.27507853265E+03 0.  0.
         25    1    3    3    0    0 -0.56616988302E+02  0.30468627577E+02 -0.28455354542E+03  0.31544340355E+03  0.12000000000E+03 0.  0.
         25    1    3    3    0    0  0.56616988302E+02 -0.30468627577E+02 -0.20466902799E+03  0.24581137413E+03  0.12000000000E+03 0.  0.
<mgrwt>
<rscale>  0 0.27507853E+03</rscale>
<asrwt>0</asrwt>
<pdfrwt beam="1">  1        2 0.80805946E-01 0.27507853E+03</pdfrwt>
<pdfrwt beam="2">  1       -2 0.55409391E-02 0.27507853E+03</pdfrwt>
<totfact> 0.97932712E+03</totfact>
</mgrwt>
</event>
<event>
 5    1  0.1140254E+001  0.2755861E+03  0.7818608E-02  0.1098124E+00
         -1   -1    0    0    0  501 -0.00000000000E+00  0.00000000000E+00  0.78631577070E+01  0.78631577070E+01  0.00000000000E+00 0.  1.
          1   -1    0    0  501    0  0.00000000000E+00 -0.00000000000E+00 -0.24146689837E+04  0.24146689837E+04  0.00000000000E+00 0.  1.
         35    2    1    2    0    0  0.00000000000E+00  0.00000000000E+00 -0.24068058260E+04  0.24225321414E+04  0.27558608839E+03 0.  0.
         25    1    3    3    0    0 -0.37564611953E+02 -0.17817518929E+02 -0.16733734608E+04  0.16781857178E+04  0.12000000000E+03 0.  0.
         25    1    3    3    0    0  0.37564611953E+02  0.17817518929E+02 -0.73343236513E+03  0.74434642356E+03  0.12000000000E+03 0.  0.
<mgrwt>
<rscale>  0 0.27558609E+03</rscale>
<asrwt>0</asrwt>
<pdfrwt beam="1">  1        1 0.37148788E+00 0.27558609E+03</pdfrwt>
<pdfrwt beam="2">  1       -1 0.12097154E-02 0.27558609E+03</pdfrwt>
<totfact> 0.25780405E+03</totfact>
</mgrwt>
</event>
<event>
 5    1  0.1140254E+001  0.2770342E+03  0.7818608E-02  0.1097320E+00
         -3   -1    0    0    0  501 -0.00000000000E+00  0.00000000000E+00  0.72347902666E+03  0.72347902666E+03  0.00000000000E+00 0.  1.
          3   -1    0    0  501    0  0.00000000000E+00 -0.00000000000E+00 -0.26520453909E+02  0.26520453909E+02  0.00000000000E+00 0.  1.
         35    2    1    2    0    0  0.00000000000E+00  0.00000000000E+00  0.69695857275E+03  0.74999948057E+03  0.27703423746E+03 0.  0.
         25    1    3    3    0    0  0.57943667386E+02 -0.35857422138E+02  0.31601843211E+03  0.34483455852E+03  0.12000000000E+03 0.  0.
         25    1    3    3    0    0 -0.57943667386E+02  0.35857422138E+02  0.38094014064E+03  0.40516492205E+03  0.12000000000E+03 0.  0.
<mgrwt>
<rscale>  0 0.27703424E+03</rscale>
<asrwt>0</asrwt>
<pdfrwt beam="1">  1        3 0.40800704E-02 0.27703424E+03</pdfrwt>
<pdfrwt beam="2">  1       -3 0.11130445E+00 0.27703424E+03</pdfrwt>
<totfact> 0.56390487E+02</totfact>
</mgrwt>
</event>
<event>
 5    1  0.1140254E+001  0.2735939E+03  0.7818608E-02  0.1099240E+00
          1   -1    0    0  501    0  0.00000000000E+00  0.00000000000E+00  0.28554408416E+03  0.28554408416E+03  0.00000000000E+00 0. -1.
         -1   -1    0    0    0  501 -0.00000000000E+00 -0.00000000000E+00 -0.65535936502E+02  0.65535936502E+02  0.00000000000E+00 0. -1.
         35    2    1    2    0    0  0.00000000000E+00  0.00000000000E+00  0.22000814766E+03  0.35108002067E+03  0.27359385204E+03 0.  0.
         25    1    3    3    0    0 -0.34387207802E+02  0.97390643364E+01  0.39298176536E+02  0.13123138387E+03  0.12000000000E+03 0.  0.
         25    1    3    3    0    0  0.34387207802E+02 -0.97390643364E+01  0.18070997113E+03  0.21984863679E+03  0.12000000000E+03 0.  0.
<mgrwt>
<rscale>  0 0.27359385E+03</rscale>
<asrwt>0</asrwt>
<pdfrwt beam="1">  1        1 0.43929858E-01 0.27359385E+03</pdfrwt>
<pdfrwt beam="2">  1       -1 0.10082452E-01 0.27359385E+03</pdfrwt>
<totfact> 0.55751165E+03</totfact>
</mgrwt>
</event>
<event>
 5    1  0.1140254E+001  0.2757899E+03  0.7818608E-02  0.1098011E+00
         -2   -1    0    0    0  501 -0.00000000000E+00  0.00000000000E+00  0.15745504904E+02  0.15745504904E+02  0.00000000000E+00 0.  1.
          2   -1    0    0  501    0  0.00000000000E+00 -0.00000000000E+00 -0.12076469886E+04  0.12076469886E+04  0.00000000000E+00 0.  1.
         35    2    1    2    0    0  0.00000000000E+00  0.00000000000E+00 -0.11919014837E+04  0.12233924935E+04  0.27578985900E+03 0.  0.
         25    1    3    3    0    0  0.67294371284E+01 -0.67098214657E+02 -0.63241093742E+03  0.64721793046E+03  0.12000000000E+03 0.  0.
         25    1    3    3    0    0 -0.67294371284E+01  0.67098214657E+02 -0.55949054631E+03  0.57617456309E+03  0.12000000000E+03 0.  0.
<mgrwt>
<rscale>  0 0.27578986E+03</rscale>
<asrwt>0</asrwt>
<pdfrwt beam="1">  1        2 0.18579186E+00 0.27578986E+03</pdfrwt>
<pdfrwt beam="2">  1       -2 0.24223852E-02 0.27578986E+03</pdfrwt>
<totfact> 0.11506147E+04</totfact>
</mgrwt>
</event>
<event>
 5    1  0.1140254E+001  0.2747497E+03  0.7818608E-02  0.1098592E+00
         -2   -1    0    0    0  501 -0.00000000000E+00  0.00000000000E+00  0.10068145655E+02  0.10068145655E+02  0.00000000000E+00 0. -1.
          2   -1    0    0  501    0  0.00000000000E+00 -0.00000000000E+00 -0.18744119635E+04  0.18744119635E+04  0.00000000000E+00 0. -1.
         35    2    1    2    0    0  0.00000000000E+00  0.00000000000E+00 -0.18643438178E+04  0.18844801091E+04  0.27474972368E+03 0.  0.
         25    1    3    3    0    0  0.26175420033E+02 -0.23662010506E+02 -0.54255217616E+03  0.55678353713E+03  0.12000000000E+03 0.  0.
         25    1    3    3    0    0 -0.26175420033E+02  0.23662010506E+02 -0.13217916417E+04  0.13276965720E+04  0.12000000000E+03 0.  0.
<mgrwt>
<rscale>  0 0.27474972E+03</rscale>
<asrwt>0</asrwt>
<pdfrwt beam="1">  1        2 0.28837111E+00 0.27474972E+03</pdfrwt>
<pdfrwt beam="2">  1       -2 0.15489453E-02 0.27474972E+03</pdfrwt>
<totfact> 0.97353167E+03</totfact>
</mgrwt>
</event>
<event>
 5    1  0.1140254E+001  0.2748222E+03  0.7818608E-02  0.1098551E+00
         -2   -1    0    0    0  501 -0.00000000000E+00  0.00000000000E+00  0.98986845570E+02  0.98986845570E+02  0.00000000000E+00 0.  1.
          2   -1    0    0  501    0  0.00000000000E+00 -0.00000000000E+00 -0.19075068250E+03  0.19075068250E+03  0.00000000000E+00 0.  1.
         35    2    1    2    0    0  0.00000000000E+00  0.00000000000E+00 -0.91763836928E+02  0.28973752807E+03  0.27482218506E+03 0.  0.
         25    1    3    3    0    0  0.29016378504E+02  0.46174934994E+02 -0.49449898543E+01  0.13190347898E+03  0.12000000000E+03 0.  0.
         25    1    3    3    0    0 -0.29016378504E+02 -0.46174934994E+02 -0.86818847074E+02  0.15783404908E+03  0.12000000000E+03 0.  0.
<mgrwt>
<rscale>  0 0.27482219E+03</rscale>
<asrwt>0</asrwt>
<pdfrwt beam="1">  1        2 0.29346258E-01 0.27482219E+03</pdfrwt>
<pdfrwt beam="2">  1       -2 0.15228746E-01 0.27482219E+03</pdfrwt>
<totfact> 0.59538260E+03</totfact>
</mgrwt>
</event>
<event>
 5    1  0.1140254E+001  0.2744291E+03  0.7818608E-02  0.1098771E+00
          2   -1    0    0  501    0  0.00000000000E+00  0.00000000000E+00  0.40526594408E+03  0.40526594408E+03  0.00000000000E+00 0.  1.
         -2   -1    0    0    0  501 -0.00000000000E+00 -0.00000000000E+00 -0.46457960393E+02  0.46457960393E+02  0.00000000000E+00 0.  1.
         35    2    1    2    0    0  0.00000000000E+00  0.00000000000E+00  0.35880798369E+03  0.45172390448E+03  0.27442907411E+03 0.  0.
         25    1    3    3    0    0 -0.31079473583E+01  0.18562837962E+02  0.74345379962E+02  0.14241303947E+03  0.12000000000E+03 0.  0.
         25    1    3    3    0    0  0.31079473583E+01 -0.18562837962E+02  0.28446260373E+03  0.30931086501E+03  0.12000000000E+03 0.  0.
<mgrwt>
<rscale>  0 0.27442907E+03</rscale>
<asrwt>0</asrwt>
<pdfrwt beam="1">  1        2 0.62348604E-01 0.27442907E+03</pdfrwt>
<pdfrwt beam="2">  1       -2 0.71473788E-02 0.27442907E+03</pdfrwt>
<totfact> 0.88171086E+03</totfact>
</mgrwt>
</event>
<event>
 5    1  0.1140254E+001  0.2749724E+03  0.7818608E-02  0.1098467E+00
          2   -1    0    0  501    0  0.00000000000E+00  0.00000000000E+00  0.22981231885E+03  0.22981231885E+03  0.00000000000E+00 0.  1.
         -2   -1    0    0    0  501 -0.00000000000E+00 -0.00000000000E+00 -0.82251691049E+02  0.82251691049E+02  0.00000000000E+00 0.  1.
         35    2    1    2    0    0  0.00000000000E+00  0.00000000000E+00  0.14756062780E+03  0.31206400990E+03  0.27497237570E+03 0.  0.
         25    1    3    3    0    0 -0.25007842002E+02 -0.22731136924E+02  0.79922348593E+01  0.12492386708E+03  0.12000000000E+03 0.  0.
         25    1    3    3    0    0  0.25007842002E+02  0.22731136924E+02  0.13956839294E+03  0.18714014282E+03  0.12000000000E+03 0.  0.
<mgrwt>
<rscale>  0 0.27497238E+03</rscale>
<asrwt>0</asrwt>
<pdfrwt beam="1">  1        2 0.35355741E-01 0.27497238E+03</pdfrwt>
<pdfrwt beam="2">  1       -2 0.12654106E-01 0.27497238E+03</pdfrwt>
<totfact> 0.65807304E+03</totfact>
</mgrwt>
</event>
<event>
 4    1  0.1140254E+001  0.2965700E+03  0.7818608E-02  0.1086968E+00
          2   -1    0    0  501    0  0.00000000000E+00  0.00000000000E+00  0.54382518854E+02  0.54382518854E+02  0.00000000000E+00 0. -1.
         -2   -1    0    0    0  501 -0.00000000000E+00 -0.00000000000E+00 -0.40432913788E+03  0.40432913788E+03  0.00000000000E+00 0. -1.
         25    1    1    2    0    0 -0.68896949442E+02 -0.46365671319E+02 -0.21565747670E+03  0.26039338005E+03  0.12000000000E+03 0.  0.
         25    1    1    2    0    0  0.68896949442E+02  0.46365671319E+02 -0.13428914233E+03  0.19831827668E+03  0.12000000000E+03 0.  0.
<mgrwt>
<rscale>  0 0.29656997E+03</rscale>
<asrwt>0</asrwt>
<pdfrwt beam="1">  1        2 0.83665419E-02 0.29656997E+03</pdfrwt>
<pdfrwt beam="2">  1       -2 0.62204478E-01 0.29656997E+03</pdfrwt>
<totfact> 0.19700966E+03</totfact>
</mgrwt>
</event>
<event>
 5    1  0.1140254E+001  0.2758614E+03  0.7818608E-02  0.1097971E+00
         -2   -1    0    0    0  501 -0.00000000000E+00  0.00000000000E+00  0.80424127470E+01  0.80424127470E+01  0.00000000000E+00 0. -1.
          2   -1    0    0  501    0  0.00000000000E+00 -0.00000000000E+00 -0.23655688257E+04  0.23655688257E+04  0.00000000000E+00 0. -1.
         35    2    1    2    0    0  0.00000000000E+00  0.00000000000E+00 -0.23575264129E+04  0.23736112384E+04  0.27586142084E+03 0.  0.
         25    1    3    3    0    0 -0.52948978358E+02 -0.42542436044E+02 -0.12078501513E+04  0.12156954558E+04  0.12000000000E+03 0.  0.
         25    1    3    3    0    0  0.52948978358E+02  0.42542436044E+02 -0.11496762616E+04  0.11579157826E+04  0.12000000000E+03 0.  0.
<mgrwt>
<rscale>  0 0.27586142E+03</rscale>
<asrwt>0</asrwt>
<pdfrwt beam="1">  1        2 0.36393352E+00 0.27586142E+03</pdfrwt>
<pdfrwt beam="2">  1       -2 0.12372948E-02 0.27586142E+03</pdfrwt>
<totfact> 0.74209556E+03</totfact>
</mgrwt>
</event>
<event>
 5    1  0.1140254E+001  0.2815500E+03  0.7818608E-02  0.1094845E+00
         -1   -1    0    0    0  501 -0.00000000000E+00  0.00000000000E+00  0.22314119237E+03  0.22314119237E+03  0.00000000000E+00 0. -1.
          1   -1    0    0  501    0  0.00000000000E+00 -0.00000000000E+00 -0.88811909336E+02  0.88811909336E+02  0.00000000000E+00 0. -1.
         35    2    1    2    0    0  0.00000000000E+00  0.00000000000E+00  0.13432928304E+03  0.31195310171E+03  0.28154996250E+03 0.  0.
         25    1    3    3    0    0  0.27439292979E+02  0.25980385234E+02  0.13714947953E+03  0.18611253303E+03  0.12000000000E+03 0.  0.
         25    1    3    3    0    0 -0.27439292979E+02 -0.25980385234E+02 -0.28201964952E+01  0.12584056867E+03  0.12000000000E+03 0.  0.
<mgrwt>
<rscale>  0 0.28154996E+03</rscale>
<asrwt>0</asrwt>
<pdfrwt beam="1">  1        1 0.13663371E-01 0.28154996E+03</pdfrwt>
<pdfrwt beam="2">  1       -1 0.34329414E-01 0.28154996E+03</pdfrwt>
<totfact> 0.33993965E+03</totfact>
</mgrwt>
</event>
<event>
 5    1  0.1140254E+001  0.2717049E+03  0.7818608E-02  0.1100308E+00
         -1   -1    0    0    0  501 -0.00000000000E+00  0.00000000000E+00  0.16214467736E+03  0.16214467736E+03  0.00000000000E+00 0.  1.
          1   -1    0    0  501    0  0.00000000000E+00 -0.00000000000E+00 -0.11382359895E+03  0.11382359895E+03  0.00000000000E+00 0.  1.
         35    2    1    2    0    0  0.00000000000E+00  0.00000000000E+00  0.48321078405E+02  0.27596827631E+03  0.27170491882E+03 0.  0.
         25    1    3    3    0    0  0.31789287123E+02  0.29029889304E+02 -0.23507713079E+02  0.12963759417E+03  0.12000000000E+03 0.  0.
         25    1    3    3    0    0 -0.31789287123E+02 -0.29029889304E+02  0.71828791484E+02  0.14633068214E+03  0.12000000000E+03 0.  0.
<mgrwt>
<rscale>  0 0.27170492E+03</rscale>
<asrwt>0</asrwt>
<pdfrwt beam="1">  1        1 0.17511323E-01 0.27170492E+03</pdfrwt>
<pdfrwt beam="2">  1       -1 0.24945335E-01 0.27170492E+03</pdfrwt>
<totfact> 0.42177984E+03</totfact>
</mgrwt>
</event>
<event>
 5    1  0.1140254E+001  0.2743182E+03  0.7818608E-02  0.1098833E+00
         -1   -1    0    0    0  501 -0.00000000000E+00  0.00000000000E+00  0.90955508553E+01  0.90955508553E+01  0.00000000000E+00 0. -1.
          1   -1    0    0  501    0  0.00000000000E+00 -0.00000000000E+00 -0.20683314906E+04  0.20683314906E+04  0.00000000000E+00 0. -1.
         35    2    1    2    0    0  0.00000000000E+00  0.00000000000E+00 -0.20592359398E+04  0.20774270415E+04  0.27431816752E+03 0.  0.
         25    1    3    3    0    0  0.28753406540E+02  0.42333042545E+02 -0.70887694502E+03  0.72078108193E+03  0.12000000000E+03 0.  0.
         25    1    3    3    0    0 -0.28753406540E+02 -0.42333042545E+02 -0.13503589947E+04  0.13566459595E+04  0.12000000000E+03 0.  0.
<mgrwt>
<rscale>  0 0.27431817E+03</rscale>
<asrwt>0</asrwt>
<pdfrwt beam="1">  1        1 0.31820509E+00 0.27431817E+03</pdfrwt>
<pdfrwt beam="2">  1       -1 0.13993144E-02 0.27431817E+03</pdfrwt>
<totfact> 0.35174475E+03</totfact>
</mgrwt>
</event>
<event>
 5    1  0.1140254E+001  0.2749834E+03  0.7818608E-02  0.1098461E+00
         -3   -1    0    0    0  501 -0.00000000000E+00  0.00000000000E+00  0.39234210475E+02  0.39234210475E+02  0.00000000000E+00 0.  1.
          3   -1    0    0  501    0  0.00000000000E+00 -0.00000000000E+00 -0.48182364631E+03  0.48182364631E+03  0.00000000000E+00 0.  1.
         35    2    1    2    0    0  0.00000000000E+00  0.00000000000E+00 -0.44258943584E+03  0.52105785679E+03  0.27498342024E+03 0.  0.
         25    1    3    3    0    0 -0.33965056633E+02 -0.43320439871E+02 -0.29403613157E+03  0.32231588892E+03  0.12000000000E+03 0.  0.
         25    1    3    3    0    0  0.33965056633E+02  0.43320439871E+02 -0.14855330427E+03  0.19874196787E+03  0.12000000000E+03 0.  0.
<mgrwt>
<rscale>  0 0.27498342E+03</rscale>
<asrwt>0</asrwt>
<pdfrwt beam="1">  1        3 0.74126715E-01 0.27498342E+03</pdfrwt>
<pdfrwt beam="2">  1       -3 0.60360324E-02 0.27498342E+03</pdfrwt>
<totfact> 0.75449219E+02</totfact>
</mgrwt>
</event>
<event>
 5    1  0.1140254E+001  0.2747132E+03  0.7818608E-02  0.1098612E+00
         -2   -1    0    0    0  501 -0.00000000000E+00  0.00000000000E+00  0.81800297789E+01  0.81800297789E+01  0.00000000000E+00 0.  1.
          2   -1    0    0  501    0  0.00000000000E+00 -0.00000000000E+00 -0.23064500311E+04  0.23064500311E+04  0.00000000000E+00 0.  1.
         35    2    1    2    0    0  0.00000000000E+00  0.00000000000E+00 -0.22982700014E+04  0.23146300609E+04  0.27471315905E+03 0.  0.
         25    1    3    3    0    0  0.42723137442E+02 -0.38659361033E+02 -0.86377893767E+03  0.87397589545E+03  0.12000000000E+03 0.  0.
         25    1    3    3    0    0 -0.42723137442E+02  0.38659361033E+02 -0.14344910637E+04  0.14406541655E+04  0.12000000000E+03 0.  0.
<mgrwt>
<rscale>  0 0.27471316E+03</rscale>
<asrwt>0</asrwt>
<pdfrwt beam="1">  1        2 0.35483877E+00 0.27471316E+03</pdfrwt>
<pdfrwt beam="2">  1       -2 0.12584651E-02 0.27471316E+03</pdfrwt>
<totfact> 0.77899970E+03</totfact>
</mgrwt>
</event>
<event>
 5    1  0.1140254E+001  0.2749289E+03  0.7818608E-02  0.1098491E+00
         -2   -1    0    0    0  501 -0.00000000000E+00  0.00000000000E+00  0.67673991635E+02  0.67673991635E+02  0.00000000000E+00 0. -1.
          2   -1    0    0  501    0  0.00000000000E+00 -0.00000000000E+00 -0.27922794907E+03  0.27922794907E+03  0.00000000000E+00 0. -1.
         35    2    1    2    0    0  0.00000000000E+00  0.00000000000E+00 -0.21155395743E+03  0.34690194070E+03  0.27492886272E+03 0.  0.
         25    1    3    3    0    0  0.59595043413E+01  0.64345684885E+02 -0.12836922276E+03  0.18722857743E+03  0.12000000000E+03 0.  0.
         25    1    3    3    0    0 -0.59595043413E+01 -0.64345684885E+02 -0.83184734671E+02  0.15967336327E+03  0.12000000000E+03 0.  0.
<mgrwt>
<rscale>  0 0.27492886E+03</rscale>
<asrwt>0</asrwt>
<pdfrwt beam="1">  1        2 0.42958146E-01 0.27492886E+03</pdfrwt>
<pdfrwt beam="2">  1       -2 0.10411383E-01 0.27492886E+03</pdfrwt>
<totfact> 0.72978472E+03</totfact>
</mgrwt>
</event>
<event>
 5    1  0.1140254E+001  0.2744823E+03  0.7818608E-02  0.1098741E+00
          2   -1    0    0  501    0  0.00000000000E+00  0.00000000000E+00  0.34662526760E+03  0.34662526760E+03  0.00000000000E+00 0.  1.
         -2   -1    0    0    0  501 -0.00000000000E+00 -0.00000000000E+00 -0.54338618524E+02  0.54338618524E+02  0.00000000000E+00 0.  1.
         35    2    1    2    0    0  0.00000000000E+00  0.00000000000E+00  0.29228664908E+03  0.40096388613E+03  0.27448233595E+03 0.  0.
         25    1    3    3    0    0  0.53454246494E+02  0.37260593601E+02  0.12603781411E+03  0.18582582944E+03  0.12000000000E+03 0.  0.
         25    1    3    3    0    0 -0.53454246494E+02 -0.37260593601E+02  0.16624883497E+03  0.21513805668E+03  0.12000000000E+03 0.  0.
<mgrwt>
<rscale>  0 0.27448234E+03</rscale>
<asrwt>0</asrwt>
<pdfrwt beam="1">  1        2 0.53326963E-01 0.27448234E+03</pdfrwt>
<pdfrwt beam="2">  1       -2 0.83597877E-02 0.27448234E+03</pdfrwt>
<totfact> 0.81801737E+03</totfact>
</mgrwt>
</event>
<event>
 5    1  0.1140254E+001  0.2749458E+03  0.7818608E-02  0.1098482E+00
         -1   -1    0    0    0  501 -0.00000000000E+00  0.00000000000E+00  0.10416136977E+02  0.10416136977E+02  0.00000000000E+00 0.  1.
          1   -1    0    0  501    0  0.00000000000E+00 -0.00000000000E+00 -0.18143769282E+04  0.18143769282E+04  0.00000000000E+00 0.  1.
         35    2    1    2    0    0  0.00000000000E+00  0.00000000000E+00 -0.18039607912E+04  0.18247930652E+04  0.27494580275E+03 0.  0.
         25    1    3    3    0    0 -0.58609696194E+02 -0.17216949633E+02 -0.10858217108E+04  0.10941390714E+04  0.12000000000E+03 0.  0.
         25    1    3    3    0    0  0.58609696194E+02  0.17216949633E+02 -0.71813908041E+03  0.73065399380E+03  0.12000000000E+03 0.  0.
<mgrwt>
<rscale>  0 0.27494580E+03</rscale>
<asrwt>0</asrwt>
<pdfrwt beam="1">  1        1 0.27913482E+00 0.27494580E+03</pdfrwt>
<pdfrwt beam="2">  1       -1 0.16024831E-02 0.27494580E+03</pdfrwt>
<totfact> 0.42212031E+03</totfact>
</mgrwt>
</event>
<event>
 5    1  0.1140254E+001  0.2750510E+03  0.7818608E-02  0.1098423E+00
          2   -1    0    0  501    0  0.00000000000E+00  0.00000000000E+00  0.62623114090E+03  0.62623114090E+03  0.00000000000E+00 0. -1.
         -2   -1    0    0    0  501 -0.00000000000E+00 -0.00000000000E+00 -0.30201727479E+02  0.30201727479E+02  0.00000000000E+00 0. -1.
         35    2    1    2    0    0  0.00000000000E+00  0.00000000000E+00  0.59602941342E+03  0.65643286838E+03  0.27505099350E+03 0.  0.
         25    1    3    3    0    0  0.65485461692E+01 -0.41654775302E+02  0.17319697434E+03  0.21488414479E+03  0.12000000000E+03 0.  0.
         25    1    3    3    0    0 -0.65485461692E+01  0.41654775302E+02  0.42283243909E+03  0.44154872359E+03  0.12000000000E+03 0.  0.
<mgrwt>
<rscale>  0 0.27505099E+03</rscale>
<asrwt>0</asrwt>
<pdfrwt beam="1">  1        2 0.96343243E-01 0.27505099E+03</pdfrwt>
<pdfrwt beam="2">  1       -2 0.46464201E-02 0.27505099E+03</pdfrwt>
<totfact> 0.10456516E+04</totfact>
</mgrwt>
</event>
<event>
 5    1  0.1140254E+001  0.2749845E+03  0.7818608E-02  0.1098460E+00
         -2   -1    0    0    0  501 -0.00000000000E+00  0.00000000000E+00  0.18232363564E+03  0.18232363564E+03  0.00000000000E+00 0.  1.
          2   -1    0    0  501    0  0.00000000000E+00 -0.00000000000E+00 -0.10368444383E+03  0.10368444383E+03  0.00000000000E+00 0.  1.
         35    2    1    2    0    0  0.00000000000E+00  0.00000000000E+00  0.78639191802E+02  0.28600807947E+03  0.27498454327E+03 0.  0.
         25    1    3    3    0    0 -0.32503331819E+02 -0.56232859665E+02  0.56894423761E+02  0.14783631672E+03  0.12000000000E+03 0.  0.
         25    1    3    3    0    0  0.32503331819E+02  0.56232859665E+02  0.21744768041E+02  0.13817176275E+03  0.12000000000E+03 0.  0.
<mgrwt>
<rscale>  0 0.27498454E+03</rscale>
<asrwt>0</asrwt>
<pdfrwt beam="1">  1        2 0.15951453E-01 0.27498454E+03</pdfrwt>
<pdfrwt beam="2">  1       -2 0.28049790E-01 0.27498454E+03</pdfrwt>
<totfact> 0.41615781E+03</totfact>
</mgrwt>
</event>
<event>
 5    1  0.1140254E+001  0.2750406E+03  0.7818608E-02  0.1098429E+00
          2   -1    0    0  501    0  0.00000000000E+00  0.00000000000E+00  0.48369620688E+03  0.48369620688E+03  0.00000000000E+00 0. -1.
         -2   -1    0    0    0  501 -0.00000000000E+00 -0.00000000000E+00 -0.39098563923E+02  0.39098563923E+02  0.00000000000E+00 0. -1.
         35    2    1    2    0    0  0.00000000000E+00  0.00000000000E+00  0.44459764295E+03  0.52279477080E+03  0.27504055747E+03 0.  0.
         25    1    3    3    0    0 -0.15132669756E+02 -0.26080776933E+02  0.33638784696E+03  0.35842152307E+03  0.12000000000E+03 0.  0.
         25    1    3    3    0    0  0.15132669756E+02  0.26080776933E+02  0.10820979599E+03  0.16437324773E+03  0.12000000000E+03 0.  0.
<mgrwt>
<rscale>  0 0.27504056E+03</rscale>
<asrwt>0</asrwt>
<pdfrwt beam="1">  1        2 0.74414797E-01 0.27504056E+03</pdfrwt>
<pdfrwt beam="2">  1       -2 0.60151640E-02 0.27504056E+03</pdfrwt>
<totfact> 0.94715989E+03</totfact>
</mgrwt>
</event>
<event>
 5    1  0.1140254E+001  0.2743300E+03  0.7818608E-02  0.1098827E+00
         -1   -1    0    0    0  501 -0.00000000000E+00  0.00000000000E+00  0.93305026021E+02  0.93305026021E+02  0.00000000000E+00 0. -1.
          1   -1    0    0  501    0  0.00000000000E+00 -0.00000000000E+00 -0.20164234033E+03  0.20164234033E+03  0.00000000000E+00 0. -1.
         35    2    1    2    0    0  0.00000000000E+00  0.00000000000E+00 -0.10833731431E+03  0.29494736636E+03  0.27433004802E+03 0.  0.
         25    1    3    3    0    0 -0.63126338832E+02 -0.92533903839E+01 -0.34236662958E+02  0.14015244906E+03  0.12000000000E+03 0.  0.
         25    1    3    3    0    0  0.63126338832E+02  0.92533903839E+01 -0.74100651356E+02  0.15479491729E+03  0.12000000000E+03 0.  0.
<mgrwt>
<rscale>  0 0.27433005E+03</rscale>
<asrwt>0</asrwt>
<pdfrwt beam="1">  1        1 0.31021898E-01 0.27433005E+03</pdfrwt>
<pdfrwt beam="2">  1       -1 0.14354620E-01 0.27433005E+03</pdfrwt>
<totfact> 0.49697101E+03</totfact>
</mgrwt>
</event>
<event>
 5    1  0.1140254E+001  0.2739983E+03  0.7818608E-02  0.1099013E+00
         -2   -1    0    0    0  501 -0.00000000000E+00  0.00000000000E+00  0.12683776250E+02  0.12683776250E+02  0.00000000000E+00 0. -1.
          2   -1    0    0  501    0  0.00000000000E+00 -0.00000000000E+00 -0.14797458767E+04  0.14797458767E+04  0.00000000000E+00 0. -1.
         35    2    1    2    0    0  0.00000000000E+00  0.00000000000E+00 -0.14670621004E+04  0.14924296529E+04  0.27399828910E+03 0.  0.
         25    1    3    3    0    0 -0.43400367498E+02  0.90464830712E+01 -0.46650528971E+03  0.48372783265E+03  0.12000000000E+03 0.  0.
         25    1    3    3    0    0  0.43400367498E+02 -0.90464830712E+01 -0.10005568107E+04  0.10087018203E+04  0.12000000000E+03 0.  0.
<mgrwt>
<rscale>  0 0.27399829E+03</rscale>
<asrwt>0</asrwt>
<pdfrwt beam="1">  1        2 0.22765324E+00 0.27399829E+03</pdfrwt>
<pdfrwt beam="2">  1       -2 0.19513499E-02 0.27399829E+03</pdfrwt>
<totfact> 0.11213365E+04</totfact>
</mgrwt>
</event>
<event>
 5    1  0.1140254E+001  0.2826227E+03  0.7818608E-02  0.1094265E+00
         -1   -1    0    0    0  501 -0.00000000000E+00  0.00000000000E+00  0.28685154651E+02  0.28685154651E+02  0.00000000000E+00 0.  1.
          1   -1    0    0  501    0  0.00000000000E+00 -0.00000000000E+00 -0.69614073459E+03  0.69614073459E+03  0.00000000000E+00 0.  1.
         35    2    1    2    0    0  0.00000000000E+00  0.00000000000E+00 -0.66745557994E+03  0.72482588924E+03  0.28262274948E+03 0.  0.
         25    1    3    3    0    0 -0.49459263777E+02 -0.19895409450E+02 -0.19980395275E+03  0.23908924197E+03  0.12000000000E+03 0.  0.
         25    1    3    3    0    0  0.49459263777E+02  0.19895409450E+02 -0.46765162719E+03  0.48573664727E+03  0.12000000000E+03 0.  0.
<mgrwt>
<rscale>  0 0.28262275E+03</rscale>
<asrwt>0</asrwt>
<pdfrwt beam="1">  1        1 0.10709856E+00 0.28262275E+03</pdfrwt>
<pdfrwt beam="2">  1       -1 0.44131014E-02 0.28262275E+03</pdfrwt>
<totfact> 0.60230517E+03</totfact>
</mgrwt>
</event>
<event>
 5    1  0.1140254E+001  0.2749601E+03  0.7818608E-02  0.1098474E+00
          2   -1    0    0  501    0  0.00000000000E+00  0.00000000000E+00  0.22883741505E+03  0.22883741505E+03  0.00000000000E+00 0.  1.
         -2   -1    0    0    0  501 -0.00000000000E+00 -0.00000000000E+00 -0.82594753468E+02  0.82594753468E+02  0.00000000000E+00 0.  1.
         35    2    1    2    0    0  0.00000000000E+00  0.00000000000E+00  0.14624266158E+03  0.31143216852E+03  0.27496014170E+03 0.  0.
         25    1    3    3    0    0 -0.13180880699E+02 -0.54337102831E+02  0.11511349276E+03  0.17543481005E+03  0.12000000000E+03 0.  0.
         25    1    3    3    0    0  0.13180880699E+02  0.54337102831E+02  0.31129168819E+02  0.13599735847E+03  0.12000000000E+03 0.  0.
<mgrwt>
<rscale>  0 0.27496014E+03</rscale>
<asrwt>0</asrwt>
<pdfrwt beam="1">  1        2 0.35205756E-01 0.27496014E+03</pdfrwt>
<pdfrwt beam="2">  1       -2 0.12706885E-01 0.27496014E+03</pdfrwt>
<totfact> 0.65666393E+03</totfact>
</mgrwt>
</event>
<event>
 5    1  0.1140254E+001  0.2756478E+03  0.7818608E-02  0.1098090E+00
          3   -1    0    0  501    0  0.00000000000E+00  0.00000000000E+00  0.13593970066E+03  0.13593970066E+03  0.00000000000E+00 0.  1.
         -3   -1    0    0    0  501 -0.00000000000E+00 -0.00000000000E+00 -0.13973419076E+03  0.13973419076E+03  0.00000000000E+00 0.  1.
         35    2    1    2    0    0  0.00000000000E+00  0.00000000000E+00 -0.37944901043E+01  0.27567389142E+03  0.27564777571E+03 0.  0.
         25    1    3    3    0    0 -0.64989863536E+02  0.10747083706E+02 -0.17906319037E+02  0.13805730126E+03  0.12000000000E+03 0.  0.
         25    1    3    3    0    0  0.64989863536E+02 -0.10747083706E+02  0.14111828933E+02  0.13761659016E+03  0.12000000000E+03 0.  0.
<mgrwt>
<rscale>  0 0.27564778E+03</rscale>
<asrwt>0</asrwt>
<pdfrwt beam="1">  1        3 0.20913800E-01 0.27564778E+03</pdfrwt>
<pdfrwt beam="2">  1       -3 0.21497568E-01 0.27564778E+03</pdfrwt>
<totfact> 0.10403187E+03</totfact>
</mgrwt>
</event>
<event>
 5    1  0.1140254E+001  0.2723844E+03  0.7818608E-02  0.1099923E+00
         -2   -1    0    0    0  501 -0.00000000000E+00  0.00000000000E+00  0.16022477789E+03  0.16022477789E+03  0.00000000000E+00 0. -1.
          2   -1    0    0  501    0  0.00000000000E+00 -0.00000000000E+00 -0.11576435062E+03  0.11576435062E+03  0.00000000000E+00 0. -1.
         35    2    1    2    0    0  0.00000000000E+00  0.00000000000E+00  0.44460427269E+02  0.27598912852E+03  0.27238441488E+03 0.  0.
         25    1    3    3    0    0 -0.30858734926E+01 -0.54859407931E+02  0.56279096609E+02  0.14347966396E+03  0.12000000000E+03 0.  0.
         25    1    3    3    0    0  0.30858734926E+01  0.54859407931E+02 -0.11818669340E+02  0.13250946456E+03  0.12000000000E+03 0.  0.
<mgrwt>
<rscale>  0 0.27238441E+03</rscale>
<asrwt>0</asrwt>
<pdfrwt beam="1">  1        2 0.17809900E-01 0.27238441E+03</pdfrwt>
<pdfrwt beam="2">  1       -2 0.24649966E-01 0.27238441E+03</pdfrwt>
<totfact> 0.46019404E+03</totfact>
</mgrwt>
</event>
<event>
 5    1  0.1140254E+001  0.2746462E+03  0.7818608E-02  0.1098650E+00
          1   -1    0    0  501    0  0.00000000000E+00  0.00000000000E+00  0.38357030040E+02  0.38357030040E+02  0.00000000000E+00 0.  1.
         -1   -1    0    0    0  501 -0.00000000000E+00 -0.00000000000E+00 -0.49163433949E+03  0.49163433949E+03  0.00000000000E+00 0.  1.
         35    2    1    2    0    0  0.00000000000E+00  0.00000000000E+00 -0.45327730945E+03  0.52999136953E+03  0.27464619516E+03 0.  0.
         25    1    3    3    0    0 -0.12745074220E+02 -0.45581559853E+02 -0.13576693445E+03  0.18727727039E+03  0.12000000000E+03 0.  0.
         25    1    3    3    0    0  0.12745074220E+02  0.45581559853E+02 -0.31751037500E+03  0.34271409914E+03  0.12000000000E+03 0.  0.
<mgrwt>
<rscale>  0 0.27464620E+03</rscale>
<asrwt>0</asrwt>
<pdfrwt beam="1">  1        1 0.59010820E-02 0.27464620E+03</pdfrwt>
<pdfrwt beam="2">  1       -1 0.75636046E-01 0.27464620E+03</pdfrwt>
<totfact> 0.24171627E+03</totfact>
</mgrwt>
</event>
<event>
 5    1  0.1140254E+001  0.2747728E+03  0.7818608E-02  0.1098579E+00
          2   -1    0    0  501    0  0.00000000000E+00  0.00000000000E+00  0.13757432485E+03  0.13757432485E+03  0.00000000000E+00 0. -1.
         -2   -1    0    0    0  501 -0.00000000000E+00 -0.00000000000E+00 -0.13719868940E+03  0.13719868940E+03  0.00000000000E+00 0. -1.
         35    2    1    2    0    0  0.00000000000E+00  0.00000000000E+00  0.37563544993E+00  0.27477301425E+03  0.27477275749E+03 0.  0.
         25    1    3    3    0    0 -0.63863747910E+02  0.19748852571E+02  0.27219057324E+01  0.13738997142E+03  0.12000000000E+03 0.  0.
         25    1    3    3    0    0  0.63863747910E+02 -0.19748852571E+02 -0.23462702825E+01  0.13738304284E+03  0.12000000000E+03 0.  0.
<mgrwt>
<rscale>  0 0.27477276E+03</rscale>
<asrwt>0</asrwt>
<pdfrwt beam="1">  1        2 0.21165281E-01 0.27477276E+03</pdfrwt>
<pdfrwt beam="2">  1       -2 0.21107491E-01 0.27477276E+03</pdfrwt>
<totfact> 0.49460405E+03</totfact>
</mgrwt>
</event>
<event>
 5    1  0.1140254E+001  0.2728243E+03  0.7818608E-02  0.1099674E+00
         -2   -1    0    0    0  501 -0.00000000000E+00  0.00000000000E+00  0.13675160850E+03  0.13675160850E+03  0.00000000000E+00 0.  1.
          2   -1    0    0  501    0  0.00000000000E+00 -0.00000000000E+00 -0.13607350687E+03  0.13607350687E+03  0.00000000000E+00 0.  1.
         35    2    1    2    0    0  0.00000000000E+00  0.00000000000E+00  0.67810162588E+00  0.27282511537E+03  0.27282427267E+03 0.  0.
         25    1    3    3    0    0 -0.89309806443E+01  0.63879850972E+02  0.72581157217E+01  0.13642975489E+03  0.12000000000E+03 0.  0.
         25    1    3    3    0    0  0.89309806443E+01 -0.63879850972E+02 -0.65800140958E+01  0.13639536048E+03  0.12000000000E+03 0.  0.
<mgrwt>
<rscale>  0 0.27282427E+03</rscale>
<asrwt>0</asrwt>
<pdfrwt beam="1">  1        2 0.20934386E-01 0.27282427E+03</pdfrwt>
<pdfrwt beam="2">  1       -2 0.21038709E-01 0.27282427E+03</pdfrwt>
<totfact> 0.50351622E+03</totfact>
</mgrwt>
</event>
<event>
 5    1  0.1140254E+001  0.2750674E+03  0.7818608E-02  0.1098414E+00
         -2   -1    0    0    0  501 -0.00000000000E+00  0.00000000000E+00  0.69982434380E+02  0.69982434380E+02  0.00000000000E+00 0.  1.
          2   -1    0    0  501    0  0.00000000000E+00 -0.00000000000E+00 -0.27028944146E+03  0.27028944146E+03  0.00000000000E+00 0.  1.
         35    2    1    2    0    0  0.00000000000E+00  0.00000000000E+00 -0.20030700708E+03  0.34027187584E+03  0.27506735975E+03 0.  0.
         25    1    3    3    0    0  0.57179652471E+02  0.35223963284E+02 -0.10299410222E+03  0.17180810615E+03  0.12000000000E+03 0.  0.
         25    1    3    3    0    0 -0.57179652471E+02 -0.35223963284E+02 -0.97312904857E+02  0.16846376969E+03  0.12000000000E+03 0.  0.
<mgrwt>
<rscale>  0 0.27506736E+03</rscale>
<asrwt>0</asrwt>
<pdfrwt beam="1">  1        2 0.41582992E-01 0.27506736E+03</pdfrwt>
<pdfrwt beam="2">  1       -2 0.10766528E-01 0.27506736E+03</pdfrwt>
<totfact> 0.71638208E+03</totfact>
</mgrwt>
</event>
<event>
 5    1  0.1140254E+001  0.2752088E+03  0.7818608E-02  0.1098335E+00
          2   -1    0    0  501    0  0.00000000000E+00  0.00000000000E+00  0.24591497150E+02  0.24591497150E+02  0.00000000000E+00 0. -1.
         -2   -1    0    0    0  501 -0.00000000000E+00 -0.00000000000E+00 -0.76998013015E+03  0.76998013015E+03  0.00000000000E+00 0. -1.
         35    2    1    2    0    0  0.00000000000E+00  0.00000000000E+00 -0.74538863300E+03  0.79457162730E+03  0.27520875114E+03 0.  0.
         25    1    3    3    0    0  0.52745189198E+02 -0.41349499033E+02 -0.39165487339E+03  0.41507273568E+03  0.12000000000E+03 0.  0.
         25    1    3    3    0    0 -0.52745189198E+02  0.41349499033E+02 -0.35373375961E+03  0.37949889162E+03  0.12000000000E+03 0.  0.
<mgrwt>
<rscale>  0 0.27520875E+03</rscale>
<asrwt>0</asrwt>
<pdfrwt beam="1">  1        2 0.37833077E-02 0.27520875E+03</pdfrwt>
<pdfrwt beam="2">  1       -2 0.11845847E+00 0.27520875E+03</pdfrwt>
<totfact> 0.13094443E+03</totfact>
</mgrwt>
</event>
<event>
 5    1  0.1140254E+001  0.2751776E+03  0.7818608E-02  0.1098352E+00
          1   -1    0    0  501    0  0.00000000000E+00  0.00000000000E+00  0.66298519000E+02  0.66298519000E+02  0.00000000000E+00 0.  1.
         -1   -1    0    0    0  501 -0.00000000000E+00 -0.00000000000E+00 -0.28553705359E+03  0.28553705359E+03  0.00000000000E+00 0.  1.
         35    2    1    2    0    0  0.00000000000E+00  0.00000000000E+00 -0.21923853459E+03  0.35183557259E+03  0.27517764279E+03 0.  0.
         25    1    3    3    0    0  0.41815509940E+02 -0.42271205755E+02 -0.14995610723E+03  0.20105279357E+03  0.12000000000E+03 0.  0.
         25    1    3    3    0    0 -0.41815509940E+02  0.42271205755E+02 -0.69282427360E+02  0.15078277902E+03  0.12000000000E+03 0.  0.
<mgrwt>
<rscale>  0 0.27517764E+03</rscale>
<asrwt>0</asrwt>
<pdfrwt beam="1">  1        1 0.10199772E-01 0.27517764E+03</pdfrwt>
<pdfrwt beam="2">  1       -1 0.43928776E-01 0.27517764E+03</pdfrwt>
<totfact> 0.32429634E+03</totfact>
</mgrwt>
</event>
<event>
 5    1  0.1140254E+001  0.2767985E+03  0.7818608E-02  0.1097451E+00
          1   -1    0    0  501    0  0.00000000000E+00  0.00000000000E+00  0.53876086902E+02  0.53876086902E+02  0.00000000000E+00 0. -1.
         -1   -1    0    0    0  501 -0.00000000000E+00 -0.00000000000E+00 -0.35552594316E+03  0.35552594316E+03  0.00000000000E+00 0. -1.
         35    2    1    2    0    0  0.00000000000E+00  0.00000000000E+00 -0.30164985626E+03  0.40940203006E+03  0.27679845816E+03 0.  0.
         25    1    3    3    0    0 -0.63348528350E+02 -0.24788281204E+02 -0.13416648394E+03  0.19242697405E+03  0.12000000000E+03 0.  0.
         25    1    3    3    0    0  0.63348528350E+02  0.24788281204E+02 -0.16748337232E+03  0.21697505601E+03  0.12000000000E+03 0.  0.
<mgrwt>
<rscale>  0 0.27679846E+03</rscale>
<asrwt>0</asrwt>
<pdfrwt beam="1">  1        1 0.82886290E-02 0.27679846E+03</pdfrwt>
<pdfrwt beam="2">  1       -1 0.54696297E-01 0.27679846E+03</pdfrwt>
<totfact> 0.28657378E+03</totfact>
</mgrwt>
</event>
<event>
 5    1  0.1140254E+001  0.2750195E+03  0.7818608E-02  0.1098441E+00
          2   -1    0    0  501    0  0.00000000000E+00  0.00000000000E+00  0.49387449790E+03  0.49387449790E+03  0.00000000000E+00 0. -1.
         -2   -1    0    0    0  501 -0.00000000000E+00 -0.00000000000E+00 -0.38286921602E+02  0.38286921602E+02  0.00000000000E+00 0. -1.
         35    2    1    2    0    0  0.00000000000E+00  0.00000000000E+00  0.45558757630E+03  0.53216141950E+03  0.27501952063E+03 0.  0.
         25    1    3    3    0    0 -0.65265803566E+02  0.15079808594E+02  0.23685081365E+03  0.27383450051E+03  0.12000000000E+03 0.  0.
         25    1    3    3    0    0  0.65265803566E+02 -0.15079808594E+02  0.21873676264E+03  0.25832691899E+03  0.12000000000E+03 0.  0.
<mgrwt>
<rscale>  0 0.27501952E+03</rscale>
<asrwt>0</asrwt>
<pdfrwt beam="1">  1        2 0.75980688E-01 0.27501952E+03</pdfrwt>
<pdfrwt beam="2">  1       -2 0.58902960E-02 0.27501952E+03</pdfrwt>
<totfact> 0.95567867E+03</totfact>
</mgrwt>
</event>
<event>
 5    1  0.1140254E+001  0.2751607E+03  0.7818608E-02  0.1098362E+00
         -2   -1    0    0    0  501 -0.00000000000E+00  0.00000000000E+00  0.19181679429E+02  0.19181679429E+02  0.00000000000E+00 0.  1.
          2   -1    0    0  501    0  0.00000000000E+00 -0.00000000000E+00 -0.98679295851E+03  0.98679295851E+03  0.00000000000E+00 0.  1.
         35    2    1    2    0    0  0.00000000000E+00  0.00000000000E+00 -0.96761127908E+03  0.10059746379E+04  0.27516065266E+03 0.  0.
         25    1    3    3    0    0  0.35009055787E+02 -0.45871073888E+02 -0.61037541466E+03  0.62473029079E+03  0.12000000000E+03 0.  0.
         25    1    3    3    0    0 -0.35009055787E+02  0.45871073888E+02 -0.35723586442E+03  0.38124434715E+03  0.12000000000E+03 0.  0.
<mgrwt>
<rscale>  0 0.27516065E+03</rscale>
<asrwt>0</asrwt>
<pdfrwt beam="1">  1        2 0.15181432E+00 0.27516065E+03</pdfrwt>
<pdfrwt beam="2">  1       -2 0.29510273E-02 0.27516065E+03</pdfrwt>
<totfact> 0.11585451E+04</totfact>
</mgrwt>
</event>
<event>
 5    1  0.1140254E+001  0.2751382E+03  0.7818608E-02  0.1098374E+00
          1   -1    0    0  501    0  0.00000000000E+00  0.00000000000E+00  0.14253654418E+04  0.14253654418E+04  0.00000000000E+00 0.  1.
         -1   -1    0    0    0  501 -0.00000000000E+00 -0.00000000000E+00 -0.13277480123E+02  0.13277480123E+02  0.00000000000E+00 0.  1.
         35    2    1    2    0    0  0.00000000000E+00  0.00000000000E+00  0.14120879616E+04  0.14386429219E+04  0.27513822941E+03 0.  0.
         25    1    3    3    0    0  0.59911893949E+02 -0.16867819375E+02  0.57260165617E+03  0.58834226009E+03  0.12000000000E+03 0.  0.
         25    1    3    3    0    0 -0.59911893949E+02  0.16867819375E+02  0.83948630546E+03  0.85030066178E+03  0.12000000000E+03 0.  0.
<mgrwt>
<rscale>  0 0.27513823E+03</rscale>
<asrwt>0</asrwt>
<pdfrwt beam="1">  1        1 0.21928687E+00 0.27513823E+03</pdfrwt>
<pdfrwt beam="2">  1       -1 0.20426904E-02 0.27513823E+03</pdfrwt>
<totfact> 0.53351209E+03</totfact>
</mgrwt>
</event>
<event>
 5    1  0.1140254E+001  0.2756173E+03  0.7818608E-02  0.1098107E+00
          2   -1    0    0  501    0  0.00000000000E+00  0.00000000000E+00  0.28699115645E+04  0.28699115645E+04  0.00000000000E+00 0.  1.
         -2   -1    0    0    0  501 -0.00000000000E+00 -0.00000000000E+00 -0.66173559211E+01  0.66173559211E+01  0.00000000000E+00 0.  1.
         35    2    1    2    0    0  0.00000000000E+00  0.00000000000E+00  0.28632942086E+04  0.28765289205E+04  0.27561731647E+03 0.  0.
         25    1    3    3    0    0 -0.15650918585E+02  0.32703700379E+02  0.83422204426E+03  0.84358811181E+03  0.12000000000E+03 0.  0.
         25    1    3    3    0    0  0.15650918585E+02 -0.32703700379E+02  0.20290721644E+04  0.20329408086E+04  0.12000000000E+03 0.  0.
<mgrwt>
<rscale>  0 0.27561732E+03</rscale>
<asrwt>0</asrwt>
<pdfrwt beam="1">  1        2 0.44152386E+00 0.27561732E+03</pdfrwt>
<pdfrwt beam="2">  1       -2 0.10180570E-02 0.27561732E+03</pdfrwt>
<totfact> 0.51586076E+03</totfact>
</mgrwt>
</event>
<event>
 5    1  0.1140254E+001  0.2757081E+03  0.7818608E-02  0.1098056E+00
          2   -1    0    0  501    0  0.00000000000E+00  0.00000000000E+00  0.21564299131E+03  0.21564299131E+03  0.00000000000E+00 0. -1.
         -2   -1    0    0    0  501 -0.00000000000E+00 -0.00000000000E+00 -0.88125961269E+02  0.88125961269E+02  0.00000000000E+00 0. -1.
         35    2    1    2    0    0  0.00000000000E+00  0.00000000000E+00  0.12751703004E+03  0.30376895258E+03  0.27570814932E+03 0.  0.
         25    1    3    3    0    0  0.21557932587E+02  0.64227696114E+02  0.59664927945E+02  0.15016605819E+03  0.12000000000E+03 0.  0.
         25    1    3    3    0    0 -0.21557932587E+02 -0.64227696114E+02  0.67852102095E+02  0.15360289439E+03  0.12000000000E+03 0.  0.
<mgrwt>
<rscale>  0 0.27570815E+03</rscale>
<asrwt>0</asrwt>
<pdfrwt beam="1">  1        2 0.33175845E-01 0.27570815E+03</pdfrwt>
<pdfrwt beam="2">  1       -2 0.13557840E-01 0.27570815E+03</pdfrwt>
<totfact> 0.63032915E+03</totfact>
</mgrwt>
</event>
<event>
 5    1  0.1140254E+001  0.2747135E+03  0.7818608E-02  0.1098612E+00
         -1   -1    0    0    0  501 -0.00000000000E+00  0.00000000000E+00  0.26754579542E+02  0.26754579542E+02  0.00000000000E+00 0.  1.
          1   -1    0    0  501    0  0.00000000000E+00 -0.00000000000E+00 -0.70518292855E+03  0.70518292855E+03  0.00000000000E+00 0.  1.
         35    2    1    2    0    0  0.00000000000E+00  0.00000000000E+00 -0.67842834901E+03  0.73193750809E+03  0.27471347075E+03 0.  0.
         25    1    3    3    0    0  0.46769469012E+02 -0.22271333959E+02 -0.22669466540E+03  0.26167511702E+03  0.12000000000E+03 0.  0.
         25    1    3    3    0    0 -0.46769469012E+02  0.22271333959E+02 -0.45173368361E+03  0.47026239107E+03  0.12000000000E+03 0.  0.
<mgrwt>
<rscale>  0 0.27471347E+03</rscale>
<asrwt>0</asrwt>
<pdfrwt beam="1">  1        1 0.10848968E+00 0.27471347E+03</pdfrwt>
<pdfrwt beam="2">  1       -1 0.41160894E-02 0.27471347E+03</pdfrwt>
<totfact> 0.65526504E+03</totfact>
</mgrwt>
</event>
<event>
 5    1  0.1140254E+001  0.2789225E+03  0.7818608E-02  0.1096279E+00
          2   -1    0    0  501    0  0.00000000000E+00  0.00000000000E+00  0.89141552488E+03  0.89141552488E+03  0.00000000000E+00 0.  1.
         -2   -1    0    0    0  501 -0.00000000000E+00 -0.00000000000E+00 -0.21818607013E+02  0.21818607013E+02  0.00000000000E+00 0.  1.
         35    2    1    2    0    0  0.00000000000E+00  0.00000000000E+00  0.86959691787E+03  0.91323413189E+03  0.27892253421E+03 0.  0.
         25    1    3    3    0    0 -0.28298815743E+01 -0.61527475795E+02  0.31877123584E+03  0.34613399040E+03  0.12000000000E+03 0.  0.
         25    1    3    3    0    0  0.28298815743E+01  0.61527475795E+02  0.55082568202E+03  0.56710014149E+03  0.12000000000E+03 0.  0.
<mgrwt>
<rscale>  0 0.27892253E+03</rscale>
<asrwt>0</asrwt>
<pdfrwt beam="1">  1        2 0.13714082E+00 0.27892253E+03</pdfrwt>
<pdfrwt beam="2">  1       -2 0.33567095E-02 0.27892253E+03</pdfrwt>
<totfact> 0.10990138E+04</totfact>
</mgrwt>
</event>
<event>
 5    1  0.1140254E+001  0.2635919E+03  0.7818608E-02  0.1105004E+00
         -2   -1    0    0    0  501 -0.00000000000E+00  0.00000000000E+00  0.61788849664E+02  0.61788849664E+02  0.00000000000E+00 0. -1.
          2   -1    0    0  501    0  0.00000000000E+00 -0.00000000000E+00 -0.28112137680E+03  0.28112137680E+03  0.00000000000E+00 0. -1.
         35    2    1    2    0    0  0.00000000000E+00  0.00000000000E+00 -0.21933252714E+03  0.34291022647E+03  0.26359185487E+03 0.  0.
         25    1    3    3    0    0  0.14555054795E+02  0.48825498105E+02 -0.13483776847E+03  0.18755533235E+03  0.12000000000E+03 0.  0.
         25    1    3    3    0    0 -0.14555054795E+02 -0.48825498105E+02 -0.84494758670E+02  0.15535489412E+03  0.12000000000E+03 0.  0.
<mgrwt>
<rscale>  0 0.26359185E+03</rscale>
<asrwt>0</asrwt>
<pdfrwt beam="1">  1        2 0.43249442E-01 0.26359185E+03</pdfrwt>
<pdfrwt beam="2">  1       -2 0.95059769E-02 0.26359185E+03</pdfrwt>
<totfact> 0.83571961E+03</totfact>
</mgrwt>
</event>
<event>
 5    1  0.1140254E+001  0.2760213E+03  0.7818608E-02  0.1097882E+00
          2   -1    0    0  501    0  0.00000000000E+00  0.00000000000E+00  0.26232806265E+02  0.26232806265E+02  0.00000000000E+00 0. -1.
         -2   -1    0    0    0  501 -0.00000000000E+00 -0.00000000000E+00 -0.72607312821E+03  0.72607312821E+03  0.00000000000E+00 0. -1.
         35    2    1    2    0    0  0.00000000000E+00  0.00000000000E+00 -0.69984032194E+03  0.75230593447E+03  0.27602127241E+03 0.  0.
         25    1    3    3    0    0 -0.75420147342E+00 -0.65927228905E+02 -0.39712526354E+03  0.42006599871E+03  0.12000000000E+03 0.  0.
         25    1    3    3    0    0  0.75420147342E+00  0.65927228905E+02 -0.30271505841E+03  0.33223993577E+03  0.12000000000E+03 0.  0.
<mgrwt>
<rscale>  0 0.27602127E+03</rscale>
<asrwt>0</asrwt>
<pdfrwt beam="1">  1        2 0.40358169E-02 0.27602127E+03</pdfrwt>
<pdfrwt beam="2">  1       -2 0.11170354E+00 0.27602127E+03</pdfrwt>
<totfact> 0.13819029E+03</totfact>
</mgrwt>
</event>
<event>
 5    1  0.1140254E+001  0.2754112E+03  0.7818608E-02  0.1098222E+00
         -3   -1    0    0    0  501 -0.00000000000E+00  0.00000000000E+00  0.13170168195E+04  0.13170168195E+04  0.00000000000E+00 0.  1.
          3   -1    0    0  501    0  0.00000000000E+00 -0.00000000000E+00 -0.14398319546E+02  0.14398319546E+02  0.00000000000E+00 0.  1.
         35    2    1    2    0    0  0.00000000000E+00  0.00000000000E+00  0.13026185000E+04  0.13314151391E+04  0.27541117635E+03 0.  0.
         25    1    3    3    0    0  0.26346022488E+02  0.61881904721E+02  0.68163294547E+03  0.69537540608E+03  0.12000000000E+03 0.  0.
         25    1    3    3    0    0 -0.26346022488E+02 -0.61881904721E+02  0.62098555452E+03  0.63603973300E+03  0.12000000000E+03 0.  0.
<mgrwt>
<rscale>  0 0.27541118E+03</rscale>
<asrwt>0</asrwt>
<pdfrwt beam="1">  1        3 0.22151271E-02 0.27541118E+03</pdfrwt>
<pdfrwt beam="2">  1       -3 0.20261788E+00 0.27541118E+03</pdfrwt>
<totfact> 0.31702362E+02</totfact>
</mgrwt>
</event>
<event>
 5    1  0.1140254E+001  0.2702402E+03  0.7818608E-02  0.1101142E+00
         -1   -1    0    0    0  501 -0.00000000000E+00  0.00000000000E+00  0.14648468359E+03  0.14648468359E+03  0.00000000000E+00 0.  1.
          1   -1    0    0  501    0  0.00000000000E+00 -0.00000000000E+00 -0.12463720942E+03  0.12463720942E+03  0.00000000000E+00 0.  1.
         35    2    1    2    0    0  0.00000000000E+00  0.00000000000E+00  0.21847474172E+02  0.27112189301E+03  0.27024020563E+03 0.  0.
         25    1    3    3    0    0  0.17196580554E+02 -0.48226530311E+01 -0.48755310329E+02  0.13075190496E+03  0.12000000000E+03 0.  0.
         25    1    3    3    0    0 -0.17196580554E+02  0.48226530311E+01  0.70602784502E+02  0.14036998805E+03  0.12000000000E+03 0.  0.
<mgrwt>
<rscale>  0 0.27024021E+03</rscale>
<asrwt>0</asrwt>
<pdfrwt beam="1">  1        1 0.19174955E-01 0.27024021E+03</pdfrwt>
<pdfrwt beam="2">  1       -1 0.22536105E-01 0.27024021E+03</pdfrwt>
<totfact> 0.44348723E+03</totfact>
</mgrwt>
</event>
<event>
 5    1  0.1140254E+001  0.2747551E+03  0.7818608E-02  0.1098589E+00
         -2   -1    0    0    0  501 -0.00000000000E+00  0.00000000000E+00  0.78203661710E+02  0.78203661710E+02  0.00000000000E+00 0. -1.
          2   -1    0    0  501    0  0.00000000000E+00 -0.00000000000E+00 -0.24132619586E+03  0.24132619586E+03  0.00000000000E+00 0. -1.
         35    2    1    2    0    0  0.00000000000E+00  0.00000000000E+00 -0.16312253415E+03  0.31952985757E+03  0.27475510683E+03 0.  0.
         25    1    3    3    0    0 -0.36932109578E+02  0.32542834374E+02 -0.28911358432E+02  0.13288673159E+03  0.12000000000E+03 0.  0.
         25    1    3    3    0    0  0.36932109578E+02 -0.32542834374E+02 -0.13421117572E+03  0.18664312598E+03  0.12000000000E+03 0.  0.
<mgrwt>
<rscale>  0 0.27475511E+03</rscale>
<asrwt>0</asrwt>
<pdfrwt beam="1">  1        2 0.37127107E-01 0.27475511E+03</pdfrwt>
<pdfrwt beam="2">  1       -2 0.12031333E-01 0.27475511E+03</pdfrwt>
<totfact> 0.67722603E+03</totfact>
</mgrwt>
</event>
<event>
 5    1  0.1140254E+001  0.2747350E+03  0.7818608E-02  0.1098600E+00
         -2   -1    0    0    0  501 -0.00000000000E+00  0.00000000000E+00  0.10679044899E+02  0.10679044899E+02  0.00000000000E+00 0.  1.
          2   -1    0    0  501    0  0.00000000000E+00 -0.00000000000E+00 -0.17669957543E+04  0.17669957543E+04  0.00000000000E+00 0.  1.
         35    2    1    2    0    0  0.00000000000E+00  0.00000000000E+00 -0.17563167094E+04  0.17776747992E+04  0.27473497772E+03 0.  0.
         25    1    3    3    0    0 -0.42177592768E+02  0.47247379750E+02 -0.10167183173E+04  0.10257326167E+04  0.12000000000E+03 0.  0.
         25    1    3    3    0    0  0.42177592768E+02 -0.47247379750E+02 -0.73959839210E+03  0.75194218250E+03  0.12000000000E+03 0.  0.
<mgrwt>
<rscale>  0 0.27473498E+03</rscale>
<asrwt>0</asrwt>
<pdfrwt beam="1">  1        2 0.27184541E+00 0.27473498E+03</pdfrwt>
<pdfrwt beam="2">  1       -2 0.16429305E-02 0.27473498E+03</pdfrwt>
<totfact> 0.10168934E+04</totfact>
</mgrwt>
</event>
<event>
 5    1  0.1140254E+001  0.2746700E+03  0.7818608E-02  0.1098636E+00
         -2   -1    0    0    0  501 -0.00000000000E+00  0.00000000000E+00  0.34628037897E+02  0.34628037897E+02  0.00000000000E+00 0.  1.
          2   -1    0    0  501    0  0.00000000000E+00 -0.00000000000E+00 -0.54467149047E+03  0.54467149047E+03  0.00000000000E+00 0.  1.
         35    2    1    2    0    0  0.00000000000E+00  0.00000000000E+00 -0.51004345258E+03  0.57929952837E+03  0.27467002031E+03 0.  0.
         25    1    3    3    0    0  0.19680883017E+01 -0.65940822867E+02 -0.23301855763E+03  0.27027710538E+03  0.12000000000E+03 0.  0.
         25    1    3    3    0    0 -0.19680883017E+01  0.65940822867E+02 -0.27702489495E+03  0.30902242299E+03  0.12000000000E+03 0.  0.
<mgrwt>
<rscale>  0 0.27467002E+03</rscale>
<asrwt>0</asrwt>
<pdfrwt beam="1">  1        2 0.83795608E-01 0.27467002E+03</pdfrwt>
<pdfrwt beam="2">  1       -2 0.53273908E-02 0.27467002E+03</pdfrwt>
<totfact> 0.99788300E+03</totfact>
</mgrwt>
</event>
<event>
 5    1  0.1140254E+001  0.2754424E+03  0.7818608E-02  0.1098205E+00
         -2   -1    0    0    0  501 -0.00000000000E+00  0.00000000000E+00  0.63508180756E+03  0.63508180756E+03  0.00000000000E+00 0.  1.
          2   -1    0    0  501    0  0.00000000000E+00 -0.00000000000E+00 -0.29865638691E+02  0.29865638691E+02  0.00000000000E+00 0.  1.
         35    2    1    2    0    0  0.00000000000E+00  0.00000000000E+00  0.60521616887E+03  0.66494744625E+03  0.27544236278E+03 0.  0.
         25    1    3    3    0    0  0.53625699526E+02 -0.16602708053E+00  0.20332454338E+03  0.24210868046E+03  0.12000000000E+03 0.  0.
         25    1    3    3    0    0 -0.53625699526E+02  0.16602708053E+00  0.40189162550E+03  0.42283876579E+03  0.12000000000E+03 0.  0.
<mgrwt>
<rscale>  0 0.27544236E+03</rscale>
<asrwt>0</asrwt>
<pdfrwt beam="1">  1        2 0.45947141E-02 0.27544236E+03</pdfrwt>
<pdfrwt beam="2">  1       -2 0.97704884E-01 0.27544236E+03</pdfrwt>
<totfact> 0.15914919E+03</totfact>
</mgrwt>
</event>
<event>
 5    1  0.1140254E+001  0.2747633E+03  0.7818608E-02  0.1098584E+00
         -2   -1    0    0    0  501 -0.00000000000E+00  0.00000000000E+00  0.20209240038E+02  0.20209240038E+02  0.00000000000E+00 0. -1.
          2   -1    0    0  501    0  0.00000000000E+00 -0.00000000000E+00 -0.93391536428E+03  0.93391536428E+03  0.00000000000E+00 0. -1.
         35    2    1    2    0    0  0.00000000000E+00  0.00000000000E+00 -0.91370612424E+03  0.95412460432E+03  0.27476331467E+03 0.  0.
         25    1    3    3    0    0 -0.55757392894E+02  0.36656771537E+02 -0.47280934435E+03  0.49234264681E+03  0.12000000000E+03 0.  0.
         25    1    3    3    0    0  0.55757392894E+02 -0.36656771537E+02 -0.44089677989E+03  0.46178195751E+03  0.12000000000E+03 0.  0.
<mgrwt>
<rscale>  0 0.27476331E+03</rscale>
<asrwt>0</asrwt>
<pdfrwt beam="1">  1        2 0.14367930E+00 0.27476331E+03</pdfrwt>
<pdfrwt beam="2">  1       -2 0.31091136E-02 0.27476331E+03</pdfrwt>
<totfact> 0.11566138E+04</totfact>
</mgrwt>
</event>
<event>
 5    1  0.1140254E+001  0.2752418E+03  0.7818608E-02  0.1098316E+00
         -1   -1    0    0    0  501 -0.00000000000E+00  0.00000000000E+00  0.24922703128E+02  0.24922703128E+02  0.00000000000E+00 0. -1.
          1   -1    0    0  501    0  0.00000000000E+00 -0.00000000000E+00 -0.75993031767E+03  0.75993031767E+03  0.00000000000E+00 0. -1.
         35    2    1    2    0    0  0.00000000000E+00  0.00000000000E+00 -0.73500761454E+03  0.78485302079E+03  0.27524184061E+03 0.  0.
         25    1    3    3    0    0  0.26723205466E+02  0.33025574180E+02 -0.21838628392E+03  0.25277932523E+03  0.12000000000E+03 0.  0.
         25    1    3    3    0    0 -0.26723205466E+02 -0.33025574180E+02 -0.51662133062E+03  0.53207369556E+03  0.12000000000E+03 0.  0.
<mgrwt>
<rscale>  0 0.27524184E+03</rscale>
<asrwt>0</asrwt>
<pdfrwt beam="1">  1        1 0.11691237E+00 0.27524184E+03</pdfrwt>
<pdfrwt beam="2">  1       -1 0.38342615E-02 0.27524184E+03</pdfrwt>
<totfact> 0.65170203E+03</totfact>
</mgrwt>
</event>
<event>
 5    1  0.1140254E+001  0.2754864E+03  0.7818608E-02  0.1098180E+00
         -2   -1    0    0    0  501 -0.00000000000E+00  0.00000000000E+00  0.78075846566E+02  0.78075846566E+02  0.00000000000E+00 0. -1.
          2   -1    0    0  501    0  0.00000000000E+00 -0.00000000000E+00 -0.24300969988E+03  0.24300969988E+03  0.00000000000E+00 0. -1.
         35    2    1    2    0    0  0.00000000000E+00  0.00000000000E+00 -0.16493385332E+03  0.32108554645E+03  0.27548639198E+03 0.  0.
         25    1    3    3    0    0  0.58223099776E+02 -0.25667830699E+02 -0.10915767247E+03  0.17425316163E+03  0.12000000000E+03 0.  0.
         25    1    3    3    0    0 -0.58223099776E+02  0.25667830699E+02 -0.55776180846E+02  0.14683238481E+03  0.12000000000E+03 0.  0.
<mgrwt>
<rscale>  0 0.27548639E+03</rscale>
<asrwt>0</asrwt>
<pdfrwt beam="1">  1        2 0.37386107E-01 0.27548639E+03</pdfrwt>
<pdfrwt beam="2">  1       -2 0.12011669E-01 0.27548639E+03</pdfrwt>
<totfact> 0.67399422E+03</totfact>
</mgrwt>
</event>
<event>
 5    1  0.1140254E+001  0.2756864E+03  0.7818608E-02  0.1098069E+00
          1   -1    0    0  501    0  0.00000000000E+00  0.00000000000E+00  0.24568563526E+04  0.24568563526E+04  0.00000000000E+00 0.  1.
         -1   -1    0    0    0  501 -0.00000000000E+00 -0.00000000000E+00 -0.77337631892E+01  0.77337631892E+01  0.00000000000E+00 0.  1.
         35    2    1    2    0    0  0.00000000000E+00  0.00000000000E+00  0.24491225894E+04  0.24645901158E+04  0.27568638139E+03 0.  0.
         25    1    3    3    0    0 -0.23728338793E+02  0.60351186686E+02  0.10467854843E+04  0.10556349511E+04  0.12000000000E+03 0.  0.
         25    1    3    3    0    0  0.23728338793E+02 -0.60351186686E+02  0.14023371052E+04  0.14089551648E+04  0.12000000000E+03 0.  0.
<mgrwt>
<rscale>  0 0.27568638E+03</rscale>
<asrwt>0</asrwt>
<pdfrwt beam="1">  1        1 0.37797728E+00 0.27568638E+03</pdfrwt>
<pdfrwt beam="2">  1       -1 0.11898117E-02 0.27568638E+03</pdfrwt>
<totfact> 0.24763729E+03</totfact>
</mgrwt>
</event>
<event>
 5    1  0.1140254E+001  0.2742901E+03  0.7818608E-02  0.1098849E+00
          2   -1    0    0  501    0  0.00000000000E+00  0.00000000000E+00  0.50025524429E+03  0.50025524429E+03  0.00000000000E+00 0. -1.
         -2   -1    0    0    0  501 -0.00000000000E+00 -0.00000000000E+00 -0.37598346492E+02  0.37598346492E+02  0.00000000000E+00 0. -1.
         35    2    1    2    0    0  0.00000000000E+00  0.00000000000E+00  0.46265689780E+03  0.53785359079E+03  0.27429013843E+03 0.  0.
         25    1    3    3    0    0  0.52002128275E+02  0.18146939117E+02  0.30404657765E+03  0.33147828605E+03  0.12000000000E+03 0.  0.
         25    1    3    3    0    0 -0.52002128275E+02 -0.18146939117E+02  0.15861032015E+03  0.20637530473E+03  0.12000000000E+03 0.  0.
<mgrwt>
<rscale>  0 0.27429014E+03</rscale>
<asrwt>0</asrwt>
<pdfrwt beam="1">  1        2 0.76962341E-01 0.27429014E+03</pdfrwt>
<pdfrwt beam="2">  1       -2 0.57843613E-02 0.27429014E+03</pdfrwt>
<totfact> 0.96852118E+03</totfact>
</mgrwt>
</event>
<event>
 5    1  0.1140254E+001  0.2736245E+03  0.7818608E-02  0.1099223E+00
          2   -1    0    0  501    0  0.00000000000E+00  0.00000000000E+00  0.26707703363E+03  0.26707703363E+03  0.00000000000E+00 0. -1.
         -2   -1    0    0    0  501 -0.00000000000E+00 -0.00000000000E+00 -0.70083096307E+02  0.70083096307E+02  0.00000000000E+00 0. -1.
         35    2    1    2    0    0  0.00000000000E+00  0.00000000000E+00  0.19699393732E+03  0.33716012993E+03  0.27362445409E+03 0.  0.
         25    1    3    3    0    0 -0.44683550662E+02 -0.22129733483E+02  0.15122651275E+03  0.19938857280E+03  0.12000000000E+03 0.  0.
         25    1    3    3    0    0  0.44683550662E+02  0.22129733483E+02  0.45767424568E+02  0.13777155713E+03  0.12000000000E+03 0.  0.
<mgrwt>
<rscale>  0 0.27362445E+03</rscale>
<asrwt>0</asrwt>
<pdfrwt beam="1">  1        2 0.41088774E-01 0.27362445E+03</pdfrwt>
<pdfrwt beam="2">  1       -2 0.10782015E-01 0.27362445E+03</pdfrwt>
<totfact> 0.72385123E+03</totfact>
</mgrwt>
</event>
<event>
 5    1  0.1140254E+001  0.2744022E+03  0.7818608E-02  0.1098786E+00
         -1   -1    0    0    0  501 -0.00000000000E+00  0.00000000000E+00  0.19539559193E+02  0.19539559193E+02  0.00000000000E+00 0. -1.
          1   -1    0    0  501    0  0.00000000000E+00 -0.00000000000E+00 -0.96338614501E+03  0.96338614501E+03  0.00000000000E+00 0. -1.
         35    2    1    2    0    0  0.00000000000E+00  0.00000000000E+00 -0.94384658582E+03  0.98292570420E+03  0.27440219100E+03 0.  0.
         25    1    3    3    0    0  0.31755053668E+02 -0.49107260013E+02 -0.58543760419E+03  0.60046406621E+03  0.12000000000E+03 0.  0.
         25    1    3    3    0    0 -0.31755053668E+02  0.49107260013E+02 -0.35840898163E+03  0.38246163799E+03  0.12000000000E+03 0.  0.
<mgrwt>
<rscale>  0 0.27440219E+03</rscale>
<asrwt>0</asrwt>
<pdfrwt beam="1">  1        1 0.14821323E+00 0.27440219E+03</pdfrwt>
<pdfrwt beam="2">  1       -1 0.30060864E-02 0.27440219E+03</pdfrwt>
<totfact> 0.64052209E+03</totfact>
</mgrwt>
</event>
<event>
 5    1  0.1140254E+001  0.2741005E+03  0.7818608E-02  0.1098955E+00
          2   -1    0    0  501    0  0.00000000000E+00  0.00000000000E+00  0.95587041986E+03  0.95587041986E+03  0.00000000000E+00 0.  1.
         -2   -1    0    0    0  501 -0.00000000000E+00 -0.00000000000E+00 -0.19649908780E+02  0.19649908780E+02  0.00000000000E+00 0.  1.
         35    2    1    2    0    0  0.00000000000E+00  0.00000000000E+00  0.93622051108E+03  0.97552032864E+03  0.27410046739E+03 0.  0.
         25    1    3    3    0    0 -0.21109646813E+02 -0.88309271428E+01  0.68920232794E+03  0.69994532023E+03  0.12000000000E+03 0.  0.
         25    1    3    3    0    0  0.21109646813E+02  0.88309271428E+01  0.24701818314E+03  0.27557500842E+03  0.12000000000E+03 0.  0.
<mgrwt>
<rscale>  0 0.27410047E+03</rscale>
<asrwt>0</asrwt>
<pdfrwt beam="1">  1        2 0.14705695E+00 0.27410047E+03</pdfrwt>
<pdfrwt beam="2">  1       -2 0.30230636E-02 0.27410047E+03</pdfrwt>
<totfact> 0.11681048E+04</totfact>
</mgrwt>
</event>
<event>
 5    1  0.1140254E+001  0.2760245E+03  0.7818608E-02  0.1097880E+00
          2   -1    0    0  501    0  0.00000000000E+00  0.00000000000E+00  0.38912563558E+03  0.38912563558E+03  0.00000000000E+00 0.  1.
         -2   -1    0    0    0  501 -0.00000000000E+00 -0.00000000000E+00 -0.48949185169E+02  0.48949185169E+02  0.00000000000E+00 0.  1.
         35    2    1    2    0    0  0.00000000000E+00  0.00000000000E+00  0.34017645041E+03  0.43807482075E+03  0.27602451188E+03 0.  0.
         25    1    3    3    0    0  0.26641319413E+02  0.33494868531E+02  0.85872126774E+02  0.15364142760E+03  0.12000000000E+03 0.  0.
         25    1    3    3    0    0 -0.26641319413E+02 -0.33494868531E+02  0.25430432364E+03  0.28443339315E+03  0.12000000000E+03 0.  0.
<mgrwt>
<rscale>  0 0.27602451E+03</rscale>
<asrwt>0</asrwt>
<pdfrwt beam="1">  1        2 0.59865481E-01 0.27602451E+03</pdfrwt>
<pdfrwt beam="2">  1       -2 0.75306441E-02 0.27602451E+03</pdfrwt>
<totfact> 0.84988731E+03</totfact>
</mgrwt>
</event>
<event>
 5    1  0.1140254E+001  0.2748109E+03  0.7818608E-02  0.1098557E+00
         -1   -1    0    0    0  501 -0.00000000000E+00  0.00000000000E+00  0.16959122709E+03  0.16959122709E+03  0.00000000000E+00 0. -1.
          1   -1    0    0  501    0  0.00000000000E+00 -0.00000000000E+00 -0.11132803362E+03  0.11132803362E+03  0.00000000000E+00 0. -1.
         35    2    1    2    0    0  0.00000000000E+00  0.00000000000E+00  0.58263193470E+02  0.28091926072E+03  0.27481090104E+03 0.  0.
         25    1    3    3    0    0  0.20325690466E+02  0.51209482078E+02 -0.97226383758E+01  0.13240118747E+03  0.12000000000E+03 0.  0.
         25    1    3    3    0    0 -0.20325690466E+02 -0.51209482078E+02  0.67985831845E+02  0.14851807324E+03  0.12000000000E+03 0.  0.
<mgrwt>
<rscale>  0 0.27481090E+03</rscale>
<asrwt>0</asrwt>
<pdfrwt beam="1">  1        1 0.17127390E-01 0.27481090E+03</pdfrwt>
<pdfrwt beam="2">  1       -1 0.26090958E-01 0.27481090E+03</pdfrwt>
<totfact> 0.40294767E+03</totfact>
</mgrwt>
</event>
<event>
 5    1  0.1140254E+001  0.2745752E+03  0.7818608E-02  0.1098689E+00
         -1   -1    0    0    0  501 -0.00000000000E+00  0.00000000000E+00  0.27112699419E+02  0.27112699419E+02  0.00000000000E+00 0. -1.
          1   -1    0    0  501    0  0.00000000000E+00 -0.00000000000E+00 -0.69516809490E+03  0.69516809490E+03  0.00000000000E+00 0. -1.
         35    2    1    2    0    0  0.00000000000E+00  0.00000000000E+00 -0.66805539548E+03  0.72228079432E+03  0.27457518900E+03 0.  0.
         25    1    3    3    0    0 -0.26462743913E+02 -0.60474193845E+02 -0.35904945872E+03  0.38428364361E+03  0.12000000000E+03 0.  0.
         25    1    3    3    0    0  0.26462743913E+02  0.60474193845E+02 -0.30900593676E+03  0.33799715071E+03  0.12000000000E+03 0.  0.
<mgrwt>
<rscale>  0 0.27457519E+03</rscale>
<asrwt>0</asrwt>
<pdfrwt beam="1">  1        1 0.10694893E+00 0.27457519E+03</pdfrwt>
<pdfrwt beam="2">  1       -1 0.41711847E-02 0.27457519E+03</pdfrwt>
<totfact> 0.65596653E+03</totfact>
</mgrwt>
</event>
<event>
 5    1  0.1140254E+001  0.2740425E+03  0.7818608E-02  0.1098988E+00
          2   -1    0    0  501    0  0.00000000000E+00  0.00000000000E+00  0.14614589953E+03  0.14614589953E+03  0.00000000000E+00 0. -1.
         -2   -1    0    0    0  501 -0.00000000000E+00 -0.00000000000E+00 -0.12846625525E+03  0.12846625525E+03  0.00000000000E+00 0. -1.
         35    2    1    2    0    0  0.00000000000E+00  0.00000000000E+00  0.17679644280E+02  0.27461215479E+03  0.27404245243E+03 0.  0.
         25    1    3    3    0    0  0.34112927540E+02  0.50022701795E+02 -0.17839837274E+02  0.13558842987E+03  0.12000000000E+03 0.  0.
         25    1    3    3    0    0 -0.34112927540E+02 -0.50022701795E+02  0.35519481554E+02  0.13902372492E+03  0.12000000000E+03 0.  0.
<mgrwt>
<rscale>  0 0.27404245E+03</rscale>
<asrwt>0</asrwt>
<pdfrwt beam="1">  1        2 0.22483985E-01 0.27404245E+03</pdfrwt>
<pdfrwt beam="2">  1       -2 0.19764039E-01 0.27404245E+03</pdfrwt>
<totfact> 0.51694749E+03</totfact>
</mgrwt>
</event>
<event>
 5    1  0.1140254E+001  0.2752669E+03  0.7818608E-02  0.1098303E+00
          2   -1    0    0  501    0  0.00000000000E+00  0.00000000000E+00  0.21059391543E+03  0.21059391543E+03  0.00000000000E+00 0. -1.
         -2   -1    0    0    0  501 -0.00000000000E+00 -0.00000000000E+00 -0.89950202858E+02  0.89950202858E+02  0.00000000000E+00 0. -1.
         35    2    1    2    0    0  0.00000000000E+00  0.00000000000E+00  0.12064371257E+03  0.30054411828E+03  0.27526689168E+03 0.  0.
         25    1    3    3    0    0 -0.64620163060E+01  0.51065176991E+02  0.10783275754E+03  0.16934377330E+03  0.12000000000E+03 0.  0.
         25    1    3    3    0    0  0.64620163060E+01 -0.51065176991E+02  0.12810955027E+02  0.13120034499E+03  0.12000000000E+03 0.  0.
<mgrwt>
<rscale>  0 0.27526689E+03</rscale>
<asrwt>0</asrwt>
<pdfrwt beam="1">  1        2 0.32399064E-01 0.27526689E+03</pdfrwt>
<pdfrwt beam="2">  1       -2 0.13838493E-01 0.27526689E+03</pdfrwt>
<totfact> 0.62545946E+03</totfact>
</mgrwt>
</event>
<event>
 5    1  0.1140254E+001  0.2742909E+03  0.7818608E-02  0.1098849E+00
          2   -1    0    0  501    0  0.00000000000E+00  0.00000000000E+00  0.74733446258E+02  0.74733446258E+02  0.00000000000E+00 0.  1.
         -2   -1    0    0    0  501 -0.00000000000E+00 -0.00000000000E+00 -0.25167946830E+03  0.25167946830E+03  0.00000000000E+00 0.  1.
         35    2    1    2    0    0  0.00000000000E+00  0.00000000000E+00 -0.17694602205E+03  0.32641291456E+03  0.27429089681E+03 0.  0.
         25    1    3    3    0    0 -0.22379365192E+02  0.46963497702E+02 -0.39371437830E+02  0.13658885833E+03  0.12000000000E+03 0.  0.
         25    1    3    3    0    0  0.22379365192E+02 -0.46963497702E+02 -0.13757458422E+03  0.18982405623E+03  0.12000000000E+03 0.  0.
<mgrwt>
<rscale>  0 0.27429090E+03</rscale>
<asrwt>0</asrwt>
<pdfrwt beam="1">  1        2 0.11497453E-01 0.27429090E+03</pdfrwt>
<pdfrwt beam="2">  1       -2 0.38719918E-01 0.27429090E+03</pdfrwt>
<totfact> 0.33997593E+03</totfact>
</mgrwt>
</event>
<event>
 5    1  0.1140254E+001  0.2771491E+03  0.7818608E-02  0.1097256E+00
         -2   -1    0    0    0  501 -0.00000000000E+00  0.00000000000E+00  0.10812783567E+04  0.10812783567E+04  0.00000000000E+00 0. -1.
          2   -1    0    0  501    0  0.00000000000E+00 -0.00000000000E+00 -0.17759450876E+02  0.17759450876E+02  0.00000000000E+00 0. -1.
         35    2    1    2    0    0  0.00000000000E+00  0.00000000000E+00  0.10635189058E+04  0.10990378076E+04  0.27714912851E+03 0.  0.
         25    1    3    3    0    0  0.79173868162E+01 -0.61479797655E+02  0.40886321061E+03  0.43059444437E+03  0.12000000000E+03 0.  0.
         25    1    3    3    0    0 -0.79173868162E+01  0.61479797655E+02  0.65465569519E+03  0.66844336318E+03  0.12000000000E+03 0.  0.
<mgrwt>
<rscale>  0 0.27714913E+03</rscale>
<asrwt>0</asrwt>
<pdfrwt beam="1">  1        2 0.27322241E-02 0.27714913E+03</pdfrwt>
<pdfrwt beam="2">  1       -2 0.16635046E+00 0.27714913E+03</pdfrwt>
<totfact> 0.85978639E+02</totfact>
</mgrwt>
</event>
<event>
 5    1  0.1140254E+001  0.2752935E+03  0.7818608E-02  0.1098288E+00
          2   -1    0    0  501    0  0.00000000000E+00  0.00000000000E+00  0.15574143120E+04  0.15574143120E+04  0.00000000000E+00 0. -1.
         -2   -1    0    0    0  501 -0.00000000000E+00 -0.00000000000E+00 -0.12165437905E+02  0.12165437905E+02  0.00000000000E+00 0. -1.
         35    2    1    2    0    0  0.00000000000E+00  0.00000000000E+00  0.15452488741E+04  0.15695797499E+04  0.27529349505E+03 0.  0.
         25    1    3    3    0    0  0.19104860342E+02  0.64518281196E+02  0.74775735981E+03  0.76030827527E+03  0.12000000000E+03 0.  0.
         25    1    3    3    0    0 -0.19104860342E+02 -0.64518281196E+02  0.79749151429E+03  0.80927147463E+03  0.12000000000E+03 0.  0.
<mgrwt>
<rscale>  0 0.27529350E+03</rscale>
<asrwt>0</asrwt>
<pdfrwt beam="1">  1        2 0.23960204E+00 0.27529350E+03</pdfrwt>
<pdfrwt beam="2">  1       -2 0.18716071E-02 0.27529350E+03</pdfrwt>
<totfact> 0.10837331E+04</totfact>
</mgrwt>
</event>
<event>
 5    1  0.1140254E+001  0.2748312E+03  0.7818608E-02  0.1098546E+00
          1   -1    0    0  501    0  0.00000000000E+00  0.00000000000E+00  0.81451613091E+02  0.81451613091E+02  0.00000000000E+00 0. -1.
         -1   -1    0    0    0  501 -0.00000000000E+00 -0.00000000000E+00 -0.23183146899E+03  0.23183146899E+03  0.00000000000E+00 0. -1.
         35    2    1    2    0    0  0.00000000000E+00  0.00000000000E+00 -0.15037985590E+03  0.31328308208E+03  0.27483119994E+03 0.  0.
         25    1    3    3    0    0 -0.18806758003E+02  0.63697802631E+02 -0.84858557118E+02  0.16128260577E+03  0.12000000000E+03 0.  0.
         25    1    3    3    0    0  0.18806758003E+02 -0.63697802631E+02 -0.65521298783E+02  0.15200047632E+03  0.12000000000E+03 0.  0.
<mgrwt>
<rscale>  0 0.27483120E+03</rscale>
<asrwt>0</asrwt>
<pdfrwt beam="1">  1        1 0.12531018E-01 0.27483120E+03</pdfrwt>
<pdfrwt beam="2">  1       -1 0.35666379E-01 0.27483120E+03</pdfrwt>
<totfact> 0.35645207E+03</totfact>
</mgrwt>
</event>
<event>
 5    1  0.1140254E+001  0.2744466E+03  0.7818608E-02  0.1098761E+00
          2   -1    0    0  501    0  0.00000000000E+00  0.00000000000E+00  0.74183775799E+03  0.74183775799E+03  0.00000000000E+00 0.  1.
         -2   -1    0    0    0  501 -0.00000000000E+00 -0.00000000000E+00 -0.25383223278E+02  0.25383223278E+02  0.00000000000E+00 0.  1.
         35    2    1    2    0    0  0.00000000000E+00  0.00000000000E+00  0.71645453471E+03  0.76722098127E+03  0.27444659551E+03 0.  0.
         25    1    3    3    0    0 -0.46179314101E+02  0.34261543290E+01  0.22456848709E+03  0.25879581329E+03  0.12000000000E+03 0.  0.
         25    1    3    3    0    0  0.46179314101E+02 -0.34261543290E+01  0.49188604762E+03  0.50842516798E+03  0.12000000000E+03 0.  0.
<mgrwt>
<rscale>  0 0.27444660E+03</rscale>
<asrwt>0</asrwt>
<pdfrwt beam="1">  1        2 0.11412887E+00 0.27444660E+03</pdfrwt>
<pdfrwt beam="2">  1       -2 0.39051118E-02 0.27444660E+03</pdfrwt>
<totfact> 0.11081854E+04</totfact>
</mgrwt>
</event>
<event>
 5    1  0.1140254E+001  0.2745344E+03  0.7818608E-02  0.1098712E+00
         -2   -1    0    0    0  501 -0.00000000000E+00  0.00000000000E+00  0.19177675204E+02  0.19177675204E+02  0.00000000000E+00 0.  1.
          2   -1    0    0  501    0  0.00000000000E+00 -0.00000000000E+00 -0.98251154086E+03  0.98251154086E+03  0.00000000000E+00 0.  1.
         35    2    1    2    0    0  0.00000000000E+00  0.00000000000E+00 -0.96333386565E+03  0.10016892161E+04  0.27453442199E+03 0.  0.
         25    1    3    3    0    0 -0.42749757615E+02  0.31912219545E+02 -0.33588589957E+03  0.36064562809E+03  0.12000000000E+03 0.  0.
         25    1    3    3    0    0  0.42749757615E+02 -0.31912219545E+02 -0.62744796609E+03  0.64104358797E+03  0.12000000000E+03 0.  0.
<mgrwt>
<rscale>  0 0.27453442E+03</rscale>
<asrwt>0</asrwt>
<pdfrwt beam="1">  1        2 0.15115564E+00 0.27453442E+03</pdfrwt>
<pdfrwt beam="2">  1       -2 0.29504112E-02 0.27453442E+03</pdfrwt>
<totfact> 0.11658919E+04</totfact>
</mgrwt>
</event>
<event>
 5    1  0.1140254E+001  0.2761682E+03  0.7818608E-02  0.1097800E+00
          1   -1    0    0  501    0  0.00000000000E+00  0.00000000000E+00  0.12322197102E+02  0.12322197102E+02  0.00000000000E+00 0. -1.
         -1   -1    0    0    0  501 -0.00000000000E+00 -0.00000000000E+00 -0.15473876445E+04  0.15473876445E+04  0.00000000000E+00 0. -1.
         35    2    1    2    0    0  0.00000000000E+00  0.00000000000E+00 -0.15350654474E+04  0.15597098416E+04  0.27616817738E+03 0.  0.
         25    1    3    3    0    0  0.26736774611E+02  0.14244715062E+02 -0.11133557258E+04  0.11202137025E+04  0.12000000000E+03 0.  0.
         25    1    3    3    0    0 -0.26736774611E+02 -0.14244715062E+02 -0.42170972158E+03  0.43949613912E+03  0.12000000000E+03 0.  0.
<mgrwt>
<rscale>  0 0.27616818E+03</rscale>
<asrwt>0</asrwt>
<pdfrwt beam="1">  1        1 0.18957222E-02 0.27616818E+03</pdfrwt>
<pdfrwt beam="2">  1       -1 0.23805969E+00 0.27616818E+03</pdfrwt>
<totfact> 0.61629851E+02</totfact>
</mgrwt>
</event>
<event>
 5    1  0.1140254E+001  0.2744143E+03  0.7818608E-02  0.1098779E+00
          1   -1    0    0  501    0  0.00000000000E+00  0.00000000000E+00  0.84151527417E+03  0.84151527417E+03  0.00000000000E+00 0.  1.
         -1   -1    0    0    0  501 -0.00000000000E+00 -0.00000000000E+00 -0.22371316648E+02  0.22371316648E+02  0.00000000000E+00 0.  1.
         35    2    1    2    0    0  0.00000000000E+00  0.00000000000E+00  0.81914395752E+03  0.86388659082E+03  0.27441431932E+03 0.  0.
         25    1    3    3    0    0 -0.49393940005E+02 -0.42915160690E+02  0.44739287220E+03  0.46780535955E+03  0.12000000000E+03 0.  0.
         25    1    3    3    0    0  0.49393940005E+02  0.42915160690E+02  0.37175108533E+03  0.39608123128E+03  0.12000000000E+03 0.  0.
<mgrwt>
<rscale>  0 0.27441432E+03</rscale>
<asrwt>0</asrwt>
<pdfrwt beam="1">  1        1 0.12946386E+00 0.27441432E+03</pdfrwt>
<pdfrwt beam="2">  1       -1 0.34417417E-02 0.27441432E+03</pdfrwt>
<totfact> 0.65368241E+03</totfact>
</mgrwt>
</event>
<event>
 5    1  0.1140254E+001  0.2755520E+03  0.7818608E-02  0.1098143E+00
          3   -1    0    0  501    0  0.00000000000E+00  0.00000000000E+00  0.13868295732E+03  0.13868295732E+03  0.00000000000E+00 0. -1.
         -3   -1    0    0    0  501 -0.00000000000E+00 -0.00000000000E+00 -0.13687495541E+03  0.13687495541E+03  0.00000000000E+00 0. -1.
         35    2    1    2    0    0  0.00000000000E+00  0.00000000000E+00  0.18080019098E+01  0.27555791273E+03  0.27555198130E+03 0.  0.
         25    1    3    3    0    0 -0.29473204033E+02 -0.53266429349E+02  0.30506012234E+02  0.13797318230E+03  0.12000000000E+03 0.  0.
         25    1    3    3    0    0  0.29473204033E+02  0.53266429349E+02 -0.28698010324E+02  0.13758473043E+03  0.12000000000E+03 0.  0.
<mgrwt>
<rscale>  0 0.27555198E+03</rscale>
<asrwt>0</asrwt>
<pdfrwt beam="1">  1        3 0.21335840E-01 0.27555198E+03</pdfrwt>
<pdfrwt beam="2">  1       -3 0.21057685E-01 0.27555198E+03</pdfrwt>
<totfact> 0.10416099E+03</totfact>
</mgrwt>
</event>
<event>
 5    1  0.1140254E+001  0.2733661E+03  0.7818608E-02  0.1099368E+00
          2   -1    0    0  501    0  0.00000000000E+00  0.00000000000E+00  0.79009591112E+03  0.79009591112E+03  0.00000000000E+00 0.  1.
         -2   -1    0    0    0  501 -0.00000000000E+00 -0.00000000000E+00 -0.23645560091E+02  0.23645560091E+02  0.00000000000E+00 0.  1.
         35    2    1    2    0    0  0.00000000000E+00  0.00000000000E+00  0.76645035103E+03  0.81374147121E+03  0.27336613063E+03 0.  0.
         25    1    3    3    0    0  0.24191818042E+02  0.17314882190E+02  0.55672658765E+03  0.57028899919E+03  0.12000000000E+03 0.  0.
         25    1    3    3    0    0 -0.24191818042E+02 -0.17314882190E+02  0.20972376338E+03  0.24345247202E+03  0.12000000000E+03 0.  0.
<mgrwt>
<rscale>  0 0.27336613E+03</rscale>
<asrwt>0</asrwt>
<pdfrwt beam="1">  1        2 0.12155320E+00 0.27336613E+03</pdfrwt>
<pdfrwt beam="2">  1       -2 0.36377791E-02 0.27336613E+03</pdfrwt>
<totfact> 0.11389484E+04</totfact>
</mgrwt>
</event>
<event>
 5    1  0.1140254E+001  0.2750088E+03  0.7818608E-02  0.1098447E+00
          2   -1    0    0  501    0  0.00000000000E+00  0.00000000000E+00  0.29517278420E+03  0.29517278420E+03  0.00000000000E+00 0. -1.
         -2   -1    0    0    0  501 -0.00000000000E+00 -0.00000000000E+00 -0.64055570954E+02  0.64055570954E+02  0.00000000000E+00 0. -1.
         35    2    1    2    0    0  0.00000000000E+00  0.00000000000E+00  0.23111721324E+03  0.35922835515E+03  0.27500880874E+03 0.  0.
         25    1    3    3    0    0  0.30844266778E+02  0.16230026587E+02  0.40603939503E+02  0.13139049608E+03  0.12000000000E+03 0.  0.
         25    1    3    3    0    0 -0.30844266778E+02 -0.16230026587E+02  0.19051327374E+03  0.22783785907E+03  0.12000000000E+03 0.  0.
<mgrwt>
<rscale>  0 0.27500881E+03</rscale>
<asrwt>0</asrwt>
<pdfrwt beam="1">  1        2 0.45411197E-01 0.27500881E+03</pdfrwt>
<pdfrwt beam="2">  1       -2 0.98547034E-02 0.27500881E+03</pdfrwt>
<totfact> 0.75029592E+03</totfact>
</mgrwt>
</event>
<event>
 5    1  0.1140254E+001  0.2752869E+03  0.7818608E-02  0.1098291E+00
         -4   -1    0    0    0  501 -0.00000000000E+00  0.00000000000E+00  0.19617585294E+03  0.19617585294E+03  0.00000000000E+00 0.  1.
          4   -1    0    0  501    0  0.00000000000E+00 -0.00000000000E+00 -0.96575175945E+02  0.96575175945E+02  0.00000000000E+00 0.  1.
         35    2    1    2    0    0  0.00000000000E+00  0.00000000000E+00  0.99600676998E+02  0.29275102889E+03  0.27528688682E+03 0.  0.
         25    1    3    3    0    0  0.33288435540E+02  0.40614386787E+02  0.48321842603E+01  0.13107630739E+03  0.12000000000E+03 0.  0.
         25    1    3    3    0    0 -0.33288435540E+02 -0.40614386787E+02  0.94768492738E+02  0.16167472150E+03  0.12000000000E+03 0.  0.
<mgrwt>
<rscale>  0 0.27528689E+03</rscale>
<asrwt>0</asrwt>
<pdfrwt beam="1">  1        4 0.14857719E-01 0.27528689E+03</pdfrwt>
<pdfrwt beam="2">  1       -4 0.30180900E-01 0.27528689E+03</pdfrwt>
<totfact> 0.75565096E+02</totfact>
</mgrwt>
</event>
<event>
 5    1  0.1140254E+001  0.2724465E+03  0.7818608E-02  0.1099888E+00
          1   -1    0    0  501    0  0.00000000000E+00  0.00000000000E+00  0.35925930977E+03  0.35925930977E+03  0.00000000000E+00 0.  1.
         -1   -1    0    0    0  501 -0.00000000000E+00 -0.00000000000E+00 -0.51652851111E+02  0.51652851111E+02  0.00000000000E+00 0.  1.
         35    2    1    2    0    0  0.00000000000E+00  0.00000000000E+00  0.30760645866E+03  0.41091216088E+03  0.27244645447E+03 0.  0.
         25    1    3    3    0    0 -0.48754683579E+02  0.59879251381E+01  0.90819586105E+02  0.15830689069E+03  0.12000000000E+03 0.  0.
         25    1    3    3    0    0  0.48754683579E+02 -0.59879251381E+01  0.21678687256E+03  0.25260527020E+03  0.12000000000E+03 0.  0.
<mgrwt>
<rscale>  0 0.27244645E+03</rscale>
<asrwt>0</asrwt>
<pdfrwt beam="1">  1        1 0.55270661E-01 0.27244645E+03</pdfrwt>
<pdfrwt beam="2">  1       -1 0.79465927E-02 0.27244645E+03</pdfrwt>
<totfact> 0.60140702E+03</totfact>
</mgrwt>
</event>
<event>
 5    1  0.1140254E+001  0.2749830E+03  0.7818608E-02  0.1098461E+00
          2   -1    0    0  501    0  0.00000000000E+00  0.00000000000E+00  0.19490864482E+04  0.19490864482E+04  0.00000000000E+00 0.  1.
         -2   -1    0    0    0  501 -0.00000000000E+00 -0.00000000000E+00 -0.96988609988E+01  0.96988609988E+01  0.00000000000E+00 0.  1.
         35    2    1    2    0    0  0.00000000000E+00  0.00000000000E+00  0.19393875872E+04  0.19587853092E+04  0.27498304337E+03 0.  0.
         25    1    3    3    0    0  0.36556417587E+02  0.36394708984E+02  0.12754957754E+04  0.12821662995E+04  0.12000000000E+03 0.  0.
         25    1    3    3    0    0 -0.36556417587E+02 -0.36394708984E+02  0.66389181175E+03  0.67661900965E+03  0.12000000000E+03 0.  0.
<mgrwt>
<rscale>  0 0.27498304E+03</rscale>
<asrwt>0</asrwt>
<pdfrwt beam="1">  1        2 0.29985914E+00 0.27498304E+03</pdfrwt>
<pdfrwt beam="2">  1       -2 0.14921340E-02 0.27498304E+03</pdfrwt>
<totfact> 0.93949202E+03</totfact>
</mgrwt>
</event>
<event>
 5    1  0.1140254E+001  0.2753276E+03  0.7818608E-02  0.1098269E+00
          1   -1    0    0  501    0  0.00000000000E+00  0.00000000000E+00  0.16872223801E+04  0.16872223801E+04  0.00000000000E+00 0. -1.
         -1   -1    0    0    0  501 -0.00000000000E+00 -0.00000000000E+00 -0.11232259056E+02  0.11232259056E+02  0.00000000000E+00 0. -1.
         35    2    1    2    0    0  0.00000000000E+00  0.00000000000E+00  0.16759901210E+04  0.16984546391E+04  0.27532757841E+03 0.  0.
         25    1    3    3    0    0  0.12399802102E+02  0.66235125860E+02  0.81803249603E+03  0.82952878886E+03  0.12000000000E+03 0.  0.
         25    1    3    3    0    0 -0.12399802102E+02 -0.66235125860E+02  0.85795762499E+03  0.86892585027E+03  0.12000000000E+03 0.  0.
<mgrwt>
<rscale>  0 0.27532758E+03</rscale>
<asrwt>0</asrwt>
<pdfrwt beam="1">  1        1 0.25957247E+00 0.27532758E+03</pdfrwt>
<pdfrwt beam="2">  1       -1 0.17280412E-02 0.27532758E+03</pdfrwt>
<totfact> 0.45759766E+03</totfact>
</mgrwt>
</event>
<event>
 5    1  0.1140254E+001  0.2757985E+03  0.7818608E-02  0.1098006E+00
         -2   -1    0    0    0  501 -0.00000000000E+00  0.00000000000E+00  0.69801032389E+02  0.69801032389E+02  0.00000000000E+00 0.  1.
          2   -1    0    0  501    0  0.00000000000E+00 -0.00000000000E+00 -0.27243449850E+03  0.27243449850E+03  0.00000000000E+00 0.  1.
         35    2    1    2    0    0  0.00000000000E+00  0.00000000000E+00 -0.20263346611E+03  0.34223553089E+03  0.27579854426E+03 0.  0.
         25    1    3    3    0    0  0.35340279859E+01  0.30212844432E+02 -0.17670426007E+03  0.21575379684E+03  0.12000000000E+03 0.  0.
         25    1    3    3    0    0 -0.35340279859E+01 -0.30212844432E+02 -0.25929206039E+02  0.12648173405E+03  0.12000000000E+03 0.  0.
<mgrwt>
<rscale>  0 0.27579854E+03</rscale>
<asrwt>0</asrwt>
<pdfrwt beam="1">  1        2 0.41912999E-01 0.27579854E+03</pdfrwt>
<pdfrwt beam="2">  1       -2 0.10738620E-01 0.27579854E+03</pdfrwt>
<totfact> 0.71333832E+03</totfact>
</mgrwt>
</event>
<event>
 5    1  0.1140254E+001  0.2767155E+03  0.7818608E-02  0.1097497E+00
          2   -1    0    0  501    0  0.00000000000E+00  0.00000000000E+00  0.88129298344E+03  0.88129298344E+03  0.00000000000E+00 0.  1.
         -2   -1    0    0    0  501 -0.00000000000E+00 -0.00000000000E+00 -0.21721335625E+02  0.21721335625E+02  0.00000000000E+00 0.  1.
         35    2    1    2    0    0  0.00000000000E+00  0.00000000000E+00  0.85957164782E+03  0.90301431907E+03  0.27671545441E+03 0.  0.
         25    1    3    3    0    0  0.90045170119E+01  0.56858145118E+02  0.55314367724E+03  0.56893045064E+03  0.12000000000E+03 0.  0.
         25    1    3    3    0    0 -0.90045170119E+01 -0.56858145118E+02  0.30642797058E+03  0.33408386843E+03  0.12000000000E+03 0.  0.
<mgrwt>
<rscale>  0 0.27671545E+03</rscale>
<asrwt>0</asrwt>
<pdfrwt beam="1">  1        2 0.13558351E+00 0.27671545E+03</pdfrwt>
<pdfrwt beam="2">  1       -2 0.33417446E-02 0.27671545E+03</pdfrwt>
<totfact> 0.11230158E+04</totfact>
</mgrwt>
</event>
<event>
 4    1  0.1140254E+001  0.2532934E+03  0.7818608E-02  0.1111241E+00
          3   -1    0    0  501    0  0.00000000000E+00  0.00000000000E+00  0.30200341211E+02  0.30200341211E+02  0.00000000000E+00 0. -1.
         -3   -1    0    0    0  501 -0.00000000000E+00 -0.00000000000E+00 -0.53109960479E+03  0.53109960479E+03  0.00000000000E+00 0. -1.
         25    1    1    2    0    0 -0.11299777202E+02  0.31106838971E+02 -0.19876064301E+03  0.23452316219E+03  0.12000000000E+03 0.  0.
         25    1    1    2    0    0  0.11299777202E+02 -0.31106838971E+02 -0.30213862058E+03  0.32677678381E+03  0.12000000000E+03 0.  0.
<mgrwt>
<rscale>  0 0.25329342E+03</rscale>
<asrwt>0</asrwt>
<pdfrwt beam="1">  1        3 0.46462062E-02 0.25329342E+03</pdfrwt>
<pdfrwt beam="2">  1       -3 0.81707634E-01 0.25329342E+03</pdfrwt>
<totfact> 0.91850776E+02</totfact>
</mgrwt>
</event>
<event>
 5    1  0.1140254E+001  0.2770489E+03  0.7818608E-02  0.1097312E+00
         -2   -1    0    0    0  501 -0.00000000000E+00  0.00000000000E+00  0.21964257975E+02  0.21964257975E+02  0.00000000000E+00 0. -1.
          2   -1    0    0  501    0  0.00000000000E+00 -0.00000000000E+00 -0.87364772117E+03  0.87364772117E+03  0.00000000000E+00 0. -1.
         35    2    1    2    0    0  0.00000000000E+00  0.00000000000E+00 -0.85168346320E+03  0.89561197915E+03  0.27704890490E+03 0.  0.
         25    1    3    3    0    0 -0.45986825961E+01 -0.68832140933E+02 -0.44355154405E+03  0.46464716047E+03  0.12000000000E+03 0.  0.
         25    1    3    3    0    0  0.45986825961E+01  0.68832140933E+02 -0.40813191915E+03  0.43096481867E+03  0.12000000000E+03 0.  0.
<mgrwt>
<rscale>  0 0.27704890E+03</rscale>
<asrwt>0</asrwt>
<pdfrwt beam="1">  1        2 0.13440735E+00 0.27704890E+03</pdfrwt>
<pdfrwt beam="2">  1       -2 0.33791164E-02 0.27704890E+03</pdfrwt>
<totfact> 0.11173626E+04</totfact>
</mgrwt>
</event>
<event>
 5    1  0.1140254E+001  0.2755328E+03  0.7818608E-02  0.1098154E+00
         -1   -1    0    0    0  501 -0.00000000000E+00  0.00000000000E+00  0.14238700533E+03  0.14238700533E+03  0.00000000000E+00 0.  1.
          1   -1    0    0  501    0  0.00000000000E+00 -0.00000000000E+00 -0.13329577695E+03  0.13329577695E+03  0.00000000000E+00 0.  1.
         35    2    1    2    0    0  0.00000000000E+00  0.00000000000E+00  0.90912283784E+01  0.27568278228E+03  0.27553284017E+03 0.  0.
         25    1    3    3    0    0 -0.17486498929E+02  0.40989026682E+02 -0.46410565579E+02  0.13616100231E+03  0.12000000000E+03 0.  0.
         25    1    3    3    0    0  0.17486498929E+02 -0.40989026682E+02  0.55501793958E+02  0.13952177997E+03  0.12000000000E+03 0.  0.
<mgrwt>
<rscale>  0 0.27553284E+03</rscale>
<asrwt>0</asrwt>
<pdfrwt beam="1">  1        1 0.20507043E-01 0.27553284E+03</pdfrwt>
<pdfrwt beam="2">  1       -1 0.21905693E-01 0.27553284E+03</pdfrwt>
<totfact> 0.42636373E+03</totfact>
</mgrwt>
</event>
<event>
 5    1  0.1140254E+001  0.2768441E+03  0.7818608E-02  0.1097425E+00
          4   -1    0    0  501    0  0.00000000000E+00  0.00000000000E+00  0.10324925793E+03  0.10324925793E+03  0.00000000000E+00 0. -1.
         -4   -1    0    0    0  501 -0.00000000000E+00 -0.00000000000E+00 -0.18557678701E+03  0.18557678701E+03  0.00000000000E+00 0. -1.
         35    2    1    2    0    0  0.00000000000E+00  0.00000000000E+00 -0.82327529086E+02  0.28882604494E+03  0.27684411172E+03 0.  0.
         25    1    3    3    0    0  0.92140250565E+01 -0.61232582191E+00 -0.11249998459E+03  0.16474683528E+03  0.12000000000E+03 0.  0.
         25    1    3    3    0    0 -0.92140250565E+01  0.61232582191E+00  0.30172455505E+02  0.12407920967E+03  0.12000000000E+03 0.  0.
<mgrwt>
<rscale>  0 0.27684411E+03</rscale>
<asrwt>0</asrwt>
<pdfrwt beam="1">  1        4 0.15884501E-01 0.27684411E+03</pdfrwt>
<pdfrwt beam="2">  1       -4 0.28550275E-01 0.27684411E+03</pdfrwt>
<totfact> 0.74696363E+02</totfact>
</mgrwt>
</event>
<event>
 5    1  0.1140254E+001  0.2612746E+03  0.7818608E-02  0.1106380E+00
         -4   -1    0    0    0  501 -0.00000000000E+00  0.00000000000E+00  0.38843579170E+03  0.38843579170E+03  0.00000000000E+00 0. -1.
          4   -1    0    0  501    0  0.00000000000E+00 -0.00000000000E+00 -0.43935469177E+02  0.43935469177E+02  0.00000000000E+00 0. -1.
         35    2    1    2    0    0  0.00000000000E+00  0.00000000000E+00  0.34450032253E+03  0.43237126088E+03  0.26127463523E+03 0.  0.
         25    1    3    3    0    0 -0.28582210337E+02 -0.34808332481E+02  0.13046564965E+03  0.18289299740E+03  0.12000000000E+03 0.  0.
         25    1    3    3    0    0  0.28582210337E+02  0.34808332481E+02  0.21403467288E+03  0.24947826348E+03  0.12000000000E+03 0.  0.
<mgrwt>
<rscale>  0 0.26127464E+03</rscale>
<asrwt>0</asrwt>
<pdfrwt beam="1">  1        4 0.67593032E-02 0.26127464E+03</pdfrwt>
<pdfrwt beam="2">  1       -4 0.59759350E-01 0.26127464E+03</pdfrwt>
<totfact> 0.72714126E+02</totfact>
</mgrwt>
</event>
<event>
 5    1  0.1140254E+001  0.2763441E+03  0.7818608E-02  0.1097703E+00
          2   -1    0    0  501    0  0.00000000000E+00  0.00000000000E+00  0.50165379940E+02  0.50165379940E+02  0.00000000000E+00 0. -1.
         -2   -1    0    0    0  501 -0.00000000000E+00 -0.00000000000E+00 -0.38057161313E+03  0.38057161313E+03  0.00000000000E+00 0. -1.
         35    2    1    2    0    0  0.00000000000E+00  0.00000000000E+00 -0.33040623319E+03  0.43073699307E+03  0.27634413015E+03 0.  0.
         25    1    3    3    0    0 -0.14742918803E+02 -0.63895475386E+02 -0.13436081749E+03  0.19171023631E+03  0.12000000000E+03 0.  0.
         25    1    3    3    0    0  0.14742918803E+02  0.63895475386E+02 -0.19604541571E+03  0.23902675676E+03  0.12000000000E+03 0.  0.
<mgrwt>
<rscale>  0 0.27634413E+03</rscale>
<asrwt>0</asrwt>
<pdfrwt beam="1">  1        2 0.77177512E-02 0.27634413E+03</pdfrwt>
<pdfrwt beam="2">  1       -2 0.58549475E-01 0.27634413E+03</pdfrwt>
<totfact> 0.24711576E+03</totfact>
</mgrwt>
</event>
<event>
 5    1  0.1140254E+001  0.2759941E+03  0.7818608E-02  0.1097897E+00
          3   -1    0    0  501    0  0.00000000000E+00  0.00000000000E+00  0.97914982463E+02  0.97914982463E+02  0.00000000000E+00 0. -1.
         -3   -1    0    0    0  501 -0.00000000000E+00 -0.00000000000E+00 -0.19448700119E+03  0.19448700119E+03  0.00000000000E+00 0. -1.
         35    2    1    2    0    0  0.00000000000E+00  0.00000000000E+00 -0.96572018732E+02  0.29240198366E+03  0.27599413987E+03 0.  0.
         25    1    3    3    0    0 -0.36485699410E+02 -0.44668385614E+02 -0.86729891039E+02  0.15889790727E+03  0.12000000000E+03 0.  0.
         25    1    3    3    0    0  0.36485699410E+02  0.44668385614E+02 -0.98421276927E+01  0.13350407639E+03  0.12000000000E+03 0.  0.
<mgrwt>
<rscale>  0 0.27599414E+03</rscale>
<asrwt>0</asrwt>
<pdfrwt beam="1">  1        3 0.15063844E-01 0.27599414E+03</pdfrwt>
<pdfrwt beam="2">  1       -3 0.29921077E-01 0.27599414E+03</pdfrwt>
<totfact> 0.10113920E+03</totfact>
</mgrwt>
</event>
<event>
 5    1  0.1140254E+001  0.2736909E+03  0.7818608E-02  0.1099186E+00
         -2   -1    0    0    0  501 -0.00000000000E+00  0.00000000000E+00  0.13836083011E+02  0.13836083011E+02  0.00000000000E+00 0.  1.
          2   -1    0    0  501    0  0.00000000000E+00 -0.00000000000E+00 -0.13534668995E+04  0.13534668995E+04  0.00000000000E+00 0.  1.
         35    2    1    2    0    0  0.00000000000E+00  0.00000000000E+00 -0.13396308165E+04  0.13673029825E+04  0.27369092330E+03 0.  0.
         25    1    3    3    0    0  0.42513215749E+02 -0.10702029612E+02 -0.91480151062E+03  0.92367944158E+03  0.12000000000E+03 0.  0.
         25    1    3    3    0    0 -0.42513215749E+02  0.10702029612E+02 -0.42482930590E+03  0.44362354097E+03  0.12000000000E+03 0.  0.
<mgrwt>
<rscale>  0 0.27369092E+03</rscale>
<asrwt>0</asrwt>
<pdfrwt beam="1">  1        2 0.20822563E+00 0.27369092E+03</pdfrwt>
<pdfrwt beam="2">  1       -2 0.21286287E-02 0.27369092E+03</pdfrwt>
<totfact> 0.11549014E+04</totfact>
</mgrwt>
</event>
<event>
 5    1  0.1140254E+001  0.2744811E+03  0.7818608E-02  0.1098742E+00
          1   -1    0    0  501    0  0.00000000000E+00  0.00000000000E+00  0.26667647848E+02  0.26667647848E+02  0.00000000000E+00 0. -1.
         -1   -1    0    0    0  501 -0.00000000000E+00 -0.00000000000E+00 -0.70628516735E+03  0.70628516735E+03  0.00000000000E+00 0. -1.
         35    2    1    2    0    0  0.00000000000E+00  0.00000000000E+00 -0.67961751950E+03  0.73295281519E+03  0.27448106764E+03 0.  0.
         25    1    3    3    0    0  0.48300261747E+02 -0.45697675220E+02 -0.32989926823E+03  0.35728800706E+03  0.12000000000E+03 0.  0.
         25    1    3    3    0    0 -0.48300261747E+02  0.45697675220E+02 -0.34971825126E+03  0.37566480814E+03  0.12000000000E+03 0.  0.
<mgrwt>
<rscale>  0 0.27448107E+03</rscale>
<asrwt>0</asrwt>
<pdfrwt beam="1">  1        1 0.41027149E-02 0.27448107E+03</pdfrwt>
<pdfrwt beam="2">  1       -1 0.10865926E+00 0.27448107E+03</pdfrwt>
<totfact> 0.18298553E+03</totfact>
</mgrwt>
</event>
<event>
 5    1  0.1140254E+001  0.2738802E+03  0.7818608E-02  0.1099079E+00
          1   -1    0    0  501    0  0.00000000000E+00  0.00000000000E+00  0.62627173054E+03  0.62627173054E+03  0.00000000000E+00 0.  1.
         -1   -1    0    0    0  501 -0.00000000000E+00 -0.00000000000E+00 -0.29943218035E+02  0.29943218035E+02  0.00000000000E+00 0.  1.
         35    2    1    2    0    0  0.00000000000E+00  0.00000000000E+00  0.59632851251E+03  0.65621494858E+03  0.27388019992E+03 0.  0.
         25    1    3    3    0    0 -0.63973847163E+02  0.10602528977E+02  0.32726587649E+03  0.35455326913E+03  0.12000000000E+03 0.  0.
         25    1    3    3    0    0  0.63973847163E+02 -0.10602528977E+02  0.26906263602E+03  0.30166167944E+03  0.12000000000E+03 0.  0.
<mgrwt>
<rscale>  0 0.27388020E+03</rscale>
<asrwt>0</asrwt>
<pdfrwt beam="1">  1        1 0.96349487E-01 0.27388020E+03</pdfrwt>
<pdfrwt beam="2">  1       -1 0.46066494E-02 0.27388020E+03</pdfrwt>
<totfact> 0.65669753E+03</totfact>
</mgrwt>
</event>
<event>
 5    1  0.1140254E+001  0.2731819E+03  0.7818608E-02  0.1099472E+00
          2   -1    0    0  501    0  0.00000000000E+00  0.00000000000E+00  0.32415249578E+04  0.32415249578E+04  0.00000000000E+00 0. -1.
         -2   -1    0    0    0  501 -0.00000000000E+00 -0.00000000000E+00 -0.57556514410E+01  0.57556514410E+01  0.00000000000E+00 0. -1.
         35    2    1    2    0    0  0.00000000000E+00  0.00000000000E+00  0.32357693064E+04  0.32472806092E+04  0.27318190126E+03 0.  0.
         25    1    3    3    0    0  0.15199416535E+02  0.44578073711E+01  0.86551051976E+03  0.87393326640E+03  0.12000000000E+03 0.  0.
         25    1    3    3    0    0 -0.15199416535E+02 -0.44578073711E+01  0.23702587866E+04  0.23733473428E+04  0.12000000000E+03 0.  0.
<mgrwt>
<rscale>  0 0.27318190E+03</rscale>
<asrwt>0</asrwt>
<pdfrwt beam="1">  1        2 0.49869469E+00 0.27318190E+03</pdfrwt>
<pdfrwt beam="2">  1       -2 0.88548743E-03 0.27318190E+03</pdfrwt>
<totfact> 0.37815893E+03</totfact>
</mgrwt>
</event>
<event>
 5    1  0.1140254E+001  0.2757806E+03  0.7818608E-02  0.1098016E+00
          2   -1    0    0  501    0  0.00000000000E+00  0.00000000000E+00  0.13910637570E+04  0.13910637570E+04  0.00000000000E+00 0. -1.
         -2   -1    0    0    0  501 -0.00000000000E+00 -0.00000000000E+00 -0.13668489371E+02  0.13668489371E+02  0.00000000000E+00 0. -1.
         35    2    1    2    0    0  0.00000000000E+00  0.00000000000E+00  0.13773952676E+04  0.14047322463E+04  0.27578063875E+03 0.  0.
         25    1    3    3    0    0 -0.57875609199E+02 -0.13849117698E+02  0.52189639682E+03  0.53881094385E+03  0.12000000000E+03 0.  0.
         25    1    3    3    0    0  0.57875609199E+02  0.13849117698E+02  0.85549887079E+03  0.86592130250E+03  0.12000000000E+03 0.  0.
<mgrwt>
<rscale>  0 0.27578064E+03</rscale>
<asrwt>0</asrwt>
<pdfrwt beam="1">  1        2 0.21400970E+00 0.27578064E+03</pdfrwt>
<pdfrwt beam="2">  1       -2 0.21028456E-02 0.27578064E+03</pdfrwt>
<totfact> 0.11217720E+04</totfact>
</mgrwt>
</event>
<event>
 5    1  0.1140254E+001  0.2668139E+03  0.7818608E-02  0.1103117E+00
         -2   -1    0    0    0  501 -0.00000000000E+00  0.00000000000E+00  0.37025395645E+02  0.37025395645E+02  0.00000000000E+00 0. -1.
          2   -1    0    0  501    0  0.00000000000E+00 -0.00000000000E+00 -0.48068113569E+03  0.48068113569E+03  0.00000000000E+00 0. -1.
         35    2    1    2    0    0  0.00000000000E+00  0.00000000000E+00 -0.44365574005E+03  0.51770653134E+03  0.26681386192E+03 0.  0.
         25    1    3    3    0    0 -0.54503946846E+00  0.37028509718E+02 -0.13449149743E+03  0.18400915868E+03  0.12000000000E+03 0.  0.
         25    1    3    3    0    0  0.54503946846E+00 -0.37028509718E+02 -0.30916424262E+03  0.33369737265E+03  0.12000000000E+03 0.  0.
<mgrwt>
<rscale>  0 0.26681386E+03</rscale>
<asrwt>0</asrwt>
<pdfrwt beam="1">  1        2 0.73950943E-01 0.26681386E+03</pdfrwt>
<pdfrwt beam="2">  1       -2 0.56962148E-02 0.26681386E+03</pdfrwt>
<totfact> 0.10355118E+04</totfact>
</mgrwt>
</event>
<event>
 5    1  0.1140254E+001  0.2756077E+03  0.7818608E-02  0.1098112E+00
         -1   -1    0    0    0  501 -0.00000000000E+00  0.00000000000E+00  0.24978912371E+02  0.24978912371E+02  0.00000000000E+00 0.  1.
          1   -1    0    0  501    0  0.00000000000E+00 -0.00000000000E+00 -0.76023743285E+03  0.76023743285E+03  0.00000000000E+00 0.  1.
         35    2    1    2    0    0  0.00000000000E+00  0.00000000000E+00 -0.73525852048E+03  0.78521634522E+03  0.27560772280E+03 0.  0.
         25    1    3    3    0    0 -0.32639827446E+02  0.24090201060E+02 -0.52221954591E+03  0.53736295951E+03  0.12000000000E+03 0.  0.
         25    1    3    3    0    0  0.32639827446E+02 -0.24090201060E+02 -0.21303897457E+03  0.24785338571E+03  0.12000000000E+03 0.  0.
<mgrwt>
<rscale>  0 0.27560772E+03</rscale>
<asrwt>0</asrwt>
<pdfrwt beam="1">  1        1 0.11695961E+00 0.27560772E+03</pdfrwt>
<pdfrwt beam="2">  1       -1 0.38429093E-02 0.27560772E+03</pdfrwt>
<totfact> 0.64915218E+03</totfact>
</mgrwt>
</event>
<event>
 5    1  0.1140254E+001  0.2750533E+03  0.7818608E-02  0.1098422E+00
         -1   -1    0    0    0  501 -0.00000000000E+00  0.00000000000E+00  0.42194252208E+02  0.42194252208E+02  0.00000000000E+00 0.  1.
          1   -1    0    0  501    0  0.00000000000E+00 -0.00000000000E+00 -0.44824997885E+03  0.44824997885E+03  0.00000000000E+00 0.  1.
         35    2    1    2    0    0  0.00000000000E+00  0.00000000000E+00 -0.40605572664E+03  0.49044423106E+03  0.27505325055E+03 0.  0.
         25    1    3    3    0    0 -0.44893999686E+02  0.35460315974E+01 -0.29192383903E+03  0.31882216570E+03  0.12000000000E+03 0.  0.
         25    1    3    3    0    0  0.44893999686E+02 -0.35460315974E+01 -0.11413188761E+03  0.17162206536E+03  0.12000000000E+03 0.  0.
<mgrwt>
<rscale>  0 0.27505325E+03</rscale>
<asrwt>0</asrwt>
<pdfrwt beam="1">  1        1 0.68961531E-01 0.27505325E+03</pdfrwt>
<pdfrwt beam="2">  1       -1 0.64914239E-02 0.27505325E+03</pdfrwt>
<totfact> 0.61569671E+03</totfact>
</mgrwt>
</event>
<event>
 5    1  0.1140254E+001  0.2752882E+03  0.7818608E-02  0.1098291E+00
         -2   -1    0    0    0  501 -0.00000000000E+00  0.00000000000E+00  0.67164764476E+01  0.67164764476E+01  0.00000000000E+00 0. -1.
          2   -1    0    0  501    0  0.00000000000E+00 -0.00000000000E+00 -0.28208095738E+04  0.28208095738E+04  0.00000000000E+00 0. -1.
         35    2    1    2    0    0  0.00000000000E+00  0.00000000000E+00 -0.28140930973E+04  0.28275260502E+04  0.27528822035E+03 0.  0.
         25    1    3    3    0    0 -0.13194287301E+02 -0.65157375071E+02 -0.12916030846E+04  0.12988680075E+04  0.12000000000E+03 0.  0.
         25    1    3    3    0    0  0.13194287301E+02  0.65157375071E+02 -0.15224900128E+04  0.15286580428E+04  0.12000000000E+03 0.  0.
<mgrwt>
<rscale>  0 0.27528822E+03</rscale>
<asrwt>0</asrwt>
<pdfrwt beam="1">  1        2 0.43397106E+00 0.27528822E+03</pdfrwt>
<pdfrwt beam="2">  1       -2 0.10333032E-02 0.27528822E+03</pdfrwt>
<totfact> 0.53884822E+03</totfact>
</mgrwt>
</event>
<event>
 5    1  0.1140254E+001  0.2722304E+03  0.7818608E-02  0.1100010E+00
         -1   -1    0    0    0  501 -0.00000000000E+00  0.00000000000E+00  0.17455985592E+03  0.17455985592E+03  0.00000000000E+00 0.  1.
          1   -1    0    0  501    0  0.00000000000E+00 -0.00000000000E+00 -0.10613753094E+03  0.10613753094E+03  0.00000000000E+00 0.  1.
         35    2    1    2    0    0  0.00000000000E+00  0.00000000000E+00  0.68422324974E+02  0.28069738686E+03  0.27223043260E+03 0.  0.
         25    1    3    3    0    0 -0.40892548905E+02  0.17070194581E+02 -0.13751826649E+02  0.12865731551E+03  0.12000000000E+03 0.  0.
         25    1    3    3    0    0  0.40892548905E+02 -0.17070194581E+02  0.82174151623E+02  0.15204007134E+03  0.12000000000E+03 0.  0.
<mgrwt>
<rscale>  0 0.27223043E+03</rscale>
<asrwt>0</asrwt>
<pdfrwt beam="1">  1        1 0.16328851E-01 0.27223043E+03</pdfrwt>
<pdfrwt beam="2">  1       -1 0.26855363E-01 0.27223043E+03</pdfrwt>
<totfact> 0.40846192E+03</totfact>
</mgrwt>
</event>
<event>
 5    1  0.1140254E+001  0.2749474E+03  0.7818608E-02  0.1098481E+00
         -1   -1    0    0    0  501 -0.00000000000E+00  0.00000000000E+00  0.17994756162E+03  0.17994756162E+03  0.00000000000E+00 0. -1.
          1   -1    0    0  501    0  0.00000000000E+00 -0.00000000000E+00 -0.10502516661E+03  0.10502516661E+03  0.00000000000E+00 0. -1.
         35    2    1    2    0    0  0.00000000000E+00  0.00000000000E+00  0.74922395010E+02  0.28497272823E+03  0.27494743236E+03 0.  0.
         25    1    3    3    0    0 -0.99727833743E+01 -0.30933964880E+02  0.98274760567E+02  0.15847490387E+03  0.12000000000E+03 0.  0.
         25    1    3    3    0    0  0.99727833743E+01  0.30933964880E+02 -0.23352365557E+02  0.12649782436E+03  0.12000000000E+03 0.  0.
<mgrwt>
<rscale>  0 0.27494743E+03</rscale>
<asrwt>0</asrwt>
<pdfrwt beam="1">  1        1 0.16157718E-01 0.27494743E+03</pdfrwt>
<pdfrwt beam="2">  1       -1 0.27684240E-01 0.27494743E+03</pdfrwt>
<totfact> 0.39361381E+03</totfact>
</mgrwt>
</event>
<event>
 5    1  0.1140254E+001  0.2682233E+03  0.7818608E-02  0.1102301E+00
          2   -1    0    0  501    0  0.00000000000E+00  0.00000000000E+00  0.38421551951E+03  0.38421551951E+03  0.00000000000E+00 0.  1.
         -2   -1    0    0    0  501 -0.00000000000E+00 -0.00000000000E+00 -0.46812088114E+02  0.46812088114E+02  0.00000000000E+00 0.  1.
         35    2    1    2    0    0  0.00000000000E+00  0.00000000000E+00  0.33740343140E+03  0.43102760762E+03  0.26822327083E+03 0.  0.
         25    1    3    3    0    0  0.17883022931E+02  0.34694249095E+02  0.95722529937E+02  0.15838654036E+03  0.12000000000E+03 0.  0.
         25    1    3    3    0    0 -0.17883022931E+02 -0.34694249095E+02  0.24168090146E+03  0.27264106727E+03  0.12000000000E+03 0.  0.
<mgrwt>
<rscale>  0 0.26822327E+03</rscale>
<asrwt>0</asrwt>
<pdfrwt beam="1">  1        2 0.59110078E-01 0.26822327E+03</pdfrwt>
<pdfrwt beam="2">  1       -2 0.72018600E-02 0.26822327E+03</pdfrwt>
<totfact> 0.92248615E+03</totfact>
</mgrwt>
</event>
<event>
 5    1  0.1140254E+001  0.2735587E+03  0.7818608E-02  0.1099260E+00
         -2   -1    0    0    0  501 -0.00000000000E+00  0.00000000000E+00  0.68054201094E+01  0.68054201094E+01  0.00000000000E+00 0.  1.
          2   -1    0    0  501    0  0.00000000000E+00 -0.00000000000E+00 -0.27490718057E+04  0.27490718057E+04  0.00000000000E+00 0.  1.
         35    2    1    2    0    0  0.00000000000E+00  0.00000000000E+00 -0.27422663856E+04  0.27558772258E+04  0.27355868510E+03 0.  0.
         25    1    3    3    0    0 -0.30099099539E+02  0.29265278664E+02 -0.18794723765E+04  0.18837671901E+04  0.12000000000E+03 0.  0.
         25    1    3    3    0    0  0.30099099539E+02 -0.29265278664E+02 -0.86279400910E+03  0.87211003576E+03  0.12000000000E+03 0.  0.
<mgrwt>
<rscale>  0 0.27355869E+03</rscale>
<asrwt>0</asrwt>
<pdfrwt beam="1">  1        2 0.42293399E+00 0.27355869E+03</pdfrwt>
<pdfrwt beam="2">  1       -2 0.10469880E-02 0.27355869E+03</pdfrwt>
<totfact> 0.58096479E+03</totfact>
</mgrwt>
</event>
<event>
 5    1  0.1140254E+001  0.2752689E+03  0.7818608E-02  0.1098301E+00
          1   -1    0    0  501    0  0.00000000000E+00  0.00000000000E+00  0.23028915618E+03  0.23028915618E+03  0.00000000000E+00 0. -1.
         -1   -1    0    0    0  501 -0.00000000000E+00 -0.00000000000E+00 -0.82258515290E+02  0.82258515290E+02  0.00000000000E+00 0. -1.
         35    2    1    2    0    0  0.00000000000E+00  0.00000000000E+00  0.14803064090E+03  0.31254767147E+03  0.27526891633E+03 0.  0.
         25    1    3    3    0    0  0.21980892004E+02  0.50849699753E+02  0.11761322844E+03  0.17692292978E+03  0.12000000000E+03 0.  0.
         25    1    3    3    0    0 -0.21980892004E+02 -0.50849699753E+02  0.30417412451E+02  0.13562474169E+03  0.12000000000E+03 0.  0.
<mgrwt>
<rscale>  0 0.27526892E+03</rscale>
<asrwt>0</asrwt>
<pdfrwt beam="1">  1        1 0.35429101E-01 0.27526892E+03</pdfrwt>
<pdfrwt beam="2">  1       -1 0.12655156E-01 0.27526892E+03</pdfrwt>
<totfact> 0.51281135E+03</totfact>
</mgrwt>
</event>
<event>
 5    1  0.1140254E+001  0.2745427E+03  0.7818608E-02  0.1098707E+00
          2   -1    0    0  501    0  0.00000000000E+00  0.00000000000E+00  0.82620184882E+03  0.82620184882E+03  0.00000000000E+00 0. -1.
         -2   -1    0    0    0  501 -0.00000000000E+00 -0.00000000000E+00 -0.22807286281E+02  0.22807286281E+02  0.00000000000E+00 0. -1.
         35    2    1    2    0    0  0.00000000000E+00  0.00000000000E+00  0.80339456254E+03  0.84900913510E+03  0.27454268951E+03 0.  0.
         25    1    3    3    0    0  0.17849293097E+02 -0.49809220460E+02  0.27631512435E+03  0.30585879692E+03  0.12000000000E+03 0.  0.
         25    1    3    3    0    0 -0.17849293097E+02  0.49809220460E+02  0.52707943819E+03  0.54315033818E+03  0.12000000000E+03 0.  0.
<mgrwt>
<rscale>  0 0.27454269E+03</rscale>
<asrwt>0</asrwt>
<pdfrwt beam="1">  1        2 0.12710795E+00 0.27454269E+03</pdfrwt>
<pdfrwt beam="2">  1       -2 0.35088139E-02 0.27454269E+03</pdfrwt>
<totfact> 0.11356500E+04</totfact>
</mgrwt>
</event>
<event>
 5    1  0.1140254E+001  0.2740721E+03  0.7818608E-02  0.1098971E+00
          2   -1    0    0  501    0  0.00000000000E+00  0.00000000000E+00  0.27367090362E+03  0.27367090362E+03  0.00000000000E+00 0. -1.
         -2   -1    0    0    0  501 -0.00000000000E+00 -0.00000000000E+00 -0.68618448209E+02  0.68618448209E+02  0.00000000000E+00 0. -1.
         35    2    1    2    0    0  0.00000000000E+00  0.00000000000E+00  0.20505245541E+03  0.34228935183E+03  0.27407205422E+03 0.  0.
         25    1    3    3    0    0 -0.26183064818E+02 -0.15824697332E+02  0.17580712233E+03  0.21504445631E+03  0.12000000000E+03 0.  0.
         25    1    3    3    0    0  0.26183064818E+02  0.15824697332E+02  0.29245333087E+02  0.12724489552E+03  0.12000000000E+03 0.  0.
<mgrwt>
<rscale>  0 0.27407205E+03</rscale>
<asrwt>0</asrwt>
<pdfrwt beam="1">  1        2 0.42103216E-01 0.27407205E+03</pdfrwt>
<pdfrwt beam="2">  1       -2 0.10556684E-01 0.27407205E+03</pdfrwt>
<totfact> 0.72934349E+03</totfact>
</mgrwt>
</event>
<event>
 4    1  0.1140254E+001  0.2957001E+03  0.7818608E-02  0.1087410E+00
          1   -1    0    0  501    0  0.00000000000E+00  0.00000000000E+00  0.39226265005E+03  0.39226265005E+03  0.00000000000E+00 0.  1.
         -1   -1    0    0    0  501 -0.00000000000E+00 -0.00000000000E+00 -0.55727036303E+02  0.55727036303E+02  0.00000000000E+00 0.  1.
         25    1    1    2    0    0 -0.22026638066E+02  0.79697053776E+02  0.20607769866E+03  0.25239812014E+03  0.12000000000E+03 0.  0.
         25    1    1    2    0    0  0.22026638066E+02 -0.79697053776E+02  0.13045791509E+03  0.19559156621E+03  0.12000000000E+03 0.  0.
<mgrwt>
<rscale>  0 0.29570008E+03</rscale>
<asrwt>0</asrwt>
<pdfrwt beam="1">  1        1 0.60348098E-01 0.29570008E+03</pdfrwt>
<pdfrwt beam="2">  1       -1 0.85733904E-02 0.29570008E+03</pdfrwt>
<totfact> 0.47972059E+03</totfact>
</mgrwt>
</event>
<event>
 5    1  0.1140254E+001  0.2742228E+03  0.7818608E-02  0.1098887E+00
         -1   -1    0    0    0  501 -0.00000000000E+00  0.00000000000E+00  0.28045320654E+02  0.28045320654E+02  0.00000000000E+00 0. -1.
          1   -1    0    0  501    0  0.00000000000E+00 -0.00000000000E+00 -0.67032703532E+03  0.67032703532E+03  0.00000000000E+00 0. -1.
         35    2    1    2    0    0  0.00000000000E+00  0.00000000000E+00 -0.64228171466E+03  0.69837235597E+03  0.27422280466E+03 0.  0.
         25    1    3    3    0    0  0.29534195589E+02 -0.35212948996E+02 -0.19934105846E+03  0.23716888091E+03  0.12000000000E+03 0.  0.
         25    1    3    3    0    0 -0.29534195589E+02  0.35212948996E+02 -0.44294065621E+03  0.46120347506E+03  0.12000000000E+03 0.  0.
<mgrwt>
<rscale>  0 0.27422280E+03</rscale>
<asrwt>0</asrwt>
<pdfrwt beam="1">  1        1 0.10312721E+00 0.27422280E+03</pdfrwt>
<pdfrwt beam="2">  1       -1 0.43146658E-02 0.27422280E+03</pdfrwt>
<totfact> 0.65742596E+03</totfact>
</mgrwt>
</event>
<event>
 5    1  0.1140254E+001  0.2749249E+03  0.7818608E-02  0.1098494E+00
          2   -1    0    0  501    0  0.00000000000E+00  0.00000000000E+00  0.54199684706E+02  0.54199684706E+02  0.00000000000E+00 0.  1.
         -2   -1    0    0    0  501 -0.00000000000E+00 -0.00000000000E+00 -0.34863541421E+03  0.34863541421E+03  0.00000000000E+00 0.  1.
         35    2    1    2    0    0  0.00000000000E+00  0.00000000000E+00 -0.29443572950E+03  0.40283509891E+03  0.27492493177E+03 0.  0.
         25    1    3    3    0    0  0.16887799234E+02 -0.46588091289E+02 -0.21340265928E+03  0.24979259997E+03  0.12000000000E+03 0.  0.
         25    1    3    3    0    0 -0.16887799234E+02  0.46588091289E+02 -0.81033070223E+02  0.15304249894E+03  0.12000000000E+03 0.  0.
<mgrwt>
<rscale>  0 0.27492493E+03</rscale>
<asrwt>0</asrwt>
<pdfrwt beam="1">  1        2 0.83384131E-02 0.27492493E+03</pdfrwt>
<pdfrwt beam="2">  1       -2 0.53636217E-01 0.27492493E+03</pdfrwt>
<totfact> 0.26784483E+03</totfact>
</mgrwt>
</event>
<event>
 5    1  0.1140254E+001  0.2754848E+03  0.7818608E-02  0.1098181E+00
          2   -1    0    0  501    0  0.00000000000E+00  0.00000000000E+00  0.26085107381E+04  0.26085107381E+04  0.00000000000E+00 0. -1.
         -2   -1    0    0    0  501 -0.00000000000E+00 -0.00000000000E+00 -0.72734890746E+01  0.72734890746E+01  0.00000000000E+00 0. -1.
         35    2    1    2    0    0  0.00000000000E+00  0.00000000000E+00  0.26012372491E+04  0.26157842272E+04  0.27548484063E+03 0.  0.
         25    1    3    3    0    0 -0.92720450403E+01 -0.32361158870E+00  0.19366482557E+04  0.19403846376E+04  0.12000000000E+03 0.  0.
         25    1    3    3    0    0  0.92720450403E+01  0.32361158870E+00  0.66458899336E+03  0.67539958961E+03  0.12000000000E+03 0.  0.
<mgrwt>
<rscale>  0 0.27548484E+03</rscale>
<asrwt>0</asrwt>
<pdfrwt beam="1">  1        2 0.40130860E+00 0.27548484E+03</pdfrwt>
<pdfrwt beam="2">  1       -2 0.11190004E-02 0.27548484E+03</pdfrwt>
<totfact> 0.63246024E+03</totfact>
</mgrwt>
</event>
<event>
 5    1  0.1140254E+001  0.2744372E+03  0.7818608E-02  0.1098767E+00
         -1   -1    0    0    0  501 -0.00000000000E+00  0.00000000000E+00  0.40814030173E+03  0.40814030173E+03  0.00000000000E+00 0.  1.
          1   -1    0    0  501    0  0.00000000000E+00 -0.00000000000E+00 -0.46133501681E+02  0.46133501681E+02  0.00000000000E+00 0.  1.
         35    2    1    2    0    0  0.00000000000E+00  0.00000000000E+00  0.36200680005E+03  0.45427380341E+03  0.27443717894E+03 0.  0.
         25    1    3    3    0    0 -0.38870919003E+02 -0.50137367467E+02  0.21428413878E+03  0.25365802982E+03  0.12000000000E+03 0.  0.
         25    1    3    3    0    0  0.38870919003E+02  0.50137367467E+02  0.14772266127E+03  0.20061577359E+03  0.12000000000E+03 0.  0.
<mgrwt>
<rscale>  0 0.27443718E+03</rscale>
<asrwt>0</asrwt>
<pdfrwt beam="1">  1        1 0.70974621E-02 0.27443718E+03</pdfrwt>
<pdfrwt beam="2">  1       -1 0.62790813E-01 0.27443718E+03</pdfrwt>
<totfact> 0.27178314E+03</totfact>
</mgrwt>
</event>
<event>
 5    1  0.1140254E+001  0.2751447E+03  0.7818608E-02  0.1098371E+00
         -2   -1    0    0    0  501 -0.00000000000E+00  0.00000000000E+00  0.17269507927E+02  0.17269507927E+02  0.00000000000E+00 0.  1.
          2   -1    0    0  501    0  0.00000000000E+00 -0.00000000000E+00 -0.10959285075E+04  0.10959285075E+04  0.00000000000E+00 0.  1.
         35    2    1    2    0    0  0.00000000000E+00  0.00000000000E+00 -0.10786589996E+04  0.11131980154E+04  0.27514466048E+03 0.  0.
         25    1    3    3    0    0 -0.18133978882E+02 -0.57568337223E+02 -0.65956667144E+03  0.67310559997E+03  0.12000000000E+03 0.  0.
         25    1    3    3    0    0  0.18133978882E+02  0.57568337223E+02 -0.41909232814E+03  0.44009241547E+03  0.12000000000E+03 0.  0.
<mgrwt>
<rscale>  0 0.27514466E+03</rscale>
<asrwt>0</asrwt>
<pdfrwt beam="1">  1        2 0.16860440E+00 0.27514466E+03</pdfrwt>
<pdfrwt beam="2">  1       -2 0.26568472E-02 0.27514466E+03</pdfrwt>
<totfact> 0.11640482E+04</totfact>
</mgrwt>
</event>
<event>
 5    1  0.1140254E+001  0.2748429E+03  0.7818608E-02  0.1098539E+00
         -1   -1    0    0    0  501 -0.00000000000E+00  0.00000000000E+00  0.26156749327E+03  0.26156749327E+03  0.00000000000E+00 0.  1.
          1   -1    0    0  501    0  0.00000000000E+00 -0.00000000000E+00 -0.72198036001E+02  0.72198036001E+02  0.00000000000E+00 0.  1.
         35    2    1    2    0    0  0.00000000000E+00  0.00000000000E+00  0.18936945727E+03  0.33376552927E+03  0.27484293184E+03 0.  0.
         25    1    3    3    0    0  0.13170495402E+02  0.39897357081E+02  0.31357086948E+02  0.13095238812E+03  0.12000000000E+03 0.  0.
         25    1    3    3    0    0 -0.13170495402E+02 -0.39897357081E+02  0.15801237032E+03  0.20281314116E+03  0.12000000000E+03 0.  0.
<mgrwt>
<rscale>  0 0.27484293E+03</rscale>
<asrwt>0</asrwt>
<pdfrwt beam="1">  1        1 0.11107390E-01 0.27484293E+03</pdfrwt>
<pdfrwt beam="2">  1       -1 0.40241152E-01 0.27484293E+03</pdfrwt>
<totfact> 0.33847867E+03</totfact>
</mgrwt>
</event>
<event>
 5    1  0.1140254E+001  0.2730122E+03  0.7818608E-02  0.1099568E+00
          3   -1    0    0  501    0  0.00000000000E+00  0.00000000000E+00  0.14491329269E+03  0.14491329269E+03  0.00000000000E+00 0. -1.
         -3   -1    0    0    0  501 -0.00000000000E+00 -0.00000000000E+00 -0.12858665584E+03  0.12858665584E+03  0.00000000000E+00 0. -1.
         35    2    1    2    0    0  0.00000000000E+00  0.00000000000E+00  0.16326636852E+02  0.27349994853E+03  0.27301220261E+03 0.  0.
         25    1    3    3    0    0  0.11469558295E+02 -0.64045704240E+02  0.88806247432E+01  0.13679279402E+03  0.12000000000E+03 0.  0.
         25    1    3    3    0    0 -0.11469558295E+02  0.64045704240E+02  0.74460121092E+01  0.13670715451E+03  0.12000000000E+03 0.  0.
<mgrwt>
<rscale>  0 0.27301220E+03</rscale>
<asrwt>0</asrwt>
<pdfrwt beam="1">  1        3 0.22294353E-01 0.27301220E+03</pdfrwt>
<pdfrwt beam="2">  1       -3 0.19782562E-01 0.27301220E+03</pdfrwt>
<totfact> 0.10748840E+03</totfact>
</mgrwt>
</event>
<event>
 5    1  0.1140254E+001  0.2759933E+03  0.7818608E-02  0.1097898E+00
          1   -1    0    0  501    0  0.00000000000E+00  0.00000000000E+00  0.19078720548E+03  0.19078720548E+03  0.00000000000E+00 0. -1.
         -1   -1    0    0    0  501 -0.00000000000E+00 -0.00000000000E+00 -0.99813193787E+02  0.99813193787E+02  0.00000000000E+00 0. -1.
         35    2    1    2    0    0  0.00000000000E+00  0.00000000000E+00  0.90974011693E+02  0.29060039927E+03  0.27599333552E+03 0.  0.
         25    1    3    3    0    0  0.50246959158E+02 -0.10058192617E+02  0.92776794481E+02  0.16010452129E+03  0.12000000000E+03 0.  0.
         25    1    3    3    0    0 -0.50246959158E+02  0.10058192617E+02 -0.18027827881E+01  0.13049587798E+03  0.12000000000E+03 0.  0.
<mgrwt>
<rscale>  0 0.27599334E+03</rscale>
<asrwt>0</asrwt>
<pdfrwt beam="1">  1        1 0.29351878E-01 0.27599334E+03</pdfrwt>
<pdfrwt beam="2">  1       -1 0.15355876E-01 0.27599334E+03</pdfrwt>
<totfact> 0.47896620E+03</totfact>
</mgrwt>
</event>
<event>
 5    1  0.1140254E+001  0.2770789E+03  0.7818608E-02  0.1097295E+00
          2   -1    0    0  501    0  0.00000000000E+00  0.00000000000E+00  0.53423987639E+02  0.53423987639E+02  0.00000000000E+00 0.  1.
         -2   -1    0    0    0  501 -0.00000000000E+00 -0.00000000000E+00 -0.35926146717E+03  0.35926146717E+03  0.00000000000E+00 0.  1.
         35    2    1    2    0    0  0.00000000000E+00  0.00000000000E+00 -0.30583747953E+03  0.41268545481E+03  0.27707890704E+03 0.  0.
         25    1    3    3    0    0  0.49393797360E+01 -0.38563262198E+02 -0.23824099456E+03  0.26957428318E+03  0.12000000000E+03 0.  0.
         25    1    3    3    0    0 -0.49393797360E+01  0.38563262198E+02 -0.67596484965E+02  0.14311117162E+03  0.12000000000E+03 0.  0.
<mgrwt>
<rscale>  0 0.27707891E+03</rscale>
<asrwt>0</asrwt>
<pdfrwt beam="1">  1        2 0.82190749E-02 0.27707891E+03</pdfrwt>
<pdfrwt beam="2">  1       -2 0.55270995E-01 0.27707891E+03</pdfrwt>
<totfact> 0.25670827E+03</totfact>
</mgrwt>
</event>
<event>
 5    1  0.1140254E+001  0.2743690E+03  0.7818608E-02  0.1098805E+00
         -2   -1    0    0    0  501 -0.00000000000E+00  0.00000000000E+00  0.26476964946E+02  0.26476964946E+02  0.00000000000E+00 0.  1.
          2   -1    0    0  501    0  0.00000000000E+00 -0.00000000000E+00 -0.71079088134E+03  0.71079088134E+03  0.00000000000E+00 0.  1.
         35    2    1    2    0    0  0.00000000000E+00  0.00000000000E+00 -0.68431391639E+03  0.73726784629E+03  0.27436898695E+03 0.  0.
         25    1    3    3    0    0 -0.44940043126E+02 -0.94638288123E+01 -0.47131907423E+03  0.48851902856E+03  0.12000000000E+03 0.  0.
         25    1    3    3    0    0  0.44940043126E+02  0.94638288123E+01 -0.21299484216E+03  0.24874881772E+03  0.12000000000E+03 0.  0.
<mgrwt>
<rscale>  0 0.27436899E+03</rscale>
<asrwt>0</asrwt>
<pdfrwt beam="1">  1        2 0.10935241E+00 0.27436899E+03</pdfrwt>
<pdfrwt beam="2">  1       -2 0.40733803E-02 0.27436899E+03</pdfrwt>
<totfact> 0.10961222E+04</totfact>
</mgrwt>
</event>
<event>
 5    1  0.1140254E+001  0.2753476E+03  0.7818608E-02  0.1098257E+00
          2   -1    0    0  501    0  0.00000000000E+00  0.00000000000E+00  0.52559430719E+03  0.52559430719E+03  0.00000000000E+00 0. -1.
         -2   -1    0    0    0  501 -0.00000000000E+00 -0.00000000000E+00 -0.36062166827E+02  0.36062166827E+02  0.00000000000E+00 0. -1.
         35    2    1    2    0    0  0.00000000000E+00  0.00000000000E+00  0.48953214037E+03  0.56165647402E+03  0.27534755920E+03 0.  0.
         25    1    3    3    0    0 -0.42326230643E+02 -0.13235840495E+02  0.14100868902E+03  0.19039471540E+03  0.12000000000E+03 0.  0.
         25    1    3    3    0    0  0.42326230643E+02  0.13235840495E+02  0.34852345134E+03  0.37126175861E+03  0.12000000000E+03 0.  0.
<mgrwt>
<rscale>  0 0.27534756E+03</rscale>
<asrwt>0</asrwt>
<pdfrwt beam="1">  1        2 0.80860657E-01 0.27534756E+03</pdfrwt>
<pdfrwt beam="2">  1       -2 0.55480260E-02 0.27534756E+03</pdfrwt>
<totfact> 0.97670686E+03</totfact>
</mgrwt>
</event>
<event>
 5    1  0.1140254E+001  0.2732862E+03  0.7818608E-02  0.1099413E+00
          2   -1    0    0  501    0  0.00000000000E+00  0.00000000000E+00  0.17946090091E+04  0.17946090091E+04  0.00000000000E+00 0.  1.
         -2   -1    0    0    0  501 -0.00000000000E+00 -0.00000000000E+00 -0.10404128517E+02  0.10404128517E+02  0.00000000000E+00 0.  1.
         35    2    1    2    0    0  0.00000000000E+00  0.00000000000E+00  0.17842048806E+04  0.18050131376E+04  0.27328624384E+03 0.  0.
         25    1    3    3    0    0  0.58378625019E+02 -0.28940798929E+02  0.92559171553E+03  0.93560977847E+03  0.12000000000E+03 0.  0.
         25    1    3    3    0    0 -0.58378625019E+02  0.28940798929E+02  0.85861316504E+03  0.86940335914E+03  0.12000000000E+03 0.  0.
<mgrwt>
<rscale>  0 0.27328624E+03</rscale>
<asrwt>0</asrwt>
<pdfrwt beam="1">  1        2 0.27609345E+00 0.27328624E+03</pdfrwt>
<pdfrwt beam="2">  1       -2 0.16006366E-02 0.27328624E+03</pdfrwt>
<totfact> 0.10217167E+04</totfact>
</mgrwt>
</event>
<event>
 5    1  0.1140254E+001  0.2746588E+03  0.7818608E-02  0.1098642E+00
          2   -1    0    0  501    0  0.00000000000E+00  0.00000000000E+00  0.51497842225E+02  0.51497842225E+02  0.00000000000E+00 0. -1.
         -2   -1    0    0    0  501 -0.00000000000E+00 -0.00000000000E+00 -0.36621665738E+03  0.36621665738E+03  0.00000000000E+00 0. -1.
         35    2    1    2    0    0  0.00000000000E+00  0.00000000000E+00 -0.31471881516E+03  0.41771449961E+03  0.27465882576E+03 0.  0.
         25    1    3    3    0    0 -0.53620787099E+02  0.31799627958E+02 -0.12095540898E+03  0.18142936948E+03  0.12000000000E+03 0.  0.
         25    1    3    3    0    0  0.53620787099E+02 -0.31799627958E+02 -0.19376340618E+03  0.23628513013E+03  0.12000000000E+03 0.  0.
<mgrwt>
<rscale>  0 0.27465883E+03</rscale>
<asrwt>0</asrwt>
<pdfrwt beam="1">  1        2 0.79227449E-02 0.27465883E+03</pdfrwt>
<pdfrwt beam="2">  1       -2 0.56341025E-01 0.27465883E+03</pdfrwt>
<totfact> 0.25857761E+03</totfact>
</mgrwt>
</event>
<event>
 5    1  0.1140254E+001  0.2763616E+03  0.7818608E-02  0.1097693E+00
          1   -1    0    0  501    0  0.00000000000E+00  0.00000000000E+00  0.13233932024E+04  0.13233932024E+04  0.00000000000E+00 0.  1.
         -1   -1    0    0    0  501 -0.00000000000E+00 -0.00000000000E+00 -0.14428015103E+02  0.14428015103E+02  0.00000000000E+00 0.  1.
         35    2    1    2    0    0  0.00000000000E+00  0.00000000000E+00  0.13089651873E+04  0.13378212175E+04  0.27636162621E+03 0.  0.
         25    1    3    3    0    0 -0.37308996751E+02 -0.18369331323E+02  0.39091060313E+03  0.41102371368E+03  0.12000000000E+03 0.  0.
         25    1    3    3    0    0  0.37308996751E+02  0.18369331323E+02  0.91805458417E+03  0.92679750382E+03  0.12000000000E+03 0.  0.
<mgrwt>
<rscale>  0 0.27636163E+03</rscale>
<asrwt>0</asrwt>
<pdfrwt beam="1">  1        1 0.20359886E+00 0.27636163E+03</pdfrwt>
<pdfrwt beam="2">  1       -1 0.22196957E-02 0.27636163E+03</pdfrwt>
<totfact> 0.55350158E+03</totfact>
</mgrwt>
</event>
<event>
 5    1  0.1140254E+001  0.2742047E+03  0.7818608E-02  0.1098897E+00
          2   -1    0    0  501    0  0.00000000000E+00  0.00000000000E+00  0.88966332296E+03  0.88966332296E+03  0.00000000000E+00 0. -1.
         -2   -1    0    0    0  501 -0.00000000000E+00 -0.00000000000E+00 -0.21128275503E+02  0.21128275503E+02  0.00000000000E+00 0. -1.
         35    2    1    2    0    0  0.00000000000E+00  0.00000000000E+00  0.86853504745E+03  0.91079159846E+03  0.27420468116E+03 0.  0.
         25    1    3    3    0    0  0.38736430550E+02 -0.47748738834E+02  0.51674691491E+03  0.53404852512E+03  0.12000000000E+03 0.  0.
         25    1    3    3    0    0 -0.38736430550E+02  0.47748738834E+02  0.35178813255E+03  0.37674307334E+03  0.12000000000E+03 0.  0.
<mgrwt>
<rscale>  0 0.27420468E+03</rscale>
<asrwt>0</asrwt>
<pdfrwt beam="1">  1        2 0.13687125E+00 0.27420468E+03</pdfrwt>
<pdfrwt beam="2">  1       -2 0.32505046E-02 0.27420468E+03</pdfrwt>
<totfact> 0.11554461E+04</totfact>
</mgrwt>
</event>
<event>
 5    1  0.1140254E+001  0.2764808E+03  0.7818608E-02  0.1097627E+00
         -2   -1    0    0    0  501 -0.00000000000E+00  0.00000000000E+00  0.16411659231E+02  0.16411659231E+02  0.00000000000E+00 0.  1.
          2   -1    0    0  501    0  0.00000000000E+00 -0.00000000000E+00 -0.11644410115E+04  0.11644410115E+04  0.00000000000E+00 0.  1.
         35    2    1    2    0    0  0.00000000000E+00  0.00000000000E+00 -0.11480293522E+04  0.11808526707E+04  0.27648080638E+03 0.  0.
         25    1    3    3    0    0 -0.26611774579E+02 -0.55263512394E+02 -0.70552900827E+03  0.71828505753E+03  0.12000000000E+03 0.  0.
         25    1    3    3    0    0  0.26611774579E+02  0.55263512394E+02 -0.44250034395E+03  0.46256761316E+03  0.12000000000E+03 0.  0.
<mgrwt>
<rscale>  0 0.27648081E+03</rscale>
<asrwt>0</asrwt>
<pdfrwt beam="1">  1        2 0.17914481E+00 0.27648081E+03</pdfrwt>
<pdfrwt beam="2">  1       -2 0.25248702E-02 0.27648081E+03</pdfrwt>
<totfact> 0.11454945E+04</totfact>
</mgrwt>
</event>
<event>
 5    1  0.1140254E+001  0.2746824E+03  0.7818608E-02  0.1098629E+00
          1   -1    0    0  501    0  0.00000000000E+00  0.00000000000E+00  0.76750228229E+03  0.76750228229E+03  0.00000000000E+00 0. -1.
         -1   -1    0    0    0  501 -0.00000000000E+00 -0.00000000000E+00 -0.24576607884E+02  0.24576607884E+02  0.00000000000E+00 0. -1.
         35    2    1    2    0    0  0.00000000000E+00  0.00000000000E+00  0.74292567441E+03  0.79207889018E+03  0.27468238125E+03 0.  0.
         25    1    3    3    0    0  0.53493257106E+01 -0.25585432266E+02  0.54873784537E+03  0.56231348248E+03  0.12000000000E+03 0.  0.
         25    1    3    3    0    0 -0.53493257106E+01  0.25585432266E+02  0.19418782904E+03  0.22976540770E+03  0.12000000000E+03 0.  0.
<mgrwt>
<rscale>  0 0.27468238E+03</rscale>
<asrwt>0</asrwt>
<pdfrwt beam="1">  1        1 0.11807726E+00 0.27468238E+03</pdfrwt>
<pdfrwt beam="2">  1       -1 0.37810172E-02 0.27468238E+03</pdfrwt>
<totfact> 0.65546323E+03</totfact>
</mgrwt>
</event>
<event>
 5    1  0.1140254E+001  0.2814635E+03  0.7818608E-02  0.1094892E+00
         -2   -1    0    0    0  501 -0.00000000000E+00  0.00000000000E+00  0.15840461797E+02  0.15840461797E+02  0.00000000000E+00 0. -1.
          2   -1    0    0  501    0  0.00000000000E+00 -0.00000000000E+00 -0.12503063093E+04  0.12503063093E+04  0.00000000000E+00 0. -1.
         35    2    1    2    0    0  0.00000000000E+00  0.00000000000E+00 -0.12344658475E+04  0.12661467711E+04  0.28146352750E+03 0.  0.
         25    1    3    3    0    0 -0.19267486496E+02  0.35229063360E+02 -0.34018210536E+03  0.36295480124E+03  0.12000000000E+03 0.  0.
         25    1    3    3    0    0  0.19267486496E+02 -0.35229063360E+02 -0.89428374218E+03  0.90319196989E+03  0.12000000000E+03 0.  0.
<mgrwt>
<rscale>  0 0.28146353E+03</rscale>
<asrwt>0</asrwt>
<pdfrwt beam="1">  1        2 0.19235475E+00 0.28146353E+03</pdfrwt>
<pdfrwt beam="2">  1       -2 0.24369950E-02 0.28146353E+03</pdfrwt>
<totfact> 0.10795345E+04</totfact>
</mgrwt>
</event>
<event>
 5    1  0.1140254E+001  0.2747017E+03  0.7818608E-02  0.1098618E+00
         -1   -1    0    0    0  501 -0.00000000000E+00  0.00000000000E+00  0.26126877133E+02  0.26126877133E+02  0.00000000000E+00 0. -1.
          1   -1    0    0  501    0  0.00000000000E+00 -0.00000000000E+00 -0.72206337360E+03  0.72206337360E+03  0.00000000000E+00 0. -1.
         35    2    1    2    0    0  0.00000000000E+00  0.00000000000E+00 -0.69593649647E+03  0.74819025074E+03  0.27470173676E+03 0.  0.
         25    1    3    3    0    0 -0.34606672093E+02  0.40013150380E+02 -0.23677852582E+03  0.27067091504E+03  0.12000000000E+03 0.  0.
         25    1    3    3    0    0  0.34606672093E+02 -0.40013150380E+02 -0.45915797065E+03  0.47751933570E+03  0.12000000000E+03 0.  0.
<mgrwt>
<rscale>  0 0.27470174E+03</rscale>
<asrwt>0</asrwt>
<pdfrwt beam="1">  1        1 0.11108666E+00 0.27470174E+03</pdfrwt>
<pdfrwt beam="2">  1       -1 0.40195199E-02 0.27470174E+03</pdfrwt>
<totfact> 0.65562935E+03</totfact>
</mgrwt>
</event>
<event>
 5    1  0.1140254E+001  0.2743864E+03  0.7818608E-02  0.1098795E+00
          1   -1    0    0  501    0  0.00000000000E+00  0.00000000000E+00  0.92062491715E+03  0.92062491715E+03  0.00000000000E+00 0. -1.
         -1   -1    0    0    0  501 -0.00000000000E+00 -0.00000000000E+00 -0.20444776769E+02  0.20444776769E+02  0.00000000000E+00 0. -1.
         35    2    1    2    0    0  0.00000000000E+00  0.00000000000E+00  0.90018014038E+03  0.94106969392E+03  0.27438637662E+03 0.  0.
         25    1    3    3    0    0 -0.31312973396E+02  0.30927816891E+02  0.62105895856E+03  0.63407512344E+03  0.12000000000E+03 0.  0.
         25    1    3    3    0    0  0.31312973396E+02 -0.30927816891E+02  0.27912118182E+03  0.30699457047E+03  0.12000000000E+03 0.  0.
<mgrwt>
<rscale>  0 0.27438638E+03</rscale>
<asrwt>0</asrwt>
<pdfrwt beam="1">  1        1 0.14163457E+00 0.27438638E+03</pdfrwt>
<pdfrwt beam="2">  1       -1 0.31453510E-02 0.27438638E+03</pdfrwt>
<totfact> 0.64620679E+03</totfact>
</mgrwt>
</event>
<event>
 5    1  0.1140254E+001  0.2743857E+03  0.7818608E-02  0.1098795E+00
         -1   -1    0    0    0  501 -0.00000000000E+00  0.00000000000E+00  0.74355363592E+02  0.74355363592E+02  0.00000000000E+00 0. -1.
          1   -1    0    0  501    0  0.00000000000E+00 -0.00000000000E+00 -0.25313418950E+03  0.25313418950E+03  0.00000000000E+00 0. -1.
         35    2    1    2    0    0  0.00000000000E+00  0.00000000000E+00 -0.17877882591E+03  0.32748955309E+03  0.27438574815E+03 0.  0.
         25    1    3    3    0    0  0.26649780076E+01 -0.48052256938E+02 -0.14415915125E+03  0.19364395780E+03  0.12000000000E+03 0.  0.
         25    1    3    3    0    0 -0.26649780076E+01  0.48052256938E+02 -0.34619674659E+02  0.13384559529E+03  0.12000000000E+03 0.  0.
<mgrwt>
<rscale>  0 0.27438575E+03</rscale>
<asrwt>0</asrwt>
<pdfrwt beam="1">  1        1 0.38943722E-01 0.27438575E+03</pdfrwt>
<pdfrwt beam="2">  1       -1 0.11439287E-01 0.27438575E+03</pdfrwt>
<totfact> 0.53317013E+03</totfact>
</mgrwt>
</event>
<event>
 5    1  0.1140254E+001  0.2742841E+03  0.7818608E-02  0.1098852E+00
         -2   -1    0    0    0  501 -0.00000000000E+00  0.00000000000E+00  0.66538778690E+02  0.66538778690E+02  0.00000000000E+00 0.  1.
          2   -1    0    0  501    0  0.00000000000E+00 -0.00000000000E+00 -0.28266143327E+03  0.28266143327E+03  0.00000000000E+00 0.  1.
         35    2    1    2    0    0  0.00000000000E+00  0.00000000000E+00 -0.21612265458E+03  0.34920021196E+03  0.27428413408E+03 0.  0.
         25    1    3    3    0    0  0.31374620444E+02  0.27427468272E+02 -0.42259756648E+02  0.13387501580E+03  0.12000000000E+03 0.  0.
         25    1    3    3    0    0 -0.31374620444E+02 -0.27427468272E+02 -0.17386289793E+03  0.21532519616E+03  0.12000000000E+03 0.  0.
<mgrwt>
<rscale>  0 0.27428413E+03</rscale>
<asrwt>0</asrwt>
<pdfrwt beam="1">  1        2 0.43486376E-01 0.27428413E+03</pdfrwt>
<pdfrwt beam="2">  1       -2 0.10236735E-01 0.27428413E+03</pdfrwt>
<totfact> 0.73986798E+03</totfact>
</mgrwt>
</event>
<event>
 5    1  0.1140254E+001  0.2748367E+03  0.7818608E-02  0.1098543E+00
          2   -1    0    0  501    0  0.00000000000E+00  0.00000000000E+00  0.30894801708E+04  0.30894801708E+04  0.00000000000E+00 0. -1.
         -2   -1    0    0    0  501 -0.00000000000E+00 -0.00000000000E+00 -0.61122896912E+01  0.61122896912E+01  0.00000000000E+00 0. -1.
         35    2    1    2    0    0  0.00000000000E+00  0.00000000000E+00  0.30833678811E+04  0.30955924605E+04  0.27483666276E+03 0.  0.
         25    1    3    3    0    0  0.55237576632E+02  0.29285239247E+02  0.12716014072E+04  0.12787802602E+04  0.12000000000E+03 0.  0.
         25    1    3    3    0    0 -0.55237576632E+02 -0.29285239247E+02  0.18117664739E+04  0.18168122003E+04  0.12000000000E+03 0.  0.
<mgrwt>
<rscale>  0 0.27483666E+03</rscale>
<asrwt>0</asrwt>
<pdfrwt beam="1">  1        2 0.47530340E+00 0.27483666E+03</pdfrwt>
<pdfrwt beam="2">  1       -2 0.94035473E-03 0.27483666E+03</pdfrwt>
<totfact> 0.42945201E+03</totfact>
</mgrwt>
</event>
<event>
 5    1  0.1140254E+001  0.2749021E+03  0.7818608E-02  0.1098506E+00
         -2   -1    0    0    0  501 -0.00000000000E+00  0.00000000000E+00  0.32408412352E+04  0.32408412352E+04  0.00000000000E+00 0.  1.
          2   -1    0    0  501    0  0.00000000000E+00 -0.00000000000E+00 -0.58295932838E+01  0.58295932838E+01  0.00000000000E+00 0.  1.
         35    2    1    2    0    0  0.00000000000E+00  0.00000000000E+00  0.32350116419E+04  0.32466708285E+04  0.27490206473E+03 0.  0.
         25    1    3    3    0    0  0.17323015828E+02 -0.35265538841E+02  0.97614758443E+03  0.98428037250E+03  0.12000000000E+03 0.  0.
         25    1    3    3    0    0 -0.17323015828E+02  0.35265538841E+02  0.22588640575E+04  0.22623904560E+04  0.12000000000E+03 0.  0.
<mgrwt>
<rscale>  0 0.27490206E+03</rscale>
<asrwt>0</asrwt>
<pdfrwt beam="1">  1        2 0.89686309E-03 0.27490206E+03</pdfrwt>
<pdfrwt beam="2">  1       -2 0.49858952E+00 0.27490206E+03</pdfrwt>
<totfact> 0.34587166E+01</totfact>
</mgrwt>
</event>
<event>
 5    1  0.1140254E+001  0.2734753E+03  0.7818608E-02  0.1099307E+00
          2   -1    0    0  501    0  0.00000000000E+00  0.00000000000E+00  0.89068574504E+03  0.89068574504E+03  0.00000000000E+00 0. -1.
         -2   -1    0    0    0  501 -0.00000000000E+00 -0.00000000000E+00 -0.20991893219E+02  0.20991893219E+02  0.00000000000E+00 0. -1.
         35    2    1    2    0    0  0.00000000000E+00  0.00000000000E+00  0.86969385182E+03  0.91167763826E+03  0.27347526434E+03 0.  0.
         25    1    3    3    0    0  0.21544798590E+02 -0.83158403306E+01  0.23032526117E+03  0.26073560838E+03  0.12000000000E+03 0.  0.
         25    1    3    3    0    0 -0.21544798590E+02  0.83158403306E+01  0.63936859065E+03  0.65094202988E+03  0.12000000000E+03 0.  0.
<mgrwt>
<rscale>  0 0.27347526E+03</rscale>
<asrwt>0</asrwt>
<pdfrwt beam="1">  1        2 0.13702855E+00 0.27347526E+03</pdfrwt>
<pdfrwt beam="2">  1       -2 0.32295227E-02 0.27347526E+03</pdfrwt>
<totfact> 0.11647765E+04</totfact>
</mgrwt>
</event>
<event>
 5    1  0.1140254E+001  0.2736981E+03  0.7818608E-02  0.1099182E+00
          2   -1    0    0  501    0  0.00000000000E+00  0.00000000000E+00  0.26095932131E+04  0.26095932131E+04  0.00000000000E+00 0. -1.
         -2   -1    0    0    0  501 -0.00000000000E+00 -0.00000000000E+00 -0.71764682892E+01  0.71764682892E+01  0.00000000000E+00 0. -1.
         35    2    1    2    0    0  0.00000000000E+00  0.00000000000E+00  0.26024167448E+04  0.26167696814E+04  0.27369810333E+03 0.  0.
         25    1    3    3    0    0 -0.32104137658E+02 -0.50120175244E+02  0.10333432435E+04  0.10419889474E+04  0.12000000000E+03 0.  0.
         25    1    3    3    0    0  0.32104137658E+02  0.50120175244E+02  0.15690735014E+04  0.15747807340E+04  0.12000000000E+03 0.  0.
<mgrwt>
<rscale>  0 0.27369810E+03</rscale>
<asrwt>0</asrwt>
<pdfrwt beam="1">  1        2 0.40147512E+00 0.27369810E+03</pdfrwt>
<pdfrwt beam="2">  1       -2 0.11040741E-02 0.27369810E+03</pdfrwt>
<totfact> 0.64408265E+03</totfact>
</mgrwt>
</event>
<event>
 5    1  0.1140254E+001  0.2750456E+03  0.7818608E-02  0.1098426E+00
         -2   -1    0    0    0  501 -0.00000000000E+00  0.00000000000E+00  0.43888486668E+01  0.43888486668E+01  0.00000000000E+00 0.  1.
          2   -1    0    0  501    0  0.00000000000E+00 -0.00000000000E+00 -0.43092225082E+04  0.43092225082E+04  0.00000000000E+00 0.  1.
         35    2    1    2    0    0  0.00000000000E+00  0.00000000000E+00 -0.43048336596E+04  0.43136113569E+04  0.27504563592E+03 0.  0.
         25    1    3    3    0    0 -0.31993352349E+02  0.58602987641E+02 -0.22683464474E+04  0.22724993928E+04  0.12000000000E+03 0.  0.
         25    1    3    3    0    0  0.31993352349E+02 -0.58602987641E+02 -0.20364872122E+04  0.20411119641E+04  0.12000000000E+03 0.  0.
<mgrwt>
<rscale>  0 0.27504564E+03</rscale>
<asrwt>0</asrwt>
<pdfrwt beam="1">  1        2 0.66295826E+00 0.27504564E+03</pdfrwt>
<pdfrwt beam="2">  1       -2 0.67520652E-03 0.27504564E+03</pdfrwt>
<totfact> 0.94628323E+02</totfact>
</mgrwt>
</event>
<event>
 5    1  0.1140254E+001  0.2751048E+03  0.7818608E-02  0.1098393E+00
          1   -1    0    0  501    0  0.00000000000E+00  0.00000000000E+00  0.11507498855E+03  0.11507498855E+03  0.00000000000E+00 0. -1.
         -1   -1    0    0    0  501 -0.00000000000E+00 -0.00000000000E+00 -0.16442023130E+03  0.16442023130E+03  0.00000000000E+00 0. -1.
         35    2    1    2    0    0  0.00000000000E+00  0.00000000000E+00 -0.49345242749E+02  0.27949521985E+03  0.27510475266E+03 0.  0.
         25    1    3    3    0    0  0.58863639823E+01  0.84857331962E+01 -0.92170856993E+02  0.15166451077E+03  0.12000000000E+03 0.  0.
         25    1    3    3    0    0 -0.58863639823E+01 -0.84857331962E+01  0.42825614244E+02  0.12783070908E+03  0.12000000000E+03 0.  0.
<mgrwt>
<rscale>  0 0.27510475E+03</rscale>
<asrwt>0</asrwt>
<pdfrwt beam="1">  1        1 0.17703844E-01 0.27510475E+03</pdfrwt>
<pdfrwt beam="2">  1       -1 0.25295420E-01 0.27510475E+03</pdfrwt>
<totfact> 0.40645309E+03</totfact>
</mgrwt>
</event>
<event>
 5    1  0.1140254E+001  0.2754636E+03  0.7818608E-02  0.1098193E+00
          2   -1    0    0  501    0  0.00000000000E+00  0.00000000000E+00  0.23342208423E+03  0.23342208423E+03  0.00000000000E+00 0. -1.
         -2   -1    0    0    0  501 -0.00000000000E+00 -0.00000000000E+00 -0.81269295484E+02  0.81269295484E+02  0.00000000000E+00 0. -1.
         35    2    1    2    0    0  0.00000000000E+00  0.00000000000E+00  0.15215278874E+03  0.31469137971E+03  0.27546359713E+03 0.  0.
         25    1    3    3    0    0 -0.37485817092E+02 -0.36224894503E+02  0.26904869804E+02  0.13357133481E+03  0.12000000000E+03 0.  0.
         25    1    3    3    0    0  0.37485817092E+02  0.36224894503E+02  0.12524791894E+03  0.18112004490E+03  0.12000000000E+03 0.  0.
<mgrwt>
<rscale>  0 0.27546360E+03</rscale>
<asrwt>0</asrwt>
<pdfrwt beam="1">  1        2 0.35911090E-01 0.27546360E+03</pdfrwt>
<pdfrwt beam="2">  1       -2 0.12502969E-01 0.27546360E+03</pdfrwt>
<totfact> 0.65981786E+03</totfact>
</mgrwt>
</event>
<event>
 5    1  0.1140254E+001  0.2762386E+03  0.7818608E-02  0.1097761E+00
          1   -1    0    0  501    0  0.00000000000E+00  0.00000000000E+00  0.82715560149E+02  0.82715560149E+02  0.00000000000E+00 0. -1.
         -1   -1    0    0    0  501 -0.00000000000E+00 -0.00000000000E+00 -0.23063311330E+03  0.23063311330E+03  0.00000000000E+00 0. -1.
         35    2    1    2    0    0  0.00000000000E+00  0.00000000000E+00 -0.14791755315E+03  0.31334867345E+03  0.27623864433E+03 0.  0.
         25    1    3    3    0    0  0.26167574935E+02  0.26374513213E+01 -0.14556836188E+03  0.19047794127E+03  0.12000000000E+03 0.  0.
         25    1    3    3    0    0 -0.26167574935E+02 -0.26374513213E+01 -0.23491912672E+01  0.12287073218E+03  0.12000000000E+03 0.  0.
<mgrwt>
<rscale>  0 0.27623864E+03</rscale>
<asrwt>0</asrwt>
<pdfrwt beam="1">  1        1 0.12725471E-01 0.27623864E+03</pdfrwt>
<pdfrwt beam="2">  1       -1 0.35482018E-01 0.27623864E+03</pdfrwt>
<totfact> 0.35246467E+03</totfact>
</mgrwt>
</event>
<event>
 5    1  0.1140254E+001  0.2751268E+03  0.7818608E-02  0.1098381E+00
          1   -1    0    0  501    0  0.00000000000E+00  0.00000000000E+00  0.92529551164E+02  0.92529551164E+02  0.00000000000E+00 0.  1.
         -1   -1    0    0    0  501 -0.00000000000E+00 -0.00000000000E+00 -0.20451511667E+03  0.20451511667E+03  0.00000000000E+00 0.  1.
         35    2    1    2    0    0  0.00000000000E+00  0.00000000000E+00 -0.11198556550E+03  0.29704466783E+03  0.27512682131E+03 0.  0.
         25    1    3    3    0    0  0.18342740544E+02  0.10031643688E+01 -0.12584824105E+03  0.17485777720E+03  0.12000000000E+03 0.  0.
         25    1    3    3    0    0 -0.18342740544E+02 -0.10031643688E+01  0.13862675553E+02  0.12218689063E+03  0.12000000000E+03 0.  0.
<mgrwt>
<rscale>  0 0.27512682E+03</rscale>
<asrwt>0</asrwt>
<pdfrwt beam="1">  1        1 0.14235316E-01 0.27512682E+03</pdfrwt>
<pdfrwt beam="2">  1       -1 0.31463864E-01 0.27512682E+03</pdfrwt>
<totfact> 0.37398668E+03</totfact>
</mgrwt>
</event>
<event>
 4    1  0.1140254E+001  0.2490386E+03  0.7818608E-02  0.1113914E+00
          1   -1    0    0  501    0  0.00000000000E+00  0.00000000000E+00  0.21226262164E+02  0.21226262164E+02  0.00000000000E+00 0. -1.
         -1   -1    0    0    0  501 -0.00000000000E+00 -0.00000000000E+00 -0.73046556922E+03  0.73046556922E+03  0.00000000000E+00 0. -1.
         25    1    1    2    0    0 -0.90511126389E+01 -0.26651036043E+02 -0.40800764429E+03  0.42621876796E+03  0.12000000000E+03 0.  0.
         25    1    1    2    0    0  0.90511126389E+01  0.26651036043E+02 -0.30123166277E+03  0.32547306343E+03  0.12000000000E+03 0.  0.
<mgrwt>
<rscale>  0 0.24903858E+03</rscale>
<asrwt>0</asrwt>
<pdfrwt beam="1">  1        1 0.32655791E-02 0.24903858E+03</pdfrwt>
<pdfrwt beam="2">  1       -1 0.11237931E+00 0.24903858E+03</pdfrwt>
<totfact> 0.23238097E+03</totfact>
</mgrwt>
</event>
<event>
 5    1  0.1140254E+001  0.2744705E+03  0.7818608E-02  0.1098748E+00
         -2   -1    0    0    0  501 -0.00000000000E+00  0.00000000000E+00  0.47411150880E+02  0.47411150880E+02  0.00000000000E+00 0. -1.
          2   -1    0    0  501    0  0.00000000000E+00 -0.00000000000E+00 -0.39723812522E+03  0.39723812522E+03  0.00000000000E+00 0. -1.
         35    2    1    2    0    0  0.00000000000E+00  0.00000000000E+00 -0.34982697434E+03  0.44464927610E+03  0.27447052075E+03 0.  0.
         25    1    3    3    0    0  0.41936322976E+02 -0.71702856136E+00 -0.91135332107E+02  0.15641233351E+03  0.12000000000E+03 0.  0.
         25    1    3    3    0    0 -0.41936322976E+02  0.71702856136E+00 -0.25869164223E+03  0.28823694259E+03  0.12000000000E+03 0.  0.
<mgrwt>
<rscale>  0 0.27447052E+03</rscale>
<asrwt>0</asrwt>
<pdfrwt beam="1">  1        2 0.61113559E-01 0.27447052E+03</pdfrwt>
<pdfrwt beam="2">  1       -2 0.72940231E-02 0.27447052E+03</pdfrwt>
<totfact> 0.87315305E+03</totfact>
</mgrwt>
</event>
<event>
 5    1  0.1140254E+001  0.2752610E+03  0.7818608E-02  0.1098306E+00
         -1   -1    0    0    0  501 -0.00000000000E+00  0.00000000000E+00  0.62398166358E+02  0.62398166358E+02  0.00000000000E+00 0. -1.
          1   -1    0    0  501    0  0.00000000000E+00 -0.00000000000E+00 -0.30356903099E+03  0.30356903099E+03  0.00000000000E+00 0. -1.
         35    2    1    2    0    0  0.00000000000E+00  0.00000000000E+00 -0.24117086464E+03  0.36596719735E+03  0.27526097360E+03 0.  0.
         25    1    3    3    0    0  0.63332632888E+01  0.13395191890E+02 -0.20799732435E+03  0.24058767285E+03  0.12000000000E+03 0.  0.
         25    1    3    3    0    0 -0.63332632888E+01 -0.13395191890E+02 -0.33173540287E+02  0.12537952450E+03  0.12000000000E+03 0.  0.
<mgrwt>
<rscale>  0 0.27526097E+03</rscale>
<asrwt>0</asrwt>
<pdfrwt beam="1">  1        1 0.46702929E-01 0.27526097E+03</pdfrwt>
<pdfrwt beam="2">  1       -1 0.95997177E-02 0.27526097E+03</pdfrwt>
<totfact> 0.55696329E+03</totfact>
</mgrwt>
</event>
<event>
 5    1  0.1140254E+001  0.2782892E+03  0.7818608E-02  0.1096627E+00
         -2   -1    0    0    0  501 -0.00000000000E+00  0.00000000000E+00  0.10926566748E+02  0.10926566748E+02  0.00000000000E+00 0.  1.
          2   -1    0    0  501    0  0.00000000000E+00 -0.00000000000E+00 -0.17719397729E+04  0.17719397729E+04  0.00000000000E+00 0.  1.
         35    2    1    2    0    0  0.00000000000E+00  0.00000000000E+00 -0.17610132061E+04  0.17828663396E+04  0.27828918917E+03 0.  0.
         25    1    3    3    0    0  0.14824734015E+01  0.46110884867E+01 -0.43032539146E+03  0.44676996587E+03  0.12000000000E+03 0.  0.
         25    1    3    3    0    0 -0.14824734015E+01 -0.46110884867E+01 -0.13306878147E+04  0.13360963738E+04  0.12000000000E+03 0.  0.
<mgrwt>
<rscale>  0 0.27828919E+03</rscale>
<asrwt>0</asrwt>
<pdfrwt beam="1">  1        2 0.27260592E+00 0.27828919E+03</pdfrwt>
<pdfrwt beam="2">  1       -2 0.16810115E-02 0.27828919E+03</pdfrwt>
<totfact> 0.97762305E+03</totfact>
</mgrwt>
</event>
<event>
 5    1  0.1140254E+001  0.2753635E+03  0.7818608E-02  0.1098249E+00
          2   -1    0    0  501    0  0.00000000000E+00  0.00000000000E+00  0.11119291655E+04  0.11119291655E+04  0.00000000000E+00 0.  1.
         -2   -1    0    0    0  501 -0.00000000000E+00 -0.00000000000E+00 -0.17048081024E+02  0.17048081024E+02  0.00000000000E+00 0.  1.
         35    2    1    2    0    0  0.00000000000E+00  0.00000000000E+00  0.10948810845E+04  0.11289772465E+04  0.27536345804E+03 0.  0.
         25    1    3    3    0    0 -0.43081294734E+02  0.47729556410E+01  0.33529107036E+03  0.35874626260E+03  0.12000000000E+03 0.  0.
         25    1    3    3    0    0  0.43081294734E+02 -0.47729556410E+01  0.75959001413E+03  0.77023098394E+03  0.12000000000E+03 0.  0.
<mgrwt>
<rscale>  0 0.27536346E+03</rscale>
<asrwt>0</asrwt>
<pdfrwt beam="1">  1        2 0.17106597E+00 0.27536346E+03</pdfrwt>
<pdfrwt beam="2">  1       -2 0.26227826E-02 0.27536346E+03</pdfrwt>
<totfact> 0.11611891E+04</totfact>
</mgrwt>
</event>
<event>
 5    1  0.1140254E+001  0.2747350E+03  0.7818608E-02  0.1098600E+00
          1   -1    0    0  501    0  0.00000000000E+00  0.00000000000E+00  0.27199430394E+04  0.27199430394E+04  0.00000000000E+00 0.  1.
         -1   -1    0    0    0  501 -0.00000000000E+00 -0.00000000000E+00 -0.69375848747E+01  0.69375848747E+01  0.00000000000E+00 0.  1.
         35    2    1    2    0    0  0.00000000000E+00  0.00000000000E+00  0.27130054545E+04  0.27268806243E+04  0.27473504101E+03 0.  0.
         25    1    3    3    0    0  0.26247188288E+02  0.11987108550E+02  0.75790170395E+03  0.76788514670E+03  0.12000000000E+03 0.  0.
         25    1    3    3    0    0 -0.26247188288E+02 -0.11987108550E+02  0.19551037506E+04  0.19589954776E+04  0.12000000000E+03 0.  0.
<mgrwt>
<rscale>  0 0.27473504E+03</rscale>
<asrwt>0</asrwt>
<pdfrwt beam="1">  1        1 0.41845192E+00 0.27473504E+03</pdfrwt>
<pdfrwt beam="2">  1       -1 0.10673229E-02 0.27473504E+03</pdfrwt>
<totfact> 0.19316098E+03</totfact>
</mgrwt>
</event>
<event>
 5    1  0.1140254E+001  0.2708116E+03  0.7818608E-02  0.1100816E+00
          1   -1    0    0  501    0  0.00000000000E+00  0.00000000000E+00  0.29823206184E+02  0.29823206184E+02  0.00000000000E+00 0.  1.
         -1   -1    0    0    0  501 -0.00000000000E+00 -0.00000000000E+00 -0.61478084602E+03  0.61478084602E+03  0.00000000000E+00 0.  1.
         35    2    1    2    0    0  0.00000000000E+00  0.00000000000E+00 -0.58495763983E+03  0.64460405220E+03  0.27081163881E+03 0.  0.
         25    1    3    3    0    0 -0.54264097774E+02 -0.14541505029E-01 -0.21758003767E+03  0.25433376754E+03  0.12000000000E+03 0.  0.
         25    1    3    3    0    0  0.54264097774E+02  0.14541505029E-01 -0.36737760216E+03  0.39027028466E+03  0.12000000000E+03 0.  0.
<mgrwt>
<rscale>  0 0.27081164E+03</rscale>
<asrwt>0</asrwt>
<pdfrwt beam="1">  1        1 0.45881859E-02 0.27081164E+03</pdfrwt>
<pdfrwt beam="2">  1       -1 0.94581662E-01 0.27081164E+03</pdfrwt>
<totfact> 0.21361562E+03</totfact>
</mgrwt>
</event>
<event>
 5    1  0.1140254E+001  0.2743520E+03  0.7818608E-02  0.1098814E+00
         -1   -1    0    0    0  501 -0.00000000000E+00  0.00000000000E+00  0.16128959069E+04  0.16128959069E+04  0.00000000000E+00 0. -1.
          1   -1    0    0  501    0  0.00000000000E+00 -0.00000000000E+00 -0.11666752911E+02  0.11666752911E+02  0.00000000000E+00 0. -1.
         35    2    1    2    0    0  0.00000000000E+00  0.00000000000E+00  0.16012291540E+04  0.16245626598E+04  0.27435202217E+03 0.  0.
         25    1    3    3    0    0 -0.30973180719E+02 -0.20878556922E+02  0.47509586453E+03  0.49143802514E+03  0.12000000000E+03 0.  0.
         25    1    3    3    0    0  0.30973180719E+02  0.20878556922E+02  0.11261332894E+04  0.11331246347E+04  0.12000000000E+03 0.  0.
<mgrwt>
<rscale>  0 0.27435202E+03</rscale>
<asrwt>0</asrwt>
<pdfrwt beam="1">  1        1 0.17948863E-02 0.27435202E+03</pdfrwt>
<pdfrwt beam="2">  1       -1 0.24813766E+00 0.27435202E+03</pdfrwt>
<totfact> 0.57495598E+02</totfact>
</mgrwt>
</event>
<event>
 5    1  0.1140254E+001  0.2746954E+03  0.7818608E-02  0.1098622E+00
         -2   -1    0    0    0  501 -0.00000000000E+00  0.00000000000E+00  0.78362177378E+01  0.78362177378E+01  0.00000000000E+00 0.  1.
          2   -1    0    0  501    0  0.00000000000E+00 -0.00000000000E+00 -0.24073338921E+04  0.24073338921E+04  0.00000000000E+00 0.  1.
         35    2    1    2    0    0  0.00000000000E+00  0.00000000000E+00 -0.23994976744E+04  0.24151701098E+04  0.27469541347E+03 0.  0.
         25    1    3    3    0    0  0.10101648084E+02  0.60310444889E+02 -0.96301236725E+03  0.97238480682E+03  0.12000000000E+03 0.  0.
         25    1    3    3    0    0 -0.10101648084E+02 -0.60310444889E+02 -0.14364853071E+04  0.14427853030E+04  0.12000000000E+03 0.  0.
<mgrwt>
<rscale>  0 0.27469541E+03</rscale>
<asrwt>0</asrwt>
<pdfrwt beam="1">  1        2 0.37035944E+00 0.27469541E+03</pdfrwt>
<pdfrwt beam="2">  1       -2 0.12055707E-02 0.27469541E+03</pdfrwt>
<totfact> 0.73165470E+03</totfact>
</mgrwt>
</event>
<event>
 5    1  0.1140254E+001  0.2754896E+03  0.7818608E-02  0.1098178E+00
         -1   -1    0    0    0  501 -0.00000000000E+00  0.00000000000E+00  0.26363665703E+02  0.26363665703E+02  0.00000000000E+00 0.  1.
          1   -1    0    0  501    0  0.00000000000E+00 -0.00000000000E+00 -0.71968884890E+03  0.71968884890E+03  0.00000000000E+00 0.  1.
         35    2    1    2    0    0  0.00000000000E+00  0.00000000000E+00 -0.69332518320E+03  0.74605251461E+03  0.27548964571E+03 0.  0.
         25    1    3    3    0    0  0.52147854929E+02 -0.29212825705E+02 -0.26098875060E+03  0.29340742304E+03  0.12000000000E+03 0.  0.
         25    1    3    3    0    0 -0.52147854929E+02  0.29212825705E+02 -0.43233643260E+03  0.45264509156E+03  0.12000000000E+03 0.  0.
<mgrwt>
<rscale>  0 0.27548965E+03</rscale>
<asrwt>0</asrwt>
<pdfrwt beam="1">  1        1 0.11072137E+00 0.27548965E+03</pdfrwt>
<pdfrwt beam="2">  1       -1 0.40559483E-02 0.27548965E+03</pdfrwt>
<totfact> 0.65008992E+03</totfact>
</mgrwt>
</event>
<event>
 5    1  0.1140254E+001  0.2749216E+03  0.7818608E-02  0.1098495E+00
          2   -1    0    0  501    0  0.00000000000E+00  0.00000000000E+00  0.41348245698E+03  0.41348245698E+03  0.00000000000E+00 0.  1.
         -2   -1    0    0    0  501 -0.00000000000E+00 -0.00000000000E+00 -0.45698364919E+02  0.45698364919E+02  0.00000000000E+00 0.  1.
         35    2    1    2    0    0  0.00000000000E+00  0.00000000000E+00  0.36778409206E+03  0.45918082190E+03  0.27492160487E+03 0.  0.
         25    1    3    3    0    0  0.61165324635E+02  0.25019864856E+02  0.20280925703E+03  0.24474228346E+03  0.12000000000E+03 0.  0.
         25    1    3    3    0    0 -0.61165324635E+02 -0.25019864856E+02  0.16497483503E+03  0.21443853844E+03  0.12000000000E+03 0.  0.
<mgrwt>
<rscale>  0 0.27492160E+03</rscale>
<asrwt>0</asrwt>
<pdfrwt beam="1">  1        2 0.63612683E-01 0.27492160E+03</pdfrwt>
<pdfrwt beam="2">  1       -2 0.70305179E-02 0.27492160E+03</pdfrwt>
<totfact> 0.88502762E+03</totfact>
</mgrwt>
</event>
<event>
 5    1  0.1140254E+001  0.2731349E+03  0.7818608E-02  0.1099499E+00
         -4   -1    0    0    0  501 -0.00000000000E+00  0.00000000000E+00  0.32561477888E+03  0.32561477888E+03  0.00000000000E+00 0.  1.
          4   -1    0    0  501    0  0.00000000000E+00 -0.00000000000E+00 -0.57278302053E+02  0.57278302053E+02  0.00000000000E+00 0.  1.
         35    2    1    2    0    0  0.00000000000E+00  0.00000000000E+00  0.26833647683E+03  0.38289308093E+03  0.27313485063E+03 0.  0.
         25    1    3    3    0    0  0.80177243365E+01  0.61607567104E+02  0.10645258370E+03  0.17202304731E+03  0.12000000000E+03 0.  0.
         25    1    3    3    0    0 -0.80177243365E+01 -0.61607567104E+02  0.16188389312E+03  0.21087003363E+03  0.12000000000E+03 0.  0.
<mgrwt>
<rscale>  0 0.27313485E+03</rscale>
<asrwt>0</asrwt>
<pdfrwt beam="1">  1        4 0.88120467E-02 0.27313485E+03</pdfrwt>
<pdfrwt beam="2">  1       -4 0.50094580E-01 0.27313485E+03</pdfrwt>
<totfact> 0.67968587E+02</totfact>
</mgrwt>
</event>
<event>
 5    1  0.1140254E+001  0.2740214E+03  0.7818608E-02  0.1099000E+00
         -3   -1    0    0    0  501 -0.00000000000E+00  0.00000000000E+00  0.11652162482E+04  0.11652162482E+04  0.00000000000E+00 0. -1.
          3   -1    0    0  501    0  0.00000000000E+00 -0.00000000000E+00 -0.16110260071E+02  0.16110260071E+02  0.00000000000E+00 0. -1.
         35    2    1    2    0    0  0.00000000000E+00  0.00000000000E+00  0.11491059881E+04  0.11813265083E+04  0.27402143564E+03 0.  0.
         25    1    3    3    0    0 -0.45078906852E+02  0.19797125777E+02  0.76482243805E+03  0.77574312487E+03  0.12000000000E+03 0.  0.
         25    1    3    3    0    0  0.45078906852E+02 -0.19797125777E+02  0.38428355006E+03  0.40558338339E+03  0.12000000000E+03 0.  0.
<mgrwt>
<rscale>  0 0.27402144E+03</rscale>
<asrwt>0</asrwt>
<pdfrwt beam="1">  1        3 0.24785025E-02 0.27402144E+03</pdfrwt>
<pdfrwt beam="2">  1       -3 0.17926397E+00 0.27402144E+03</pdfrwt>
<totfact> 0.37337652E+02</totfact>
</mgrwt>
</event>
<event>
 5    1  0.1140254E+001  0.2751524E+03  0.7818608E-02  0.1098366E+00
          1   -1    0    0  501    0  0.00000000000E+00  0.00000000000E+00  0.19972478813E+02  0.19972478813E+02  0.00000000000E+00 0. -1.
         -1   -1    0    0    0  501 -0.00000000000E+00 -0.00000000000E+00 -0.94766445914E+03  0.94766445914E+03  0.00000000000E+00 0. -1.
         35    2    1    2    0    0  0.00000000000E+00  0.00000000000E+00 -0.92769198033E+03  0.96763693796E+03  0.27515238202E+03 0.  0.
         25    1    3    3    0    0  0.12018237510E+02 -0.65728617850E+02 -0.43603954291E+03  0.45715989787E+03  0.12000000000E+03 0.  0.
         25    1    3    3    0    0 -0.12018237510E+02  0.65728617850E+02 -0.49165243742E+03  0.51047704009E+03  0.12000000000E+03 0.  0.
<mgrwt>
<rscale>  0 0.27515238E+03</rscale>
<asrwt>0</asrwt>
<pdfrwt beam="1">  1        1 0.30726890E-02 0.27515238E+03</pdfrwt>
<pdfrwt beam="2">  1       -1 0.14579453E+00 0.27515238E+03</pdfrwt>
<totfact> 0.13415167E+03</totfact>
</mgrwt>
</event>
<event>
 5    1  0.1140254E+001  0.2752006E+03  0.7818608E-02  0.1098340E+00
         -2   -1    0    0    0  501 -0.00000000000E+00  0.00000000000E+00  0.24077024741E+02  0.24077024741E+02  0.00000000000E+00 0. -1.
          2   -1    0    0  501    0  0.00000000000E+00 -0.00000000000E+00 -0.78638610115E+03  0.78638610115E+03  0.00000000000E+00 0. -1.
         35    2    1    2    0    0  0.00000000000E+00  0.00000000000E+00 -0.76230907641E+03  0.81046312590E+03  0.27520056405E+03 0.  0.
         25    1    3    3    0    0 -0.22598822039E+02 -0.56648658190E+02 -0.46518025968E+03  0.48426485648E+03  0.12000000000E+03 0.  0.
         25    1    3    3    0    0  0.22598822039E+02  0.56648658190E+02 -0.29712881674E+03  0.32619826941E+03  0.12000000000E+03 0.  0.
<mgrwt>
<rscale>  0 0.27520056E+03</rscale>
<asrwt>0</asrwt>
<pdfrwt beam="1">  1        2 0.12098249E+00 0.27520056E+03</pdfrwt>
<pdfrwt beam="2">  1       -2 0.37041574E-02 0.27520056E+03</pdfrwt>
<totfact> 0.11153779E+04</totfact>
</mgrwt>
</event>
<event>
 5    1  0.1140254E+001  0.2754706E+03  0.7818608E-02  0.1098189E+00
         -2   -1    0    0    0  501 -0.00000000000E+00  0.00000000000E+00  0.46736716163E+02  0.46736716163E+02  0.00000000000E+00 0. -1.
          2   -1    0    0  501    0  0.00000000000E+00 -0.00000000000E+00 -0.40591247987E+03  0.40591247987E+03  0.00000000000E+00 0. -1.
         35    2    1    2    0    0  0.00000000000E+00  0.00000000000E+00 -0.35917576371E+03  0.45264919603E+03  0.27547062536E+03 0.  0.
         25    1    3    3    0    0  0.56363129626E+02 -0.36328002068E+02 -0.16540592517E+03  0.21507125842E+03  0.12000000000E+03 0.  0.
         25    1    3    3    0    0 -0.56363129626E+02  0.36328002068E+02 -0.19376983853E+03  0.23757793761E+03  0.12000000000E+03 0.  0.
<mgrwt>
<rscale>  0 0.27547063E+03</rscale>
<asrwt>0</asrwt>
<pdfrwt beam="1">  1        2 0.62448075E-01 0.27547063E+03</pdfrwt>
<pdfrwt beam="2">  1       -2 0.71902639E-02 0.27547063E+03</pdfrwt>
<totfact> 0.87218184E+03</totfact>
</mgrwt>
</event>
<event>
 5    1  0.1140254E+001  0.2750887E+03  0.7818608E-02  0.1098402E+00
          1   -1    0    0  501    0  0.00000000000E+00  0.00000000000E+00  0.58050237214E+03  0.58050237214E+03  0.00000000000E+00 0. -1.
         -1   -1    0    0    0  501 -0.00000000000E+00 -0.00000000000E+00 -0.32589786199E+02  0.32589786199E+02  0.00000000000E+00 0. -1.
         35    2    1    2    0    0  0.00000000000E+00  0.00000000000E+00  0.54791258594E+03  0.61309215834E+03  0.27508869985E+03 0.  0.
         25    1    3    3    0    0  0.31843068235E+02  0.45063025765E+02  0.35951632678E+03  0.38300998225E+03  0.12000000000E+03 0.  0.
         25    1    3    3    0    0 -0.31843068235E+02 -0.45063025765E+02  0.18839625916E+03  0.23008217608E+03  0.12000000000E+03 0.  0.
<mgrwt>
<rscale>  0 0.27508870E+03</rscale>
<asrwt>0</asrwt>
<pdfrwt beam="1">  1        1 0.89308049E-01 0.27508870E+03</pdfrwt>
<pdfrwt beam="2">  1       -1 0.50138137E-02 0.27508870E+03</pdfrwt>
<totfact> 0.64302997E+03</totfact>
</mgrwt>
</event>
<event>
 5    1  0.1140254E+001  0.2747254E+03  0.7818608E-02  0.1098605E+00
          3   -1    0    0  501    0  0.00000000000E+00  0.00000000000E+00  0.19889179488E+02  0.19889179488E+02  0.00000000000E+00 0. -1.
         -3   -1    0    0    0  501 -0.00000000000E+00 -0.00000000000E+00 -0.94868190623E+03  0.94868190623E+03  0.00000000000E+00 0. -1.
         35    2    1    2    0    0  0.00000000000E+00  0.00000000000E+00 -0.92879272674E+03  0.96857108572E+03  0.27472535165E+03 0.  0.
         25    1    3    3    0    0 -0.22102045901E+02  0.53011919305E+02 -0.34381573005E+03  0.36865704964E+03  0.12000000000E+03 0.  0.
         25    1    3    3    0    0  0.22102045901E+02 -0.53011919305E+02 -0.58497699670E+03  0.59991403608E+03  0.12000000000E+03 0.  0.
<mgrwt>
<rscale>  0 0.27472535E+03</rscale>
<asrwt>0</asrwt>
<pdfrwt beam="1">  1        3 0.30598744E-02 0.27472535E+03</pdfrwt>
<pdfrwt beam="2">  1       -3 0.14595103E+00 0.27472535E+03</pdfrwt>
<totfact> 0.45882216E+02</totfact>
</mgrwt>
</event>
<event>
 5    1  0.1140254E+001  0.2628668E+03  0.7818608E-02  0.1105433E+00
          2   -1    0    0  501    0  0.00000000000E+00  0.00000000000E+00  0.37848808048E+04  0.37848808048E+04  0.00000000000E+00 0.  1.
         -2   -1    0    0    0  501 -0.00000000000E+00 -0.00000000000E+00 -0.45641433255E+01  0.45641433255E+01  0.00000000000E+00 0.  1.
         35    2    1    2    0    0  0.00000000000E+00  0.00000000000E+00  0.37803166615E+04  0.37894449481E+04  0.26286679869E+03 0.  0.
         25    1    3    3    0    0  0.23800779472E+02  0.46705239542E+02  0.17277756137E+04  0.17327309162E+04  0.12000000000E+03 0.  0.
         25    1    3    3    0    0 -0.23800779472E+02 -0.46705239542E+02  0.20525410478E+04  0.20567140320E+04  0.12000000000E+03 0.  0.
<mgrwt>
<rscale>  0 0.26286680E+03</rscale>
<asrwt>0</asrwt>
<pdfrwt beam="1">  1        2 0.58228685E+00 0.26286680E+03</pdfrwt>
<pdfrwt beam="2">  1       -2 0.70217892E-03 0.26286680E+03</pdfrwt>
<totfact> 0.23027864E+03</totfact>
</mgrwt>
</event>
<event>
 5    1  0.1140254E+001  0.2735350E+03  0.7818608E-02  0.1099273E+00
          2   -1    0    0  501    0  0.00000000000E+00  0.00000000000E+00  0.77704484704E+03  0.77704484704E+03  0.00000000000E+00 0. -1.
         -2   -1    0    0    0  501 -0.00000000000E+00 -0.00000000000E+00 -0.24072423602E+02  0.24072423602E+02  0.00000000000E+00 0. -1.
         35    2    1    2    0    0  0.00000000000E+00  0.00000000000E+00  0.75297242343E+03  0.80111727064E+03  0.27353502676E+03 0.  0.
         25    1    3    3    0    0 -0.48815734734E+01 -0.59614715958E+02  0.45548711535E+03  0.47481181153E+03  0.12000000000E+03 0.  0.
         25    1    3    3    0    0  0.48815734734E+01  0.59614715958E+02  0.29748530808E+03  0.32630545910E+03  0.12000000000E+03 0.  0.
<mgrwt>
<rscale>  0 0.27353503E+03</rscale>
<asrwt>0</asrwt>
<pdfrwt beam="1">  1        2 0.11954534E+00 0.27353503E+03</pdfrwt>
<pdfrwt beam="2">  1       -2 0.37034504E-02 0.27353503E+03</pdfrwt>
<totfact> 0.11323994E+04</totfact>
</mgrwt>
</event>
<event>
 5    1  0.1140254E+001  0.2733889E+03  0.7818608E-02  0.1099356E+00
         -1   -1    0    0    0  501 -0.00000000000E+00  0.00000000000E+00  0.17969786528E+02  0.17969786528E+02  0.00000000000E+00 0. -1.
          1   -1    0    0  501    0  0.00000000000E+00 -0.00000000000E+00 -0.10398212893E+04  0.10398212893E+04  0.00000000000E+00 0. -1.
         35    2    1    2    0    0  0.00000000000E+00  0.00000000000E+00 -0.10218515028E+04  0.10577910758E+04  0.27338885563E+03 0.  0.
         25    1    3    3    0    0  0.77300607210E+01 -0.27875456050E+01 -0.76220941948E+03  0.77164157702E+03  0.12000000000E+03 0.  0.
         25    1    3    3    0    0 -0.77300607210E+01  0.27875456050E+01 -0.25964208331E+03  0.28614949882E+03  0.12000000000E+03 0.  0.
<mgrwt>
<rscale>  0 0.27338886E+03</rscale>
<asrwt>0</asrwt>
<pdfrwt beam="1">  1        1 0.15997250E+00 0.27338886E+03</pdfrwt>
<pdfrwt beam="2">  1       -1 0.27645826E-02 0.27338886E+03</pdfrwt>
<totfact> 0.63521055E+03</totfact>
</mgrwt>
</event>
<event>
 5    1  0.1140254E+001  0.2750490E+03  0.7818608E-02  0.1098424E+00
         -1   -1    0    0    0  501 -0.00000000000E+00  0.00000000000E+00  0.28820619289E+02  0.28820619289E+02  0.00000000000E+00 0. -1.
          1   -1    0    0  501    0  0.00000000000E+00 -0.00000000000E+00 -0.65623135591E+03  0.65623135591E+03  0.00000000000E+00 0. -1.
         35    2    1    2    0    0  0.00000000000E+00  0.00000000000E+00 -0.62741073662E+03  0.68505197520E+03  0.27504904344E+03 0.  0.
         25    1    3    3    0    0 -0.84514924206E+01 -0.62840325487E+02 -0.36898777810E+03  0.39315685752E+03  0.12000000000E+03 0.  0.
         25    1    3    3    0    0  0.84514924206E+01  0.62840325487E+02 -0.25842295852E+03  0.29189511767E+03  0.12000000000E+03 0.  0.
<mgrwt>
<rscale>  0 0.27504904E+03</rscale>
<asrwt>0</asrwt>
<pdfrwt beam="1">  1        1 0.10095866E+00 0.27504904E+03</pdfrwt>
<pdfrwt beam="2">  1       -1 0.44339417E-02 0.27504904E+03</pdfrwt>
<totfact> 0.65079625E+03</totfact>
</mgrwt>
</event>
<event>
 5    1  0.1140254E+001  0.2747069E+03  0.7818608E-02  0.1098616E+00
          1   -1    0    0  501    0  0.00000000000E+00  0.00000000000E+00  0.36997975777E+03  0.36997975777E+03  0.00000000000E+00 0.  1.
         -1   -1    0    0    0  501 -0.00000000000E+00 -0.00000000000E+00 -0.50991908737E+02  0.50991908737E+02  0.00000000000E+00 0.  1.
         35    2    1    2    0    0  0.00000000000E+00  0.00000000000E+00  0.31898784904E+03  0.42097166651E+03  0.27470692778E+03 0.  0.
         25    1    3    3    0    0 -0.30483617005E+02 -0.51326843947E+02  0.20552525137E+03  0.24536569598E+03  0.12000000000E+03 0.  0.
         25    1    3    3    0    0  0.30483617005E+02  0.51326843947E+02  0.11346259767E+03  0.17560597053E+03  0.12000000000E+03 0.  0.
<mgrwt>
<rscale>  0 0.27470693E+03</rscale>
<asrwt>0</asrwt>
<pdfrwt beam="1">  1        1 0.56919961E-01 0.27470693E+03</pdfrwt>
<pdfrwt beam="2">  1       -1 0.78449093E-02 0.27470693E+03</pdfrwt>
<totfact> 0.59098642E+03</totfact>
</mgrwt>
</event>
<event>
 5    1  0.1140254E+001  0.2744888E+03  0.7818608E-02  0.1098738E+00
          2   -1    0    0  501    0  0.00000000000E+00  0.00000000000E+00  0.35210493636E+04  0.35210493636E+04  0.00000000000E+00 0.  1.
         -2   -1    0    0    0  501 -0.00000000000E+00 -0.00000000000E+00 -0.53495488491E+01  0.53495488491E+01  0.00000000000E+00 0.  1.
         35    2    1    2    0    0  0.00000000000E+00  0.00000000000E+00  0.35156998148E+04  0.35263989125E+04  0.27448880175E+03 0.  0.
         25    1    3    3    0    0  0.66257825351E+02 -0.47314527407E+01  0.18201811058E+04  0.18253415417E+04  0.12000000000E+03 0.  0.
         25    1    3    3    0    0 -0.66257825351E+02  0.47314527407E+01  0.16955187090E+04  0.17010573708E+04  0.12000000000E+03 0.  0.
<mgrwt>
<rscale>  0 0.27448880E+03</rscale>
<asrwt>0</asrwt>
<pdfrwt beam="1">  1        2 0.54169805E+00 0.27448880E+03</pdfrwt>
<pdfrwt beam="2">  1       -2 0.82301033E-03 0.27448880E+03</pdfrwt>
<totfact> 0.27780569E+03</totfact>
</mgrwt>
</event>
<event>
 5    1  0.1140254E+001  0.2760304E+03  0.7818608E-02  0.1097877E+00
          2   -1    0    0  501    0  0.00000000000E+00  0.00000000000E+00  0.17024365135E+03  0.17024365135E+03  0.00000000000E+00 0. -1.
         -2   -1    0    0    0  501 -0.00000000000E+00 -0.00000000000E+00 -0.11188782273E+03  0.11188782273E+03  0.00000000000E+00 0. -1.
         35    2    1    2    0    0  0.00000000000E+00  0.00000000000E+00  0.58355828615E+02  0.28213147408E+03  0.27603037140E+03 0.  0.
         25    1    3    3    0    0  0.53356935763E+02  0.28158183160E+02  0.61634241614E+02  0.14777897554E+03  0.12000000000E+03 0.  0.
         25    1    3    3    0    0 -0.53356935763E+02 -0.28158183160E+02 -0.32784129986E+01  0.13435249854E+03  0.12000000000E+03 0.  0.
<mgrwt>
<rscale>  0 0.27603037E+03</rscale>
<asrwt>0</asrwt>
<pdfrwt beam="1">  1        2 0.26191331E-01 0.27603037E+03</pdfrwt>
<pdfrwt beam="2">  1       -2 0.17213511E-01 0.27603037E+03</pdfrwt>
<totfact> 0.55057916E+03</totfact>
</mgrwt>
</event>
<event>
 5    1  0.1140254E+001  0.2745101E+03  0.7818608E-02  0.1098726E+00
          2   -1    0    0  501    0  0.00000000000E+00  0.00000000000E+00  0.14524709574E+03  0.14524709574E+03  0.00000000000E+00 0.  1.
         -2   -1    0    0    0  501 -0.00000000000E+00 -0.00000000000E+00 -0.12970276074E+03  0.12970276074E+03  0.00000000000E+00 0.  1.
         35    2    1    2    0    0  0.00000000000E+00  0.00000000000E+00  0.15544335005E+02  0.27494985648E+03  0.27451010406E+03 0.  0.
         25    1    3    3    0    0  0.28080023807E+02  0.42173357969E+02 -0.35562247772E+02  0.13502501000E+03  0.12000000000E+03 0.  0.
         25    1    3    3    0    0 -0.28080023807E+02 -0.42173357969E+02  0.51106582778E+02  0.13992484648E+03  0.12000000000E+03 0.  0.
<mgrwt>
<rscale>  0 0.27451010E+03</rscale>
<asrwt>0</asrwt>
<pdfrwt beam="1">  1        2 0.22345707E-01 0.27451010E+03</pdfrwt>
<pdfrwt beam="2">  1       -2 0.19954271E-01 0.27451010E+03</pdfrwt>
<totfact> 0.51214329E+03</totfact>
</mgrwt>
</event>
<event>
 5    1  0.1140254E+001  0.2751847E+03  0.7818608E-02  0.1098348E+00
         -1   -1    0    0    0  501 -0.00000000000E+00  0.00000000000E+00  0.68830945239E+03  0.68830945239E+03  0.00000000000E+00 0. -1.
          1   -1    0    0  501    0  0.00000000000E+00 -0.00000000000E+00 -0.27504565816E+02  0.27504565816E+02  0.00000000000E+00 0. -1.
         35    2    1    2    0    0  0.00000000000E+00  0.00000000000E+00  0.66080488657E+03  0.71581401821E+03  0.27518468442E+03 0.  0.
         25    1    3    3    0    0  0.21256460974E+02 -0.36944023954E+02  0.19486564404E+03  0.23278599027E+03  0.12000000000E+03 0.  0.
         25    1    3    3    0    0 -0.21256460974E+02  0.36944023954E+02  0.46593924253E+03  0.48302802794E+03  0.12000000000E+03 0.  0.
<mgrwt>
<rscale>  0 0.27518468E+03</rscale>
<asrwt>0</asrwt>
<pdfrwt beam="1">  1        1 0.42314722E-02 0.27518468E+03</pdfrwt>
<pdfrwt beam="2">  1       -1 0.10589375E+00 0.27518468E+03</pdfrwt>
<totfact> 0.18591420E+03</totfact>
</mgrwt>
</event>
<event>
 5    1  0.1140254E+001  0.2751105E+03  0.7818608E-02  0.1098390E+00
         -1   -1    0    0    0  501 -0.00000000000E+00  0.00000000000E+00  0.14617978327E+03  0.14617978327E+03  0.00000000000E+00 0.  1.
          1   -1    0    0  501    0  0.00000000000E+00 -0.00000000000E+00 -0.12943957359E+03  0.12943957359E+03  0.00000000000E+00 0.  1.
         35    2    1    2    0    0  0.00000000000E+00  0.00000000000E+00  0.16740209678E+02  0.27561935686E+03  0.27511051463E+03 0.  0.
         25    1    3    3    0    0  0.55766985537E+02 -0.26502271695E+01  0.45915658858E+02  0.14009007141E+03  0.12000000000E+03 0.  0.
         25    1    3    3    0    0 -0.55766985537E+02  0.26502271695E+01 -0.29175449180E+02  0.13552928545E+03  0.12000000000E+03 0.  0.
<mgrwt>
<rscale>  0 0.27511051E+03</rscale>
<asrwt>0</asrwt>
<pdfrwt beam="1">  1        1 0.19913781E-01 0.27511051E+03</pdfrwt>
<pdfrwt beam="2">  1       -1 0.22489197E-01 0.27511051E+03</pdfrwt>
<totfact> 0.42406006E+03</totfact>
</mgrwt>
</event>
<event>
 5    1  0.1140254E+001  0.2744870E+03  0.7818608E-02  0.1098739E+00
          2   -1    0    0  501    0  0.00000000000E+00  0.00000000000E+00  0.77243695021E+03  0.77243695021E+03  0.00000000000E+00 0. -1.
         -2   -1    0    0    0  501 -0.00000000000E+00 -0.00000000000E+00 -0.24384879517E+02  0.24384879517E+02  0.00000000000E+00 0. -1.
         35    2    1    2    0    0  0.00000000000E+00  0.00000000000E+00  0.74805207070E+03  0.79682182973E+03  0.27448702676E+03 0.  0.
         25    1    3    3    0    0  0.34139926964E+02 -0.24161284995E+02  0.22356252878E+03  0.25715657989E+03  0.12000000000E+03 0.  0.
         25    1    3    3    0    0 -0.34139926964E+02  0.24161284995E+02  0.52448954192E+03  0.53966524985E+03  0.12000000000E+03 0.  0.
<mgrwt>
<rscale>  0 0.27448703E+03</rscale>
<asrwt>0</asrwt>
<pdfrwt beam="1">  1        2 0.11883644E+00 0.27448703E+03</pdfrwt>
<pdfrwt beam="2">  1       -2 0.37515205E-02 0.27448703E+03</pdfrwt>
<totfact> 0.11191820E+04</totfact>
</mgrwt>
</event>
<event>
 5    1  0.1140254E+001  0.2753240E+03  0.7818608E-02  0.1098271E+00
         -4   -1    0    0    0  501 -0.00000000000E+00  0.00000000000E+00  0.15039531977E+03  0.15039531977E+03  0.00000000000E+00 0. -1.
          4   -1    0    0  501    0  0.00000000000E+00 -0.00000000000E+00 -0.12600678147E+03  0.12600678147E+03  0.00000000000E+00 0. -1.
         35    2    1    2    0    0  0.00000000000E+00  0.00000000000E+00  0.24388538300E+02  0.27640210125E+03  0.27532402869E+03 0.  0.
         25    1    3    3    0    0  0.31478723996E+02  0.23052868072E+02  0.67441430293E+02  0.14307582364E+03  0.12000000000E+03 0.  0.
         25    1    3    3    0    0 -0.31478723996E+02 -0.23052868072E+02 -0.43052891993E+02  0.13332627760E+03  0.12000000000E+03 0.  0.
<mgrwt>
<rscale>  0 0.27532403E+03</rscale>
<asrwt>0</asrwt>
<pdfrwt beam="1">  1        4 0.19385659E-01 0.27532403E+03</pdfrwt>
<pdfrwt beam="2">  1       -4 0.23137742E-01 0.27532403E+03</pdfrwt>
<totfact> 0.77416210E+02</totfact>
</mgrwt>
</event>
<event>
 5    1  0.1140254E+001  0.2753796E+03  0.7818608E-02  0.1098240E+00
         -1   -1    0    0    0  501 -0.00000000000E+00  0.00000000000E+00  0.79931006949E+02  0.79931006949E+02  0.00000000000E+00 0. -1.
          1   -1    0    0  501    0  0.00000000000E+00 -0.00000000000E+00 -0.23718564797E+03  0.23718564797E+03  0.00000000000E+00 0. -1.
         35    2    1    2    0    0  0.00000000000E+00  0.00000000000E+00 -0.15725464102E+03  0.31711665492E+03  0.27537964831E+03 0.  0.
         25    1    3    3    0    0 -0.21123088621E+01  0.60893895123E+02 -0.11212093073E+03  0.17516743824E+03  0.12000000000E+03 0.  0.
         25    1    3    3    0    0  0.21123088621E+01 -0.60893895123E+02 -0.45133710299E+02  0.14194921668E+03  0.12000000000E+03 0.  0.
<mgrwt>
<rscale>  0 0.27537965E+03</rscale>
<asrwt>0</asrwt>
<pdfrwt beam="1">  1        1 0.36490100E-01 0.27537965E+03</pdfrwt>
<pdfrwt beam="2">  1       -1 0.12297078E-01 0.27537965E+03</pdfrwt>
<totfact> 0.51687588E+03</totfact>
</mgrwt>
</event>
<event>
 5    1  0.1140254E+001  0.2686996E+03  0.7818608E-02  0.1102026E+00
         -2   -1    0    0    0  501 -0.00000000000E+00  0.00000000000E+00  0.58791620220E+01  0.58791620220E+01  0.00000000000E+00 0.  1.
          2   -1    0    0  501    0  0.00000000000E+00 -0.00000000000E+00 -0.30701419711E+04  0.30701419711E+04  0.00000000000E+00 0.  1.
         35    2    1    2    0    0  0.00000000000E+00  0.00000000000E+00 -0.30642628091E+04  0.30760211332E+04  0.26869955027E+03 0.  0.
         25    1    3    3    0    0 -0.60119234359E+02  0.44112241641E+01 -0.15780381756E+04  0.15837418555E+04  0.12000000000E+03 0.  0.
         25    1    3    3    0    0  0.60119234359E+02 -0.44112241641E+01 -0.14862246336E+04  0.14922792777E+04  0.12000000000E+03 0.  0.
<mgrwt>
<rscale>  0 0.26869955E+03</rscale>
<asrwt>0</asrwt>
<pdfrwt beam="1">  1        2 0.47232977E+00 0.26869955E+03</pdfrwt>
<pdfrwt beam="2">  1       -2 0.90448600E-03 0.26869955E+03</pdfrwt>
<totfact> 0.46695082E+03</totfact>
</mgrwt>
</event>
<event>
 5    1  0.1140254E+001  0.2832054E+03  0.7818608E-02  0.1093951E+00
         -2   -1    0    0    0  501 -0.00000000000E+00  0.00000000000E+00  0.19267513555E+02  0.19267513555E+02  0.00000000000E+00 0. -1.
          2   -1    0    0  501    0  0.00000000000E+00 -0.00000000000E+00 -0.10406806792E+04  0.10406806792E+04  0.00000000000E+00 0. -1.
         35    2    1    2    0    0  0.00000000000E+00  0.00000000000E+00 -0.10214131657E+04  0.10599481928E+04  0.28320543140E+03 0.  0.
         25    1    3    3    0    0  0.65493981050E+02 -0.35926656457E+02 -0.54227471088E+03  0.56039454695E+03  0.12000000000E+03 0.  0.
         25    1    3    3    0    0 -0.65493981050E+02  0.35926656457E+02 -0.47913845478E+03  0.49955364581E+03  0.12000000000E+03 0.  0.
<mgrwt>
<rscale>  0 0.28320543E+03</rscale>
<asrwt>0</asrwt>
<pdfrwt beam="1">  1        2 0.16010470E+00 0.28320543E+03</pdfrwt>
<pdfrwt beam="2">  1       -2 0.29642332E-02 0.28320543E+03</pdfrwt>
<totfact> 0.10680100E+04</totfact>
</mgrwt>
</event>
<event>
 5    1  0.1140254E+001  0.2743422E+03  0.7818608E-02  0.1098820E+00
          1   -1    0    0  501    0  0.00000000000E+00  0.00000000000E+00  0.62265910344E+03  0.62265910344E+03  0.00000000000E+00 0.  1.
         -1   -1    0    0    0  501 -0.00000000000E+00 -0.00000000000E+00 -0.30218632388E+02  0.30218632388E+02  0.00000000000E+00 0.  1.
         35    2    1    2    0    0  0.00000000000E+00  0.00000000000E+00  0.59244047105E+03  0.65287773583E+03  0.27434216993E+03 0.  0.
         25    1    3    3    0    0 -0.18845202324E+02 -0.58748218636E+02  0.35496845188E+03  0.37974872834E+03  0.12000000000E+03 0.  0.
         25    1    3    3    0    0  0.18845202324E+02  0.58748218636E+02  0.23747201917E+03  0.27312900749E+03  0.12000000000E+03 0.  0.
<mgrwt>
<rscale>  0 0.27434217E+03</rscale>
<asrwt>0</asrwt>
<pdfrwt beam="1">  1        1 0.95793698E-01 0.27434217E+03</pdfrwt>
<pdfrwt beam="2">  1       -1 0.46490208E-02 0.27434217E+03</pdfrwt>
<totfact> 0.65309323E+03</totfact>
</mgrwt>
</event>
<event>
 5    1  0.1140254E+001  0.2752128E+03  0.7818608E-02  0.1098333E+00
         -1   -1    0    0    0  501 -0.00000000000E+00  0.00000000000E+00  0.14934503387E+03  0.14934503387E+03  0.00000000000E+00 0. -1.
          1   -1    0    0  501    0  0.00000000000E+00 -0.00000000000E+00 -0.12679040744E+03  0.12679040744E+03  0.00000000000E+00 0. -1.
         35    2    1    2    0    0  0.00000000000E+00  0.00000000000E+00  0.22554626423E+02  0.27613544131E+03  0.27521277364E+03 0.  0.
         25    1    3    3    0    0  0.99306964700E+01 -0.19233180217E+02 -0.52709396938E+02  0.13284131315E+03  0.12000000000E+03 0.  0.
         25    1    3    3    0    0 -0.99306964700E+01  0.19233180217E+02  0.75264023361E+02  0.14329412816E+03  0.12000000000E+03 0.  0.
<mgrwt>
<rscale>  0 0.27521277E+03</rscale>
<asrwt>0</asrwt>
<pdfrwt beam="1">  1        1 0.19506217E-01 0.27521277E+03</pdfrwt>
<pdfrwt beam="2">  1       -1 0.22976159E-01 0.27521277E+03</pdfrwt>
<totfact> 0.42043372E+03</totfact>
</mgrwt>
</event>
<event>
 5    1  0.1140254E+001  0.2752322E+03  0.7818608E-02  0.1098322E+00
         -1   -1    0    0    0  501 -0.00000000000E+00  0.00000000000E+00  0.72005767547E+02  0.72005767547E+02  0.00000000000E+00 0. -1.
          1   -1    0    0  501    0  0.00000000000E+00 -0.00000000000E+00 -0.26300931638E+03  0.26300931638E+03  0.00000000000E+00 0. -1.
         35    2    1    2    0    0  0.00000000000E+00  0.00000000000E+00 -0.19100354883E+03  0.33501508393E+03  0.27523217616E+03 0.  0.
         25    1    3    3    0    0  0.93399307618E+01  0.64909299130E+02 -0.76733995156E+02  0.15680738960E+03  0.12000000000E+03 0.  0.
         25    1    3    3    0    0 -0.93399307618E+01 -0.64909299130E+02 -0.11426955368E+03  0.17820769433E+03  0.12000000000E+03 0.  0.
<mgrwt>
<rscale>  0 0.27523218E+03</rscale>
<asrwt>0</asrwt>
<pdfrwt beam="1">  1        1 0.40462972E-01 0.27523218E+03</pdfrwt>
<pdfrwt beam="2">  1       -1 0.11077810E-01 0.27523218E+03</pdfrwt>
<totfact> 0.53426292E+03</totfact>
</mgrwt>
</event>
<event>
 5    1  0.1140254E+001  0.2746590E+03  0.7818608E-02  0.1098642E+00
         -2   -1    0    0    0  501 -0.00000000000E+00  0.00000000000E+00  0.37332835449E+02  0.37332835449E+02  0.00000000000E+00 0. -1.
          2   -1    0    0  501    0  0.00000000000E+00 -0.00000000000E+00 -0.50516896786E+03  0.50516896786E+03  0.00000000000E+00 0. -1.
         35    2    1    2    0    0  0.00000000000E+00  0.00000000000E+00 -0.46783613241E+03  0.54250180331E+03  0.27465898821E+03 0.  0.
         25    1    3    3    0    0  0.25490232654E+02  0.23957830279E+02 -0.34627214271E+03  0.36814144891E+03  0.12000000000E+03 0.  0.
         25    1    3    3    0    0 -0.25490232654E+02 -0.23957830279E+02 -0.12156398970E+03  0.17436035439E+03  0.12000000000E+03 0.  0.
<mgrwt>
<rscale>  0 0.27465899E+03</rscale>
<asrwt>0</asrwt>
<pdfrwt beam="1">  1        2 0.77718299E-01 0.27465899E+03</pdfrwt>
<pdfrwt beam="2">  1       -2 0.57435134E-02 0.27465899E+03</pdfrwt>
<totfact> 0.96847692E+03</totfact>
</mgrwt>
</event>
<event>
 5    1  0.1140254E+001  0.2753504E+03  0.7818608E-02  0.1098256E+00
          1   -1    0    0  501    0  0.00000000000E+00  0.00000000000E+00  0.12188873570E+04  0.12188873570E+04  0.00000000000E+00 0. -1.
         -1   -1    0    0    0  501 -0.00000000000E+00 -0.00000000000E+00 -0.15550629203E+02  0.15550629203E+02  0.00000000000E+00 0. -1.
         35    2    1    2    0    0  0.00000000000E+00  0.00000000000E+00  0.12033367278E+04  0.12344379862E+04  0.27535043366E+03 0.  0.
         25    1    3    3    0    0 -0.30683956414E+02 -0.24419149849E+02  0.35543490022E+03  0.37718930042E+03  0.12000000000E+03 0.  0.
         25    1    3    3    0    0  0.30683956414E+02  0.24419149849E+02  0.84790182759E+03  0.85724868579E+03  0.12000000000E+03 0.  0.
<mgrwt>
<rscale>  0 0.27535043E+03</rscale>
<asrwt>0</asrwt>
<pdfrwt beam="1">  1        1 0.18752106E+00 0.27535043E+03</pdfrwt>
<pdfrwt beam="2">  1       -1 0.23924054E-02 0.27535043E+03</pdfrwt>
<totfact> 0.58517744E+03</totfact>
</mgrwt>
</event>
<event>
 5    1  0.1140254E+001  0.2739756E+03  0.7818608E-02  0.1099026E+00
          3   -1    0    0  501    0  0.00000000000E+00  0.00000000000E+00  0.42945217216E+03  0.42945217216E+03  0.00000000000E+00 0. -1.
         -3   -1    0    0    0  501 -0.00000000000E+00 -0.00000000000E+00 -0.43696732915E+02  0.43696732915E+02  0.00000000000E+00 0. -1.
         35    2    1    2    0    0  0.00000000000E+00  0.00000000000E+00  0.38575543925E+03  0.47314890508E+03  0.27397559648E+03 0.  0.
         25    1    3    3    0    0 -0.33614053169E+02 -0.49538044940E+02  0.14459234893E+03  0.19720768199E+03  0.12000000000E+03 0.  0.
         25    1    3    3    0    0  0.33614053169E+02  0.49538044940E+02  0.24116309032E+03  0.27594122309E+03  0.12000000000E+03 0.  0.
<mgrwt>
<rscale>  0 0.27397560E+03</rscale>
<asrwt>0</asrwt>
<pdfrwt beam="1">  1        3 0.66069562E-01 0.27397560E+03</pdfrwt>
<pdfrwt beam="2">  1       -3 0.67225746E-02 0.27397560E+03</pdfrwt>
<totfact> 0.81019257E+02</totfact>
</mgrwt>
</event>
<event>
 5    1  0.1140254E+001  0.2741097E+03  0.7818608E-02  0.1098950E+00
          1   -1    0    0  501    0  0.00000000000E+00  0.00000000000E+00  0.24462095141E+04  0.24462095141E+04  0.00000000000E+00 0. -1.
         -1   -1    0    0    0  501 -0.00000000000E+00 -0.00000000000E+00 -0.76788316207E+01  0.76788316207E+01  0.00000000000E+00 0. -1.
         35    2    1    2    0    0  0.00000000000E+00  0.00000000000E+00  0.24385306825E+04  0.24538883457E+04  0.27410969313E+03 0.  0.
         25    1    3    3    0    0  0.22720377079E+02  0.62114563467E+02  0.12469976125E+04  0.12545028817E+04  0.12000000000E+03 0.  0.
         25    1    3    3    0    0 -0.22720377079E+02 -0.62114563467E+02  0.11915330699E+04  0.11993854640E+04  0.12000000000E+03 0.  0.
<mgrwt>
<rscale>  0 0.27410969E+03</rscale>
<asrwt>0</asrwt>
<pdfrwt beam="1">  1        1 0.37633931E+00 0.27410969E+03</pdfrwt>
<pdfrwt beam="2">  1       -1 0.11813607E-02 0.27410969E+03</pdfrwt>
<totfact> 0.25433283E+03</totfact>
</mgrwt>
</event>
<event>
 5    1  0.1140254E+001  0.2753090E+03  0.7818608E-02  0.1098279E+00
          1   -1    0    0  501    0  0.00000000000E+00  0.00000000000E+00  0.14671327622E+03  0.14671327622E+03  0.00000000000E+00 0. -1.
         -1   -1    0    0    0  501 -0.00000000000E+00 -0.00000000000E+00 -0.12915505344E+03  0.12915505344E+03  0.00000000000E+00 0. -1.
         35    2    1    2    0    0  0.00000000000E+00  0.00000000000E+00  0.17558222780E+02  0.27586832966E+03  0.27530899753E+03 0.  0.
         25    1    3    3    0    0  0.48468564466E+02 -0.10339766916E+01 -0.38204208949E+02  0.13494381212E+03  0.12000000000E+03 0.  0.
         25    1    3    3    0    0 -0.48468564466E+02  0.10339766916E+01  0.55762431728E+02  0.14092451753E+03  0.12000000000E+03 0.  0.
<mgrwt>
<rscale>  0 0.27530900E+03</rscale>
<asrwt>0</asrwt>
<pdfrwt beam="1">  1        1 0.22571273E-01 0.27530900E+03</pdfrwt>
<pdfrwt beam="2">  1       -1 0.19870008E-01 0.27530900E+03</pdfrwt>
<totfact> 0.44204912E+03</totfact>
</mgrwt>
</event>
<event>
 5    1  0.1140254E+001  0.2726902E+03  0.7818608E-02  0.1099750E+00
          2   -1    0    0  501    0  0.00000000000E+00  0.00000000000E+00  0.73624726984E+03  0.73624726984E+03  0.00000000000E+00 0.  1.
         -2   -1    0    0    0  501 -0.00000000000E+00 -0.00000000000E+00 -0.25249651566E+02  0.25249651566E+02  0.00000000000E+00 0.  1.
         35    2    1    2    0    0  0.00000000000E+00  0.00000000000E+00  0.71099761828E+03  0.76149692141E+03  0.27269020540E+03 0.  0.
         25    1    3    3    0    0 -0.46927661171E+02 -0.28316923326E+02  0.45166640997E+03  0.47053862692E+03  0.12000000000E+03 0.  0.
         25    1    3    3    0    0  0.46927661171E+02  0.28316923326E+02  0.25933120830E+03  0.29095829449E+03  0.12000000000E+03 0.  0.
<mgrwt>
<rscale>  0 0.27269021E+03</rscale>
<asrwt>0</asrwt>
<pdfrwt beam="1">  1        2 0.11326879E+00 0.27269021E+03</pdfrwt>
<pdfrwt beam="2">  1       -2 0.38845623E-02 0.27269021E+03</pdfrwt>
<totfact> 0.11272296E+04</totfact>
</mgrwt>
</event>
<event>
 5    1  0.1140254E+001  0.2748013E+03  0.7818608E-02  0.1098563E+00
          2   -1    0    0  501    0  0.00000000000E+00  0.00000000000E+00  0.44802896514E+03  0.44802896514E+03  0.00000000000E+00 0. -1.
         -2   -1    0    0    0  501 -0.00000000000E+00 -0.00000000000E+00 -0.42137770400E+02  0.42137770400E+02  0.00000000000E+00 0. -1.
         35    2    1    2    0    0  0.00000000000E+00  0.00000000000E+00  0.40589119474E+03  0.49016673554E+03  0.27480132216E+03 0.  0.
         25    1    3    3    0    0 -0.34921657165E+02  0.37319785507E+02  0.12588066007E+03  0.18126838972E+03  0.12000000000E+03 0.  0.
         25    1    3    3    0    0  0.34921657165E+02 -0.37319785507E+02  0.28001053466E+03  0.30889834582E+03  0.12000000000E+03 0.  0.
<mgrwt>
<rscale>  0 0.27480132E+03</rscale>
<asrwt>0</asrwt>
<pdfrwt beam="1">  1        2 0.68927530E-01 0.27480132E+03</pdfrwt>
<pdfrwt beam="2">  1       -2 0.64827342E-02 0.27480132E+03</pdfrwt>
<totfact> 0.91879025E+03</totfact>
</mgrwt>
</event>
<event>
 5    1  0.1140254E+001  0.2746780E+03  0.7818608E-02  0.1098632E+00
          2   -1    0    0  501    0  0.00000000000E+00  0.00000000000E+00  0.36493037104E+03  0.36493037104E+03  0.00000000000E+00 0. -1.
         -2   -1    0    0    0  501 -0.00000000000E+00 -0.00000000000E+00 -0.51686573867E+02  0.51686573867E+02  0.00000000000E+00 0. -1.
         35    2    1    2    0    0  0.00000000000E+00  0.00000000000E+00  0.31324379717E+03  0.41661694490E+03  0.27467799751E+03 0.  0.
         25    1    3    3    0    0  0.36659566402E+02  0.23703694542E+02  0.23330708205E+03  0.26596613220E+03  0.12000000000E+03 0.  0.
         25    1    3    3    0    0 -0.36659566402E+02 -0.23703694542E+02  0.79936715121E+02  0.15065081270E+03  0.12000000000E+03 0.  0.
<mgrwt>
<rscale>  0 0.27467800E+03</rscale>
<asrwt>0</asrwt>
<pdfrwt beam="1">  1        2 0.56143132E-01 0.27467800E+03</pdfrwt>
<pdfrwt beam="2">  1       -2 0.79517808E-02 0.27467800E+03</pdfrwt>
<totfact> 0.83680752E+03</totfact>
</mgrwt>
</event>
<event>
 5    1  0.1140254E+001  0.2751682E+03  0.7818608E-02  0.1098358E+00
         -1   -1    0    0    0  501 -0.00000000000E+00  0.00000000000E+00  0.67675600246E+02  0.67675600246E+02  0.00000000000E+00 0. -1.
          1   -1    0    0  501    0  0.00000000000E+00 -0.00000000000E+00 -0.27970763643E+03  0.27970763643E+03  0.00000000000E+00 0. -1.
         35    2    1    2    0    0  0.00000000000E+00  0.00000000000E+00 -0.21203203619E+03  0.34738323668E+03  0.27516818267E+03 0.  0.
         25    1    3    3    0    0  0.45513234283E+02  0.45190986365E+02 -0.13175562627E+03  0.18940228298E+03  0.12000000000E+03 0.  0.
         25    1    3    3    0    0 -0.45513234283E+02 -0.45190986365E+02 -0.80276409922E+02  0.15798095370E+03  0.12000000000E+03 0.  0.
<mgrwt>
<rscale>  0 0.27516818E+03</rscale>
<asrwt>0</asrwt>
<pdfrwt beam="1">  1        1 0.43031944E-01 0.27516818E+03</pdfrwt>
<pdfrwt beam="2">  1       -1 0.10411631E-01 0.27516818E+03</pdfrwt>
<totfact> 0.54450881E+03</totfact>
</mgrwt>
</event>
<event>
 5    1  0.1140254E+001  0.2756613E+03  0.7818608E-02  0.1098083E+00
          2   -1    0    0  501    0  0.00000000000E+00  0.00000000000E+00  0.11379140583E+04  0.11379140583E+04  0.00000000000E+00 0.  1.
         -2   -1    0    0    0  501 -0.00000000000E+00 -0.00000000000E+00 -0.16694836746E+02  0.16694836746E+02  0.00000000000E+00 0.  1.
         35    2    1    2    0    0  0.00000000000E+00  0.00000000000E+00  0.11212192215E+04  0.11546088950E+04  0.27566130983E+03 0.  0.
         25    1    3    3    0    0 -0.29720322249E+02  0.52836663184E+01  0.81490656148E+03  0.82424748628E+03  0.12000000000E+03 0.  0.
         25    1    3    3    0    0  0.29720322249E+02 -0.52836663184E+01  0.30631266006E+03  0.33036140876E+03  0.12000000000E+03 0.  0.
<mgrwt>
<rscale>  0 0.27566131E+03</rscale>
<asrwt>0</asrwt>
<pdfrwt beam="1">  1        2 0.17506364E+00 0.27566131E+03</pdfrwt>
<pdfrwt beam="2">  1       -2 0.25684373E-02 0.27566131E+03</pdfrwt>
<totfact> 0.11568078E+04</totfact>
</mgrwt>
</event>
<event>
 5    1  0.1140254E+001  0.2741438E+03  0.7818608E-02  0.1098931E+00
          2   -1    0    0  501    0  0.00000000000E+00  0.00000000000E+00  0.13945548784E+03  0.13945548784E+03  0.00000000000E+00 0. -1.
         -2   -1    0    0    0  501 -0.00000000000E+00 -0.00000000000E+00 -0.13472905152E+03  0.13472905152E+03  0.00000000000E+00 0. -1.
         35    2    1    2    0    0  0.00000000000E+00  0.00000000000E+00  0.47264363252E+01  0.27418453936E+03  0.27414379880E+03 0.  0.
         25    1    3    3    0    0 -0.83608025256E+01  0.45602073454E+02  0.49691001592E+02  0.13790811347E+03  0.12000000000E+03 0.  0.
         25    1    3    3    0    0  0.83608025256E+01 -0.45602073454E+02 -0.44964565267E+02  0.13627642588E+03  0.12000000000E+03 0.  0.
<mgrwt>
<rscale>  0 0.27414380E+03</rscale>
<asrwt>0</asrwt>
<pdfrwt beam="1">  1        2 0.21454691E-01 0.27414380E+03</pdfrwt>
<pdfrwt beam="2">  1       -2 0.20727546E-01 0.27414380E+03</pdfrwt>
<totfact> 0.50244941E+03</totfact>
</mgrwt>
</event>
<event>
 5    1  0.1140254E+001  0.2755376E+03  0.7818608E-02  0.1098151E+00
         -1   -1    0    0    0  501 -0.00000000000E+00  0.00000000000E+00  0.10049834216E+03  0.10049834216E+03  0.00000000000E+00 0. -1.
          1   -1    0    0  501    0  0.00000000000E+00 -0.00000000000E+00 -0.18886118857E+03  0.18886118857E+03  0.00000000000E+00 0. -1.
         35    2    1    2    0    0  0.00000000000E+00  0.00000000000E+00 -0.88362846416E+02  0.28935953073E+03  0.27553755714E+03 0.  0.
         25    1    3    3    0    0  0.41778114202E+02 -0.19091203242E+02  0.80144734056E+01  0.12874050121E+03  0.12000000000E+03 0.  0.
         25    1    3    3    0    0 -0.41778114202E+02  0.19091203242E+02 -0.96377319822E+02  0.16061902952E+03  0.12000000000E+03 0.  0.
<mgrwt>
<rscale>  0 0.27553756E+03</rscale>
<asrwt>0</asrwt>
<pdfrwt beam="1">  1        1 0.29055568E-01 0.27553756E+03</pdfrwt>
<pdfrwt beam="2">  1       -1 0.15461283E-01 0.27553756E+03</pdfrwt>
<totfact> 0.47987071E+03</totfact>
</mgrwt>
</event>
<event>
 5    1  0.1140254E+001  0.2748737E+03  0.7818608E-02  0.1098522E+00
          2   -1    0    0  501    0  0.00000000000E+00  0.00000000000E+00  0.12692632624E+03  0.12692632624E+03  0.00000000000E+00 0.  1.
         -2   -1    0    0    0  501 -0.00000000000E+00 -0.00000000000E+00 -0.14881769976E+03  0.14881769976E+03  0.00000000000E+00 0.  1.
         35    2    1    2    0    0  0.00000000000E+00  0.00000000000E+00 -0.21891373519E+02  0.27574402600E+03  0.27487367215E+03 0.  0.
         25    1    3    3    0    0  0.34837844132E+01  0.64717370930E+02 -0.27982070511E+02  0.13922453492E+03  0.12000000000E+03 0.  0.
         25    1    3    3    0    0 -0.34837844132E+01 -0.64717370930E+02  0.60906969920E+01  0.13651949108E+03  0.12000000000E+03 0.  0.
<mgrwt>
<rscale>  0 0.27487367E+03</rscale>
<asrwt>0</asrwt>
<pdfrwt beam="1">  1        2 0.19527127E-01 0.27487367E+03</pdfrwt>
<pdfrwt beam="2">  1       -2 0.22895031E-01 0.27487367E+03</pdfrwt>
<totfact> 0.47106971E+03</totfact>
</mgrwt>
</event>
<event>
 5    1  0.1140254E+001  0.2739941E+03  0.7818608E-02  0.1099015E+00
         -1   -1    0    0    0  501 -0.00000000000E+00  0.00000000000E+00  0.63804020255E+01  0.63804020255E+01  0.00000000000E+00 0. -1.
          1   -1    0    0  501    0  0.00000000000E+00 -0.00000000000E+00 -0.29415372513E+04  0.29415372513E+04  0.00000000000E+00 0. -1.
         35    2    1    2    0    0  0.00000000000E+00  0.00000000000E+00 -0.29351568493E+04  0.29479176533E+04  0.27399408925E+03 0.  0.
         25    1    3    3    0    0 -0.42214319824E+02 -0.50367267770E+02 -0.13920503325E+04  0.13987576769E+04  0.12000000000E+03 0.  0.
         25    1    3    3    0    0  0.42214319824E+02  0.50367267770E+02 -0.15431065168E+04  0.15491599765E+04  0.12000000000E+03 0.  0.
<mgrwt>
<rscale>  0 0.27399409E+03</rscale>
<asrwt>0</asrwt>
<pdfrwt beam="1">  1        1 0.45254438E+00 0.27399409E+03</pdfrwt>
<pdfrwt beam="2">  1       -1 0.98159991E-03 0.27399409E+03</pdfrwt>
<totfact> 0.15363960E+03</totfact>
</mgrwt>
</event>
<event>
 5    1  0.1140254E+001  0.2751009E+03  0.7818608E-02  0.1098395E+00
          4   -1    0    0  501    0  0.00000000000E+00  0.00000000000E+00  0.33579171070E+03  0.33579171070E+03  0.00000000000E+00 0.  1.
         -4   -1    0    0    0  501 -0.00000000000E+00 -0.00000000000E+00 -0.56344834134E+02  0.56344834134E+02  0.00000000000E+00 0.  1.
         35    2    1    2    0    0  0.00000000000E+00  0.00000000000E+00  0.27944687656E+03  0.39213654483E+03  0.27510091416E+03 0.  0.
         25    1    3    3    0    0  0.65590576056E+02 -0.12634398897E+02  0.15061435557E+03  0.20382942822E+03  0.12000000000E+03 0.  0.
         25    1    3    3    0    0 -0.65590576056E+02  0.12634398897E+02  0.12883252099E+03  0.18830711661E+03  0.12000000000E+03 0.  0.
<mgrwt>
<rscale>  0 0.27510091E+03</rscale>
<asrwt>0</asrwt>
<pdfrwt beam="1">  1        4 0.51660262E-01 0.27510091E+03</pdfrwt>
<pdfrwt beam="2">  1       -4 0.86684363E-02 0.27510091E+03</pdfrwt>
<totfact> 0.65639830E+02</totfact>
</mgrwt>
</event>
<event>
 5    1  0.1140254E+001  0.2735384E+03  0.7818608E-02  0.1099271E+00
         -2   -1    0    0    0  501 -0.00000000000E+00  0.00000000000E+00  0.39116884127E+01  0.39116884127E+01  0.00000000000E+00 0. -1.
          2   -1    0    0  501    0  0.00000000000E+00 -0.00000000000E+00 -0.47820289668E+04  0.47820289668E+04  0.00000000000E+00 0. -1.
         35    2    1    2    0    0  0.00000000000E+00  0.00000000000E+00 -0.47781172784E+04  0.47859406552E+04  0.27353835050E+03 0.  0.
         25    1    3    3    0    0  0.65253004290E+02  0.48481746522E+01 -0.24753922948E+04  0.24791628572E+04  0.12000000000E+03 0.  0.
         25    1    3    3    0    0 -0.65253004290E+02 -0.48481746522E+01 -0.23027249836E+04  0.23067777980E+04  0.12000000000E+03 0.  0.
<mgrwt>
<rscale>  0 0.27353835E+03</rscale>
<asrwt>0</asrwt>
<pdfrwt beam="1">  1        2 0.73569705E+00 0.27353835E+03</pdfrwt>
<pdfrwt beam="2">  1       -2 0.60179798E-03 0.27353835E+03</pdfrwt>
<totfact> 0.39673977E+02</totfact>
</mgrwt>
</event>
<event>
 5    1  0.1140254E+001  0.2743690E+03  0.7818608E-02  0.1098805E+00
          1   -1    0    0  501    0  0.00000000000E+00  0.00000000000E+00  0.22140141115E+03  0.22140141115E+03  0.00000000000E+00 0. -1.
         -1   -1    0    0    0  501 -0.00000000000E+00 -0.00000000000E+00 -0.85002097969E+02  0.85002097969E+02  0.00000000000E+00 0. -1.
         35    2    1    2    0    0  0.00000000000E+00  0.00000000000E+00  0.13639931318E+03  0.30640350912E+03  0.27436898106E+03 0.  0.
         25    1    3    3    0    0  0.60339673258E+02 -0.24264189887E+02  0.83591363638E+02  0.16005356339E+03  0.12000000000E+03 0.  0.
         25    1    3    3    0    0 -0.60339673258E+02  0.24264189887E+02  0.52807949545E+02  0.14634994573E+03  0.12000000000E+03 0.  0.
<mgrwt>
<rscale>  0 0.27436898E+03</rscale>
<asrwt>0</asrwt>
<pdfrwt beam="1">  1        1 0.34061755E-01 0.27436898E+03</pdfrwt>
<pdfrwt beam="2">  1       -1 0.13077246E-01 0.27436898E+03</pdfrwt>
<totfact> 0.51172218E+03</totfact>
</mgrwt>
</event>
<event>
 5    1  0.1140254E+001  0.2749883E+03  0.7818608E-02  0.1098458E+00
          1   -1    0    0  501    0  0.00000000000E+00  0.00000000000E+00  0.22451168633E+03  0.22451168633E+03  0.00000000000E+00 0. -1.
         -1   -1    0    0    0  501 -0.00000000000E+00 -0.00000000000E+00 -0.84203392745E+02  0.84203392745E+02  0.00000000000E+00 0. -1.
         35    2    1    2    0    0  0.00000000000E+00  0.00000000000E+00  0.14030829359E+03  0.30871507907E+03  0.27498833211E+03 0.  0.
         25    1    3    3    0    0 -0.94812875342E+01  0.33068509828E+02  0.54558727069E+01  0.12495274188E+03  0.12000000000E+03 0.  0.
         25    1    3    3    0    0  0.94812875342E+01 -0.33068509828E+02  0.13485242088E+03  0.18376233720E+03  0.12000000000E+03 0.  0.
<mgrwt>
<rscale>  0 0.27498833E+03</rscale>
<asrwt>0</asrwt>
<pdfrwt beam="1">  1        1 0.34540259E-01 0.27498833E+03</pdfrwt>
<pdfrwt beam="2">  1       -1 0.12954368E-01 0.27498833E+03</pdfrwt>
<totfact> 0.51037548E+03</totfact>
</mgrwt>
</event>
<event>
 5    1  0.1140254E+001  0.2756811E+03  0.7818608E-02  0.1098072E+00
         -3   -1    0    0    0  501 -0.00000000000E+00  0.00000000000E+00  0.53493434655E+02  0.53493434655E+02  0.00000000000E+00 0.  1.
          3   -1    0    0  501    0  0.00000000000E+00 -0.00000000000E+00 -0.35518398552E+03  0.35518398552E+03  0.00000000000E+00 0.  1.
         35    2    1    2    0    0  0.00000000000E+00  0.00000000000E+00 -0.30169055087E+03  0.40867742018E+03  0.27568105717E+03 0.  0.
         25    1    3    3    0    0  0.30247486594E+02 -0.29249472856E+02 -0.71989432524E+02  0.14612638537E+03  0.12000000000E+03 0.  0.
         25    1    3    3    0    0 -0.30247486594E+02  0.29249472856E+02 -0.22970111834E+03  0.26255103480E+03  0.12000000000E+03 0.  0.
<mgrwt>
<rscale>  0 0.27568106E+03</rscale>
<asrwt>0</asrwt>
<pdfrwt beam="1">  1        3 0.54643687E-01 0.27568106E+03</pdfrwt>
<pdfrwt beam="2">  1       -3 0.82297597E-02 0.27568106E+03</pdfrwt>
<totfact> 0.86452114E+02</totfact>
</mgrwt>
</event>
<event>
 5    1  0.1140254E+001  0.2746587E+03  0.7818608E-02  0.1098643E+00
         -3   -1    0    0    0  501 -0.00000000000E+00  0.00000000000E+00  0.15515070839E+02  0.15515070839E+02  0.00000000000E+00 0. -1.
          3   -1    0    0  501    0  0.00000000000E+00 -0.00000000000E+00 -0.12155504497E+04  0.12155504497E+04  0.00000000000E+00 0. -1.
         35    2    1    2    0    0  0.00000000000E+00  0.00000000000E+00 -0.12000353789E+04  0.12310655206E+04  0.27465870702E+03 0.  0.
         25    1    3    3    0    0 -0.31721313669E+02 -0.30498418119E+01 -0.33698648983E+03  0.35913150461E+03  0.12000000000E+03 0.  0.
         25    1    3    3    0    0  0.31721313669E+02  0.30498418119E+01 -0.86304888905E+03  0.87193401594E+03  0.12000000000E+03 0.  0.
<mgrwt>
<rscale>  0 0.27465871E+03</rscale>
<asrwt>0</asrwt>
<pdfrwt beam="1">  1        3 0.18700782E+00 0.27465871E+03</pdfrwt>
<pdfrwt beam="2">  1       -3 0.23869332E-02 0.27465871E+03</pdfrwt>
<totfact> 0.35500602E+02</totfact>
</mgrwt>
</event>
<event>
 5    1  0.1140254E+001  0.2742589E+03  0.7818608E-02  0.1098867E+00
          2   -1    0    0  501    0  0.00000000000E+00  0.00000000000E+00  0.19924889339E+03  0.19924889339E+03  0.00000000000E+00 0. -1.
         -2   -1    0    0    0  501 -0.00000000000E+00 -0.00000000000E+00 -0.94376848209E+02  0.94376848209E+02  0.00000000000E+00 0. -1.
         35    2    1    2    0    0  0.00000000000E+00  0.00000000000E+00  0.10487204518E+03  0.29362574160E+03  0.27425887455E+03 0.  0.
         25    1    3    3    0    0  0.48836007131E+01 -0.10229130735E+02 -0.17572704060E+02  0.12180839298E+03  0.12000000000E+03 0.  0.
         25    1    3    3    0    0 -0.48836007131E+01  0.10229130735E+02  0.12244474924E+03  0.17181734863E+03  0.12000000000E+03 0.  0.
<mgrwt>
<rscale>  0 0.27425887E+03</rscale>
<asrwt>0</asrwt>
<pdfrwt beam="1">  1        2 0.30653676E-01 0.27425887E+03</pdfrwt>
<pdfrwt beam="2">  1       -2 0.14519515E-01 0.27425887E+03</pdfrwt>
<totfact> 0.61400738E+03</totfact>
</mgrwt>
</event>
<event>
 5    1  0.1140254E+001  0.2721884E+03  0.7818608E-02  0.1100034E+00
          2   -1    0    0  501    0  0.00000000000E+00  0.00000000000E+00  0.54813384578E+02  0.54813384578E+02  0.00000000000E+00 0. -1.
         -2   -1    0    0    0  501 -0.00000000000E+00 -0.00000000000E+00 -0.33790351178E+03  0.33790351178E+03  0.00000000000E+00 0. -1.
         35    2    1    2    0    0  0.00000000000E+00  0.00000000000E+00 -0.28309012720E+03  0.39271689636E+03  0.27218842842E+03 0.  0.
         25    1    3    3    0    0  0.41770041970E+02  0.45173436096E+02 -0.11508766442E+03  0.17728662171E+03  0.12000000000E+03 0.  0.
         25    1    3    3    0    0 -0.41770041970E+02 -0.45173436096E+02 -0.16800246278E+03  0.21543027465E+03  0.12000000000E+03 0.  0.
<mgrwt>
<rscale>  0 0.27218843E+03</rscale>
<asrwt>0</asrwt>
<pdfrwt beam="1">  1        2 0.84328285E-02 0.27218843E+03</pdfrwt>
<pdfrwt beam="2">  1       -2 0.51985155E-01 0.27218843E+03</pdfrwt>
<totfact> 0.28116326E+03</totfact>
</mgrwt>
</event>
<event>
 5    1  0.1140254E+001  0.2747722E+03  0.7818608E-02  0.1098579E+00
          2   -1    0    0  501    0  0.00000000000E+00  0.00000000000E+00  0.62874340748E+03  0.62874340748E+03  0.00000000000E+00 0. -1.
         -2   -1    0    0    0  501 -0.00000000000E+00 -0.00000000000E+00 -0.30020108540E+02  0.30020108540E+02  0.00000000000E+00 0. -1.
         35    2    1    2    0    0  0.00000000000E+00  0.00000000000E+00  0.59872329894E+03  0.65876351602E+03  0.27477223540E+03 0.  0.
         25    1    3    3    0    0  0.60626281629E+02 -0.23686319856E+02  0.26234721139E+03  0.29574084449E+03  0.12000000000E+03 0.  0.
         25    1    3    3    0    0 -0.60626281629E+02  0.23686319856E+02  0.33637608755E+03  0.36302267153E+03  0.12000000000E+03 0.  0.
<mgrwt>
<rscale>  0 0.27477224E+03</rscale>
<asrwt>0</asrwt>
<pdfrwt beam="1">  1        2 0.96729745E-01 0.27477224E+03</pdfrwt>
<pdfrwt beam="2">  1       -2 0.46184787E-02 0.27477224E+03</pdfrwt>
<totfact> 0.10502523E+04</totfact>
</mgrwt>
</event>
<event>
 5    1  0.1140254E+001  0.2753937E+03  0.7818608E-02  0.1098232E+00
         -2   -1    0    0    0  501 -0.00000000000E+00  0.00000000000E+00  0.35471066784E+02  0.35471066784E+02  0.00000000000E+00 0.  1.
          2   -1    0    0  501    0  0.00000000000E+00 -0.00000000000E+00 -0.53453220407E+03  0.53453220407E+03  0.00000000000E+00 0.  1.
         35    2    1    2    0    0  0.00000000000E+00  0.00000000000E+00 -0.49906113729E+03  0.57000327085E+03  0.27539373637E+03 0.  0.
         25    1    3    3    0    0 -0.25908931962E+02 -0.59319799849E+02 -0.28936050256E+03  0.31987436886E+03  0.12000000000E+03 0.  0.
         25    1    3    3    0    0  0.25908931962E+02  0.59319799849E+02 -0.20970063473E+03  0.25012890200E+03  0.12000000000E+03 0.  0.
<mgrwt>
<rscale>  0 0.27539374E+03</rscale>
<asrwt>0</asrwt>
<pdfrwt beam="1">  1        2 0.82235728E-01 0.27539374E+03</pdfrwt>
<pdfrwt beam="2">  1       -2 0.54570869E-02 0.27539374E+03</pdfrwt>
<totfact> 0.98275736E+03</totfact>
</mgrwt>
</event>
<event>
 5    1  0.1140254E+001  0.2753879E+03  0.7818608E-02  0.1098235E+00
          1   -1    0    0  501    0  0.00000000000E+00  0.00000000000E+00  0.10162443944E+04  0.10162443944E+04  0.00000000000E+00 0.  1.
         -1   -1    0    0    0  501 -0.00000000000E+00 -0.00000000000E+00 -0.18656554250E+02  0.18656554250E+02  0.00000000000E+00 0.  1.
         35    2    1    2    0    0  0.00000000000E+00  0.00000000000E+00  0.99758784017E+03  0.10349009487E+04  0.27538786230E+03 0.  0.
         25    1    3    3    0    0 -0.17155529919E+01  0.93370871164E+01  0.75003068175E+03  0.75962895409E+03  0.12000000000E+03 0.  0.
         25    1    3    3    0    0  0.17155529919E+01 -0.93370871164E+01  0.24755715841E+03  0.27527199458E+03  0.12000000000E+03 0.  0.
<mgrwt>
<rscale>  0 0.27538786E+03</rscale>
<asrwt>0</asrwt>
<pdfrwt beam="1">  1        1 0.15634525E+00 0.27538786E+03</pdfrwt>
<pdfrwt beam="2">  1       -1 0.28702399E-02 0.27538786E+03</pdfrwt>
<totfact> 0.62580166E+03</totfact>
</mgrwt>
</event>
<event>
 5    1  0.1140254E+001  0.2750456E+03  0.7818608E-02  0.1098426E+00
          2   -1    0    0  501    0  0.00000000000E+00  0.00000000000E+00  0.22425004428E+04  0.22425004428E+04  0.00000000000E+00 0. -1.
         -2   -1    0    0    0  501 -0.00000000000E+00 -0.00000000000E+00 -0.84336739101E+01  0.84336739101E+01  0.00000000000E+00 0. -1.
         35    2    1    2    0    0  0.00000000000E+00  0.00000000000E+00  0.22340667689E+04  0.22509341168E+04  0.27504557788E+03 0.  0.
         25    1    3    3    0    0  0.23465172875E+02  0.29500565191E+02  0.66199172722E+03  0.67383525034E+03  0.12000000000E+03 0.  0.
         25    1    3    3    0    0 -0.23465172875E+02 -0.29500565191E+02  0.15720750417E+04  0.15770988664E+04  0.12000000000E+03 0.  0.
<mgrwt>
<rscale>  0 0.27504558E+03</rscale>
<asrwt>0</asrwt>
<pdfrwt beam="1">  1        2 0.34499959E+00 0.27504558E+03</pdfrwt>
<pdfrwt beam="2">  1       -2 0.12974901E-02 0.27504558E+03</pdfrwt>
<totfact> 0.80616047E+03</totfact>
</mgrwt>
</event>
<event>
 5    1  0.1140254E+001  0.2749816E+03  0.7818608E-02  0.1098462E+00
         -2   -1    0    0    0  501 -0.00000000000E+00  0.00000000000E+00  0.17003655190E+03  0.17003655190E+03  0.00000000000E+00 0. -1.
          2   -1    0    0  501    0  0.00000000000E+00 -0.00000000000E+00 -0.11117441876E+03  0.11117441876E+03  0.00000000000E+00 0. -1.
         35    2    1    2    0    0  0.00000000000E+00  0.00000000000E+00  0.58862133136E+02  0.28121097066E+03  0.27498156174E+03 0.  0.
         25    1    3    3    0    0 -0.31528966738E+02  0.48357037459E+02 -0.55675512553E+01  0.13327969254E+03  0.12000000000E+03 0.  0.
         25    1    3    3    0    0  0.31528966738E+02 -0.48357037459E+02  0.64429684391E+02  0.14793127812E+03  0.12000000000E+03 0.  0.
<mgrwt>
<rscale>  0 0.27498156E+03</rscale>
<asrwt>0</asrwt>
<pdfrwt beam="1">  1        2 0.17103757E-01 0.27498156E+03</pdfrwt>
<pdfrwt beam="2">  1       -2 0.26159469E-01 0.27498156E+03</pdfrwt>
<totfact> 0.43439820E+03</totfact>
</mgrwt>
</event>
<event>
 5    1  0.1140254E+001  0.2744897E+03  0.7818608E-02  0.1098737E+00
         -2   -1    0    0    0  501 -0.00000000000E+00  0.00000000000E+00  0.29857939979E+02  0.29857939979E+02  0.00000000000E+00 0. -1.
          2   -1    0    0  501    0  0.00000000000E+00 -0.00000000000E+00 -0.63085895048E+03  0.63085895048E+03  0.00000000000E+00 0. -1.
         35    2    1    2    0    0  0.00000000000E+00  0.00000000000E+00 -0.60100101050E+03  0.66071689046E+03  0.27448969874E+03 0.  0.
         25    1    3    3    0    0 -0.11304008635E+02  0.63321064623E+02 -0.25889148071E+03  0.29251006243E+03  0.12000000000E+03 0.  0.
         25    1    3    3    0    0  0.11304008635E+02 -0.63321064623E+02 -0.34210952979E+03  0.36820682803E+03  0.12000000000E+03 0.  0.
<mgrwt>
<rscale>  0 0.27448970E+03</rscale>
<asrwt>0</asrwt>
<pdfrwt beam="1">  1        2 0.97055231E-01 0.27448970E+03</pdfrwt>
<pdfrwt beam="2">  1       -2 0.45935288E-02 0.27448970E+03</pdfrwt>
<totfact> 0.10546830E+04</totfact>
</mgrwt>
</event>
<event>
 5    1  0.1140254E+001  0.2758365E+03  0.7818608E-02  0.1097985E+00
          2   -1    0    0  501    0  0.00000000000E+00  0.00000000000E+00  0.10542025950E+03  0.10542025950E+03  0.00000000000E+00 0.  1.
         -2   -1    0    0    0  501 -0.00000000000E+00 -0.00000000000E+00 -0.18043446297E+03  0.18043446297E+03  0.00000000000E+00 0.  1.
         35    2    1    2    0    0  0.00000000000E+00  0.00000000000E+00 -0.75014203476E+02  0.28585472247E+03  0.27583653064E+03 0.  0.
         25    1    3    3    0    0 -0.41998134788E+02 -0.52674527344E+02 -0.46948349006E+02  0.14540494019E+03  0.12000000000E+03 0.  0.
         25    1    3    3    0    0  0.41998134788E+02  0.52674527344E+02 -0.28065854470E+02  0.14044978228E+03  0.12000000000E+03 0.  0.
<mgrwt>
<rscale>  0 0.27583653E+03</rscale>
<asrwt>0</asrwt>
<pdfrwt beam="1">  1        2 0.16218502E-01 0.27583653E+03</pdfrwt>
<pdfrwt beam="2">  1       -2 0.27759148E-01 0.27583653E+03</pdfrwt>
<totfact> 0.41585855E+03</totfact>
</mgrwt>
</event>
<event>
 5    1  0.1140254E+001  0.2759327E+03  0.7818608E-02  0.1097931E+00
         -1   -1    0    0    0  501 -0.00000000000E+00  0.00000000000E+00  0.11726863202E+03  0.11726863202E+03  0.00000000000E+00 0. -1.
          1   -1    0    0  501    0  0.00000000000E+00 -0.00000000000E+00 -0.16231717812E+03  0.16231717812E+03  0.00000000000E+00 0. -1.
         35    2    1    2    0    0  0.00000000000E+00  0.00000000000E+00 -0.45048546100E+02  0.27958581013E+03  0.27593269781E+03 0.  0.
         25    1    3    3    0    0 -0.44485151379E+02 -0.17650611219E+02  0.26534090352E+02  0.13188832670E+03  0.12000000000E+03 0.  0.
         25    1    3    3    0    0  0.44485151379E+02  0.17650611219E+02 -0.71582636452E+02  0.14769748343E+03  0.12000000000E+03 0.  0.
<mgrwt>
<rscale>  0 0.27593270E+03</rscale>
<asrwt>0</asrwt>
<pdfrwt beam="1">  1        1 0.24971874E-01 0.27593270E+03</pdfrwt>
<pdfrwt beam="2">  1       -1 0.18041328E-01 0.27593270E+03</pdfrwt>
<totfact> 0.45425902E+03</totfact>
</mgrwt>
</event>
<event>
 5    1  0.1140254E+001  0.2732729E+03  0.7818608E-02  0.1099421E+00
         -4   -1    0    0    0  501 -0.00000000000E+00  0.00000000000E+00  0.97015280183E+02  0.97015280183E+02  0.00000000000E+00 0.  1.
          4   -1    0    0  501    0  0.00000000000E+00 -0.00000000000E+00 -0.19243900956E+03  0.19243900956E+03  0.00000000000E+00 0.  1.
         35    2    1    2    0    0  0.00000000000E+00  0.00000000000E+00 -0.95423729382E+02  0.28945428975E+03  0.27327293632E+03 0.  0.
         25    1    3    3    0    0  0.37408656491E+02  0.26777585720E+02  0.14369698322E+01  0.12852436174E+03  0.12000000000E+03 0.  0.
         25    1    3    3    0    0 -0.37408656491E+02 -0.26777585720E+02 -0.96860699214E+02  0.16092992801E+03  0.12000000000E+03 0.  0.
<mgrwt>
<rscale>  0 0.27327294E+03</rscale>
<asrwt>0</asrwt>
<pdfrwt beam="1">  1        4 0.29606001E-01 0.27327294E+03</pdfrwt>
<pdfrwt beam="2">  1       -4 0.14925428E-01 0.27327294E+03</pdfrwt>
<totfact> 0.77682219E+02</totfact>
</mgrwt>
</event>
<event>
 5    1  0.1140254E+001  0.2736717E+03  0.7818608E-02  0.1099196E+00
         -2   -1    0    0    0  501 -0.00000000000E+00  0.00000000000E+00  0.19815454511E+02  0.19815454511E+02  0.00000000000E+00 0. -1.
          2   -1    0    0  501    0  0.00000000000E+00 -0.00000000000E+00 -0.94492163100E+03  0.94492163100E+03  0.00000000000E+00 0. -1.
         35    2    1    2    0    0  0.00000000000E+00  0.00000000000E+00 -0.92510617649E+03  0.96473708551E+03  0.27367171279E+03 0.  0.
         25    1    3    3    0    0 -0.65342107189E+01  0.10170087762E+01 -0.69318386012E+03  0.70352511977E+03  0.12000000000E+03 0.  0.
         25    1    3    3    0    0  0.65342107189E+01 -0.10170087762E+01 -0.23192231637E+03  0.26121196574E+03  0.12000000000E+03 0.  0.
<mgrwt>
<rscale>  0 0.27367171E+03</rscale>
<asrwt>0</asrwt>
<pdfrwt beam="1">  1        2 0.14537255E+00 0.27367171E+03</pdfrwt>
<pdfrwt beam="2">  1       -2 0.30485316E-02 0.27367171E+03</pdfrwt>
<totfact> 0.11719509E+04</totfact>
</mgrwt>
</event>
<event>
 5    1  0.1140254E+001  0.2732570E+03  0.7818608E-02  0.1099430E+00
          1   -1    0    0  501    0  0.00000000000E+00  0.00000000000E+00  0.11666546664E+03  0.11666546664E+03  0.00000000000E+00 0.  1.
         -1   -1    0    0    0  501 -0.00000000000E+00 -0.00000000000E+00 -0.16000742027E+03  0.16000742027E+03  0.00000000000E+00 0.  1.
         35    2    1    2    0    0  0.00000000000E+00  0.00000000000E+00 -0.43341953634E+02  0.27667288691E+03  0.27325695125E+03 0.  0.
         25    1    3    3    0    0 -0.45089166741E+01 -0.64630303584E+02 -0.13203788886E+02  0.13701002340E+03  0.12000000000E+03 0.  0.
         25    1    3    3    0    0  0.45089166741E+01  0.64630303584E+02 -0.30138164749E+02  0.13966286352E+03  0.12000000000E+03 0.  0.
<mgrwt>
<rscale>  0 0.27325695E+03</rscale>
<asrwt>0</asrwt>
<pdfrwt beam="1">  1        1 0.17948533E-01 0.27325695E+03</pdfrwt>
<pdfrwt beam="2">  1       -1 0.24616526E-01 0.27325695E+03</pdfrwt>
<totfact> 0.41766758E+03</totfact>
</mgrwt>
</event>
<event>
 5    1  0.1140254E+001  0.2753834E+03  0.7818608E-02  0.1098237E+00
          1   -1    0    0  501    0  0.00000000000E+00  0.00000000000E+00  0.19906261285E+04  0.19906261285E+04  0.00000000000E+00 0. -1.
         -1   -1    0    0    0  501 -0.00000000000E+00 -0.00000000000E+00 -0.95241420425E+01  0.95241420425E+01  0.00000000000E+00 0. -1.
         35    2    1    2    0    0  0.00000000000E+00  0.00000000000E+00  0.19811019864E+04  0.20001502705E+04  0.27538341273E+03 0.  0.
         25    1    3    3    0    0  0.41870361080E+02  0.49521271852E+02  0.11271140963E+04  0.11353376896E+04  0.12000000000E+03 0.  0.
         25    1    3    3    0    0 -0.41870361080E+02 -0.49521271852E+02  0.85398789017E+03  0.86481258088E+03  0.12000000000E+03 0.  0.
<mgrwt>
<rscale>  0 0.27538341E+03</rscale>
<asrwt>0</asrwt>
<pdfrwt beam="1">  1        1 0.30624984E+00 0.27538341E+03</pdfrwt>
<pdfrwt beam="2">  1       -1 0.14652542E-02 0.27538341E+03</pdfrwt>
<totfact> 0.36950180E+03</totfact>
</mgrwt>
</event>
<event>
 5    1  0.1140254E+001  0.2741718E+03  0.7818608E-02  0.1098915E+00
          2   -1    0    0  501    0  0.00000000000E+00  0.00000000000E+00  0.34544638792E+04  0.34544638792E+04  0.00000000000E+00 0. -1.
         -2   -1    0    0    0  501 -0.00000000000E+00 -0.00000000000E+00 -0.54400756286E+01  0.54400756286E+01  0.00000000000E+00 0. -1.
         35    2    1    2    0    0  0.00000000000E+00  0.00000000000E+00  0.34490238036E+04  0.34599039549E+04  0.27417180569E+03 0.  0.
         25    1    3    3    0    0  0.43385909839E+02  0.49119270415E+02  0.15999014748E+04  0.16057334053E+04  0.12000000000E+03 0.  0.
         25    1    3    3    0    0 -0.43385909839E+02 -0.49119270415E+02  0.18491223288E+04  0.18541705496E+04  0.12000000000E+03 0.  0.
<mgrwt>
<rscale>  0 0.27417181E+03</rscale>
<asrwt>0</asrwt>
<pdfrwt beam="1">  1        2 0.53145423E+00 0.27417181E+03</pdfrwt>
<pdfrwt beam="2">  1       -2 0.83693747E-03 0.27417181E+03</pdfrwt>
<totfact> 0.30003804E+03</totfact>
</mgrwt>
</event>
<event>
 5    1  0.1140254E+001  0.2743729E+03  0.7818608E-02  0.1098803E+00
          2   -1    0    0  501    0  0.00000000000E+00  0.00000000000E+00  0.18893033653E+03  0.18893033653E+03  0.00000000000E+00 0.  1.
         -2   -1    0    0    0  501 -0.00000000000E+00 -0.00000000000E+00 -0.99614068325E+02  0.99614068325E+02  0.00000000000E+00 0.  1.
         35    2    1    2    0    0  0.00000000000E+00  0.00000000000E+00  0.89316268207E+02  0.28854440486E+03  0.27437288096E+03 0.  0.
         25    1    3    3    0    0 -0.65052830435E+02  0.13026045282E+02  0.40126160724E+02  0.14286937173E+03  0.12000000000E+03 0.  0.
         25    1    3    3    0    0  0.65052830435E+02 -0.13026045282E+02  0.49190107483E+02  0.14567503313E+03  0.12000000000E+03 0.  0.
<mgrwt>
<rscale>  0 0.27437288E+03</rscale>
<asrwt>0</asrwt>
<pdfrwt beam="1">  1        2 0.29066206E-01 0.27437288E+03</pdfrwt>
<pdfrwt beam="2">  1       -2 0.15325241E-01 0.27437288E+03</pdfrwt>
<totfact> 0.59540143E+03</totfact>
</mgrwt>
</event>
<event>
 5    1  0.1140254E+001  0.2746551E+03  0.7818608E-02  0.1098645E+00
          1   -1    0    0  501    0  0.00000000000E+00  0.00000000000E+00  0.19773659418E+04  0.19773659418E+04  0.00000000000E+00 0. -1.
         -1   -1    0    0    0  501 -0.00000000000E+00 -0.00000000000E+00 -0.95373642866E+01  0.95373642866E+01  0.00000000000E+00 0. -1.
         35    2    1    2    0    0  0.00000000000E+00  0.00000000000E+00  0.19678285775E+04  0.19869033061E+04  0.27465512422E+03 0.  0.
         25    1    3    3    0    0 -0.10863305811E+02  0.50104281958E+02  0.67441256112E+03  0.68692121316E+03  0.12000000000E+03 0.  0.
         25    1    3    3    0    0  0.10863305811E+02 -0.50104281958E+02  0.12934160164E+04  0.12999820929E+04  0.12000000000E+03 0.  0.
<mgrwt>
<rscale>  0 0.27465512E+03</rscale>
<asrwt>0</asrwt>
<pdfrwt beam="1">  1        1 0.30420982E+00 0.27465512E+03</pdfrwt>
<pdfrwt beam="2">  1       -1 0.14672884E-02 0.27465512E+03</pdfrwt>
<totfact> 0.37614276E+03</totfact>
</mgrwt>
</event>
<event>
 5    1  0.1140254E+001  0.2729226E+03  0.7818608E-02  0.1099618E+00
          1   -1    0    0  501    0  0.00000000000E+00  0.00000000000E+00  0.24971059942E+02  0.24971059942E+02  0.00000000000E+00 0.  1.
         -1   -1    0    0    0  501 -0.00000000000E+00 -0.00000000000E+00 -0.74573094087E+03  0.74573094087E+03  0.00000000000E+00 0.  1.
         35    2    1    2    0    0  0.00000000000E+00  0.00000000000E+00 -0.72075988092E+03  0.77070200081E+03  0.27292264124E+03 0.  0.
         25    1    3    3    0    0 -0.47594232134E+02 -0.11606505804E+02 -0.48090953836E+03  0.49807018180E+03  0.12000000000E+03 0.  0.
         25    1    3    3    0    0  0.47594232134E+02  0.11606505804E+02 -0.23985034256E+03  0.27263181901E+03  0.12000000000E+03 0.  0.
<mgrwt>
<rscale>  0 0.27292264E+03</rscale>
<asrwt>0</asrwt>
<pdfrwt beam="1">  1        1 0.38417017E-02 0.27292264E+03</pdfrwt>
<pdfrwt beam="2">  1       -1 0.11472783E+00 0.27292264E+03</pdfrwt>
<totfact> 0.17683701E+03</totfact>
</mgrwt>
</event>
<event>
 5    1  0.1140254E+001  0.2743421E+03  0.7818608E-02  0.1098820E+00
         -1   -1    0    0    0  501 -0.00000000000E+00  0.00000000000E+00  0.70824222826E+03  0.70824222826E+03  0.00000000000E+00 0.  1.
          1   -1    0    0  501    0  0.00000000000E+00 -0.00000000000E+00 -0.26567037683E+02  0.26567037683E+02  0.00000000000E+00 0.  1.
         35    2    1    2    0    0  0.00000000000E+00  0.00000000000E+00  0.68167519058E+03  0.73480926594E+03  0.27434210736E+03 0.  0.
         25    1    3    3    0    0 -0.33849130291E+02 -0.37433222298E+01  0.49367599451E+03  0.50919128394E+03  0.12000000000E+03 0.  0.
         25    1    3    3    0    0  0.33849130291E+02  0.37433222298E+01  0.18799919607E+03  0.22561798201E+03  0.12000000000E+03 0.  0.
<mgrwt>
<rscale>  0 0.27434211E+03</rscale>
<asrwt>0</asrwt>
<pdfrwt beam="1">  1        1 0.40872371E-02 0.27434211E+03</pdfrwt>
<pdfrwt beam="2">  1       -1 0.10896033E+00 0.27434211E+03</pdfrwt>
<totfact> 0.18278619E+03</totfact>
</mgrwt>
</event>
<event>
 5    1  0.1140254E+001  0.2752562E+03  0.7818608E-02  0.1098308E+00
         -1   -1    0    0    0  501 -0.00000000000E+00  0.00000000000E+00  0.12719505265E+02  0.12719505265E+02  0.00000000000E+00 0.  1.
          1   -1    0    0  501    0  0.00000000000E+00 -0.00000000000E+00 -0.14891696120E+04  0.14891696120E+04  0.00000000000E+00 0.  1.
         35    2    1    2    0    0  0.00000000000E+00  0.00000000000E+00 -0.14764501067E+04  0.15018891172E+04  0.27525624948E+03 0.  0.
         25    1    3    3    0    0 -0.18627380510E+02 -0.60161411453E+02 -0.86907759962E+03  0.87958072335E+03  0.12000000000E+03 0.  0.
         25    1    3    3    0    0  0.18627380510E+02  0.60161411453E+02 -0.60737250710E+03  0.62230839389E+03  0.12000000000E+03 0.  0.
<mgrwt>
<rscale>  0 0.27525625E+03</rscale>
<asrwt>0</asrwt>
<pdfrwt beam="1">  1        1 0.22910282E+00 0.27525625E+03</pdfrwt>
<pdfrwt beam="2">  1       -1 0.19568486E-02 0.27525625E+03</pdfrwt>
<totfact> 0.51509800E+03</totfact>
</mgrwt>
</event>
<event>
 5    1  0.1140254E+001  0.2761391E+03  0.7818608E-02  0.1097817E+00
          1   -1    0    0  501    0  0.00000000000E+00  0.00000000000E+00  0.30890229374E+02  0.30890229374E+02  0.00000000000E+00 0.  1.
         -1   -1    0    0    0  501 -0.00000000000E+00 -0.00000000000E+00 -0.61712720976E+03  0.61712720976E+03  0.00000000000E+00 0.  1.
         35    2    1    2    0    0  0.00000000000E+00  0.00000000000E+00 -0.58623698038E+03  0.64801743913E+03  0.27613910308E+03 0.  0.
         25    1    3    3    0    0  0.25287507304E+02 -0.63716036264E+01 -0.14501275365E+03  0.19002303565E+03  0.12000000000E+03 0.  0.
         25    1    3    3    0    0 -0.25287507304E+02  0.63716036264E+01 -0.44122422674E+03  0.45799440348E+03  0.12000000000E+03 0.  0.
<mgrwt>
<rscale>  0 0.27613910E+03</rscale>
<asrwt>0</asrwt>
<pdfrwt beam="1">  1        1 0.47523435E-02 0.27613910E+03</pdfrwt>
<pdfrwt beam="2">  1       -1 0.94942636E-01 0.27613910E+03</pdfrwt>
<totfact> 0.20183310E+03</totfact>
</mgrwt>
</event>
<event>
 5    1  0.1140254E+001  0.2751009E+03  0.7818608E-02  0.1098395E+00
         -3   -1    0    0    0  501 -0.00000000000E+00  0.00000000000E+00  0.73636357672E+02  0.73636357672E+02  0.00000000000E+00 0. -1.
          3   -1    0    0  501    0  0.00000000000E+00 -0.00000000000E+00 -0.25694002133E+03  0.25694002133E+03  0.00000000000E+00 0. -1.
         35    2    1    2    0    0  0.00000000000E+00  0.00000000000E+00 -0.18330366366E+03  0.33057637901E+03  0.27510090739E+03 0.  0.
         25    1    3    3    0    0  0.27170845092E+02  0.61233287498E+02 -0.84816433066E+02  0.16149798029E+03  0.12000000000E+03 0.  0.
         25    1    3    3    0    0 -0.27170845092E+02 -0.61233287498E+02 -0.98487230597E+02  0.16907839871E+03  0.12000000000E+03 0.  0.
<mgrwt>
<rscale>  0 0.27510091E+03</rscale>
<asrwt>0</asrwt>
<pdfrwt beam="1">  1        3 0.39529234E-01 0.27510091E+03</pdfrwt>
<pdfrwt beam="2">  1       -3 0.11328670E-01 0.27510091E+03</pdfrwt>
<totfact> 0.96776353E+02</totfact>
</mgrwt>
</event>
<event>
 5    1  0.1140254E+001  0.2769467E+03  0.7818608E-02  0.1097368E+00
         -2   -1    0    0    0  501 -0.00000000000E+00  0.00000000000E+00  0.11414774236E+02  0.11414774236E+02  0.00000000000E+00 0.  1.
          2   -1    0    0  501    0  0.00000000000E+00 -0.00000000000E+00 -0.16798285029E+04  0.16798285029E+04  0.00000000000E+00 0.  1.
         35    2    1    2    0    0  0.00000000000E+00  0.00000000000E+00 -0.16684137287E+04  0.16912432771E+04  0.27694665996E+03 0.  0.
         25    1    3    3    0    0 -0.56480456287E+01 -0.63471270658E+02 -0.67098863321E+03  0.68460663780E+03  0.12000000000E+03 0.  0.
         25    1    3    3    0    0  0.56480456287E+01  0.63471270658E+02 -0.99742509544E+03  0.10066366393E+04  0.12000000000E+03 0.  0.
<mgrwt>
<rscale>  0 0.27694666E+03</rscale>
<asrwt>0</asrwt>
<pdfrwt beam="1">  1        2 0.25843490E+00 0.27694666E+03</pdfrwt>
<pdfrwt beam="2">  1       -2 0.17561208E-02 0.27694666E+03</pdfrwt>
<totfact> 0.10251186E+04</totfact>
</mgrwt>
</event>
<event>
 5    1  0.1140254E+001  0.2745086E+03  0.7818608E-02  0.1098727E+00
         -1   -1    0    0    0  501 -0.00000000000E+00  0.00000000000E+00  0.16409940888E+02  0.16409940888E+02  0.00000000000E+00 0.  1.
          1   -1    0    0  501    0  0.00000000000E+00 -0.00000000000E+00 -0.11480079323E+04  0.11480079323E+04  0.00000000000E+00 0.  1.
         35    2    1    2    0    0  0.00000000000E+00  0.00000000000E+00 -0.11315979914E+04  0.11644178732E+04  0.27450859592E+03 0.  0.
         25    1    3    3    0    0  0.56798523168E+01 -0.18140374089E+02 -0.29493890352E+03  0.31898321383E+03  0.12000000000E+03 0.  0.
         25    1    3    3    0    0 -0.56798523168E+01  0.18140374089E+02 -0.83665908791E+03  0.84543465938E+03  0.12000000000E+03 0.  0.
<mgrwt>
<rscale>  0 0.27450860E+03</rscale>
<asrwt>0</asrwt>
<pdfrwt beam="1">  1        1 0.17661658E+00 0.27450860E+03</pdfrwt>
<pdfrwt beam="2">  1       -1 0.25246067E-02 0.27450860E+03</pdfrwt>
<totfact> 0.60643664E+03</totfact>
</mgrwt>
</event>
<event>
 5    1  0.1140254E+001  0.2750000E+03  0.7818608E-02  0.1098452E+00
         -2   -1    0    0    0  501 -0.00000000000E+00  0.00000000000E+00  0.21187448497E+03  0.21187448497E+03  0.00000000000E+00 0.  1.
          2   -1    0    0  501    0  0.00000000000E+00 -0.00000000000E+00 -0.89233268185E+02  0.89233268185E+02  0.00000000000E+00 0.  1.
         35    2    1    2    0    0  0.00000000000E+00  0.00000000000E+00  0.12264121679E+03  0.30110775316E+03  0.27500001992E+03 0.  0.
         25    1    3    3    0    0  0.32207595931E+02 -0.48884709188E+02  0.97290732319E+02  0.16520451151E+03  0.12000000000E+03 0.  0.
         25    1    3    3    0    0 -0.32207595931E+02  0.48884709188E+02  0.25350484470E+02  0.13590324165E+03  0.12000000000E+03 0.  0.
<mgrwt>
<rscale>  0 0.27500002E+03</rscale>
<asrwt>0</asrwt>
<pdfrwt beam="1">  1        2 0.13728195E-01 0.27500002E+03</pdfrwt>
<pdfrwt beam="2">  1       -2 0.32596074E-01 0.27500002E+03</pdfrwt>
<totfact> 0.37845561E+03</totfact>
</mgrwt>
</event>
<event>
 5    1  0.1140254E+001  0.2753180E+03  0.7818608E-02  0.1098274E+00
         -2   -1    0    0    0  501 -0.00000000000E+00  0.00000000000E+00  0.94272508940E+02  0.94272508940E+02  0.00000000000E+00 0. -1.
          2   -1    0    0  501    0  0.00000000000E+00 -0.00000000000E+00 -0.20101293804E+03  0.20101293804E+03  0.00000000000E+00 0. -1.
         35    2    1    2    0    0  0.00000000000E+00  0.00000000000E+00 -0.10674042909E+03  0.29528544698E+03  0.27531795436E+03 0.  0.
         25    1    3    3    0    0 -0.13440692367E+02 -0.58281570919E+02 -0.19921864153E+02  0.13555174064E+03  0.12000000000E+03 0.  0.
         25    1    3    3    0    0  0.13440692367E+02  0.58281570919E+02 -0.86818564942E+02  0.15973370633E+03  0.12000000000E+03 0.  0.
<mgrwt>
<rscale>  0 0.27531795E+03</rscale>
<asrwt>0</asrwt>
<pdfrwt beam="1">  1        2 0.30925067E-01 0.27531795E+03</pdfrwt>
<pdfrwt beam="2">  1       -2 0.14503463E-01 0.27531795E+03</pdfrwt>
<totfact> 0.60930258E+03</totfact>
</mgrwt>
</event>
<event>
 5    1  0.1140254E+001  0.2747739E+03  0.7818608E-02  0.1098578E+00
          2   -1    0    0  501    0  0.00000000000E+00  0.00000000000E+00  0.14908278004E+02  0.14908278004E+02  0.00000000000E+00 0.  1.
         -2   -1    0    0    0  501 -0.00000000000E+00 -0.00000000000E+00 -0.12660869686E+04  0.12660869686E+04  0.00000000000E+00 0.  1.
         35    2    1    2    0    0  0.00000000000E+00  0.00000000000E+00 -0.12511786906E+04  0.12809952466E+04  0.27477391802E+03 0.  0.
         25    1    3    3    0    0  0.35673144614E+02 -0.22406143647E+02 -0.38331938438E+03  0.40386675892E+03  0.12000000000E+03 0.  0.
         25    1    3    3    0    0 -0.35673144614E+02  0.22406143647E+02 -0.86785930624E+03  0.87712848771E+03  0.12000000000E+03 0.  0.
<mgrwt>
<rscale>  0 0.27477392E+03</rscale>
<asrwt>0</asrwt>
<pdfrwt beam="1">  1        2 0.22935816E-02 0.27477392E+03</pdfrwt>
<pdfrwt beam="2">  1       -2 0.19478258E+00 0.27477392E+03</pdfrwt>
<totfact> 0.70555329E+02</totfact>
</mgrwt>
</event>
<event>
 5    1  0.1140254E+001  0.2753307E+03  0.7818608E-02  0.1098267E+00
         -2   -1    0    0    0  501 -0.00000000000E+00  0.00000000000E+00  0.10102824317E+02  0.10102824317E+02  0.00000000000E+00 0. -1.
          2   -1    0    0  501    0  0.00000000000E+00 -0.00000000000E+00 -0.18758858178E+04  0.18758858178E+04  0.00000000000E+00 0. -1.
         35    2    1    2    0    0  0.00000000000E+00  0.00000000000E+00 -0.18657829935E+04  0.18859886421E+04  0.27533067287E+03 0.  0.
         25    1    3    3    0    0  0.59337543401E+02 -0.15478218302E+02 -0.74021238729E+03  0.75237949042E+03  0.12000000000E+03 0.  0.
         25    1    3    3    0    0 -0.59337543401E+02  0.15478218302E+02 -0.11255706062E+04  0.11336091517E+04  0.12000000000E+03 0.  0.
<mgrwt>
<rscale>  0 0.27533067E+03</rscale>
<asrwt>0</asrwt>
<pdfrwt beam="1">  1        2 0.28859792E+00 0.27533067E+03</pdfrwt>
<pdfrwt beam="2">  1       -2 0.15542801E-02 0.27533067E+03</pdfrwt>
<totfact> 0.96694558E+03</totfact>
</mgrwt>
</event>
<event>
 5    1  0.1140254E+001  0.2753517E+03  0.7818608E-02  0.1098255E+00
         -4   -1    0    0    0  501 -0.00000000000E+00  0.00000000000E+00  0.55884821698E+02  0.55884821698E+02  0.00000000000E+00 0. -1.
          4   -1    0    0  501    0  0.00000000000E+00 -0.00000000000E+00 -0.33917332003E+03  0.33917332003E+03  0.00000000000E+00 0. -1.
         35    2    1    2    0    0  0.00000000000E+00  0.00000000000E+00 -0.28328849833E+03  0.39505814173E+03  0.27535170611E+03 0.  0.
         25    1    3    3    0    0 -0.24226447500E+02 -0.41125968976E+02 -0.21009766026E+03  0.24661567860E+03  0.12000000000E+03 0.  0.
         25    1    3    3    0    0  0.24226447500E+02  0.41125968976E+02 -0.73190838070E+02  0.14844246313E+03  0.12000000000E+03 0.  0.
<mgrwt>
<rscale>  0 0.27535171E+03</rscale>
<asrwt>0</asrwt>
<pdfrwt beam="1">  1        4 0.52180512E-01 0.27535171E+03</pdfrwt>
<pdfrwt beam="2">  1       -4 0.85976647E-02 0.27535171E+03</pdfrwt>
<totfact> 0.65192352E+02</totfact>
</mgrwt>
</event>
<event>
 5    1  0.1140254E+001  0.2728519E+03  0.7818608E-02  0.1099658E+00
          2   -1    0    0  501    0  0.00000000000E+00  0.00000000000E+00  0.24591058647E+04  0.24591058647E+04  0.00000000000E+00 0. -1.
         -2   -1    0    0    0  501 -0.00000000000E+00 -0.00000000000E+00 -0.75686186213E+01  0.75686186213E+01  0.00000000000E+00 0. -1.
         35    2    1    2    0    0  0.00000000000E+00  0.00000000000E+00  0.24515372461E+04  0.24666744833E+04  0.27285186046E+03 0.  0.
         25    1    3    3    0    0  0.64896378010E+02  0.66775193460E+00  0.12277629891E+04  0.12353193689E+04  0.12000000000E+03 0.  0.
         25    1    3    3    0    0 -0.64896378010E+02 -0.66775193460E+00  0.12237742570E+04  0.12313551144E+04  0.12000000000E+03 0.  0.
<mgrwt>
<rscale>  0 0.27285186E+03</rscale>
<asrwt>0</asrwt>
<pdfrwt beam="1">  1        2 0.37832334E+00 0.27285186E+03</pdfrwt>
<pdfrwt beam="2">  1       -2 0.11644048E-02 0.27285186E+03</pdfrwt>
<totfact> 0.72135070E+03</totfact>
</mgrwt>
</event>
<event>
 5    1  0.1140254E+001  0.2753059E+03  0.7818608E-02  0.1098281E+00
          3   -1    0    0  501    0  0.00000000000E+00  0.00000000000E+00  0.16084433679E+02  0.16084433679E+02  0.00000000000E+00 0. -1.
         -3   -1    0    0    0  501 -0.00000000000E+00 -0.00000000000E+00 -0.11780538127E+04  0.11780538127E+04  0.00000000000E+00 0. -1.
         35    2    1    2    0    0  0.00000000000E+00  0.00000000000E+00 -0.11619693790E+04  0.11941382463E+04  0.27530585479E+03 0.  0.
         25    1    3    3    0    0  0.11643980291E+02  0.13112154679E+02 -0.29852013673E+03  0.32221387759E+03  0.12000000000E+03 0.  0.
         25    1    3    3    0    0 -0.11643980291E+02 -0.13112154679E+02 -0.86344924224E+03  0.87192436874E+03  0.12000000000E+03 0.  0.
<mgrwt>
<rscale>  0 0.27530585E+03</rscale>
<asrwt>0</asrwt>
<pdfrwt beam="1">  1        3 0.24745289E-02 0.27530585E+03</pdfrwt>
<pdfrwt beam="2">  1       -3 0.18123900E+00 0.27530585E+03</pdfrwt>
<totfact> 0.36354761E+02</totfact>
</mgrwt>
</event>
<event>
 5    1  0.1140254E+001  0.2756183E+03  0.7818608E-02  0.1098106E+00
          2   -1    0    0  501    0  0.00000000000E+00  0.00000000000E+00  0.49116812166E+03  0.49116812166E+03  0.00000000000E+00 0.  1.
         -2   -1    0    0    0  501 -0.00000000000E+00 -0.00000000000E+00 -0.38665699645E+02  0.38665699645E+02  0.00000000000E+00 0.  1.
         35    2    1    2    0    0  0.00000000000E+00  0.00000000000E+00  0.45250242201E+03  0.52983382130E+03  0.27561828000E+03 0.  0.
         25    1    3    3    0    0  0.53090683154E+02 -0.27476099863E+02  0.28757985853E+03  0.31729439285E+03  0.12000000000E+03 0.  0.
         25    1    3    3    0    0 -0.53090683154E+02  0.27476099863E+02  0.16492256348E+03  0.21253942845E+03  0.12000000000E+03 0.  0.
<mgrwt>
<rscale>  0 0.27561828E+03</rscale>
<asrwt>0</asrwt>
<pdfrwt beam="1">  1        2 0.75564322E-01 0.27561828E+03</pdfrwt>
<pdfrwt beam="2">  1       -2 0.59485695E-02 0.27561828E+03</pdfrwt>
<totfact> 0.94723410E+03</totfact>
</mgrwt>
</event>
<event>
 5    1  0.1140254E+001  0.2736005E+03  0.7818608E-02  0.1099236E+00
         -1   -1    0    0    0  501 -0.00000000000E+00  0.00000000000E+00  0.18354050789E+02  0.18354050789E+02  0.00000000000E+00 0. -1.
          1   -1    0    0  501    0  0.00000000000E+00 -0.00000000000E+00 -0.10196280277E+04  0.10196280277E+04  0.00000000000E+00 0. -1.
         35    2    1    2    0    0  0.00000000000E+00  0.00000000000E+00 -0.10012739769E+04  0.10379820785E+04  0.27360047227E+03 0.  0.
         25    1    3    3    0    0  0.54272274504E+02 -0.24774665244E+02 -0.60488270515E+03  0.61955011969E+03  0.12000000000E+03 0.  0.
         25    1    3    3    0    0 -0.54272274504E+02  0.24774665244E+02 -0.39639127178E+03  0.41843195882E+03  0.12000000000E+03 0.  0.
<mgrwt>
<rscale>  0 0.27360047E+03</rscale>
<asrwt>0</asrwt>
<pdfrwt beam="1">  1        1 0.15686594E+00 0.27360047E+03</pdfrwt>
<pdfrwt beam="2">  1       -1 0.28236986E-02 0.27360047E+03</pdfrwt>
<totfact> 0.63727136E+03</totfact>
</mgrwt>
</event>
<event>
 5    1  0.1140254E+001  0.2751545E+03  0.7818608E-02  0.1098365E+00
          2   -1    0    0  501    0  0.00000000000E+00  0.00000000000E+00  0.28626006974E+03  0.28626006974E+03  0.00000000000E+00 0. -1.
         -2   -1    0    0    0  501 -0.00000000000E+00 -0.00000000000E+00 -0.66119952921E+02  0.66119952921E+02  0.00000000000E+00 0. -1.
         35    2    1    2    0    0  0.00000000000E+00  0.00000000000E+00  0.22014011682E+03  0.35238002266E+03  0.27515451902E+03 0.  0.
         25    1    3    3    0    0  0.24256714359E+02  0.52758999324E+02  0.66535033559E+02  0.14899265382E+03  0.12000000000E+03 0.  0.
         25    1    3    3    0    0 -0.24256714359E+02 -0.52758999324E+02  0.15360508326E+03  0.20338736884E+03  0.12000000000E+03 0.  0.
<mgrwt>
<rscale>  0 0.27515452E+03</rscale>
<asrwt>0</asrwt>
<pdfrwt beam="1">  1        2 0.44040010E-01 0.27515452E+03</pdfrwt>
<pdfrwt beam="2">  1       -2 0.10172301E-01 0.27515452E+03</pdfrwt>
<totfact> 0.73733262E+03</totfact>
</mgrwt>
</event>
<event>
 5    1  0.1140254E+001  0.2758156E+03  0.7818608E-02  0.1097997E+00
          4   -1    0    0  501    0  0.00000000000E+00  0.00000000000E+00  0.12781809567E+03  0.12781809567E+03  0.00000000000E+00 0.  1.
         -4   -1    0    0    0  501 -0.00000000000E+00 -0.00000000000E+00 -0.14879395313E+03  0.14879395313E+03  0.00000000000E+00 0.  1.
         35    2    1    2    0    0  0.00000000000E+00  0.00000000000E+00 -0.20975857456E+02  0.27661204880E+03  0.27581558866E+03 0.  0.
         25    1    3    3    0    0 -0.17313336017E+02  0.60792094264E+02  0.14546714646E+02  0.13640761429E+03  0.12000000000E+03 0.  0.
         25    1    3    3    0    0  0.17313336017E+02 -0.60792094264E+02 -0.35522572102E+02  0.14020443452E+03  0.12000000000E+03 0.  0.
<mgrwt>
<rscale>  0 0.27581559E+03</rscale>
<asrwt>0</asrwt>
<pdfrwt beam="1">  1        4 0.19664322E-01 0.27581559E+03</pdfrwt>
<pdfrwt beam="2">  1       -4 0.22891377E-01 0.27581559E+03</pdfrwt>
<totfact> 0.76965067E+02</totfact>
</mgrwt>
</event>
<event>
 5    1  0.1140254E+001  0.2733779E+03  0.7818608E-02  0.1099362E+00
          4   -1    0    0  501    0  0.00000000000E+00  0.00000000000E+00  0.30574143068E+03  0.30574143068E+03  0.00000000000E+00 0.  1.
         -4   -1    0    0    0  501 -0.00000000000E+00 -0.00000000000E+00 -0.61110028494E+02  0.61110028494E+02  0.00000000000E+00 0.  1.
         35    2    1    2    0    0  0.00000000000E+00  0.00000000000E+00  0.24463140219E+03  0.36685145918E+03  0.27337788894E+03 0.  0.
         25    1    3    3    0    0  0.20777118764E+02  0.20363666925E+02  0.20099277785E+03  0.23589078902E+03  0.12000000000E+03 0.  0.
         25    1    3    3    0    0 -0.20777118764E+02 -0.20363666925E+02  0.43638624337E+02  0.13096067016E+03  0.12000000000E+03 0.  0.
<mgrwt>
<rscale>  0 0.27337789E+03</rscale>
<asrwt>0</asrwt>
<pdfrwt beam="1">  1        4 0.47037142E-01 0.27337789E+03</pdfrwt>
<pdfrwt beam="2">  1       -4 0.94015430E-02 0.27337789E+03</pdfrwt>
<totfact> 0.69326619E+02</totfact>
</mgrwt>
</event>
<event>
 5    1  0.1140254E+001  0.2747301E+03  0.7818608E-02  0.1098603E+00
         -4   -1    0    0    0  501 -0.00000000000E+00  0.00000000000E+00  0.98413229255E+01  0.98413229255E+01  0.00000000000E+00 0.  1.
          4   -1    0    0  501    0  0.00000000000E+00 -0.00000000000E+00 -0.19173401680E+04  0.19173401680E+04  0.00000000000E+00 0.  1.
         35    2    1    2    0    0  0.00000000000E+00  0.00000000000E+00 -0.19074988451E+04  0.19271814910E+04  0.27473014943E+03 0.  0.
         25    1    3    3    0    0 -0.42680745150E+01  0.22625067871E+02 -0.51348637191E+03  0.52782417934E+03  0.12000000000E+03 0.  0.
         25    1    3    3    0    0  0.42680745150E+01 -0.22625067871E+02 -0.13940124732E+04  0.13993573116E+04  0.12000000000E+03 0.  0.
<mgrwt>
<rscale>  0 0.27473015E+03</rscale>
<asrwt>0</asrwt>
<pdfrwt beam="1">  1        4 0.29497529E+00 0.27473015E+03</pdfrwt>
<pdfrwt beam="2">  1       -4 0.15140503E-02 0.27473015E+03</pdfrwt>
<totfact> 0.11334849E+02</totfact>
</mgrwt>
</event>
<event>
 5    1  0.1140254E+001  0.2745625E+03  0.7818608E-02  0.1098696E+00
         -1   -1    0    0    0  501 -0.00000000000E+00  0.00000000000E+00  0.65553623829E+01  0.65553623829E+01  0.00000000000E+00 0. -1.
          1   -1    0    0  501    0  0.00000000000E+00 -0.00000000000E+00 -0.28749198806E+04  0.28749198806E+04  0.00000000000E+00 0. -1.
         35    2    1    2    0    0  0.00000000000E+00  0.00000000000E+00 -0.28683645183E+04  0.28814752430E+04  0.27456250028E+03 0.  0.
         25    1    3    3    0    0  0.63954243012E+02 -0.16342032880E+02 -0.15331533973E+04  0.15392584406E+04  0.12000000000E+03 0.  0.
         25    1    3    3    0    0 -0.63954243012E+02  0.16342032880E+02 -0.13352111209E+04  0.13422168024E+04  0.12000000000E+03 0.  0.
<mgrwt>
<rscale>  0 0.27456250E+03</rscale>
<asrwt>0</asrwt>
<pdfrwt beam="1">  1        1 0.44229581E+00 0.27456250E+03</pdfrwt>
<pdfrwt beam="2">  1       -1 0.10085163E-02 0.27456250E+03</pdfrwt>
<totfact> 0.16428246E+03</totfact>
</mgrwt>
</event>
<event>
 5    1  0.1140254E+001  0.2751478E+03  0.7818608E-02  0.1098369E+00
          2   -1    0    0  501    0  0.00000000000E+00  0.00000000000E+00  0.57210901585E+03  0.57210901585E+03  0.00000000000E+00 0. -1.
         -2   -1    0    0    0  501 -0.00000000000E+00 -0.00000000000E+00 -0.33082109496E+02  0.33082109496E+02  0.00000000000E+00 0. -1.
         35    2    1    2    0    0  0.00000000000E+00  0.00000000000E+00  0.53902690636E+03  0.60519112535E+03  0.27514776471E+03 0.  0.
         25    1    3    3    0    0  0.19913146156E+02 -0.58335827927E+02  0.32881760162E+03  0.35541611858E+03  0.12000000000E+03 0.  0.
         25    1    3    3    0    0 -0.19913146156E+02  0.58335827927E+02  0.21020930473E+03  0.24977500677E+03  0.12000000000E+03 0.  0.
<mgrwt>
<rscale>  0 0.27514776E+03</rscale>
<asrwt>0</asrwt>
<pdfrwt beam="1">  1        2 0.88016764E-01 0.27514776E+03</pdfrwt>
<pdfrwt beam="2">  1       -2 0.50895558E-02 0.27514776E+03</pdfrwt>
<totfact> 0.10114186E+04</totfact>
</mgrwt>
</event>
<event>
 5    1  0.1140254E+001  0.2766560E+03  0.7818608E-02  0.1097530E+00
          2   -1    0    0  501    0  0.00000000000E+00  0.00000000000E+00  0.17657468387E+03  0.17657468387E+03  0.00000000000E+00 0.  1.
         -2   -1    0    0    0  501 -0.00000000000E+00 -0.00000000000E+00 -0.10836566377E+03  0.10836566377E+03  0.00000000000E+00 0.  1.
         35    2    1    2    0    0  0.00000000000E+00  0.00000000000E+00  0.68209020104E+02  0.28494034765E+03  0.27665598004E+03 0.  0.
         25    1    3    3    0    0  0.22401280635E+02  0.65060089744E+02  0.34091011802E+02  0.14246694261E+03  0.12000000000E+03 0.  0.
         25    1    3    3    0    0 -0.22401280635E+02 -0.65060089744E+02  0.34118008301E+02  0.14247340503E+03  0.12000000000E+03 0.  0.
<mgrwt>
<rscale>  0 0.27665598E+03</rscale>
<asrwt>0</asrwt>
<pdfrwt beam="1">  1        2 0.27165336E-01 0.27665598E+03</pdfrwt>
<pdfrwt beam="2">  1       -2 0.16671641E-01 0.27665598E+03</pdfrwt>
<totfact> 0.55784465E+03</totfact>
</mgrwt>
</event>
<event>
 5    1  0.1140254E+001  0.2741192E+03  0.7818608E-02  0.1098945E+00
         -2   -1    0    0    0  501 -0.00000000000E+00  0.00000000000E+00  0.55492325405E+02  0.55492325405E+02  0.00000000000E+00 0. -1.
          2   -1    0    0  501    0  0.00000000000E+00 -0.00000000000E+00 -0.33852138040E+03  0.33852138040E+03  0.00000000000E+00 0. -1.
         35    2    1    2    0    0  0.00000000000E+00  0.00000000000E+00 -0.28302905500E+03  0.39401370581E+03  0.27411923390E+03 0.  0.
         25    1    3    3    0    0 -0.39621103038E+02 -0.27392219931E+02 -0.76193945254E+02  0.15008558496E+03  0.12000000000E+03 0.  0.
         25    1    3    3    0    0  0.39621103038E+02  0.27392219931E+02 -0.20683510975E+03  0.24392812085E+03  0.12000000000E+03 0.  0.
<mgrwt>
<rscale>  0 0.27411923E+03</rscale>
<asrwt>0</asrwt>
<pdfrwt beam="1">  1        2 0.52080213E-01 0.27411923E+03</pdfrwt>
<pdfrwt beam="2">  1       -2 0.85372808E-02 0.27411923E+03</pdfrwt>
<totfact> 0.81191445E+03</totfact>
</mgrwt>
</event>
<event>
 5    1  0.1140254E+001  0.2744778E+03  0.7818608E-02  0.1098744E+00
         -1   -1    0    0    0  501 -0.00000000000E+00  0.00000000000E+00  0.34479445869E+02  0.34479445869E+02  0.00000000000E+00 0. -1.
          1   -1    0    0  501    0  0.00000000000E+00 -0.00000000000E+00 -0.54625348486E+03  0.54625348486E+03  0.00000000000E+00 0. -1.
         35    2    1    2    0    0  0.00000000000E+00  0.00000000000E+00 -0.51177403899E+03  0.58073293073E+03  0.27447781303E+03 0.  0.
         25    1    3    3    0    0 -0.35759695984E+02 -0.51014675273E+02 -0.20612068941E+03  0.24650961757E+03  0.12000000000E+03 0.  0.
         25    1    3    3    0    0  0.35759695984E+02  0.51014675273E+02 -0.30565334958E+03  0.33422331316E+03  0.12000000000E+03 0.  0.
<mgrwt>
<rscale>  0 0.27447781E+03</rscale>
<asrwt>0</asrwt>
<pdfrwt beam="1">  1        1 0.84038994E-01 0.27447781E+03</pdfrwt>
<pdfrwt beam="2">  1       -1 0.53045304E-02 0.27447781E+03</pdfrwt>
<totfact> 0.64202818E+03</totfact>
</mgrwt>
</event>
<event>
 5    1  0.1140254E+001  0.2744632E+03  0.7818608E-02  0.1098752E+00
         -2   -1    0    0    0  501 -0.00000000000E+00  0.00000000000E+00  0.16236584037E+03  0.16236584037E+03  0.00000000000E+00 0. -1.
          2   -1    0    0  501    0  0.00000000000E+00 -0.00000000000E+00 -0.11598812623E+03  0.11598812623E+03  0.00000000000E+00 0. -1.
         35    2    1    2    0    0  0.00000000000E+00  0.00000000000E+00  0.46377714140E+02  0.27835396661E+03  0.27446318215E+03 0.  0.
         25    1    3    3    0    0  0.65418408568E+01 -0.15584561475E+02  0.88497658919E+02  0.15005835489E+03  0.12000000000E+03 0.  0.
         25    1    3    3    0    0 -0.65418408568E+01  0.15584561475E+02 -0.42119944778E+02  0.12829561172E+03  0.12000000000E+03 0.  0.
<mgrwt>
<rscale>  0 0.27446318E+03</rscale>
<asrwt>0</asrwt>
<pdfrwt beam="1">  1        2 0.17844327E-01 0.27446318E+03</pdfrwt>
<pdfrwt beam="2">  1       -2 0.24979360E-01 0.27446318E+03</pdfrwt>
<totfact> 0.44866266E+03</totfact>
</mgrwt>
</event>
<event>
 5    1  0.1140254E+001  0.2753629E+03  0.7818608E-02  0.1098249E+00
         -1   -1    0    0    0  501 -0.00000000000E+00  0.00000000000E+00  0.24644668934E+03  0.24644668934E+03  0.00000000000E+00 0. -1.
          1   -1    0    0  501    0  0.00000000000E+00 -0.00000000000E+00 -0.76917992562E+02  0.76917992562E+02  0.00000000000E+00 0. -1.
         35    2    1    2    0    0  0.00000000000E+00  0.00000000000E+00  0.16952869678E+03  0.32336468190E+03  0.27536292138E+03 0.  0.
         25    1    3    3    0    0  0.50768400284E+02 -0.28824368896E+02  0.12455133299E+03  0.18254125358E+03  0.12000000000E+03 0.  0.
         25    1    3    3    0    0 -0.50768400284E+02  0.28824368896E+02  0.44977363783E+02  0.14082342832E+03  0.12000000000E+03 0.  0.
<mgrwt>
<rscale>  0 0.27536292E+03</rscale>
<asrwt>0</asrwt>
<pdfrwt beam="1">  1        1 0.11833537E-01 0.27536292E+03</pdfrwt>
<pdfrwt beam="2">  1       -1 0.37914875E-01 0.27536292E+03</pdfrwt>
<totfact> 0.34561654E+03</totfact>
</mgrwt>
</event>
<event>
 5    1  0.1140254E+001  0.2752376E+03  0.7818608E-02  0.1098319E+00
          2   -1    0    0  501    0  0.00000000000E+00  0.00000000000E+00  0.15381999457E+04  0.15381999457E+04  0.00000000000E+00 0.  1.
         -2   -1    0    0    0  501 -0.00000000000E+00 -0.00000000000E+00 -0.12312403726E+02  0.12312403726E+02  0.00000000000E+00 0.  1.
         35    2    1    2    0    0  0.00000000000E+00  0.00000000000E+00  0.15258875420E+04  0.15505123494E+04  0.27523763364E+03 0.  0.
         25    1    3    3    0    0 -0.53277497040E+02 -0.35165745395E+02  0.88426615461E+03  0.89465174986E+03  0.12000000000E+03 0.  0.
         25    1    3    3    0    0  0.53277497040E+02  0.35165745395E+02  0.64162138738E+03  0.65586059958E+03  0.12000000000E+03 0.  0.
<mgrwt>
<rscale>  0 0.27523763E+03</rscale>
<asrwt>0</asrwt>
<pdfrwt beam="1">  1        2 0.23664599E+00 0.27523763E+03</pdfrwt>
<pdfrwt beam="2">  1       -2 0.18942172E-02 0.27523763E+03</pdfrwt>
<totfact> 0.10901588E+04</totfact>
</mgrwt>
</event>
<event>
 5    1  0.1140254E+001  0.2754924E+03  0.7818608E-02  0.1098177E+00
         -2   -1    0    0    0  501 -0.00000000000E+00  0.00000000000E+00  0.44405190483E+02  0.44405190483E+02  0.00000000000E+00 0.  1.
          2   -1    0    0  501    0  0.00000000000E+00 -0.00000000000E+00 -0.42729286508E+03  0.42729286508E+03  0.00000000000E+00 0.  1.
         35    2    1    2    0    0  0.00000000000E+00  0.00000000000E+00 -0.38288767460E+03  0.47169805556E+03  0.27549243958E+03 0.  0.
         25    1    3    3    0    0 -0.66534436381E+02 -0.79901373269E+01 -0.17581233163E+03  0.22316059122E+03  0.12000000000E+03 0.  0.
         25    1    3    3    0    0  0.66534436381E+02  0.79901373269E+01 -0.20707534296E+03  0.24853746434E+03  0.12000000000E+03 0.  0.
<mgrwt>
<rscale>  0 0.27549244E+03</rscale>
<asrwt>0</asrwt>
<pdfrwt beam="1">  1        2 0.65737365E-01 0.27549244E+03</pdfrwt>
<pdfrwt beam="2">  1       -2 0.68315676E-02 0.27549244E+03</pdfrwt>
<totfact> 0.89269031E+03</totfact>
</mgrwt>
</event>
<event>
 5    1  0.1140254E+001  0.2687547E+03  0.7818608E-02  0.1101994E+00
          4   -1    0    0  501    0  0.00000000000E+00  0.00000000000E+00  0.33666780226E+03  0.33666780226E+03  0.00000000000E+00 0.  1.
         -4   -1    0    0    0  501 -0.00000000000E+00 -0.00000000000E+00 -0.53635278066E+02  0.53635278066E+02  0.00000000000E+00 0.  1.
         35    2    1    2    0    0  0.00000000000E+00  0.00000000000E+00  0.28303252420E+03  0.39030308033E+03  0.26875469254E+03 0.  0.
         25    1    3    3    0    0 -0.25254299543E+02  0.36470126959E+02  0.81824428936E+02  0.15186535805E+03  0.12000000000E+03 0.  0.
         25    1    3    3    0    0  0.25254299543E+02 -0.36470126959E+02  0.20120809526E+03  0.23843772228E+03  0.12000000000E+03 0.  0.
<mgrwt>
<rscale>  0 0.26875469E+03</rscale>
<asrwt>0</asrwt>
<pdfrwt beam="1">  1        4 0.51795045E-01 0.26875469E+03</pdfrwt>
<pdfrwt beam="2">  1       -4 0.82515814E-02 0.26875469E+03</pdfrwt>
<totfact> 0.70685037E+02</totfact>
</mgrwt>
</event>
<event>
 5    1  0.1140254E+001  0.2749420E+03  0.7818608E-02  0.1098484E+00
         -2   -1    0    0    0  501 -0.00000000000E+00  0.00000000000E+00  0.23574986435E+03  0.23574986435E+03  0.00000000000E+00 0. -1.
          2   -1    0    0  501    0  0.00000000000E+00 -0.00000000000E+00 -0.80162424163E+02  0.80162424163E+02  0.00000000000E+00 0. -1.
         35    2    1    2    0    0  0.00000000000E+00  0.00000000000E+00  0.15558744019E+03  0.31591228851E+03  0.27494203478E+03 0.  0.
         25    1    3    3    0    0  0.47784570436E+02  0.41814246912E+02  0.52977030460E+02  0.14573387449E+03  0.12000000000E+03 0.  0.
         25    1    3    3    0    0 -0.47784570436E+02 -0.41814246912E+02  0.10261040973E+03  0.17017841403E+03  0.12000000000E+03 0.  0.
<mgrwt>
<rscale>  0 0.27494203E+03</rscale>
<asrwt>0</asrwt>
<pdfrwt beam="1">  1        2 0.12332681E-01 0.27494203E+03</pdfrwt>
<pdfrwt beam="2">  1       -2 0.36269210E-01 0.27494203E+03</pdfrwt>
<totfact> 0.35315043E+03</totfact>
</mgrwt>
</event>
<event>
 5    1  0.1140254E+001  0.2746149E+03  0.7818608E-02  0.1098667E+00
         -4   -1    0    0    0  501 -0.00000000000E+00  0.00000000000E+00  0.60428395497E+03  0.60428395497E+03  0.00000000000E+00 0.  1.
          4   -1    0    0  501    0  0.00000000000E+00 -0.00000000000E+00 -0.31199469019E+02  0.31199469019E+02  0.00000000000E+00 0.  1.
         35    2    1    2    0    0  0.00000000000E+00  0.00000000000E+00  0.57308448595E+03  0.63548342399E+03  0.27461491971E+03 0.  0.
         25    1    3    3    0    0 -0.25487006364E+02 -0.61486163376E+02  0.27539545230E+03  0.30768943909E+03  0.12000000000E+03 0.  0.
         25    1    3    3    0    0  0.25487006364E+02  0.61486163376E+02  0.29768903365E+03  0.32779398490E+03  0.12000000000E+03 0.  0.
<mgrwt>
<rscale>  0 0.27461492E+03</rscale>
<asrwt>0</asrwt>
<pdfrwt beam="1">  1        4 0.47999187E-02 0.27461492E+03</pdfrwt>
<pdfrwt beam="2">  1       -4 0.92966754E-01 0.27461492E+03</pdfrwt>
<totfact> 0.48297775E+02</totfact>
</mgrwt>
</event>
<event>
 5    1  0.1140254E+001  0.2745057E+03  0.7818608E-02  0.1098728E+00
          2   -1    0    0  501    0  0.00000000000E+00  0.00000000000E+00  0.21983763130E+04  0.21983763130E+04  0.00000000000E+00 0. -1.
         -2   -1    0    0    0  501 -0.00000000000E+00 -0.00000000000E+00 -0.85692093466E+01  0.85692093466E+01  0.00000000000E+00 0. -1.
         35    2    1    2    0    0  0.00000000000E+00  0.00000000000E+00  0.21898071036E+04  0.22069455223E+04  0.27450571468E+03 0.  0.
         25    1    3    3    0    0 -0.42809683409E+02 -0.17662894677E+02  0.14799459297E+04  0.14855250256E+04  0.12000000000E+03 0.  0.
         25    1    3    3    0    0  0.42809683409E+02  0.17662894677E+02  0.70986117392E+03  0.72142049672E+03  0.12000000000E+03 0.  0.
<mgrwt>
<rscale>  0 0.27450571E+03</rscale>
<asrwt>0</asrwt>
<pdfrwt beam="1">  1        2 0.33821129E+00 0.27450571E+03</pdfrwt>
<pdfrwt beam="2">  1       -2 0.13183416E-02 0.27450571E+03</pdfrwt>
<totfact> 0.83142593E+03</totfact>
</mgrwt>
</event>
<event>
 5    1  0.1140254E+001  0.2750352E+03  0.7818608E-02  0.1098432E+00
          2   -1    0    0  501    0  0.00000000000E+00  0.00000000000E+00  0.11074398817E+04  0.11074398817E+04  0.00000000000E+00 0.  1.
         -2   -1    0    0    0  501 -0.00000000000E+00 -0.00000000000E+00 -0.17076402906E+02  0.17076402906E+02  0.00000000000E+00 0.  1.
         35    2    1    2    0    0  0.00000000000E+00  0.00000000000E+00  0.10903634788E+04  0.11245162847E+04  0.27503519495E+03 0.  0.
         25    1    3    3    0    0  0.27006063995E+01  0.67082934436E+02  0.53734239276E+03  0.55465688531E+03  0.12000000000E+03 0.  0.
         25    1    3    3    0    0 -0.27006063995E+01 -0.67082934436E+02  0.55302108608E+03  0.56985939934E+03  0.12000000000E+03 0.  0.
<mgrwt>
<rscale>  0 0.27503519E+03</rscale>
<asrwt>0</asrwt>
<pdfrwt beam="1">  1        2 0.17037531E+00 0.27503519E+03</pdfrwt>
<pdfrwt beam="2">  1       -2 0.26271398E-02 0.27503519E+03</pdfrwt>
<totfact> 0.11653249E+04</totfact>
</mgrwt>
</event>
<event>
 5    1  0.1140254E+001  0.2797896E+03  0.7818608E-02  0.1095804E+00
         -1   -1    0    0    0  501 -0.00000000000E+00  0.00000000000E+00  0.88432383607E+02  0.88432383607E+02  0.00000000000E+00 0.  1.
          1   -1    0    0  501    0  0.00000000000E+00 -0.00000000000E+00 -0.22130522772E+03  0.22130522772E+03  0.00000000000E+00 0.  1.
         35    2    1    2    0    0  0.00000000000E+00  0.00000000000E+00 -0.13287284411E+03  0.30973761133E+03  0.27978955515E+03 0.  0.
         25    1    3    3    0    0 -0.70903382250E+02  0.10849526149E+02 -0.60841010185E+02  0.15246845691E+03  0.12000000000E+03 0.  0.
         25    1    3    3    0    0  0.70903382250E+02 -0.10849526149E+02 -0.72031833929E+02  0.15726915442E+03  0.12000000000E+03 0.  0.
<mgrwt>
<rscale>  0 0.27978956E+03</rscale>
<asrwt>0</asrwt>
<pdfrwt beam="1">  1        1 0.34046958E-01 0.27978956E+03</pdfrwt>
<pdfrwt beam="2">  1       -1 0.13604982E-01 0.27978956E+03</pdfrwt>
<totfact> 0.48139650E+03</totfact>
</mgrwt>
</event>
<event>
 5    1  0.1140254E+001  0.2754158E+03  0.7818608E-02  0.1098219E+00
          1   -1    0    0  501    0  0.00000000000E+00  0.00000000000E+00  0.51672366107E+02  0.51672366107E+02  0.00000000000E+00 0.  1.
         -1   -1    0    0    0  501 -0.00000000000E+00 -0.00000000000E+00 -0.36699444709E+03  0.36699444709E+03  0.00000000000E+00 0.  1.
         35    2    1    2    0    0  0.00000000000E+00  0.00000000000E+00 -0.31532208099E+03  0.41866681320E+03  0.27541584144E+03 0.  0.
         25    1    3    3    0    0 -0.46380400361E+02 -0.12549375042E+02 -0.22984451484E+03  0.26369893696E+03  0.12000000000E+03 0.  0.
         25    1    3    3    0    0  0.46380400361E+02  0.12549375042E+02 -0.85477566142E+02  0.15496787624E+03  0.12000000000E+03 0.  0.
<mgrwt>
<rscale>  0 0.27541584E+03</rscale>
<asrwt>0</asrwt>
<pdfrwt beam="1">  1        1 0.79495946E-02 0.27541584E+03</pdfrwt>
<pdfrwt beam="2">  1       -1 0.56460686E-01 0.27541584E+03</pdfrwt>
<totfact> 0.28560570E+03</totfact>
</mgrwt>
</event>
<event>
 5    1  0.1140254E+001  0.2742541E+03  0.7818608E-02  0.1098869E+00
         -2   -1    0    0    0  501 -0.00000000000E+00  0.00000000000E+00  0.25653367693E+02  0.25653367693E+02  0.00000000000E+00 0.  1.
          2   -1    0    0  501    0  0.00000000000E+00 -0.00000000000E+00 -0.73299641737E+03  0.73299641737E+03  0.00000000000E+00 0.  1.
         35    2    1    2    0    0  0.00000000000E+00  0.00000000000E+00 -0.70734304968E+03  0.75864978507E+03  0.27425409104E+03 0.  0.
         25    1    3    3    0    0  0.55159832834E+01  0.66118912233E+02 -0.35726760877E+03  0.38267777686E+03  0.12000000000E+03 0.  0.
         25    1    3    3    0    0 -0.55159832834E+01 -0.66118912233E+02 -0.35007544091E+03  0.37597200821E+03  0.12000000000E+03 0.  0.
<mgrwt>
<rscale>  0 0.27425409E+03</rscale>
<asrwt>0</asrwt>
<pdfrwt beam="1">  1        2 0.11276866E+00 0.27425409E+03</pdfrwt>
<pdfrwt beam="2">  1       -2 0.39466726E-02 0.27425409E+03</pdfrwt>
<totfact> 0.11069311E+04</totfact>
</mgrwt>
</event>
<event>
 5    1  0.1140254E+001  0.2747033E+03  0.7818608E-02  0.1098618E+00
         -2   -1    0    0    0  501 -0.00000000000E+00  0.00000000000E+00  0.13588662700E+02  0.13588662700E+02  0.00000000000E+00 0.  1.
          2   -1    0    0  501    0  0.00000000000E+00 -0.00000000000E+00 -0.13883243102E+04  0.13883243102E+04  0.00000000000E+00 0.  1.
         35    2    1    2    0    0  0.00000000000E+00  0.00000000000E+00 -0.13747356475E+04  0.14019129729E+04  0.27470326368E+03 0.  0.
         25    1    3    3    0    0  0.63619007793E+02 -0.72224966134E+01 -0.58974414901E+03  0.60522533316E+03  0.12000000000E+03 0.  0.
         25    1    3    3    0    0 -0.63619007793E+02  0.72224966134E+01 -0.78499149846E+03  0.79668763971E+03  0.12000000000E+03 0.  0.
<mgrwt>
<rscale>  0 0.27470326E+03</rscale>
<asrwt>0</asrwt>
<pdfrwt beam="1">  1        2 0.21358840E+00 0.27470326E+03</pdfrwt>
<pdfrwt beam="2">  1       -2 0.20905631E-02 0.27470326E+03</pdfrwt>
<totfact> 0.11352787E+04</totfact>
</mgrwt>
</event>
<event>
 5    1  0.1140254E+001  0.2751459E+03  0.7818608E-02  0.1098370E+00
         -2   -1    0    0    0  501 -0.00000000000E+00  0.00000000000E+00  0.11996205149E+03  0.11996205149E+03  0.00000000000E+00 0. -1.
          2   -1    0    0  501    0  0.00000000000E+00 -0.00000000000E+00 -0.15776919191E+03  0.15776919191E+03  0.00000000000E+00 0. -1.
         35    2    1    2    0    0  0.00000000000E+00  0.00000000000E+00 -0.37807140430E+02  0.27773124340E+03  0.27514589529E+03 0.  0.
         25    1    3    3    0    0  0.37853971383E+01  0.12625614372E+02  0.47690430882E+02  0.12980027954E+03  0.12000000000E+03 0.  0.
         25    1    3    3    0    0 -0.37853971383E+01 -0.12625614372E+02 -0.85497571312E+02  0.14793096386E+03  0.12000000000E+03 0.  0.
<mgrwt>
<rscale>  0 0.27514590E+03</rscale>
<asrwt>0</asrwt>
<pdfrwt beam="1">  1        2 0.24272183E-01 0.27514590E+03</pdfrwt>
<pdfrwt beam="2">  1       -2 0.18455700E-01 0.27514590E+03</pdfrwt>
<totfact> 0.53294075E+03</totfact>
</mgrwt>
</event>
<event>
 5    1  0.1140254E+001  0.2741035E+03  0.7818608E-02  0.1098954E+00
         -3   -1    0    0    0  501 -0.00000000000E+00  0.00000000000E+00  0.14303970207E+03  0.14303970207E+03  0.00000000000E+00 0.  1.
          3   -1    0    0  501    0  0.00000000000E+00 -0.00000000000E+00 -0.13131446999E+03  0.13131446999E+03  0.00000000000E+00 0.  1.
         35    2    1    2    0    0  0.00000000000E+00  0.00000000000E+00  0.11725232078E+02  0.27435417206E+03  0.27410350355E+03 0.  0.
         25    1    3    3    0    0  0.58020810211E+02 -0.31598415476E+02  0.10145359117E+02  0.13736012008E+03  0.12000000000E+03 0.  0.
         25    1    3    3    0    0 -0.58020810211E+02  0.31598415476E+02  0.15798729609E+01  0.13699405198E+03  0.12000000000E+03 0.  0.
<mgrwt>
<rscale>  0 0.27410350E+03</rscale>
<asrwt>0</asrwt>
<pdfrwt beam="1">  1        3 0.20202226E-01 0.27410350E+03</pdfrwt>
<pdfrwt beam="2">  1       -3 0.22006108E-01 0.27410350E+03</pdfrwt>
<totfact> 0.10604565E+03</totfact>
</mgrwt>
</event>
<event>
 5    1  0.1140254E+001  0.2746813E+03  0.7818608E-02  0.1098630E+00
         -4   -1    0    0    0  501 -0.00000000000E+00  0.00000000000E+00  0.91814756999E+03  0.91814756999E+03  0.00000000000E+00 0.  1.
          4   -1    0    0  501    0  0.00000000000E+00 -0.00000000000E+00 -0.20544033125E+02  0.20544033125E+02  0.00000000000E+00 0.  1.
         35    2    1    2    0    0  0.00000000000E+00  0.00000000000E+00  0.89760353686E+03  0.93869160311E+03  0.27468129963E+03 0.  0.
         25    1    3    3    0    0 -0.76307095776E+01 -0.41517608771E+02  0.62573235685E+03  0.63853184883E+03  0.12000000000E+03 0.  0.
         25    1    3    3    0    0  0.76307095776E+01  0.41517608771E+02  0.27187118001E+03  0.30015975428E+03  0.12000000000E+03 0.  0.
<mgrwt>
<rscale>  0 0.27468130E+03</rscale>
<asrwt>0</asrwt>
<pdfrwt beam="1">  1        4 0.31606212E-02 0.27468130E+03</pdfrwt>
<pdfrwt beam="2">  1       -4 0.14125344E+00 0.27468130E+03</pdfrwt>
<totfact> 0.34305731E+02</totfact>
</mgrwt>
</event>
<event>
 5    1  0.1140254E+001  0.2794033E+03  0.7818608E-02  0.1096015E+00
          2   -1    0    0  501    0  0.00000000000E+00  0.00000000000E+00  0.95685013533E+02  0.95685013533E+02  0.00000000000E+00 0. -1.
         -2   -1    0    0    0  501 -0.00000000000E+00 -0.00000000000E+00 -0.20396665175E+03  0.20396665175E+03  0.00000000000E+00 0. -1.
         35    2    1    2    0    0  0.00000000000E+00  0.00000000000E+00 -0.10828163822E+03  0.29965166528E+03  0.27940330587E+03 0.  0.
         25    1    3    3    0    0  0.23893487587E+02 -0.64625099979E+02 -0.33532378320E+02  0.14237880001E+03  0.12000000000E+03 0.  0.
         25    1    3    3    0    0 -0.23893487587E+02  0.64625099979E+02 -0.74749259899E+02  0.15727286527E+03  0.12000000000E+03 0.  0.
<mgrwt>
<rscale>  0 0.27940331E+03</rscale>
<asrwt>0</asrwt>
<pdfrwt beam="1">  1        2 0.14720771E-01 0.27940331E+03</pdfrwt>
<pdfrwt beam="2">  1       -2 0.31379485E-01 0.27940331E+03</pdfrwt>
<totfact> 0.37357974E+03</totfact>
</mgrwt>
</event>
<event>
 5    1  0.1140254E+001  0.2763448E+03  0.7818608E-02  0.1097702E+00
         -2   -1    0    0    0  501 -0.00000000000E+00  0.00000000000E+00  0.29896395206E+02  0.29896395206E+02  0.00000000000E+00 0. -1.
          2   -1    0    0  501    0  0.00000000000E+00 -0.00000000000E+00 -0.63859257406E+03  0.63859257406E+03  0.00000000000E+00 0. -1.
         35    2    1    2    0    0  0.00000000000E+00  0.00000000000E+00 -0.60869617885E+03  0.66848896926E+03  0.27634482785E+03 0.  0.
         25    1    3    3    0    0 -0.22829733666E+02  0.19216235945E+02 -0.15520582822E+03  0.19844220715E+03  0.12000000000E+03 0.  0.
         25    1    3    3    0    0  0.22829733666E+02 -0.19216235945E+02 -0.45349035063E+03  0.47004676211E+03  0.12000000000E+03 0.  0.
<mgrwt>
<rscale>  0 0.27634483E+03</rscale>
<asrwt>0</asrwt>
<pdfrwt beam="1">  1        2 0.98245017E-01 0.27634483E+03</pdfrwt>
<pdfrwt beam="2">  1       -2 0.45994452E-02 0.27634483E+03</pdfrwt>
<totfact> 0.10378796E+04</totfact>
</mgrwt>
</event>
<event>
 5    1  0.1140254E+001  0.2739766E+03  0.7818608E-02  0.1099025E+00
         -1   -1    0    0    0  501 -0.00000000000E+00  0.00000000000E+00  0.22074663633E+02  0.22074663633E+02  0.00000000000E+00 0. -1.
          1   -1    0    0  501    0  0.00000000000E+00 -0.00000000000E+00 -0.85010564107E+03  0.85010564107E+03  0.00000000000E+00 0. -1.
         35    2    1    2    0    0  0.00000000000E+00  0.00000000000E+00 -0.82803097743E+03  0.87218030470E+03  0.27397661272E+03 0.  0.
         25    1    3    3    0    0  0.86797372071E+01 -0.40195839805E+02 -0.57865520193E+03  0.59239588629E+03  0.12000000000E+03 0.  0.
         25    1    3    3    0    0 -0.86797372071E+01  0.40195839805E+02 -0.24937577551E+03  0.27978441841E+03  0.12000000000E+03 0.  0.
<mgrwt>
<rscale>  0 0.27397661E+03</rscale>
<asrwt>0</asrwt>
<pdfrwt beam="1">  1        1 0.13078549E+00 0.27397661E+03</pdfrwt>
<pdfrwt beam="2">  1       -1 0.33961019E-02 0.27397661E+03</pdfrwt>
<totfact> 0.65609631E+03</totfact>
</mgrwt>
</event>
<event>
 5    1  0.1140254E+001  0.2747614E+03  0.7818608E-02  0.1098585E+00
          2   -1    0    0  501    0  0.00000000000E+00  0.00000000000E+00  0.36829926855E+03  0.36829926855E+03  0.00000000000E+00 0. -1.
         -2   -1    0    0    0  501 -0.00000000000E+00 -0.00000000000E+00 -0.51244894223E+02  0.51244894223E+02  0.00000000000E+00 0. -1.
         35    2    1    2    0    0  0.00000000000E+00  0.00000000000E+00  0.31705437432E+03  0.41954416277E+03  0.27476140238E+03 0.  0.
         25    1    3    3    0    0  0.28905525484E+01  0.10585747008E+02  0.57783353461E+02  0.13363880152E+03  0.12000000000E+03 0.  0.
         25    1    3    3    0    0 -0.28905525484E+01 -0.10585747008E+02  0.25927102086E+03  0.28590536125E+03  0.12000000000E+03 0.  0.
<mgrwt>
<rscale>  0 0.27476140E+03</rscale>
<asrwt>0</asrwt>
<pdfrwt beam="1">  1        2 0.56661424E-01 0.27476140E+03</pdfrwt>
<pdfrwt beam="2">  1       -2 0.78838301E-02 0.27476140E+03</pdfrwt>
<totfact> 0.83971370E+03</totfact>
</mgrwt>
</event>
<event>
 5    1  0.1140254E+001  0.2750703E+03  0.7818608E-02  0.1098412E+00
          2   -1    0    0  501    0  0.00000000000E+00  0.00000000000E+00  0.15926244742E+04  0.15926244742E+04  0.00000000000E+00 0.  1.
         -2   -1    0    0    0  501 -0.00000000000E+00 -0.00000000000E+00 -0.11877196115E+02  0.11877196115E+02  0.00000000000E+00 0.  1.
         35    2    1    2    0    0  0.00000000000E+00  0.00000000000E+00  0.15807472781E+04  0.16045016704E+04  0.27507026897E+03 0.  0.
         25    1    3    3    0    0 -0.54109300255E+01  0.31684030563E+02  0.11346110959E+04  0.11413919112E+04  0.12000000000E+03 0.  0.
         25    1    3    3    0    0  0.54109300255E+01 -0.31684030563E+02  0.44613618222E+03  0.46310975917E+03  0.12000000000E+03 0.  0.
<mgrwt>
<rscale>  0 0.27507027E+03</rscale>
<asrwt>0</asrwt>
<pdfrwt beam="1">  1        2 0.24501898E+00 0.27507027E+03</pdfrwt>
<pdfrwt beam="2">  1       -2 0.18272622E-02 0.27507027E+03</pdfrwt>
<totfact> 0.10752492E+04</totfact>
</mgrwt>
</event>
<event>
 5    1  0.1140254E+001  0.2728006E+03  0.7818608E-02  0.1099687E+00
         -2   -1    0    0    0  501 -0.00000000000E+00  0.00000000000E+00  0.10558435730E+02  0.10558435730E+02  0.00000000000E+00 0.  1.
          2   -1    0    0  501    0  0.00000000000E+00 -0.00000000000E+00 -0.17621015379E+04  0.17621015379E+04  0.00000000000E+00 0.  1.
         35    2    1    2    0    0  0.00000000000E+00  0.00000000000E+00 -0.17515431022E+04  0.17726599736E+04  0.27280055600E+03 0.  0.
         25    1    3    3    0    0  0.56268375763E+02 -0.22073216488E+02 -0.72314736845E+03  0.73552394488E+03  0.12000000000E+03 0.  0.
         25    1    3    3    0    0 -0.56268375763E+02  0.22073216488E+02 -0.10283957337E+04  0.10371360287E+04  0.12000000000E+03 0.  0.
<mgrwt>
<rscale>  0 0.27280056E+03</rscale>
<asrwt>0</asrwt>
<pdfrwt beam="1">  1        2 0.27109225E+00 0.27280056E+03</pdfrwt>
<pdfrwt beam="2">  1       -2 0.16243765E-02 0.27280056E+03</pdfrwt>
<totfact> 0.10399814E+04</totfact>
</mgrwt>
</event>
<event>
 5    1  0.1140254E+001  0.2749281E+03  0.7818608E-02  0.1098492E+00
         -1   -1    0    0    0  501 -0.00000000000E+00  0.00000000000E+00  0.39039469997E+02  0.39039469997E+02  0.00000000000E+00 0.  1.
          1   -1    0    0  501    0  0.00000000000E+00 -0.00000000000E+00 -0.48403214714E+03  0.48403214714E+03  0.00000000000E+00 0.  1.
         35    2    1    2    0    0  0.00000000000E+00  0.00000000000E+00 -0.44499267714E+03  0.52307161714E+03  0.27492805230E+03 0.  0.
         25    1    3    3    0    0  0.15504526818E+02  0.23528936327E+02 -0.33826240139E+03  0.36002146240E+03  0.12000000000E+03 0.  0.
         25    1    3    3    0    0 -0.15504526818E+02 -0.23528936327E+02 -0.10673027576E+03  0.16305015474E+03  0.12000000000E+03 0.  0.
<mgrwt>
<rscale>  0 0.27492805E+03</rscale>
<asrwt>0</asrwt>
<pdfrwt beam="1">  1        1 0.74466486E-01 0.27492805E+03</pdfrwt>
<pdfrwt beam="2">  1       -1 0.60060721E-02 0.27492805E+03</pdfrwt>
<totfact> 0.62605800E+03</totfact>
</mgrwt>
</event>
<event>
 5    1  0.1140254E+001  0.2749642E+03  0.7818608E-02  0.1098472E+00
          1   -1    0    0  501    0  0.00000000000E+00  0.00000000000E+00  0.12381103274E+03  0.12381103274E+03  0.00000000000E+00 0. -1.
         -1   -1    0    0    0  501 -0.00000000000E+00 -0.00000000000E+00 -0.15266274472E+03  0.15266274472E+03  0.00000000000E+00 0. -1.
         35    2    1    2    0    0  0.00000000000E+00  0.00000000000E+00 -0.28851711985E+02  0.27647377746E+03  0.27496423102E+03 0.  0.
         25    1    3    3    0    0  0.37705017816E+01  0.57942902688E+02  0.19370207617E+02  0.13471006495E+03  0.12000000000E+03 0.  0.
         25    1    3    3    0    0 -0.37705017816E+01 -0.57942902688E+02 -0.48221919602E+02  0.14176371251E+03  0.12000000000E+03 0.  0.
<mgrwt>
<rscale>  0 0.27496423E+03</rscale>
<asrwt>0</asrwt>
<pdfrwt beam="1">  1        1 0.19047851E-01 0.27496423E+03</pdfrwt>
<pdfrwt beam="2">  1       -1 0.23486576E-01 0.27496423E+03</pdfrwt>
<totfact> 0.41809650E+03</totfact>
</mgrwt>
</event>
<event>
 5    1  0.1140254E+001  0.2750860E+03  0.7818608E-02  0.1098404E+00
         -1   -1    0    0    0  501 -0.00000000000E+00  0.00000000000E+00  0.17085821341E+02  0.17085821341E+02  0.00000000000E+00 0.  1.
          1   -1    0    0  501    0  0.00000000000E+00 -0.00000000000E+00 -0.11072382027E+04  0.11072382027E+04  0.00000000000E+00 0.  1.
         35    2    1    2    0    0  0.00000000000E+00  0.00000000000E+00 -0.10901523814E+04  0.11243240241E+04  0.27508598011E+03 0.  0.
         25    1    3    3    0    0 -0.52652349784E+02  0.20033043979E+02 -0.39521112076E+03  0.41685179952E+03  0.12000000000E+03 0.  0.
         25    1    3    3    0    0  0.52652349784E+02 -0.20033043979E+02 -0.69494126062E+03  0.70747222454E+03  0.12000000000E+03 0.  0.
<mgrwt>
<rscale>  0 0.27508598E+03</rscale>
<asrwt>0</asrwt>
<pdfrwt beam="1">  1        1 0.17034438E+00 0.27508598E+03</pdfrwt>
<pdfrwt beam="2">  1       -1 0.26285873E-02 0.27508598E+03</pdfrwt>
<totfact> 0.61116673E+03</totfact>
</mgrwt>
</event>
<event>
 5    1  0.1140254E+001  0.2761928E+03  0.7818608E-02  0.1097787E+00
          2   -1    0    0  501    0  0.00000000000E+00  0.00000000000E+00  0.10414124018E+03  0.10414124018E+03  0.00000000000E+00 0.  1.
         -2   -1    0    0    0  501 -0.00000000000E+00 -0.00000000000E+00 -0.18312266326E+03  0.18312266326E+03  0.00000000000E+00 0.  1.
         35    2    1    2    0    0  0.00000000000E+00  0.00000000000E+00 -0.78981423073E+02  0.28726390344E+03  0.27619284029E+03 0.  0.
         25    1    3    3    0    0  0.52840878431E+02 -0.42785516253E+02 -0.46686294429E+02  0.14561033247E+03  0.12000000000E+03 0.  0.
         25    1    3    3    0    0 -0.52840878431E+02  0.42785516253E+02 -0.32295128645E+02  0.14165357097E+03  0.12000000000E+03 0.  0.
<mgrwt>
<rscale>  0 0.27619284E+03</rscale>
<asrwt>0</asrwt>
<pdfrwt beam="1">  1        2 0.16021729E-01 0.27619284E+03</pdfrwt>
<pdfrwt beam="2">  1       -2 0.28172717E-01 0.27619284E+03</pdfrwt>
<totfact> 0.41082864E+03</totfact>
</mgrwt>
</event>
<event>
 5    1  0.1140254E+001  0.2750168E+03  0.7818608E-02  0.1098442E+00
         -3   -1    0    0    0  501 -0.00000000000E+00  0.00000000000E+00  0.34206481155E+02  0.34206481155E+02  0.00000000000E+00 0. -1.
          3   -1    0    0  501    0  0.00000000000E+00 -0.00000000000E+00 -0.55277694153E+03  0.55277694153E+03  0.00000000000E+00 0. -1.
         35    2    1    2    0    0  0.00000000000E+00  0.00000000000E+00 -0.51857046037E+03  0.58698342268E+03  0.27501675610E+03 0.  0.
         25    1    3    3    0    0  0.26125634614E+02  0.41208765942E+02 -0.35773993111E+03  0.38047150942E+03  0.12000000000E+03 0.  0.
         25    1    3    3    0    0 -0.26125634614E+02 -0.41208765942E+02 -0.16083052927E+03  0.20651191326E+03  0.12000000000E+03 0.  0.
<mgrwt>
<rscale>  0 0.27501676E+03</rscale>
<asrwt>0</asrwt>
<pdfrwt beam="1">  1        3 0.85042604E-01 0.27501676E+03</pdfrwt>
<pdfrwt beam="2">  1       -3 0.52625357E-02 0.27501676E+03</pdfrwt>
<totfact> 0.69626492E+02</totfact>
</mgrwt>
</event>
<event>
 5    1  0.1140254E+001  0.2741195E+03  0.7818608E-02  0.1098945E+00
          2   -1    0    0  501    0  0.00000000000E+00  0.00000000000E+00  0.59033860930E+03  0.59033860930E+03  0.00000000000E+00 0.  1.
         -2   -1    0    0    0  501 -0.00000000000E+00 -0.00000000000E+00 -0.31821348880E+02  0.31821348880E+02  0.00000000000E+00 0.  1.
         35    2    1    2    0    0  0.00000000000E+00  0.00000000000E+00  0.55851726042E+03  0.62215995818E+03  0.27411946916E+03 0.  0.
         25    1    3    3    0    0  0.10534321734E+02  0.56545147387E+02  0.20477186013E+03  0.24421269485E+03  0.12000000000E+03 0.  0.
         25    1    3    3    0    0 -0.10534321734E+02 -0.56545147387E+02  0.35374540030E+03  0.37794726333E+03  0.12000000000E+03 0.  0.
<mgrwt>
<rscale>  0 0.27411947E+03</rscale>
<asrwt>0</asrwt>
<pdfrwt beam="1">  1        2 0.90821317E-01 0.27411947E+03</pdfrwt>
<pdfrwt beam="2">  1       -2 0.48955926E-02 0.27411947E+03</pdfrwt>
<totfact> 0.10346866E+04</totfact>
</mgrwt>
</event>
<event>
 5    1  0.1140254E+001  0.2751518E+03  0.7818608E-02  0.1098367E+00
          2   -1    0    0  501    0  0.00000000000E+00  0.00000000000E+00  0.33574757522E+04  0.33574757522E+04  0.00000000000E+00 0. -1.
         -2   -1    0    0    0  501 -0.00000000000E+00 -0.00000000000E+00 -0.56373100175E+01  0.56373100175E+01  0.00000000000E+00 0. -1.
         35    2    1    2    0    0  0.00000000000E+00  0.00000000000E+00  0.33518384422E+04  0.33631130623E+04  0.27515182494E+03 0.  0.
         25    1    3    3    0    0  0.20168033061E+02 -0.21583263608E+02  0.24148193107E+04  0.24179795057E+04  0.12000000000E+03 0.  0.
         25    1    3    3    0    0 -0.20168033061E+02  0.21583263608E+02  0.93701913154E+03  0.94513355654E+03  0.12000000000E+03 0.  0.
<mgrwt>
<rscale>  0 0.27515182E+03</rscale>
<asrwt>0</asrwt>
<pdfrwt beam="1">  1        2 0.51653313E+00 0.27515182E+03</pdfrwt>
<pdfrwt beam="2">  1       -2 0.86728115E-03 0.27515182E+03</pdfrwt>
<totfact> 0.32921101E+03</totfact>
</mgrwt>
</event>
<event>
 5    1  0.1140254E+001  0.2752182E+03  0.7818608E-02  0.1098330E+00
         -2   -1    0    0    0  501 -0.00000000000E+00  0.00000000000E+00  0.74726760412E+02  0.74726760412E+02  0.00000000000E+00 0. -1.
          2   -1    0    0  501    0  0.00000000000E+00 -0.00000000000E+00 -0.25340664901E+03  0.25340664901E+03  0.00000000000E+00 0. -1.
         35    2    1    2    0    0  0.00000000000E+00  0.00000000000E+00 -0.17867988859E+03  0.32813340942E+03  0.27521815309E+03 0.  0.
         25    1    3    3    0    0  0.24284109562E+02  0.59737739767E+02 -0.11251849052E+03  0.17668821760E+03  0.12000000000E+03 0.  0.
         25    1    3    3    0    0 -0.24284109562E+02 -0.59737739767E+02 -0.66161398070E+02  0.15144519182E+03  0.12000000000E+03 0.  0.
<mgrwt>
<rscale>  0 0.27521815E+03</rscale>
<asrwt>0</asrwt>
<pdfrwt beam="1">  1        2 0.38985638E-01 0.27521815E+03</pdfrwt>
<pdfrwt beam="2">  1       -2 0.11496425E-01 0.27521815E+03</pdfrwt>
<totfact> 0.69128091E+03</totfact>
</mgrwt>
</event>
<event>
 5    1  0.1140254E+001  0.2737149E+03  0.7818608E-02  0.1099172E+00
          2   -1    0    0  501    0  0.00000000000E+00  0.00000000000E+00  0.15467872692E+04  0.15467872692E+04  0.00000000000E+00 0. -1.
         -2   -1    0    0    0  501 -0.00000000000E+00 -0.00000000000E+00 -0.12108943354E+02  0.12108943354E+02  0.00000000000E+00 0. -1.
         35    2    1    2    0    0  0.00000000000E+00  0.00000000000E+00  0.15346783258E+04  0.15588962125E+04  0.27371488395E+03 0.  0.
         25    1    3    3    0    0 -0.58275627829E+02  0.29757430188E+02  0.72771425489E+03  0.74043878222E+03  0.12000000000E+03 0.  0.
         25    1    3    3    0    0  0.58275627829E+02 -0.29757430188E+02  0.80696407091E+03  0.81845743029E+03  0.12000000000E+03 0.  0.
<mgrwt>
<rscale>  0 0.27371488E+03</rscale>
<asrwt>0</asrwt>
<pdfrwt beam="1">  1        2 0.23796711E+00 0.27371488E+03</pdfrwt>
<pdfrwt beam="2">  1       -2 0.18629156E-02 0.27371488E+03</pdfrwt>
<totfact> 0.11053443E+04</totfact>
</mgrwt>
</event>
<event>
 5    1  0.1140254E+001  0.2746381E+03  0.7818608E-02  0.1098654E+00
          2   -1    0    0  501    0  0.00000000000E+00  0.00000000000E+00  0.24066889264E+04  0.24066889264E+04  0.00000000000E+00 0. -1.
         -2   -1    0    0    0  501 -0.00000000000E+00 -0.00000000000E+00 -0.78350468984E+01  0.78350468984E+01  0.00000000000E+00 0. -1.
         35    2    1    2    0    0  0.00000000000E+00  0.00000000000E+00  0.23988538795E+04  0.24145239733E+04  0.27463809356E+03 0.  0.
         25    1    3    3    0    0 -0.44347088572E+02  0.43523072611E+02  0.98486754193E+03  0.99409506450E+03  0.12000000000E+03 0.  0.
         25    1    3    3    0    0  0.44347088572E+02 -0.43523072611E+02  0.14139863376E+04  0.14204289088E+04  0.12000000000E+03 0.  0.
<mgrwt>
<rscale>  0 0.27463809E+03</rscale>
<asrwt>0</asrwt>
<pdfrwt beam="1">  1        2 0.37025925E+00 0.27463809E+03</pdfrwt>
<pdfrwt beam="2">  1       -2 0.12053937E-02 0.27463809E+03</pdfrwt>
<totfact> 0.73240681E+03</totfact>
</mgrwt>
</event>
<event>
 5    1  0.1140254E+001  0.2753708E+03  0.7818608E-02  0.1098245E+00
          2   -1    0    0  501    0  0.00000000000E+00  0.00000000000E+00  0.13377636836E+04  0.13377636836E+04  0.00000000000E+00 0.  1.
         -2   -1    0    0    0  501 -0.00000000000E+00 -0.00000000000E+00 -0.14170866338E+02  0.14170866338E+02  0.00000000000E+00 0.  1.
         35    2    1    2    0    0  0.00000000000E+00  0.00000000000E+00  0.13235928172E+04  0.13519345499E+04  0.27537080711E+03 0.  0.
         25    1    3    3    0    0 -0.38680222561E+02 -0.55239228905E+02  0.64647566303E+03  0.66096771094E+03  0.12000000000E+03 0.  0.
         25    1    3    3    0    0  0.38680222561E+02  0.55239228905E+02  0.67711715422E+03  0.69096683898E+03  0.12000000000E+03 0.  0.
<mgrwt>
<rscale>  0 0.27537081E+03</rscale>
<asrwt>0</asrwt>
<pdfrwt beam="1">  1        2 0.20580970E+00 0.27537081E+03</pdfrwt>
<pdfrwt beam="2">  1       -2 0.21801343E-02 0.27537081E+03</pdfrwt>
<totfact> 0.11374134E+04</totfact>
</mgrwt>
</event>
<event>
 5    1  0.1140254E+001  0.2771369E+03  0.7818608E-02  0.1097263E+00
          3   -1    0    0  501    0  0.00000000000E+00  0.00000000000E+00  0.31413164302E+03  0.31413164302E+03  0.00000000000E+00 0.  1.
         -3   -1    0    0    0  501 -0.00000000000E+00 -0.00000000000E+00 -0.61124723928E+02  0.61124723928E+02  0.00000000000E+00 0.  1.
         35    2    1    2    0    0  0.00000000000E+00  0.00000000000E+00  0.25300691909E+03  0.37525636695E+03  0.27713686118E+03 0.  0.
         25    1    3    3    0    0 -0.13002290085E+02 -0.53760378668E+02  0.69989677479E+02  0.14952522468E+03  0.12000000000E+03 0.  0.
         25    1    3    3    0    0  0.13002290085E+02  0.53760378668E+02  0.18301724161E+03  0.22573114227E+03  0.12000000000E+03 0.  0.
<mgrwt>
<rscale>  0 0.27713686E+03</rscale>
<asrwt>0</asrwt>
<pdfrwt beam="1">  1        3 0.48327944E-01 0.27713686E+03</pdfrwt>
<pdfrwt beam="2">  1       -3 0.94038039E-02 0.27713686E+03</pdfrwt>
<totfact> 0.88972795E+02</totfact>
</mgrwt>
</event>
<event>
 5    1  0.1140254E+001  0.2746354E+03  0.7818608E-02  0.1098656E+00
         -2   -1    0    0    0  501 -0.00000000000E+00  0.00000000000E+00  0.62041084804E+02  0.62041084804E+02  0.00000000000E+00 0. -1.
          2   -1    0    0  501    0  0.00000000000E+00 -0.00000000000E+00 -0.30392995889E+03  0.30392995889E+03  0.00000000000E+00 0. -1.
         35    2    1    2    0    0  0.00000000000E+00  0.00000000000E+00 -0.24188887409E+03  0.36597104370E+03  0.27463535354E+03 0.  0.
         25    1    3    3    0    0  0.23963937579E+01 -0.65965686543E+02 -0.10769022369E+03  0.17422513821E+03  0.12000000000E+03 0.  0.
         25    1    3    3    0    0 -0.23963937579E+01  0.65965686543E+02 -0.13419865040E+03  0.19174590549E+03  0.12000000000E+03 0.  0.
<mgrwt>
<rscale>  0 0.27463535E+03</rscale>
<asrwt>0</asrwt>
<pdfrwt beam="1">  1        2 0.46758455E-01 0.27463535E+03</pdfrwt>
<pdfrwt beam="2">  1       -2 0.95447823E-02 0.27463535E+03</pdfrwt>
<totfact> 0.76481831E+03</totfact>
</mgrwt>
</event>
<event>
 5    1  0.1140254E+001  0.2750442E+03  0.7818608E-02  0.1098427E+00
          1   -1    0    0  501    0  0.00000000000E+00  0.00000000000E+00  0.28900569669E+02  0.28900569669E+02  0.00000000000E+00 0. -1.
         -1   -1    0    0    0  501 -0.00000000000E+00 -0.00000000000E+00 -0.65439268615E+03  0.65439268615E+03  0.00000000000E+00 0. -1.
         35    2    1    2    0    0  0.00000000000E+00  0.00000000000E+00 -0.62549211648E+03  0.68329325582E+03  0.27504415222E+03 0.  0.
         25    1    3    3    0    0  0.10862303880E+02  0.54126837829E+02 -0.40782115656E+03  0.42867913404E+03  0.12000000000E+03 0.  0.
         25    1    3    3    0    0 -0.10862303880E+02 -0.54126837829E+02 -0.21767095992E+03  0.25461412178E+03  0.12000000000E+03 0.  0.
<mgrwt>
<rscale>  0 0.27504415E+03</rscale>
<asrwt>0</asrwt>
<pdfrwt beam="1">  1        1 0.44462413E-02 0.27504415E+03</pdfrwt>
<pdfrwt beam="2">  1       -1 0.10067580E+00 0.27504415E+03</pdfrwt>
<totfact> 0.19448203E+03</totfact>
</mgrwt>
</event>
<event>
 5    1  0.1140254E+001  0.2754911E+03  0.7818608E-02  0.1098177E+00
          2   -1    0    0  501    0  0.00000000000E+00  0.00000000000E+00  0.12299858596E+04  0.12299858596E+04  0.00000000000E+00 0.  1.
         -2   -1    0    0    0  501 -0.00000000000E+00 -0.00000000000E+00 -0.15426055466E+02  0.15426055466E+02  0.00000000000E+00 0.  1.
         35    2    1    2    0    0  0.00000000000E+00  0.00000000000E+00  0.12145598041E+04  0.12454119150E+04  0.27549105315E+03 0.  0.
         25    1    3    3    0    0  0.63001591579E+02  0.54539512769E+01  0.71567149900E+03  0.72841241107E+03  0.12000000000E+03 0.  0.
         25    1    3    3    0    0 -0.63001591579E+02 -0.54539512769E+01  0.49888830510E+03  0.51699950396E+03  0.12000000000E+03 0.  0.
<mgrwt>
<rscale>  0 0.27549105E+03</rscale>
<asrwt>0</asrwt>
<pdfrwt beam="1">  1        2 0.18922852E+00 0.27549105E+03</pdfrwt>
<pdfrwt beam="2">  1       -2 0.23732403E-02 0.27549105E+03</pdfrwt>
<totfact> 0.11519886E+04</totfact>
</mgrwt>
</event>
<event>
 5    1  0.1140254E+001  0.2753076E+03  0.7818608E-02  0.1098280E+00
          2   -1    0    0  501    0  0.00000000000E+00  0.00000000000E+00  0.21324964550E+04  0.21324964550E+04  0.00000000000E+00 0.  1.
         -2   -1    0    0    0  501 -0.00000000000E+00 -0.00000000000E+00 -0.88856281570E+01  0.88856281570E+01  0.00000000000E+00 0.  1.
         35    2    1    2    0    0  0.00000000000E+00  0.00000000000E+00  0.21236108268E+04  0.21413820831E+04  0.27530761373E+03 0.  0.
         25    1    3    3    0    0 -0.39494868371E+01  0.59071004899E+02  0.81053544773E+03  0.82150635669E+03  0.12000000000E+03 0.  0.
         25    1    3    3    0    0  0.39494868371E+01 -0.59071004899E+02  0.13130753791E+04  0.13198757264E+04  0.12000000000E+03 0.  0.
<mgrwt>
<rscale>  0 0.27530761E+03</rscale>
<asrwt>0</asrwt>
<pdfrwt beam="1">  1        2 0.32807597E+00 0.27530761E+03</pdfrwt>
<pdfrwt beam="2">  1       -2 0.13670214E-02 0.27530761E+03</pdfrwt>
<totfact> 0.85467806E+03</totfact>
</mgrwt>
</event>
<event>
 5    1  0.1140254E+001  0.2765296E+03  0.7818608E-02  0.1097600E+00
         -2   -1    0    0    0  501 -0.00000000000E+00  0.00000000000E+00  0.71685690859E+02  0.71685690859E+02  0.00000000000E+00 0.  1.
          2   -1    0    0  501    0  0.00000000000E+00 -0.00000000000E+00 -0.26668023222E+03  0.26668023222E+03  0.00000000000E+00 0.  1.
         35    2    1    2    0    0  0.00000000000E+00  0.00000000000E+00 -0.19499454136E+03  0.33836592308E+03  0.27652961277E+03 0.  0.
         25    1    3    3    0    0 -0.24627427289E+02  0.67612706858E+01 -0.19483440407E+02  0.12422491460E+03  0.12000000000E+03 0.  0.
         25    1    3    3    0    0  0.24627427289E+02 -0.67612706858E+01 -0.17551110096E+03  0.21414100849E+03  0.12000000000E+03 0.  0.
<mgrwt>
<rscale>  0 0.27652961E+03</rscale>
<asrwt>0</asrwt>
<pdfrwt beam="1">  1        2 0.41027728E-01 0.27652961E+03</pdfrwt>
<pdfrwt beam="2">  1       -2 0.11028568E-01 0.27652961E+03</pdfrwt>
<totfact> 0.69951611E+03</totfact>
</mgrwt>
</event>
<event>
 5    1  0.1140254E+001  0.2750628E+03  0.7818608E-02  0.1098417E+00
          2   -1    0    0  501    0  0.00000000000E+00  0.00000000000E+00  0.55819320242E+03  0.55819320242E+03  0.00000000000E+00 0.  1.
         -2   -1    0    0    0  501 -0.00000000000E+00 -0.00000000000E+00 -0.33885906080E+02  0.33885906080E+02  0.00000000000E+00 0.  1.
         35    2    1    2    0    0  0.00000000000E+00  0.00000000000E+00  0.52430729634E+03  0.59207910850E+03  0.27506277416E+03 0.  0.
         25    1    3    3    0    0 -0.56789886788E+02 -0.13649072315E+02  0.19064922466E+03  0.23271982142E+03  0.12000000000E+03 0.  0.
         25    1    3    3    0    0  0.56789886788E+02  0.13649072315E+02  0.33365807168E+03  0.35935928709E+03  0.12000000000E+03 0.  0.
<mgrwt>
<rscale>  0 0.27506277E+03</rscale>
<asrwt>0</asrwt>
<pdfrwt beam="1">  1        2 0.85875871E-01 0.27506277E+03</pdfrwt>
<pdfrwt beam="2">  1       -2 0.52132167E-02 0.27506277E+03</pdfrwt>
<totfact> 0.10030134E+04</totfact>
</mgrwt>
</event>
<event>
 5    1  0.1140254E+001  0.2753471E+03  0.7818608E-02  0.1098258E+00
         -1   -1    0    0    0  501 -0.00000000000E+00  0.00000000000E+00  0.72153753931E+02  0.72153753931E+02  0.00000000000E+00 0.  1.
          1   -1    0    0  501    0  0.00000000000E+00 -0.00000000000E+00 -0.26268907383E+03  0.26268907383E+03  0.00000000000E+00 0.  1.
         35    2    1    2    0    0  0.00000000000E+00  0.00000000000E+00 -0.19053531990E+03  0.33484282776E+03  0.27534707402E+03 0.  0.
         25    1    3    3    0    0  0.16334101910E+02 -0.25057057512E+02 -0.21704201143E+02  0.12556166359E+03  0.12000000000E+03 0.  0.
         25    1    3    3    0    0 -0.16334101910E+02  0.25057057512E+02 -0.16883111875E+03  0.20928116417E+03  0.12000000000E+03 0.  0.
<mgrwt>
<rscale>  0 0.27534707E+03</rscale>
<asrwt>0</asrwt>
<pdfrwt beam="1">  1        1 0.40413703E-01 0.27534707E+03</pdfrwt>
<pdfrwt beam="2">  1       -1 0.11100578E-01 0.27534707E+03</pdfrwt>
<totfact> 0.53338209E+03</totfact>
</mgrwt>
</event>
<event>
 5    1  0.1140254E+001  0.2747299E+03  0.7818608E-02  0.1098603E+00
         -2   -1    0    0    0  501 -0.00000000000E+00  0.00000000000E+00  0.14907455444E+02  0.14907455444E+02  0.00000000000E+00 0.  1.
          2   -1    0    0  501    0  0.00000000000E+00 -0.00000000000E+00 -0.12657509378E+04  0.12657509378E+04  0.00000000000E+00 0.  1.
         35    2    1    2    0    0  0.00000000000E+00  0.00000000000E+00 -0.12508434824E+04  0.12806583932E+04  0.27472987248E+03 0.  0.
         25    1    3    3    0    0  0.35753633792E+01  0.63812620579E+02 -0.71680319295E+03  0.72958320375E+03  0.12000000000E+03 0.  0.
         25    1    3    3    0    0 -0.35753633792E+01 -0.63812620579E+02 -0.53404028940E+03  0.55107518949E+03  0.12000000000E+03 0.  0.
<mgrwt>
<rscale>  0 0.27472987E+03</rscale>
<asrwt>0</asrwt>
<pdfrwt beam="1">  1        2 0.19473095E+00 0.27472987E+03</pdfrwt>
<pdfrwt beam="2">  1       -2 0.22934542E-02 0.27472987E+03</pdfrwt>
<totfact> 0.11568953E+04</totfact>
</mgrwt>
</event>
<event>
 5    1  0.1140254E+001  0.2752251E+03  0.7818608E-02  0.1098326E+00
          2   -1    0    0  501    0  0.00000000000E+00  0.00000000000E+00  0.66563692977E+03  0.66563692977E+03  0.00000000000E+00 0.  1.
         -2   -1    0    0    0  501 -0.00000000000E+00 -0.00000000000E+00 -0.28449765106E+02  0.28449765106E+02  0.00000000000E+00 0.  1.
         35    2    1    2    0    0  0.00000000000E+00  0.00000000000E+00  0.63718716467E+03  0.69408669488E+03  0.27522510277E+03 0.  0.
         25    1    3    3    0    0  0.29693841261E+02  0.60436810691E+02  0.32287485497E+03  0.35097365182E+03  0.12000000000E+03 0.  0.
         25    1    3    3    0    0 -0.29693841261E+02 -0.60436810691E+02  0.31431230969E+03  0.34311304306E+03  0.12000000000E+03 0.  0.
<mgrwt>
<rscale>  0 0.27522510E+03</rscale>
<asrwt>0</asrwt>
<pdfrwt beam="1">  1        2 0.10240567E+00 0.27522510E+03</pdfrwt>
<pdfrwt beam="2">  1       -2 0.43768874E-02 0.27522510E+03</pdfrwt>
<totfact> 0.10647666E+04</totfact>
</mgrwt>
</event>
<event>
 5    1  0.1140254E+001  0.2754804E+03  0.7818608E-02  0.1098183E+00
          1   -1    0    0  501    0  0.00000000000E+00  0.00000000000E+00  0.73492000993E+03  0.73492000993E+03  0.00000000000E+00 0.  1.
         -1   -1    0    0    0  501 -0.00000000000E+00 -0.00000000000E+00 -0.25815556199E+02  0.25815556199E+02  0.00000000000E+00 0.  1.
         35    2    1    2    0    0  0.00000000000E+00  0.00000000000E+00  0.70910445373E+03  0.76073556613E+03  0.27548044445E+03 0.  0.
         25    1    3    3    0    0  0.51136159668E+02 -0.39500906014E+02  0.40958418796E+03  0.43166472572E+03  0.12000000000E+03 0.  0.
         25    1    3    3    0    0 -0.51136159668E+02  0.39500906014E+02  0.29952026577E+03  0.32907084041E+03  0.12000000000E+03 0.  0.
<mgrwt>
<rscale>  0 0.27548044E+03</rscale>
<asrwt>0</asrwt>
<pdfrwt beam="1">  1        1 0.11306460E+00 0.27548044E+03</pdfrwt>
<pdfrwt beam="2">  1       -1 0.39716246E-02 0.27548044E+03</pdfrwt>
<totfact> 0.65025128E+03</totfact>
</mgrwt>
</event>
<event>
 5    1  0.1140254E+001  0.2663546E+03  0.7818608E-02  0.1103384E+00
         -1   -1    0    0    0  501 -0.00000000000E+00  0.00000000000E+00  0.12538746044E+02  0.12538746044E+02  0.00000000000E+00 0. -1.
          1   -1    0    0  501    0  0.00000000000E+00 -0.00000000000E+00 -0.14145104316E+04  0.14145104316E+04  0.00000000000E+00 0. -1.
         35    2    1    2    0    0  0.00000000000E+00  0.00000000000E+00 -0.14019716855E+04  0.14270491776E+04  0.26635455377E+03 0.  0.
         25    1    3    3    0    0 -0.22874026865E+02  0.26156840669E+02 -0.94818374529E+03  0.95637849006E+03  0.12000000000E+03 0.  0.
         25    1    3    3    0    0  0.22874026865E+02 -0.26156840669E+02 -0.45378794024E+03  0.47067068755E+03  0.12000000000E+03 0.  0.
<mgrwt>
<rscale>  0 0.26635455E+03</rscale>
<asrwt>0</asrwt>
<pdfrwt beam="1">  1        1 0.21761680E+00 0.26635455E+03</pdfrwt>
<pdfrwt beam="2">  1       -1 0.19290395E-02 0.26635455E+03</pdfrwt>
<totfact> 0.58963189E+03</totfact>
</mgrwt>
</event>
<event>
 5    1  0.1140254E+001  0.2736390E+03  0.7818608E-02  0.1099215E+00
          2   -1    0    0  501    0  0.00000000000E+00  0.00000000000E+00  0.95362065173E+03  0.95362065173E+03  0.00000000000E+00 0.  1.
         -2   -1    0    0    0  501 -0.00000000000E+00 -0.00000000000E+00 -0.19630004765E+02  0.19630004765E+02  0.00000000000E+00 0.  1.
         35    2    1    2    0    0  0.00000000000E+00  0.00000000000E+00  0.93399064696E+03  0.97325065649E+03  0.27363901723E+03 0.  0.
         25    1    3    3    0    0 -0.10550191706E+02  0.42071619118E+02  0.64262011540E+03  0.65516558243E+03  0.12000000000E+03 0.  0.
         25    1    3    3    0    0  0.10550191706E+02 -0.42071619118E+02  0.29137053156E+03  0.31808507406E+03  0.12000000000E+03 0.  0.
<mgrwt>
<rscale>  0 0.27363902E+03</rscale>
<asrwt>0</asrwt>
<pdfrwt beam="1">  1        2 0.14671083E+00 0.27363902E+03</pdfrwt>
<pdfrwt beam="2">  1       -2 0.30200015E-02 0.27363902E+03</pdfrwt>
<totfact> 0.11736060E+04</totfact>
</mgrwt>
</event>
<event>
 5    1  0.1140254E+001  0.2748627E+03  0.7818608E-02  0.1098528E+00
         -1   -1    0    0    0  501 -0.00000000000E+00  0.00000000000E+00  0.10725498248E+02  0.10725498248E+02  0.00000000000E+00 0.  1.
          1   -1    0    0  501    0  0.00000000000E+00 -0.00000000000E+00 -0.17609793158E+04  0.17609793158E+04  0.00000000000E+00 0.  1.
         35    2    1    2    0    0  0.00000000000E+00  0.00000000000E+00 -0.17502538176E+04  0.17717048141E+04  0.27486273349E+03 0.  0.
         25    1    3    3    0    0  0.28899957793E+02 -0.28444508976E+02 -0.53143424131E+03  0.54632101414E+03  0.12000000000E+03 0.  0.
         25    1    3    3    0    0 -0.28899957793E+02  0.28444508976E+02 -0.12188195763E+04  0.12253837999E+04  0.12000000000E+03 0.  0.
<mgrwt>
<rscale>  0 0.27486273E+03</rscale>
<asrwt>0</asrwt>
<pdfrwt beam="1">  1        1 0.27091978E+00 0.27486273E+03</pdfrwt>
<pdfrwt beam="2">  1       -1 0.16500773E-02 0.27486273E+03</pdfrwt>
<totfact> 0.43816568E+03</totfact>
</mgrwt>
</event>
<event>
 5    1  0.1140254E+001  0.2751308E+03  0.7818608E-02  0.1098379E+00
          2   -1    0    0  501    0  0.00000000000E+00  0.00000000000E+00  0.38279873245E+03  0.38279873245E+03  0.00000000000E+00 0.  1.
         -2   -1    0    0    0  501 -0.00000000000E+00 -0.00000000000E+00 -0.49436510984E+02  0.49436510984E+02  0.00000000000E+00 0.  1.
         35    2    1    2    0    0  0.00000000000E+00  0.00000000000E+00  0.33336222147E+03  0.43223524344E+03  0.27513075976E+03 0.  0.
         25    1    3    3    0    0 -0.32616683151E+02  0.53962558588E+02  0.12989017492E+03  0.18774254523E+03  0.12000000000E+03 0.  0.
         25    1    3    3    0    0  0.32616683151E+02 -0.53962558588E+02  0.20347204655E+03  0.24449269820E+03  0.12000000000E+03 0.  0.
<mgrwt>
<rscale>  0 0.27513076E+03</rscale>
<asrwt>0</asrwt>
<pdfrwt beam="1">  1        2 0.58892111E-01 0.27513076E+03</pdfrwt>
<pdfrwt beam="2">  1       -2 0.76056173E-02 0.27513076E+03</pdfrwt>
<totfact> 0.85177935E+03</totfact>
</mgrwt>
</event>
<event>
 5    1  0.1140254E+001  0.2754282E+03  0.7818608E-02  0.1098212E+00
          2   -1    0    0  501    0  0.00000000000E+00  0.00000000000E+00  0.74056541746E+03  0.74056541746E+03  0.00000000000E+00 0. -1.
         -2   -1    0    0    0  501 -0.00000000000E+00 -0.00000000000E+00 -0.25609048329E+02  0.25609048329E+02  0.00000000000E+00 0. -1.
         35    2    1    2    0    0  0.00000000000E+00  0.00000000000E+00  0.71495636914E+03  0.76617446579E+03  0.27542821618E+03 0.  0.
         25    1    3    3    0    0 -0.18712096972E+02  0.47823137986E+01  0.17736798910E+03  0.21501724734E+03  0.12000000000E+03 0.  0.
         25    1    3    3    0    0  0.18712096972E+02 -0.47823137986E+01  0.53758838004E+03  0.55115721845E+03  0.12000000000E+03 0.  0.
<mgrwt>
<rscale>  0 0.27542822E+03</rscale>
<asrwt>0</asrwt>
<pdfrwt beam="1">  1        2 0.11393312E+00 0.27542822E+03</pdfrwt>
<pdfrwt beam="2">  1       -2 0.39398542E-02 0.27542822E+03</pdfrwt>
<totfact> 0.10959961E+04</totfact>
</mgrwt>
</event>
<event>
 5    1  0.1140254E+001  0.2759718E+03  0.7818608E-02  0.1097910E+00
         -3   -1    0    0    0  501 -0.00000000000E+00  0.00000000000E+00  0.86369057559E+02  0.86369057559E+02  0.00000000000E+00 0.  1.
          3   -1    0    0  501    0  0.00000000000E+00 -0.00000000000E+00 -0.22045058821E+03  0.22045058821E+03  0.00000000000E+00 0.  1.
         35    2    1    2    0    0  0.00000000000E+00  0.00000000000E+00 -0.13408153065E+03  0.30681964577E+03  0.27597180684E+03 0.  0.
         25    1    3    3    0    0  0.24763463185E+02  0.37733217074E+01  0.33853413604E+01  0.12263330543E+03  0.12000000000E+03 0.  0.
         25    1    3    3    0    0 -0.24763463185E+02 -0.37733217074E+01 -0.13746687201E+03  0.18418634034E+03  0.12000000000E+03 0.  0.
<mgrwt>
<rscale>  0 0.27597181E+03</rscale>
<asrwt>0</asrwt>
<pdfrwt beam="1">  1        3 0.33915474E-01 0.27597181E+03</pdfrwt>
<pdfrwt beam="2">  1       -3 0.13287548E-01 0.27597181E+03</pdfrwt>
<totfact> 0.99113284E+02</totfact>
</mgrwt>
</event>
<event>
 5    1  0.1140254E+001  0.2761269E+03  0.7818608E-02  0.1097823E+00
         -2   -1    0    0    0  501 -0.00000000000E+00  0.00000000000E+00  0.25478994766E+02  0.25478994766E+02  0.00000000000E+00 0.  1.
          2   -1    0    0  501    0  0.00000000000E+00 -0.00000000000E+00 -0.74812663751E+03  0.74812663751E+03  0.00000000000E+00 0.  1.
         35    2    1    2    0    0  0.00000000000E+00  0.00000000000E+00 -0.72264764275E+03  0.77360563228E+03  0.27612688881E+03 0.  0.
         25    1    3    3    0    0 -0.35998158249E+02  0.57986203357E+02 -0.35627504910E+03  0.38208661032E+03  0.12000000000E+03 0.  0.
         25    1    3    3    0    0  0.35998158249E+02 -0.57986203357E+02 -0.36637259365E+03  0.39151902195E+03  0.12000000000E+03 0.  0.
<mgrwt>
<rscale>  0 0.27612689E+03</rscale>
<asrwt>0</asrwt>
<pdfrwt beam="1">  1        2 0.11509639E+00 0.27612689E+03</pdfrwt>
<pdfrwt beam="2">  1       -2 0.39198458E-02 0.27612689E+03</pdfrwt>
<totfact> 0.10907019E+04</totfact>
</mgrwt>
</event>
<event>
 5    1  0.1140254E+001  0.2746316E+03  0.7818608E-02  0.1098658E+00
          2   -1    0    0  501    0  0.00000000000E+00  0.00000000000E+00  0.11455191642E+04  0.11455191642E+04  0.00000000000E+00 0.  1.
         -2   -1    0    0    0  501 -0.00000000000E+00 -0.00000000000E+00 -0.16460340353E+02  0.16460340353E+02  0.00000000000E+00 0.  1.
         35    2    1    2    0    0  0.00000000000E+00  0.00000000000E+00  0.11290588238E+04  0.11619795045E+04  0.27463164656E+03 0.  0.
         25    1    3    3    0    0  0.28920436798E+01 -0.63079690566E+02  0.65608286797E+03  0.66994935698E+03  0.12000000000E+03 0.  0.
         25    1    3    3    0    0 -0.28920436798E+01  0.63079690566E+02  0.47297595586E+03  0.49203014755E+03  0.12000000000E+03 0.  0.
<mgrwt>
<rscale>  0 0.27463165E+03</rscale>
<asrwt>0</asrwt>
<pdfrwt beam="1">  1        2 0.17623365E+00 0.27463165E+03</pdfrwt>
<pdfrwt beam="2">  1       -2 0.25323610E-02 0.27463165E+03</pdfrwt>
<totfact> 0.11692565E+04</totfact>
</mgrwt>
</event>
<event>
 5    1  0.1140254E+001  0.2753390E+03  0.7818608E-02  0.1098262E+00
         -2   -1    0    0    0  501 -0.00000000000E+00  0.00000000000E+00  0.49168573913E+02  0.49168573913E+02  0.00000000000E+00 0.  1.
          2   -1    0    0  501    0  0.00000000000E+00 -0.00000000000E+00 -0.38546745031E+03  0.38546745031E+03  0.00000000000E+00 0.  1.
         35    2    1    2    0    0  0.00000000000E+00  0.00000000000E+00 -0.33629887640E+03  0.43463602422E+03  0.27533895345E+03 0.  0.
         25    1    3    3    0    0 -0.10620566508E+02 -0.62773404676E+02 -0.20343232283E+03  0.24461808343E+03  0.12000000000E+03 0.  0.
         25    1    3    3    0    0  0.10620566508E+02  0.62773404676E+02 -0.13286655357E+03  0.19001794080E+03  0.12000000000E+03 0.  0.
<mgrwt>
<rscale>  0 0.27533895E+03</rscale>
<asrwt>0</asrwt>
<pdfrwt beam="1">  1        2 0.59302684E-01 0.27533895E+03</pdfrwt>
<pdfrwt beam="2">  1       -2 0.75643960E-02 0.27533895E+03</pdfrwt>
<totfact> 0.85259901E+03</totfact>
</mgrwt>
</event>
<event>
 5    1  0.1140254E+001  0.2752138E+03  0.7818608E-02  0.1098332E+00
         -1   -1    0    0    0  501 -0.00000000000E+00  0.00000000000E+00  0.79566484117E+02  0.79566484117E+02  0.00000000000E+00 0. -1.
          1   -1    0    0  501    0  0.00000000000E+00 -0.00000000000E+00 -0.23798540595E+03  0.23798540595E+03  0.00000000000E+00 0. -1.
         35    2    1    2    0    0  0.00000000000E+00  0.00000000000E+00 -0.15841892184E+03  0.31755189007E+03  0.27521382249E+03 0.  0.
         25    1    3    3    0    0 -0.17219594698E+02 -0.37986214560E+01 -0.15420636315E+03  0.19619007722E+03  0.12000000000E+03 0.  0.
         25    1    3    3    0    0  0.17219594698E+02  0.37986214560E+01 -0.42125586900E+01  0.12136181285E+03  0.12000000000E+03 0.  0.
<mgrwt>
<rscale>  0 0.27521382E+03</rscale>
<asrwt>0</asrwt>
<pdfrwt beam="1">  1        1 0.36613140E-01 0.27521382E+03</pdfrwt>
<pdfrwt beam="2">  1       -1 0.12240997E-01 0.27521382E+03</pdfrwt>
<totfact> 0.51837861E+03</totfact>
</mgrwt>
</event>
<event>
 5    1  0.1140254E+001  0.2738278E+03  0.7818608E-02  0.1099109E+00
          2   -1    0    0  501    0  0.00000000000E+00  0.00000000000E+00  0.19668969139E+04  0.19668969139E+04  0.00000000000E+00 0. -1.
         -2   -1    0    0    0  501 -0.00000000000E+00 -0.00000000000E+00 -0.95304482162E+01  0.95304482162E+01  0.00000000000E+00 0. -1.
         35    2    1    2    0    0  0.00000000000E+00  0.00000000000E+00  0.19573664657E+04  0.19764273621E+04  0.27382775013E+03 0.  0.
         25    1    3    3    0    0  0.21199790797E+02 -0.17900826428E+02  0.14102759693E+04  0.14156440867E+04  0.12000000000E+03 0.  0.
         25    1    3    3    0    0 -0.21199790797E+02  0.17900826428E+02  0.54709049640E+03  0.56078327540E+03  0.12000000000E+03 0.  0.
<mgrwt>
<rscale>  0 0.27382775E+03</rscale>
<asrwt>0</asrwt>
<pdfrwt beam="1">  1        2 0.30259920E+00 0.27382775E+03</pdfrwt>
<pdfrwt beam="2">  1       -2 0.14662244E-02 0.27382775E+03</pdfrwt>
<totfact> 0.94327912E+03</totfact>
</mgrwt>
</event>
<event>
 5    1  0.1140254E+001  0.2760928E+03  0.7818608E-02  0.1097842E+00
         -2   -1    0    0    0  501 -0.00000000000E+00  0.00000000000E+00  0.95990435094E+01  0.95990435094E+01  0.00000000000E+00 0. -1.
          2   -1    0    0  501    0  0.00000000000E+00 -0.00000000000E+00 -0.19852827173E+04  0.19852827173E+04  0.00000000000E+00 0. -1.
         35    2    1    2    0    0  0.00000000000E+00  0.00000000000E+00 -0.19756836738E+04  0.19948817608E+04  0.27609284802E+03 0.  0.
         25    1    3    3    0    0  0.26108031329E+02 -0.31786272103E+02 -0.59441762827E+03  0.60780285718E+03  0.12000000000E+03 0.  0.
         25    1    3    3    0    0 -0.26108031329E+02  0.31786272103E+02 -0.13812660455E+04  0.13870789036E+04  0.12000000000E+03 0.  0.
<mgrwt>
<rscale>  0 0.27609285E+03</rscale>
<asrwt>0</asrwt>
<pdfrwt beam="1">  1        2 0.30542819E+00 0.27609285E+03</pdfrwt>
<pdfrwt beam="2">  1       -2 0.14767755E-02 0.27609285E+03</pdfrwt>
<totfact> 0.91296609E+03</totfact>
</mgrwt>
</event>
<event>
 5    1  0.1140254E+001  0.2707513E+03  0.7818608E-02  0.1100850E+00
         -2   -1    0    0    0  501 -0.00000000000E+00  0.00000000000E+00  0.32422406254E+02  0.32422406254E+02  0.00000000000E+00 0. -1.
          2   -1    0    0  501    0  0.00000000000E+00 -0.00000000000E+00 -0.56524377221E+03  0.56524377221E+03  0.00000000000E+00 0. -1.
         35    2    1    2    0    0  0.00000000000E+00  0.00000000000E+00 -0.53282136596E+03  0.59766617847E+03  0.27075127490E+03 0.  0.
         25    1    3    3    0    0 -0.23248943814E+01 -0.32939125038E+02 -0.38396929824E+03  0.40363698180E+03  0.12000000000E+03 0.  0.
         25    1    3    3    0    0  0.23248943814E+01  0.32939125038E+02 -0.14885206772E+03  0.19402919666E+03  0.12000000000E+03 0.  0.
<mgrwt>
<rscale>  0 0.27075127E+03</rscale>
<asrwt>0</asrwt>
<pdfrwt beam="1">  1        2 0.86960573E-01 0.27075127E+03</pdfrwt>
<pdfrwt beam="2">  1       -2 0.49880629E-02 0.27075127E+03</pdfrwt>
<totfact> 0.10567406E+04</totfact>
</mgrwt>
</event>
<event>
 5    1  0.1140254E+001  0.2749673E+03  0.7818608E-02  0.1098470E+00
          2   -1    0    0  501    0  0.00000000000E+00  0.00000000000E+00  0.45581365499E+02  0.45581365499E+02  0.00000000000E+00 0.  1.
         -2   -1    0    0    0  501 -0.00000000000E+00 -0.00000000000E+00 -0.41468161699E+03  0.41468161699E+03  0.00000000000E+00 0.  1.
         35    2    1    2    0    0  0.00000000000E+00  0.00000000000E+00 -0.36910025149E+03  0.46026298249E+03  0.27496730242E+03 0.  0.
         25    1    3    3    0    0  0.13480907716E+01  0.54106293597E+02 -0.11817385271E+03  0.17690214193E+03  0.12000000000E+03 0.  0.
         25    1    3    3    0    0 -0.13480907716E+01 -0.54106293597E+02 -0.25092639879E+03  0.28336084056E+03  0.12000000000E+03 0.  0.
<mgrwt>
<rscale>  0 0.27496730E+03</rscale>
<asrwt>0</asrwt>
<pdfrwt beam="1">  1        2 0.70125180E-02 0.27496730E+03</pdfrwt>
<pdfrwt beam="2">  1       -2 0.63797170E-01 0.27496730E+03</pdfrwt>
<totfact> 0.23369650E+03</totfact>
</mgrwt>
</event>
<event>
 5    1  0.1140254E+001  0.2749451E+03  0.7818608E-02  0.1098482E+00
          2   -1    0    0  501    0  0.00000000000E+00  0.00000000000E+00  0.31925669510E+03  0.31925669510E+03  0.00000000000E+00 0.  1.
         -2   -1    0    0    0  501 -0.00000000000E+00 -0.00000000000E+00 -0.59195925180E+02  0.59195925180E+02  0.00000000000E+00 0.  1.
         35    2    1    2    0    0  0.00000000000E+00  0.00000000000E+00  0.26006076992E+03  0.37845262028E+03  0.27494505223E+03 0.  0.
         25    1    3    3    0    0  0.66252717743E+02 -0.10057352460E+02  0.13395331154E+03  0.19192202223E+03  0.12000000000E+03 0.  0.
         25    1    3    3    0    0 -0.66252717743E+02  0.10057352460E+02  0.12610745838E+03  0.18653059804E+03  0.12000000000E+03 0.  0.
<mgrwt>
<rscale>  0 0.27494505E+03</rscale>
<asrwt>0</asrwt>
<pdfrwt beam="1">  1        2 0.49116414E-01 0.27494505E+03</pdfrwt>
<pdfrwt beam="2">  1       -2 0.91070656E-02 0.27494505E+03</pdfrwt>
<totfact> 0.78129617E+03</totfact>
</mgrwt>
</event>
<event>
 5    1  0.1140254E+001  0.2807390E+03  0.7818608E-02  0.1095286E+00
          2   -1    0    0  501    0  0.00000000000E+00  0.00000000000E+00  0.40742469562E+03  0.40742469562E+03  0.00000000000E+00 0. -1.
         -2   -1    0    0    0  501 -0.00000000000E+00 -0.00000000000E+00 -0.48361335165E+02  0.48361335165E+02  0.00000000000E+00 0. -1.
         35    2    1    2    0    0  0.00000000000E+00  0.00000000000E+00  0.35906336045E+03  0.45578603078E+03  0.28073904082E+03 0.  0.
         25    1    3    3    0    0 -0.58687419877E+02 -0.25564335391E+02  0.12315421829E+03  0.18347945383E+03  0.12000000000E+03 0.  0.
         25    1    3    3    0    0  0.58687419877E+02  0.25564335391E+02  0.23590914216E+03  0.27230657695E+03  0.12000000000E+03 0.  0.
<mgrwt>
<rscale>  0 0.28073904E+03</rscale>
<asrwt>0</asrwt>
<pdfrwt beam="1">  1        2 0.62680720E-01 0.28073904E+03</pdfrwt>
<pdfrwt beam="2">  1       -2 0.74402057E-02 0.28073904E+03</pdfrwt>
<totfact> 0.82434419E+03</totfact>
</mgrwt>
</event>
<event>
 5    1  0.1140254E+001  0.2752401E+03  0.7818608E-02  0.1098317E+00
         -1   -1    0    0    0  501 -0.00000000000E+00  0.00000000000E+00  0.26709909995E+02  0.26709909995E+02  0.00000000000E+00 0. -1.
          1   -1    0    0  501    0  0.00000000000E+00 -0.00000000000E+00 -0.70907302306E+03  0.70907302306E+03  0.00000000000E+00 0. -1.
         35    2    1    2    0    0  0.00000000000E+00  0.00000000000E+00 -0.68236311306E+03  0.73578293305E+03  0.27524008883E+03 0.  0.
         25    1    3    3    0    0 -0.27025611563E+02  0.20100431060E+02 -0.18519469920E+03  0.22322967460E+03  0.12000000000E+03 0.  0.
         25    1    3    3    0    0  0.27025611563E+02 -0.20100431060E+02 -0.49716841386E+03  0.51255325845E+03  0.12000000000E+03 0.  0.
<mgrwt>
<rscale>  0 0.27524009E+03</rscale>
<asrwt>0</asrwt>
<pdfrwt beam="1">  1        1 0.10908813E+00 0.27524009E+03</pdfrwt>
<pdfrwt beam="2">  1       -1 0.41092178E-02 0.27524009E+03</pdfrwt>
<totfact> 0.65165819E+03</totfact>
</mgrwt>
</event>
<event>
 5    1  0.1140254E+001  0.2743586E+03  0.7818608E-02  0.1098811E+00
          2   -1    0    0  501    0  0.00000000000E+00  0.00000000000E+00  0.11921041979E+04  0.11921041979E+04  0.00000000000E+00 0. -1.
         -2   -1    0    0    0  501 -0.00000000000E+00 -0.00000000000E+00 -0.15785673033E+02  0.15785673033E+02  0.00000000000E+00 0. -1.
         35    2    1    2    0    0  0.00000000000E+00  0.00000000000E+00  0.11763185249E+04  0.12078898709E+04  0.27435864914E+03 0.  0.
         25    1    3    3    0    0  0.29891454960E+02  0.32135064288E+02  0.36838177953E+03  0.38991190919E+03  0.12000000000E+03 0.  0.
         25    1    3    3    0    0 -0.29891454960E+02 -0.32135064288E+02  0.80793674533E+03  0.81797796174E+03  0.12000000000E+03 0.  0.
<mgrwt>
<rscale>  0 0.27435865E+03</rscale>
<asrwt>0</asrwt>
<pdfrwt beam="1">  1        2 0.18340058E+00 0.27435865E+03</pdfrwt>
<pdfrwt beam="2">  1       -2 0.24285660E-02 0.27435865E+03</pdfrwt>
<totfact> 0.11696730E+04</totfact>
</mgrwt>
</event>
<event>
 5    1  0.1140254E+001  0.2782187E+03  0.7818608E-02  0.1096666E+00
          2   -1    0    0  501    0  0.00000000000E+00  0.00000000000E+00  0.84069703501E+02  0.84069703501E+02  0.00000000000E+00 0. -1.
         -2   -1    0    0    0  501 -0.00000000000E+00 -0.00000000000E+00 -0.23018291373E+03  0.23018291373E+03  0.00000000000E+00 0. -1.
         35    2    1    2    0    0  0.00000000000E+00  0.00000000000E+00 -0.14611321023E+03  0.31425261723E+03  0.27821868599E+03 0.  0.
         25    1    3    3    0    0  0.59182596437E+02 -0.28609601235E+02 -0.44698757995E+02  0.14394119622E+03  0.12000000000E+03 0.  0.
         25    1    3    3    0    0 -0.59182596437E+02  0.28609601235E+02 -0.10141445223E+03  0.17031142101E+03  0.12000000000E+03 0.  0.
<mgrwt>
<rscale>  0 0.27821869E+03</rscale>
<asrwt>0</asrwt>
<pdfrwt beam="1">  1        2 0.12933800E-01 0.27821869E+03</pdfrwt>
<pdfrwt beam="2">  1       -2 0.35412756E-01 0.27821869E+03</pdfrwt>
<totfact> 0.34876652E+03</totfact>
</mgrwt>
</event>
<event>
 5    1  0.1140254E+001  0.2751570E+03  0.7818608E-02  0.1098364E+00
          1   -1    0    0  501    0  0.00000000000E+00  0.00000000000E+00  0.11096443438E+04  0.11096443438E+04  0.00000000000E+00 0. -1.
         -1   -1    0    0    0  501 -0.00000000000E+00 -0.00000000000E+00 -0.17057573759E+02  0.17057573759E+02  0.00000000000E+00 0. -1.
         35    2    1    2    0    0  0.00000000000E+00  0.00000000000E+00  0.10925867700E+04  0.11267019175E+04  0.27515697512E+03 0.  0.
         25    1    3    3    0    0 -0.59937637512E+02 -0.30569786118E+02  0.54997417604E+03  0.56692029998E+03  0.12000000000E+03 0.  0.
         25    1    3    3    0    0  0.59937637512E+02  0.30569786118E+02  0.54261259397E+03  0.55978161755E+03  0.12000000000E+03 0.  0.
<mgrwt>
<rscale>  0 0.27515698E+03</rscale>
<asrwt>0</asrwt>
<pdfrwt beam="1">  1        1 0.17071446E+00 0.27515698E+03</pdfrwt>
<pdfrwt beam="2">  1       -1 0.26242430E-02 0.27515698E+03</pdfrwt>
<totfact> 0.61022388E+03</totfact>
</mgrwt>
</event>
<event>
 5    1  0.1140254E+001  0.2746344E+03  0.7818608E-02  0.1098656E+00
         -2   -1    0    0    0  501 -0.00000000000E+00  0.00000000000E+00  0.72269162878E+01  0.72269162878E+01  0.00000000000E+00 0. -1.
          2   -1    0    0  501    0  0.00000000000E+00 -0.00000000000E+00 -0.26091359837E+04  0.26091359837E+04  0.00000000000E+00 0. -1.
         35    2    1    2    0    0  0.00000000000E+00  0.00000000000E+00 -0.26019090674E+04  0.26163629000E+04  0.27463435574E+03 0.  0.
         25    1    3    3    0    0 -0.23434425626E+02  0.62259935749E+02 -0.13535980833E+04  0.13605341756E+04  0.12000000000E+03 0.  0.
         25    1    3    3    0    0  0.23434425626E+02 -0.62259935749E+02 -0.12483109842E+04  0.12558287244E+04  0.12000000000E+03 0.  0.
<mgrwt>
<rscale>  0 0.27463436E+03</rscale>
<asrwt>0</asrwt>
<pdfrwt beam="1">  1        2 0.40140573E+00 0.27463436E+03</pdfrwt>
<pdfrwt beam="2">  1       -2 0.11118327E-02 0.27463436E+03</pdfrwt>
<totfact> 0.63790368E+03</totfact>
</mgrwt>
</event>
<event>
 5    1  0.1140254E+001  0.2746766E+03  0.7818608E-02  0.1098633E+00
         -1   -1    0    0    0  501 -0.00000000000E+00  0.00000000000E+00  0.49285341825E+02  0.49285341825E+02  0.00000000000E+00 0. -1.
          1   -1    0    0  501    0  0.00000000000E+00 -0.00000000000E+00 -0.38270620370E+03  0.38270620370E+03  0.00000000000E+00 0. -1.
         35    2    1    2    0    0  0.00000000000E+00  0.00000000000E+00 -0.33342086188E+03  0.43199154553E+03  0.27467658122E+03 0.  0.
         25    1    3    3    0    0  0.30375680825E+02 -0.11770967208E+01 -0.73166313999E+02  0.14379630401E+03  0.12000000000E+03 0.  0.
         25    1    3    3    0    0 -0.30375680825E+02  0.11770967208E+01 -0.26025454788E+03  0.28819524152E+03  0.12000000000E+03 0.  0.
<mgrwt>
<rscale>  0 0.27467658E+03</rscale>
<asrwt>0</asrwt>
<pdfrwt beam="1">  1        1 0.58877876E-01 0.27467658E+03</pdfrwt>
<pdfrwt beam="2">  1       -1 0.75823605E-02 0.27467658E+03</pdfrwt>
<totfact> 0.59620182E+03</totfact>
</mgrwt>
</event>
<event>
 5    1  0.1140254E+001  0.2708573E+03  0.7818608E-02  0.1100790E+00
         -2   -1    0    0    0  501 -0.00000000000E+00  0.00000000000E+00  0.17107868415E+02  0.17107868415E+02  0.00000000000E+00 0.  1.
          2   -1    0    0  501    0  0.00000000000E+00 -0.00000000000E+00 -0.10720753927E+04  0.10720753927E+04  0.00000000000E+00 0.  1.
         35    2    1    2    0    0  0.00000000000E+00  0.00000000000E+00 -0.10549675243E+04  0.10891832611E+04  0.27085734067E+03 0.  0.
         25    1    3    3    0    0  0.57546277758E+02 -0.92534530479E+01 -0.43371682970E+03  0.45377030406E+03  0.12000000000E+03 0.  0.
         25    1    3    3    0    0 -0.57546277758E+02  0.92534530479E+01 -0.62125069456E+03  0.63541295704E+03  0.12000000000E+03 0.  0.
<mgrwt>
<rscale>  0 0.27085734E+03</rscale>
<asrwt>0</asrwt>
<pdfrwt beam="1">  1        2 0.16493466E+00 0.27085734E+03</pdfrwt>
<pdfrwt beam="2">  1       -2 0.26319800E-02 0.27085734E+03</pdfrwt>
<totfact> 0.12187303E+04</totfact>
</mgrwt>
</event>
<event>
 5    1  0.1140254E+001  0.2756398E+03  0.7818608E-02  0.1098094E+00
          1   -1    0    0  501    0  0.00000000000E+00  0.00000000000E+00  0.18607019818E+04  0.18607019818E+04  0.00000000000E+00 0.  1.
         -1   -1    0    0    0  501 -0.00000000000E+00 -0.00000000000E+00 -0.10208151103E+02  0.10208151103E+02  0.00000000000E+00 0.  1.
         35    2    1    2    0    0  0.00000000000E+00  0.00000000000E+00  0.18504938307E+04  0.18709101329E+04  0.27563981561E+03 0.  0.
         25    1    3    3    0    0  0.18286600118E+02 -0.56724970082E+02  0.11443697085E+04  0.11521866827E+04  0.12000000000E+03 0.  0.
         25    1    3    3    0    0 -0.18286600118E+02  0.56724970082E+02  0.70612412221E+03  0.71872345025E+03  0.12000000000E+03 0.  0.
<mgrwt>
<rscale>  0 0.27563982E+03</rscale>
<asrwt>0</asrwt>
<pdfrwt beam="1">  1        1 0.28626157E+00 0.27563982E+03</pdfrwt>
<pdfrwt beam="2">  1       -1 0.15704863E-02 0.27563982E+03</pdfrwt>
<totfact> 0.40560667E+03</totfact>
</mgrwt>
</event>
<event>
 5    1  0.1140254E+001  0.2753876E+03  0.7818608E-02  0.1098235E+00
          1   -1    0    0  501    0  0.00000000000E+00  0.00000000000E+00  0.18709825578E+04  0.18709825578E+04  0.00000000000E+00 0. -1.
         -1   -1    0    0    0  501 -0.00000000000E+00 -0.00000000000E+00 -0.10133490549E+02  0.10133490549E+02  0.00000000000E+00 0. -1.
         35    2    1    2    0    0  0.00000000000E+00  0.00000000000E+00  0.18608490673E+04  0.18811160484E+04  0.27538761096E+03 0.  0.
         25    1    3    3    0    0 -0.57166643780E+02  0.32963625856E+02  0.83263240022E+03  0.84381949474E+03  0.12000000000E+03 0.  0.
         25    1    3    3    0    0  0.57166643780E+02 -0.32963625856E+02  0.10282166671E+04  0.10372965536E+04  0.12000000000E+03 0.  0.
<mgrwt>
<rscale>  0 0.27538761E+03</rscale>
<asrwt>0</asrwt>
<pdfrwt beam="1">  1        1 0.28784320E+00 0.27538761E+03</pdfrwt>
<pdfrwt beam="2">  1       -1 0.15590000E-02 0.27538761E+03</pdfrwt>
<totfact> 0.40371390E+03</totfact>
</mgrwt>
</event>
<event>
 5    1  0.1140254E+001  0.2760502E+03  0.7818608E-02  0.1097866E+00
          2   -1    0    0  501    0  0.00000000000E+00  0.00000000000E+00  0.21377423598E+03  0.21377423598E+03  0.00000000000E+00 0.  1.
         -2   -1    0    0    0  501 -0.00000000000E+00 -0.00000000000E+00 -0.89117051240E+02  0.89117051240E+02  0.00000000000E+00 0.  1.
         35    2    1    2    0    0  0.00000000000E+00  0.00000000000E+00  0.12465718474E+03  0.30289128722E+03  0.27605020950E+03 0.  0.
         25    1    3    3    0    0  0.42148714254E+02 -0.32152185302E+02  0.15254214242E+02  0.13207182964E+03  0.12000000000E+03 0.  0.
         25    1    3    3    0    0 -0.42148714254E+02  0.32152185302E+02  0.10940297050E+03  0.17081945758E+03  0.12000000000E+03 0.  0.
<mgrwt>
<rscale>  0 0.27605021E+03</rscale>
<asrwt>0</asrwt>
<pdfrwt beam="1">  1        2 0.32888344E-01 0.27605021E+03</pdfrwt>
<pdfrwt beam="2">  1       -2 0.13710316E-01 0.27605021E+03</pdfrwt>
<totfact> 0.62483011E+03</totfact>
</mgrwt>
</event>
<event>
 5    1  0.1140254E+001  0.2739074E+03  0.7818608E-02  0.1099064E+00
         -1   -1    0    0    0  501 -0.00000000000E+00  0.00000000000E+00  0.22610226460E+03  0.22610226460E+03  0.00000000000E+00 0. -1.
          1   -1    0    0  501    0  0.00000000000E+00 -0.00000000000E+00 -0.82955026297E+02  0.82955026297E+02  0.00000000000E+00 0. -1.
         35    2    1    2    0    0  0.00000000000E+00  0.00000000000E+00  0.14314723830E+03  0.30905729089E+03  0.27390742455E+03 0.  0.
         25    1    3    3    0    0  0.22223211340E+02  0.46127047805E+02  0.24578490653E+02  0.13276173343E+03  0.12000000000E+03 0.  0.
         25    1    3    3    0    0 -0.22223211340E+02 -0.46127047805E+02  0.11856874765E+03  0.17629555746E+03  0.12000000000E+03 0.  0.
<mgrwt>
<rscale>  0 0.27390742E+03</rscale>
<asrwt>0</asrwt>
<pdfrwt beam="1">  1        1 0.12762312E-01 0.27390742E+03</pdfrwt>
<pdfrwt beam="2">  1       -1 0.34784964E-01 0.27390742E+03</pdfrwt>
<totfact> 0.36335376E+03</totfact>
</mgrwt>
</event>
<event>
 5    1  0.1140254E+001  0.2747331E+03  0.7818608E-02  0.1098601E+00
         -2   -1    0    0    0  501 -0.00000000000E+00  0.00000000000E+00  0.12466713426E+02  0.12466713426E+02  0.00000000000E+00 0. -1.
          2   -1    0    0  501    0  0.00000000000E+00 -0.00000000000E+00 -0.15135960030E+04  0.15135960030E+04  0.00000000000E+00 0. -1.
         35    2    1    2    0    0  0.00000000000E+00  0.00000000000E+00 -0.15011292895E+04  0.15260627164E+04  0.27473308947E+03 0.  0.
         25    1    3    3    0    0  0.25859537806E+02  0.37014678038E+02 -0.10244273831E+04  0.10324196169E+04  0.12000000000E+03 0.  0.
         25    1    3    3    0    0 -0.25859537806E+02 -0.37014678038E+02 -0.47670190639E+03  0.49364309946E+03  0.12000000000E+03 0.  0.
<mgrwt>
<rscale>  0 0.27473309E+03</rscale>
<asrwt>0</asrwt>
<pdfrwt beam="1">  1        2 0.23286107E+00 0.27473309E+03</pdfrwt>
<pdfrwt beam="2">  1       -2 0.19179547E-02 0.27473309E+03</pdfrwt>
<totfact> 0.11032019E+04</totfact>
</mgrwt>
</event>
<event>
 5    1  0.1140254E+001  0.2747081E+03  0.7818608E-02  0.1098615E+00
         -2   -1    0    0    0  501 -0.00000000000E+00  0.00000000000E+00  0.23813718234E+02  0.23813718234E+02  0.00000000000E+00 0. -1.
          2   -1    0    0  501    0  0.00000000000E+00 -0.00000000000E+00 -0.79223795257E+03  0.79223795257E+03  0.00000000000E+00 0. -1.
         35    2    1    2    0    0  0.00000000000E+00  0.00000000000E+00 -0.76842423433E+03  0.81605167080E+03  0.27470807325E+03 0.  0.
         25    1    3    3    0    0 -0.10898813384E+02  0.18449686841E+01 -0.58000112749E+03  0.59238796066E+03  0.12000000000E+03 0.  0.
         25    1    3    3    0    0  0.10898813384E+02 -0.18449686841E+01 -0.18842310684E+03  0.22366371014E+03  0.12000000000E+03 0.  0.
<mgrwt>
<rscale>  0 0.27470807E+03</rscale>
<asrwt>0</asrwt>
<pdfrwt beam="1">  1        2 0.12188276E+00 0.27470807E+03</pdfrwt>
<pdfrwt beam="2">  1       -2 0.36636490E-02 0.27470807E+03</pdfrwt>
<totfact> 0.11232522E+04</totfact>
</mgrwt>
</event>
<event>
 5    1  0.1140254E+001  0.2699657E+03  0.7818608E-02  0.1101299E+00
         -1   -1    0    0    0  501 -0.00000000000E+00  0.00000000000E+00  0.20362082283E+02  0.20362082283E+02  0.00000000000E+00 0. -1.
          1   -1    0    0  501    0  0.00000000000E+00 -0.00000000000E+00 -0.89481871588E+03  0.89481871588E+03  0.00000000000E+00 0. -1.
         35    2    1    2    0    0  0.00000000000E+00  0.00000000000E+00 -0.87445663360E+03  0.91518079816E+03  0.26996571872E+03 0.  0.
         25    1    3    3    0    0 -0.10447973546E+02  0.45324825178E+02 -0.57521679049E+03  0.58943859391E+03  0.12000000000E+03 0.  0.
         25    1    3    3    0    0  0.10447973546E+02 -0.45324825178E+02 -0.29923984311E+03  0.32574220425E+03  0.12000000000E+03 0.  0.
<mgrwt>
<rscale>  0 0.26996572E+03</rscale>
<asrwt>0</asrwt>
<pdfrwt beam="1">  1        1 0.13766441E+00 0.26996572E+03</pdfrwt>
<pdfrwt beam="2">  1       -1 0.31326282E-02 0.26996572E+03</pdfrwt>
<totfact> 0.68075491E+03</totfact>
</mgrwt>
</event>
<event>
 5    1  0.1140254E+001  0.2752304E+03  0.7818608E-02  0.1098323E+00
         -2   -1    0    0    0  501 -0.00000000000E+00  0.00000000000E+00  0.25077520133E+02  0.25077520133E+02  0.00000000000E+00 0.  1.
          2   -1    0    0  501    0  0.00000000000E+00 -0.00000000000E+00 -0.75517631750E+03  0.75517631750E+03  0.00000000000E+00 0.  1.
         35    2    1    2    0    0  0.00000000000E+00  0.00000000000E+00 -0.73009879737E+03  0.78025383763E+03  0.27523044386E+03 0.  0.
         25    1    3    3    0    0 -0.63709182268E+02 -0.41653171590E+01 -0.30413247362E+03  0.33312575896E+03  0.12000000000E+03 0.  0.
         25    1    3    3    0    0  0.63709182268E+02  0.41653171590E+01 -0.42596632374E+03  0.44712807867E+03  0.12000000000E+03 0.  0.
<mgrwt>
<rscale>  0 0.27523044E+03</rscale>
<asrwt>0</asrwt>
<pdfrwt beam="1">  1        2 0.11618096E+00 0.27523044E+03</pdfrwt>
<pdfrwt beam="2">  1       -2 0.38580804E-02 0.27523044E+03</pdfrwt>
<totfact> 0.11039659E+04</totfact>
</mgrwt>
</event>
<event>
 5    1  0.1140254E+001  0.2744864E+03  0.7818608E-02  0.1098739E+00
         -2   -1    0    0    0  501 -0.00000000000E+00  0.00000000000E+00  0.27475004583E+02  0.27475004583E+02  0.00000000000E+00 0.  1.
          2   -1    0    0  501    0  0.00000000000E+00 -0.00000000000E+00 -0.68555761503E+03  0.68555761503E+03  0.00000000000E+00 0.  1.
         35    2    1    2    0    0  0.00000000000E+00  0.00000000000E+00 -0.65808261045E+03  0.71303261961E+03  0.27448641944E+03 0.  0.
         25    1    3    3    0    0 -0.49657399246E+02 -0.17747502393E+02 -0.43471579174E+03  0.45404696974E+03  0.12000000000E+03 0.  0.
         25    1    3    3    0    0  0.49657399246E+02  0.17747502393E+02 -0.22336681871E+03  0.25898564987E+03  0.12000000000E+03 0.  0.
<mgrwt>
<rscale>  0 0.27448642E+03</rscale>
<asrwt>0</asrwt>
<pdfrwt beam="1">  1        2 0.10547040E+00 0.27448642E+03</pdfrwt>
<pdfrwt beam="2">  1       -2 0.42269239E-02 0.27448642E+03</pdfrwt>
<totfact> 0.10831552E+04</totfact>
</mgrwt>
</event>
<event>
 5    1  0.1140254E+001  0.2752039E+03  0.7818608E-02  0.1098338E+00
         -2   -1    0    0    0  501 -0.00000000000E+00  0.00000000000E+00  0.44634349597E+02  0.44634349597E+02  0.00000000000E+00 0. -1.
          2   -1    0    0  501    0  0.00000000000E+00 -0.00000000000E+00 -0.42420915048E+03  0.42420915048E+03  0.00000000000E+00 0. -1.
         35    2    1    2    0    0  0.00000000000E+00  0.00000000000E+00 -0.37957480089E+03  0.46884350008E+03  0.27520392094E+03 0.  0.
         25    1    3    3    0    0 -0.32218159821E+02 -0.31595506447E+01 -0.29037769795E+03  0.31585946250E+03  0.12000000000E+03 0.  0.
         25    1    3    3    0    0  0.32218159821E+02  0.31595506447E+01 -0.89197102935E+02  0.15298403758E+03  0.12000000000E+03 0.  0.
<mgrwt>
<rscale>  0 0.27520392E+03</rscale>
<asrwt>0</asrwt>
<pdfrwt beam="1">  1        2 0.65262947E-01 0.27520392E+03</pdfrwt>
<pdfrwt beam="2">  1       -2 0.68668229E-02 0.27520392E+03</pdfrwt>
<totfact> 0.89262016E+03</totfact>
</mgrwt>
</event>
<event>
 5    1  0.1140254E+001  0.2749607E+03  0.7818608E-02  0.1098474E+00
         -2   -1    0    0    0  501 -0.00000000000E+00  0.00000000000E+00  0.90999577530E+02  0.90999577530E+02  0.00000000000E+00 0.  1.
          2   -1    0    0  501    0  0.00000000000E+00 -0.00000000000E+00 -0.20770262457E+03  0.20770262457E+03  0.00000000000E+00 0.  1.
         35    2    1    2    0    0  0.00000000000E+00  0.00000000000E+00 -0.11670304704E+03  0.29870220210E+03  0.27496073238E+03 0.  0.
         25    1    3    3    0    0 -0.27837468406E+02  0.25390093766E+02 -0.11865364574E+03  0.17291115972E+03  0.12000000000E+03 0.  0.
         25    1    3    3    0    0  0.27837468406E+02 -0.25390093766E+02  0.19505986931E+01  0.12579104238E+03  0.12000000000E+03 0.  0.
<mgrwt>
<rscale>  0 0.27496073E+03</rscale>
<asrwt>0</asrwt>
<pdfrwt beam="1">  1        2 0.31954250E-01 0.27496073E+03</pdfrwt>
<pdfrwt beam="2">  1       -2 0.13999935E-01 0.27496073E+03</pdfrwt>
<totfact> 0.62298737E+03</totfact>
</mgrwt>
</event>
<event>
 5    1  0.1140254E+001  0.2771642E+03  0.7818608E-02  0.1097248E+00
         -2   -1    0    0    0  501 -0.00000000000E+00  0.00000000000E+00  0.87048356081E+02  0.87048356081E+02  0.00000000000E+00 0. -1.
          2   -1    0    0  501    0  0.00000000000E+00 -0.00000000000E+00 -0.22062440781E+03  0.22062440781E+03  0.00000000000E+00 0. -1.
         35    2    1    2    0    0  0.00000000000E+00  0.00000000000E+00 -0.13357605173E+03  0.30767276389E+03  0.27716415361E+03 0.  0.
         25    1    3    3    0    0 -0.56468140415E+02 -0.32802343386E+02 -0.40983937289E+02  0.14263354349E+03  0.12000000000E+03 0.  0.
         25    1    3    3    0    0  0.56468140415E+02  0.32802343386E+02 -0.92592114443E+02  0.16503922040E+03  0.12000000000E+03 0.  0.
<mgrwt>
<rscale>  0 0.27716415E+03</rscale>
<asrwt>0</asrwt>
<pdfrwt beam="1">  1        2 0.33942216E-01 0.27716415E+03</pdfrwt>
<pdfrwt beam="2">  1       -2 0.13392055E-01 0.27716415E+03</pdfrwt>
<totfact> 0.62745482E+03</totfact>
</mgrwt>
</event>
<event>
 5    1  0.1140254E+001  0.2749699E+03  0.7818608E-02  0.1098468E+00
         -2   -1    0    0    0  501 -0.00000000000E+00  0.00000000000E+00  0.20821177779E+02  0.20821177779E+02  0.00000000000E+00 0. -1.
          2   -1    0    0  501    0  0.00000000000E+00 -0.00000000000E+00 -0.90783092952E+03  0.90783092952E+03  0.00000000000E+00 0. -1.
         35    2    1    2    0    0  0.00000000000E+00  0.00000000000E+00 -0.88700975174E+03  0.92865210730E+03  0.27496988327E+03 0.  0.
         25    1    3    3    0    0  0.46657609132E+01 -0.38131917047E+01 -0.21781216875E+03  0.24875379517E+03  0.12000000000E+03 0.  0.
         25    1    3    3    0    0 -0.46657609132E+01  0.38131917047E+01 -0.66919758299E+03  0.67989831213E+03  0.12000000000E+03 0.  0.
<mgrwt>
<rscale>  0 0.27496988E+03</rscale>
<asrwt>0</asrwt>
<pdfrwt beam="1">  1        2 0.13966627E+00 0.27496988E+03</pdfrwt>
<pdfrwt beam="2">  1       -2 0.32032588E-02 0.27496988E+03</pdfrwt>
<totfact> 0.11495618E+04</totfact>
</mgrwt>
</event>
<event>
 5    1  0.1140254E+001  0.2740551E+03  0.7818608E-02  0.1098981E+00
         -2   -1    0    0    0  501 -0.00000000000E+00  0.00000000000E+00  0.33605259647E+02  0.33605259647E+02  0.00000000000E+00 0. -1.
          2   -1    0    0  501    0  0.00000000000E+00 -0.00000000000E+00 -0.55873856068E+03  0.55873856068E+03  0.00000000000E+00 0. -1.
         35    2    1    2    0    0  0.00000000000E+00  0.00000000000E+00 -0.52513330103E+03  0.59234382033E+03  0.27405513611E+03 0.  0.
         25    1    3    3    0    0  0.31652320027E+02  0.12821488292E+02 -0.38503062567E+03  0.40474046330E+03  0.12000000000E+03 0.  0.
         25    1    3    3    0    0 -0.31652320027E+02 -0.12821488292E+02 -0.14010267536E+03  0.18760335703E+03  0.12000000000E+03 0.  0.
<mgrwt>
<rscale>  0 0.27405514E+03</rscale>
<asrwt>0</asrwt>
<pdfrwt beam="1">  1        2 0.85959768E-01 0.27405514E+03</pdfrwt>
<pdfrwt beam="2">  1       -2 0.51700406E-02 0.27405514E+03</pdfrwt>
<totfact> 0.10145184E+04</totfact>
</mgrwt>
</event>
<event>
 5    1  0.1140254E+001  0.2751684E+03  0.7818608E-02  0.1098358E+00
         -3   -1    0    0    0  501 -0.00000000000E+00  0.00000000000E+00  0.88587090485E+03  0.88587090485E+03  0.00000000000E+00 0. -1.
          3   -1    0    0  501    0  0.00000000000E+00 -0.00000000000E+00 -0.21368138661E+02  0.21368138661E+02  0.00000000000E+00 0. -1.
         35    2    1    2    0    0  0.00000000000E+00  0.00000000000E+00  0.86450276618E+03  0.90723904351E+03  0.27516840175E+03 0.  0.
         25    1    3    3    0    0  0.60055801934E+02  0.10300491736E+02  0.33803394809E+03  0.36384028026E+03  0.12000000000E+03 0.  0.
         25    1    3    3    0    0 -0.60055801934E+02 -0.10300491736E+02  0.52646881809E+03  0.54339876325E+03  0.12000000000E+03 0.  0.
<mgrwt>
<rscale>  0 0.27516840E+03</rscale>
<asrwt>0</asrwt>
<pdfrwt beam="1">  1        3 0.32874066E-02 0.27516840E+03</pdfrwt>
<pdfrwt beam="2">  1       -3 0.13628780E+00 0.27516840E+03</pdfrwt>
<totfact> 0.48654231E+02</totfact>
</mgrwt>
</event>
<event>
 5    1  0.1140254E+001  0.2750653E+03  0.7818608E-02  0.1098415E+00
          2   -1    0    0  501    0  0.00000000000E+00  0.00000000000E+00  0.51119031931E+02  0.51119031931E+02  0.00000000000E+00 0. -1.
         -2   -1    0    0    0  501 -0.00000000000E+00 -0.00000000000E+00 -0.37002333085E+03  0.37002333085E+03  0.00000000000E+00 0. -1.
         35    2    1    2    0    0  0.00000000000E+00  0.00000000000E+00 -0.31890429892E+03  0.42114236278E+03  0.27506533380E+03 0.  0.
         25    1    3    3    0    0  0.64442514989E+02  0.15613996457E+02 -0.17612597003E+03  0.22319720416E+03  0.12000000000E+03 0.  0.
         25    1    3    3    0    0 -0.64442514989E+02 -0.15613996457E+02 -0.14277832889E+03  0.19794515863E+03  0.12000000000E+03 0.  0.
<mgrwt>
<rscale>  0 0.27506533E+03</rscale>
<asrwt>0</asrwt>
<pdfrwt beam="1">  1        2 0.78644661E-02 0.27506533E+03</pdfrwt>
<pdfrwt beam="2">  1       -2 0.56926669E-01 0.27506533E+03</pdfrwt>
<totfact> 0.25556284E+03</totfact>
</mgrwt>
</event>
<event>
 5    1  0.1140254E+001  0.2758618E+03  0.7818608E-02  0.1097971E+00
         -1   -1    0    0    0  501 -0.00000000000E+00  0.00000000000E+00  0.80352582175E+03  0.80352582175E+03  0.00000000000E+00 0. -1.
          1   -1    0    0  501    0  0.00000000000E+00 -0.00000000000E+00 -0.23676815499E+02  0.23676815499E+02  0.00000000000E+00 0. -1.
         35    2    1    2    0    0  0.00000000000E+00  0.00000000000E+00  0.77984900625E+03  0.82720263725E+03  0.27586179605E+03 0.  0.
         25    1    3    3    0    0  0.20076194971E+01  0.37832010033E+02  0.22057214002E+03  0.25394361672E+03  0.12000000000E+03 0.  0.
         25    1    3    3    0    0 -0.20076194971E+01 -0.37832010033E+02  0.55927686623E+03  0.57325902053E+03  0.12000000000E+03 0.  0.
<mgrwt>
<rscale>  0 0.27586180E+03</rscale>
<asrwt>0</asrwt>
<pdfrwt beam="1">  1        1 0.36425876E-02 0.27586180E+03</pdfrwt>
<pdfrwt beam="2">  1       -1 0.12361934E+00 0.27586180E+03</pdfrwt>
<totfact> 0.15957987E+03</totfact>
</mgrwt>
</event>
<event>
 5    1  0.1140254E+001  0.2754069E+03  0.7818608E-02  0.1098224E+00
          1   -1    0    0  501    0  0.00000000000E+00  0.00000000000E+00  0.56958442169E+03  0.56958442169E+03  0.00000000000E+00 0. -1.
         -1   -1    0    0    0  501 -0.00000000000E+00 -0.00000000000E+00 -0.33291360220E+02  0.33291360220E+02  0.00000000000E+00 0. -1.
         35    2    1    2    0    0  0.00000000000E+00  0.00000000000E+00  0.53629306147E+03  0.60287578191E+03  0.27540690012E+03 0.  0.
         25    1    3    3    0    0 -0.77585422956E+01 -0.54259722154E+02  0.35454910365E+03  0.37829800334E+03  0.12000000000E+03 0.  0.
         25    1    3    3    0    0  0.77585422956E+01  0.54259722154E+02  0.18174395782E+03  0.22457777858E+03  0.12000000000E+03 0.  0.
<mgrwt>
<rscale>  0 0.27540690E+03</rscale>
<asrwt>0</asrwt>
<pdfrwt beam="1">  1        1 0.87628365E-01 0.27540690E+03</pdfrwt>
<pdfrwt beam="2">  1       -1 0.51217481E-02 0.27540690E+03</pdfrwt>
<totfact> 0.63929588E+03</totfact>
</mgrwt>
</event>
<event>
 5    1  0.1140254E+001  0.2746636E+03  0.7818608E-02  0.1098640E+00
          2   -1    0    0  501    0  0.00000000000E+00  0.00000000000E+00  0.75695317560E+03  0.75695317560E+03  0.00000000000E+00 0. -1.
         -2   -1    0    0    0  501 -0.00000000000E+00 -0.00000000000E+00 -0.24915711645E+02  0.24915711645E+02  0.00000000000E+00 0. -1.
         35    2    1    2    0    0  0.00000000000E+00  0.00000000000E+00  0.73203746396E+03  0.78186888725E+03  0.27466362738E+03 0.  0.
         25    1    3    3    0    0  0.17960757843E+02  0.24447563730E+02  0.19665540612E+03  0.23236527484E+03  0.12000000000E+03 0.  0.
         25    1    3    3    0    0 -0.17960757843E+02 -0.24447563730E+02  0.53538205784E+03  0.54950361241E+03  0.12000000000E+03 0.  0.
<mgrwt>
<rscale>  0 0.27466363E+03</rscale>
<asrwt>0</asrwt>
<pdfrwt beam="1">  1        2 0.11645432E+00 0.27466363E+03</pdfrwt>
<pdfrwt beam="2">  1       -2 0.38331870E-02 0.27466363E+03</pdfrwt>
<totfact> 0.11114094E+04</totfact>
</mgrwt>
</event>
<event>
 5    1  0.1140254E+001  0.2742019E+03  0.7818608E-02  0.1098899E+00
         -1   -1    0    0    0  501 -0.00000000000E+00  0.00000000000E+00  0.22734709236E+02  0.22734709236E+02  0.00000000000E+00 0. -1.
          1   -1    0    0  501    0  0.00000000000E+00 -0.00000000000E+00 -0.82678268157E+03  0.82678268157E+03  0.00000000000E+00 0. -1.
         35    2    1    2    0    0  0.00000000000E+00  0.00000000000E+00 -0.80404797233E+03  0.84951739080E+03  0.27420185168E+03 0.  0.
         25    1    3    3    0    0 -0.25353264367E+02  0.44636436023E+02 -0.27199540320E+03  0.30168973929E+03  0.12000000000E+03 0.  0.
         25    1    3    3    0    0  0.25353264367E+02 -0.44636436023E+02 -0.53205256914E+03  0.54782765151E+03  0.12000000000E+03 0.  0.
<mgrwt>
<rscale>  0 0.27420185E+03</rscale>
<asrwt>0</asrwt>
<pdfrwt beam="1">  1        1 0.12719734E+00 0.27420185E+03</pdfrwt>
<pdfrwt beam="2">  1       -1 0.34976475E-02 0.27420185E+03</pdfrwt>
<totfact> 0.65618927E+03</totfact>
</mgrwt>
</event>
<event>
 5    1  0.1140254E+001  0.2750412E+03  0.7818608E-02  0.1098429E+00
          2   -1    0    0  501    0  0.00000000000E+00  0.00000000000E+00  0.15855903319E+04  0.15855903319E+04  0.00000000000E+00 0. -1.
         -2   -1    0    0    0  501 -0.00000000000E+00 -0.00000000000E+00 -0.11927361859E+02  0.11927361859E+02  0.00000000000E+00 0. -1.
         35    2    1    2    0    0  0.00000000000E+00  0.00000000000E+00  0.15736629701E+04  0.15975176938E+04  0.27504115800E+03 0.  0.
         25    1    3    3    0    0  0.25438834419E+02  0.23669571214E+02  0.45294209011E+03  0.46985521162E+03  0.12000000000E+03 0.  0.
         25    1    3    3    0    0 -0.25438834419E+02 -0.23669571214E+02  0.11207208800E+04  0.11276624822E+04  0.12000000000E+03 0.  0.
<mgrwt>
<rscale>  0 0.27504116E+03</rscale>
<asrwt>0</asrwt>
<pdfrwt beam="1">  1        2 0.24393681E+00 0.27504116E+03</pdfrwt>
<pdfrwt beam="2">  1       -2 0.18349800E-02 0.27504116E+03</pdfrwt>
<totfact> 0.10778338E+04</totfact>
</mgrwt>
</event>
<event>
 5    1  0.1140254E+001  0.2750256E+03  0.7818608E-02  0.1098437E+00
          2   -1    0    0  501    0  0.00000000000E+00  0.00000000000E+00  0.18418635682E+04  0.18418635682E+04  0.00000000000E+00 0. -1.
         -2   -1    0    0    0  501 -0.00000000000E+00 -0.00000000000E+00 -0.10266649026E+02  0.10266649026E+02  0.00000000000E+00 0. -1.
         35    2    1    2    0    0  0.00000000000E+00  0.00000000000E+00  0.18315969192E+04  0.18521302173E+04  0.27502557561E+03 0.  0.
         25    1    3    3    0    0 -0.25828215399E+02  0.27747826415E+02  0.12891006258E+04  0.12952287296E+04  0.12000000000E+03 0.  0.
         25    1    3    3    0    0  0.25828215399E+02 -0.27747826415E+02  0.54249629344E+03  0.55690148768E+03  0.12000000000E+03 0.  0.
<mgrwt>
<rscale>  0 0.27502558E+03</rscale>
<asrwt>0</asrwt>
<pdfrwt beam="1">  1        2 0.28336336E+00 0.27502558E+03</pdfrwt>
<pdfrwt beam="2">  1       -2 0.15794859E-02 0.27502558E+03</pdfrwt>
<totfact> 0.98406662E+03</totfact>
</mgrwt>
</event>
<event>
 5    1  0.1140254E+001  0.2761287E+03  0.7818608E-02  0.1097822E+00
         -2   -1    0    0    0  501 -0.00000000000E+00  0.00000000000E+00  0.56628185682E+02  0.56628185682E+02  0.00000000000E+00 0. -1.
          2   -1    0    0  501    0  0.00000000000E+00 -0.00000000000E+00 -0.33661268779E+03  0.33661268779E+03  0.00000000000E+00 0. -1.
         35    2    1    2    0    0  0.00000000000E+00  0.00000000000E+00 -0.27998450211E+03  0.39324087348E+03  0.27612870758E+03 0.  0.
         25    1    3    3    0    0  0.36686533737E+02 -0.68764520370E+01 -0.58573104156E+02  0.13865062524E+03  0.12000000000E+03 0.  0.
         25    1    3    3    0    0 -0.36686533737E+02  0.68764520370E+01 -0.22141139795E+03  0.25459024823E+03  0.12000000000E+03 0.  0.
<mgrwt>
<rscale>  0 0.27612871E+03</rscale>
<asrwt>0</asrwt>
<pdfrwt beam="1">  1        2 0.51786568E-01 0.27612871E+03</pdfrwt>
<pdfrwt beam="2">  1       -2 0.87120284E-02 0.27612871E+03</pdfrwt>
<totfact> 0.79151203E+03</totfact>
</mgrwt>
</event>
<event>
 5    1  0.1140254E+001  0.2745784E+03  0.7818608E-02  0.1098688E+00
         -2   -1    0    0    0  501 -0.00000000000E+00  0.00000000000E+00  0.49493267543E+02  0.49493267543E+02  0.00000000000E+00 0.  1.
          2   -1    0    0  501    0  0.00000000000E+00 -0.00000000000E+00 -0.38082588936E+03  0.38082588936E+03  0.00000000000E+00 0.  1.
         35    2    1    2    0    0  0.00000000000E+00  0.00000000000E+00 -0.33133262182E+03  0.43031915690E+03  0.27457835042E+03 0.  0.
         25    1    3    3    0    0  0.19382467302E+02  0.55516137059E+02 -0.21499194755E+03  0.25313881374E+03  0.12000000000E+03 0.  0.
         25    1    3    3    0    0 -0.19382467302E+02 -0.55516137059E+02 -0.11634067427E+03  0.17718034316E+03  0.12000000000E+03 0.  0.
<mgrwt>
<rscale>  0 0.27457835E+03</rscale>
<asrwt>0</asrwt>
<pdfrwt beam="1">  1        2 0.58588599E-01 0.27457835E+03</pdfrwt>
<pdfrwt beam="2">  1       -2 0.76143487E-02 0.27457835E+03</pdfrwt>
<totfact> 0.85496354E+03</totfact>
</mgrwt>
</event>
<event>
 5    1  0.1140254E+001  0.2754442E+03  0.7818608E-02  0.1098204E+00
          2   -1    0    0  501    0  0.00000000000E+00  0.00000000000E+00  0.10539586050E+04  0.10539586050E+04  0.00000000000E+00 0.  1.
         -2   -1    0    0    0  501 -0.00000000000E+00 -0.00000000000E+00 -0.17996326708E+02  0.17996326708E+02  0.00000000000E+00 0.  1.
         35    2    1    2    0    0  0.00000000000E+00  0.00000000000E+00  0.10359622782E+04  0.10719549317E+04  0.27544424765E+03 0.  0.
         25    1    3    3    0    0  0.23928356592E+02  0.48074971164E+02  0.35829613967E+03  0.38165415340E+03  0.12000000000E+03 0.  0.
         25    1    3    3    0    0 -0.23928356592E+02 -0.48074971164E+02  0.67766613857E+03  0.69030077826E+03  0.12000000000E+03 0.  0.
<mgrwt>
<rscale>  0 0.27544425E+03</rscale>
<asrwt>0</asrwt>
<pdfrwt beam="1">  1        2 0.16214743E+00 0.27544425E+03</pdfrwt>
<pdfrwt beam="2">  1       -2 0.27686665E-02 0.27544425E+03</pdfrwt>
<totfact> 0.11596294E+04</totfact>
</mgrwt>
</event>
<event>
 5    1  0.1140254E+001  0.2750109E+03  0.7818608E-02  0.1098446E+00
          2   -1    0    0  501    0  0.00000000000E+00  0.00000000000E+00  0.12889834124E+03  0.12889834124E+03  0.00000000000E+00 0. -1.
         -2   -1    0    0    0  501 -0.00000000000E+00 -0.00000000000E+00 -0.14668726202E+03  0.14668726202E+03  0.00000000000E+00 0. -1.
         35    2    1    2    0    0  0.00000000000E+00  0.00000000000E+00 -0.17788920778E+02  0.27558560326E+03  0.27501087074E+03 0.  0.
         25    1    3    3    0    0 -0.63110160759E+02  0.22781233115E+02 -0.64670473669E+01  0.13763611327E+03  0.12000000000E+03 0.  0.
         25    1    3    3    0    0  0.63110160759E+02 -0.22781233115E+02 -0.11321873412E+02  0.13794949000E+03  0.12000000000E+03 0.  0.
<mgrwt>
<rscale>  0 0.27501087E+03</rscale>
<asrwt>0</asrwt>
<pdfrwt beam="1">  1        2 0.19830514E-01 0.27501087E+03</pdfrwt>
<pdfrwt beam="2">  1       -2 0.22567271E-01 0.27501087E+03</pdfrwt>
<totfact> 0.47458115E+03</totfact>
</mgrwt>
</event>
<event>
 5    1  0.1140254E+001  0.2752238E+03  0.7818608E-02  0.1098327E+00
         -1   -1    0    0    0  501 -0.00000000000E+00  0.00000000000E+00  0.29532682078E+02  0.29532682078E+02  0.00000000000E+00 0. -1.
          1   -1    0    0  501    0  0.00000000000E+00 -0.00000000000E+00 -0.64122296104E+03  0.64122296104E+03  0.00000000000E+00 0. -1.
         35    2    1    2    0    0  0.00000000000E+00  0.00000000000E+00 -0.61169027896E+03  0.67075564312E+03  0.27522379148E+03 0.  0.
         25    1    3    3    0    0  0.22175661455E+01  0.63059004462E+02 -0.24839513807E+03  0.28298674927E+03  0.12000000000E+03 0.  0.
         25    1    3    3    0    0 -0.22175661455E+01 -0.63059004462E+02 -0.36329514089E+03  0.38776889385E+03  0.12000000000E+03 0.  0.
<mgrwt>
<rscale>  0 0.27522379E+03</rscale>
<asrwt>0</asrwt>
<pdfrwt beam="1">  1        1 0.98649687E-01 0.27522379E+03</pdfrwt>
<pdfrwt beam="2">  1       -1 0.45434895E-02 0.27522379E+03</pdfrwt>
<totfact> 0.64851524E+03</totfact>
</mgrwt>
</event>
<event>
 5    1  0.1140254E+001  0.2883605E+03  0.7818608E-02  0.1091208E+00
         -2   -1    0    0    0  501 -0.00000000000E+00  0.00000000000E+00  0.39974194301E+02  0.39974194301E+02  0.00000000000E+00 0. -1.
          2   -1    0    0  501    0  0.00000000000E+00 -0.00000000000E+00 -0.52003393975E+03  0.52003393975E+03  0.00000000000E+00 0. -1.
         35    2    1    2    0    0  0.00000000000E+00  0.00000000000E+00 -0.48005974545E+03  0.56000813405E+03  0.28836045326E+03 0.  0.
         25    1    3    3    0    0  0.19668024746E+02 -0.53923382874E+02 -0.34804260315E+03  0.37259658617E+03  0.12000000000E+03 0.  0.
         25    1    3    3    0    0 -0.19668024746E+02  0.53923382874E+02 -0.13201714230E+03  0.18741154788E+03  0.12000000000E+03 0.  0.
<mgrwt>
<rscale>  0 0.28836045E+03</rscale>
<asrwt>0</asrwt>
<pdfrwt beam="1">  1        2 0.80005217E-01 0.28836045E+03</pdfrwt>
<pdfrwt beam="2">  1       -2 0.61498764E-02 0.28836045E+03</pdfrwt>
<totfact> 0.84552946E+03</totfact>
</mgrwt>
</event>
<event>
 5    1  0.1140254E+001  0.2747180E+03  0.7818608E-02  0.1098609E+00
         -1   -1    0    0    0  501 -0.00000000000E+00  0.00000000000E+00  0.41646896046E+03  0.41646896046E+03  0.00000000000E+00 0.  1.
          1   -1    0    0  501    0  0.00000000000E+00 -0.00000000000E+00 -0.45303472901E+02  0.45303472901E+02  0.00000000000E+00 0.  1.
         35    2    1    2    0    0  0.00000000000E+00  0.00000000000E+00  0.37116548756E+03  0.46177243336E+03  0.27471796639E+03 0.  0.
         25    1    3    3    0    0 -0.53709762874E+02 -0.38711373192E+02  0.20100502269E+03  0.24328240419E+03  0.12000000000E+03 0.  0.
         25    1    3    3    0    0  0.53709762874E+02  0.38711373192E+02  0.17016046487E+03  0.21849002917E+03  0.12000000000E+03 0.  0.
<mgrwt>
<rscale>  0 0.27471797E+03</rscale>
<asrwt>0</asrwt>
<pdfrwt beam="1">  1        1 0.69697653E-02 0.27471797E+03</pdfrwt>
<pdfrwt beam="2">  1       -1 0.64072145E-01 0.27471797E+03</pdfrwt>
<totfact> 0.26786232E+03</totfact>
</mgrwt>
</event>
<event>
 5    1  0.1140254E+001  0.2754767E+03  0.7818608E-02  0.1098185E+00
         -1   -1    0    0    0  501 -0.00000000000E+00  0.00000000000E+00  0.47990863190E+02  0.47990863190E+02  0.00000000000E+00 0. -1.
          1   -1    0    0  501    0  0.00000000000E+00 -0.00000000000E+00 -0.39532204726E+03  0.39532204726E+03  0.00000000000E+00 0. -1.
         35    2    1    2    0    0  0.00000000000E+00  0.00000000000E+00 -0.34733118407E+03  0.44331291045E+03  0.27547665081E+03 0.  0.
         25    1    3    3    0    0  0.16344046650E+02 -0.65199342548E+02 -0.18546532019E+03  0.23090142296E+03  0.12000000000E+03 0.  0.
         25    1    3    3    0    0 -0.16344046650E+02  0.65199342548E+02 -0.16186586387E+03  0.21241148749E+03  0.12000000000E+03 0.  0.
<mgrwt>
<rscale>  0 0.27547665E+03</rscale>
<asrwt>0</asrwt>
<pdfrwt beam="1">  1        1 0.60818780E-01 0.27547665E+03</pdfrwt>
<pdfrwt beam="2">  1       -1 0.73832094E-02 0.27547665E+03</pdfrwt>
<totfact> 0.59569046E+03</totfact>
</mgrwt>
</event>
<event>
 5    1  0.1140254E+001  0.2762360E+03  0.7818608E-02  0.1097763E+00
         -2   -1    0    0    0  501 -0.00000000000E+00  0.00000000000E+00  0.36002718560E+02  0.36002718560E+02  0.00000000000E+00 0.  1.
          2   -1    0    0  501    0  0.00000000000E+00 -0.00000000000E+00 -0.52986499236E+03  0.52986499236E+03  0.00000000000E+00 0.  1.
         35    2    1    2    0    0  0.00000000000E+00  0.00000000000E+00 -0.49386227380E+03  0.56586771092E+03  0.27623598748E+03 0.  0.
         25    1    3    3    0    0 -0.35986727598E+02  0.58096163655E+02 -0.25210186976E+03  0.28744662379E+03  0.12000000000E+03 0.  0.
         25    1    3    3    0    0  0.35986727598E+02 -0.58096163655E+02 -0.24176040404E+03  0.27842108713E+03  0.12000000000E+03 0.  0.
<mgrwt>
<rscale>  0 0.27623599E+03</rscale>
<asrwt>0</asrwt>
<pdfrwt beam="1">  1        2 0.81517684E-01 0.27623599E+03</pdfrwt>
<pdfrwt beam="2">  1       -2 0.55388802E-02 0.27623599E+03</pdfrwt>
<totfact> 0.97037853E+03</totfact>
</mgrwt>
</event>
<event>
 5    1  0.1140254E+001  0.2722027E+03  0.7818608E-02  0.1100026E+00
         -2   -1    0    0    0  501 -0.00000000000E+00  0.00000000000E+00  0.17868397385E+02  0.17868397385E+02  0.00000000000E+00 0. -1.
          2   -1    0    0  501    0  0.00000000000E+00 -0.00000000000E+00 -0.10366669330E+04  0.10366669330E+04  0.00000000000E+00 0. -1.
         35    2    1    2    0    0  0.00000000000E+00  0.00000000000E+00 -0.10187985356E+04  0.10545353304E+04  0.27220269443E+03 0.  0.
         25    1    3    3    0    0 -0.16415377038E+02  0.51420362272E+02 -0.37463588935E+03  0.39707123775E+03  0.12000000000E+03 0.  0.
         25    1    3    3    0    0  0.16415377038E+02 -0.51420362272E+02 -0.64416264625E+03  0.65746409262E+03  0.12000000000E+03 0.  0.
<mgrwt>
<rscale>  0 0.27220269E+03</rscale>
<asrwt>0</asrwt>
<pdfrwt beam="1">  1        2 0.15948717E+00 0.27220269E+03</pdfrwt>
<pdfrwt beam="2">  1       -2 0.27489851E-02 0.27220269E+03</pdfrwt>
<totfact> 0.11998735E+04</totfact>
</mgrwt>
</event>
<event>
 5    1  0.1140254E+001  0.2754491E+03  0.7818608E-02  0.1098201E+00
         -2   -1    0    0    0  501 -0.00000000000E+00  0.00000000000E+00  0.36907248167E+03  0.36907248167E+03  0.00000000000E+00 0.  1.
          2   -1    0    0  501    0  0.00000000000E+00 -0.00000000000E+00 -0.51393827471E+02  0.51393827471E+02  0.00000000000E+00 0.  1.
         35    2    1    2    0    0  0.00000000000E+00  0.00000000000E+00  0.31767865420E+03  0.42046630914E+03  0.27544906932E+03 0.  0.
         25    1    3    3    0    0  0.12606715502E+02 -0.66337028949E+02  0.15438453804E+03  0.20686738813E+03  0.12000000000E+03 0.  0.
         25    1    3    3    0    0 -0.12606715502E+02  0.66337028949E+02  0.16329411616E+03  0.21359892101E+03  0.12000000000E+03 0.  0.
<mgrwt>
<rscale>  0 0.27544907E+03</rscale>
<asrwt>0</asrwt>
<pdfrwt beam="1">  1        2 0.79067429E-02 0.27544907E+03</pdfrwt>
<pdfrwt beam="2">  1       -2 0.56780380E-01 0.27544907E+03</pdfrwt>
<totfact> 0.25517654E+03</totfact>
</mgrwt>
</event>
<event>
 5    1  0.1140254E+001  0.2777270E+03  0.7818608E-02  0.1096937E+00
          2   -1    0    0  501    0  0.00000000000E+00  0.00000000000E+00  0.24748009169E+03  0.24748009169E+03  0.00000000000E+00 0.  1.
         -2   -1    0    0    0  501 -0.00000000000E+00 -0.00000000000E+00 -0.77917685267E+02  0.77917685267E+02  0.00000000000E+00 0.  1.
         35    2    1    2    0    0  0.00000000000E+00  0.00000000000E+00  0.16956240642E+03  0.32539777695E+03  0.27772703069E+03 0.  0.
         25    1    3    3    0    0 -0.32650427867E+01  0.39738868573E+02  0.17544258465E+02  0.12766220735E+03  0.12000000000E+03 0.  0.
         25    1    3    3    0    0  0.32650427867E+01 -0.39738868573E+02  0.15201814795E+03  0.19773556960E+03  0.12000000000E+03 0.  0.
<mgrwt>
<rscale>  0 0.27772703E+03</rscale>
<asrwt>0</asrwt>
<pdfrwt beam="1">  1        2 0.38073860E-01 0.27772703E+03</pdfrwt>
<pdfrwt beam="2">  1       -2 0.11987336E-01 0.27772703E+03</pdfrwt>
<totfact> 0.66319814E+03</totfact>
</mgrwt>
</event>
<event>
 5    1  0.1140254E+001  0.2759920E+03  0.7818608E-02  0.1097898E+00
          2   -1    0    0  501    0  0.00000000000E+00  0.00000000000E+00  0.52293869754E+03  0.52293869754E+03  0.00000000000E+00 0. -1.
         -2   -1    0    0    0  501 -0.00000000000E+00 -0.00000000000E+00 -0.36415154163E+02  0.36415154163E+02  0.00000000000E+00 0. -1.
         35    2    1    2    0    0  0.00000000000E+00  0.00000000000E+00  0.48652354338E+03  0.55935385170E+03  0.27599198024E+03 0.  0.
         25    1    3    3    0    0 -0.66040572734E+02 -0.15306448783E+02  0.22933068636E+03  0.26755972853E+03  0.12000000000E+03 0.  0.
         25    1    3    3    0    0  0.66040572734E+02  0.15306448783E+02  0.25719285701E+03  0.29179412318E+03  0.12000000000E+03 0.  0.
<mgrwt>
<rscale>  0 0.27599198E+03</rscale>
<asrwt>0</asrwt>
<pdfrwt beam="1">  1        2 0.80452102E-01 0.27599198E+03</pdfrwt>
<pdfrwt beam="2">  1       -2 0.56023318E-02 0.27599198E+03</pdfrwt>
<totfact> 0.96787916E+03</totfact>
</mgrwt>
</event>
<event>
 5    1  0.1140254E+001  0.2753002E+03  0.7818608E-02  0.1098284E+00
         -2   -1    0    0    0  501 -0.00000000000E+00  0.00000000000E+00  0.11839018663E+03  0.11839018663E+03  0.00000000000E+00 0. -1.
          2   -1    0    0  501    0  0.00000000000E+00 -0.00000000000E+00 -0.16004322937E+03  0.16004322937E+03  0.00000000000E+00 0. -1.
         35    2    1    2    0    0  0.00000000000E+00  0.00000000000E+00 -0.41653042739E+02  0.27843341600E+03  0.27530018375E+03 0.  0.
         25    1    3    3    0    0 -0.38412246908E+02 -0.44912319610E+02  0.12022830497E+02  0.13430251531E+03  0.12000000000E+03 0.  0.
         25    1    3    3    0    0  0.38412246908E+02  0.44912319610E+02 -0.53675873237E+02  0.14413090069E+03  0.12000000000E+03 0.  0.
<mgrwt>
<rscale>  0 0.27530018E+03</rscale>
<asrwt>0</asrwt>
<pdfrwt beam="1">  1        2 0.24622035E-01 0.27530018E+03</pdfrwt>
<pdfrwt beam="2">  1       -2 0.18213875E-01 0.27530018E+03</pdfrwt>
<totfact> 0.53630503E+03</totfact>
</mgrwt>
</event>
<event>
 5    1  0.1140254E+001  0.2764360E+03  0.7818608E-02  0.1097652E+00
          2   -1    0    0  501    0  0.00000000000E+00  0.00000000000E+00  0.11340966483E+02  0.11340966483E+02  0.00000000000E+00 0.  1.
         -2   -1    0    0    0  501 -0.00000000000E+00 -0.00000000000E+00 -0.16845316878E+04  0.16845316878E+04  0.00000000000E+00 0.  1.
         35    2    1    2    0    0  0.00000000000E+00  0.00000000000E+00 -0.16731907213E+04  0.16958726542E+04  0.27643601365E+03 0.  0.
         25    1    3    3    0    0  0.65812005975E+01  0.31766060765E+02 -0.12073217072E+04  0.12137042883E+04  0.12000000000E+03 0.  0.
         25    1    3    3    0    0 -0.65812005975E+01 -0.31766060765E+02 -0.46586901412E+03  0.48216836596E+03  0.12000000000E+03 0.  0.
<mgrwt>
<rscale>  0 0.27643601E+03</rscale>
<asrwt>0</asrwt>
<pdfrwt beam="1">  1        2 0.17447648E-02 0.27643601E+03</pdfrwt>
<pdfrwt beam="2">  1       -2 0.25915862E+00 0.27643601E+03</pdfrwt>
<totfact> 0.41955468E+02</totfact>
</mgrwt>
</event>
<event>
 5    1  0.1140254E+001  0.2742559E+03  0.7818608E-02  0.1098868E+00
          1   -1    0    0  501    0  0.00000000000E+00  0.00000000000E+00  0.24416060853E+04  0.24416060853E+04  0.00000000000E+00 0.  1.
         -1   -1    0    0    0  501 -0.00000000000E+00 -0.00000000000E+00 -0.77015192631E+01  0.77015192631E+01  0.00000000000E+00 0.  1.
         35    2    1    2    0    0  0.00000000000E+00  0.00000000000E+00  0.24339045660E+04  0.24493076045E+04  0.27425591187E+03 0.  0.
         25    1    3    3    0    0  0.59517901926E+02 -0.26540718976E+02  0.11049486246E+04  0.11133545048E+04  0.12000000000E+03 0.  0.
         25    1    3    3    0    0 -0.59517901926E+02  0.26540718976E+02  0.13289559414E+04  0.13359530997E+04  0.12000000000E+03 0.  0.
<mgrwt>
<rscale>  0 0.27425591E+03</rscale>
<asrwt>0</asrwt>
<pdfrwt beam="1">  1        1 0.37563109E+00 0.27425591E+03</pdfrwt>
<pdfrwt beam="2">  1       -1 0.11848511E-02 0.27425591E+03</pdfrwt>
<totfact> 0.25502879E+03</totfact>
</mgrwt>
</event>
<event>
 5    1  0.1140254E+001  0.2752628E+03  0.7818608E-02  0.1098305E+00
          1   -1    0    0  501    0  0.00000000000E+00  0.00000000000E+00  0.12213635641E+03  0.12213635641E+03  0.00000000000E+00 0. -1.
         -1   -1    0    0    0  501 -0.00000000000E+00 -0.00000000000E+00 -0.15509220548E+03  0.15509220548E+03  0.00000000000E+00 0. -1.
         35    2    1    2    0    0  0.00000000000E+00  0.00000000000E+00 -0.32955849072E+02  0.27722856189E+03  0.27526276091E+03 0.  0.
         25    1    3    3    0    0 -0.98821761107E+01  0.44836047245E+02 -0.66170622525E+02  0.14452155487E+03  0.12000000000E+03 0.  0.
         25    1    3    3    0    0  0.98821761107E+01 -0.44836047245E+02  0.33214773453E+02  0.13270700702E+03  0.12000000000E+03 0.  0.
<mgrwt>
<rscale>  0 0.27526276E+03</rscale>
<asrwt>0</asrwt>
<pdfrwt beam="1">  1        1 0.18790209E-01 0.27526276E+03</pdfrwt>
<pdfrwt beam="2">  1       -1 0.23860339E-01 0.27526276E+03</pdfrwt>
<totfact> 0.41457221E+03</totfact>
</mgrwt>
</event>
<event>
 5    1  0.1140254E+001  0.2755105E+03  0.7818608E-02  0.1098167E+00
          1   -1    0    0  501    0  0.00000000000E+00  0.00000000000E+00  0.19656512898E+04  0.19656512898E+04  0.00000000000E+00 0. -1.
         -1   -1    0    0    0  501 -0.00000000000E+00 -0.00000000000E+00 -0.96540594661E+01  0.96540594661E+01  0.00000000000E+00 0. -1.
         35    2    1    2    0    0  0.00000000000E+00  0.00000000000E+00  0.19559972304E+04  0.19753053493E+04  0.27551054021E+03 0.  0.
         25    1    3    3    0    0 -0.60761355248E+02 -0.29488026823E+02  0.10057927235E+04  0.10151751025E+04  0.12000000000E+03 0.  0.
         25    1    3    3    0    0  0.60761355248E+02  0.29488026823E+02  0.95020450685E+03  0.96013024682E+03  0.12000000000E+03 0.  0.
<mgrwt>
<rscale>  0 0.27551054E+03</rscale>
<asrwt>0</asrwt>
<pdfrwt beam="1">  1        1 0.30240757E+00 0.27551054E+03</pdfrwt>
<pdfrwt beam="2">  1       -1 0.14852415E-02 0.27551054E+03</pdfrwt>
<totfact> 0.37606829E+03</totfact>
</mgrwt>
</event>
<event>
 5    1  0.1140254E+001  0.2792937E+03  0.7818608E-02  0.1096075E+00
         -2   -1    0    0    0  501 -0.00000000000E+00  0.00000000000E+00  0.60925449655E+02  0.60925449655E+02  0.00000000000E+00 0. -1.
          2   -1    0    0  501    0  0.00000000000E+00 -0.00000000000E+00 -0.32008373780E+03  0.32008373780E+03  0.00000000000E+00 0. -1.
         35    2    1    2    0    0  0.00000000000E+00  0.00000000000E+00 -0.25915828815E+03  0.38100918746E+03  0.27929372104E+03 0.  0.
         25    1    3    3    0    0  0.48253622409E+02  0.26004537334E+02 -0.67114852379E+02  0.14801706472E+03  0.12000000000E+03 0.  0.
         25    1    3    3    0    0 -0.48253622409E+02 -0.26004537334E+02 -0.19204343577E+03  0.23299212274E+03  0.12000000000E+03 0.  0.
<mgrwt>
<rscale>  0 0.27929372E+03</rscale>
<asrwt>0</asrwt>
<pdfrwt beam="1">  1        2 0.49243653E-01 0.27929372E+03</pdfrwt>
<pdfrwt beam="2">  1       -2 0.93731459E-02 0.27929372E+03</pdfrwt>
<totfact> 0.74491630E+03</totfact>
</mgrwt>
</event>
<event>
 5    1  0.1140254E+001  0.2744358E+03  0.7818608E-02  0.1098767E+00
          2   -1    0    0  501    0  0.00000000000E+00  0.00000000000E+00  0.19638739692E+03  0.19638739692E+03  0.00000000000E+00 0. -1.
         -2   -1    0    0    0  501 -0.00000000000E+00 -0.00000000000E+00 -0.95875550043E+02  0.95875550043E+02  0.00000000000E+00 0. -1.
         35    2    1    2    0    0  0.00000000000E+00  0.00000000000E+00  0.10051184687E+03  0.29226294696E+03  0.27443578266E+03 0.  0.
         25    1    3    3    0    0 -0.30771199118E+02  0.48296148169E+02  0.86360480473E+02  0.15854815423E+03  0.12000000000E+03 0.  0.
         25    1    3    3    0    0  0.30771199118E+02 -0.48296148169E+02  0.14151366402E+02  0.13371479273E+03  0.12000000000E+03 0.  0.
<mgrwt>
<rscale>  0 0.27443578E+03</rscale>
<asrwt>0</asrwt>
<pdfrwt beam="1">  1        2 0.30213446E-01 0.27443578E+03</pdfrwt>
<pdfrwt beam="2">  1       -2 0.14750085E-01 0.27443578E+03</pdfrwt>
<totfact> 0.60785007E+03</totfact>
</mgrwt>
</event>
<event>
 5    1  0.1140254E+001  0.2774511E+03  0.7818608E-02  0.1097089E+00
          2   -1    0    0  501    0  0.00000000000E+00  0.00000000000E+00  0.10105041781E+04  0.10105041781E+04  0.00000000000E+00 0. -1.
         -2   -1    0    0    0  501 -0.00000000000E+00 -0.00000000000E+00 -0.19044734533E+02  0.19044734533E+02  0.00000000000E+00 0. -1.
         35    2    1    2    0    0  0.00000000000E+00  0.00000000000E+00  0.99145944356E+03  0.10295489126E+04  0.27745114032E+03 0.  0.
         25    1    3    3    0    0 -0.35911632556E+02  0.41420744570E+02  0.33658007120E+03  0.36151274910E+03  0.12000000000E+03 0.  0.
         25    1    3    3    0    0  0.35911632556E+02 -0.41420744570E+02  0.65487937236E+03  0.66803616353E+03  0.12000000000E+03 0.  0.
<mgrwt>
<rscale>  0 0.27745114E+03</rscale>
<asrwt>0</asrwt>
<pdfrwt beam="1">  1        2 0.15546214E+00 0.27745114E+03</pdfrwt>
<pdfrwt beam="2">  1       -2 0.29299599E-02 0.27745114E+03</pdfrwt>
<totfact> 0.11327052E+04</totfact>
</mgrwt>
</event>
<event>
 5    1  0.1140254E+001  0.2742415E+03  0.7818608E-02  0.1098876E+00
          1   -1    0    0  501    0  0.00000000000E+00  0.00000000000E+00  0.35647187968E+03  0.35647187968E+03  0.00000000000E+00 0. -1.
         -1   -1    0    0    0  501 -0.00000000000E+00 -0.00000000000E+00 -0.52744985608E+02  0.52744985608E+02  0.00000000000E+00 0. -1.
         35    2    1    2    0    0  0.00000000000E+00  0.00000000000E+00  0.30372689407E+03  0.40921686529E+03  0.27424152978E+03 0.  0.
         25    1    3    3    0    0  0.23187051241E+02 -0.48095679714E+02  0.21063457904E+03  0.24822924815E+03  0.12000000000E+03 0.  0.
         25    1    3    3    0    0 -0.23187051241E+02  0.48095679714E+02  0.93092315038E+02  0.16098761714E+03  0.12000000000E+03 0.  0.
<mgrwt>
<rscale>  0 0.27424153E+03</rscale>
<asrwt>0</asrwt>
<pdfrwt beam="1">  1        1 0.54841826E-01 0.27424153E+03</pdfrwt>
<pdfrwt beam="2">  1       -1 0.81146134E-02 0.27424153E+03</pdfrwt>
<totfact> 0.58840738E+03</totfact>
</mgrwt>
</event>
<event>
 5    1  0.1140254E+001  0.2735616E+03  0.7818608E-02  0.1099258E+00
          1   -1    0    0  501    0  0.00000000000E+00  0.00000000000E+00  0.11121928476E+04  0.11121928476E+04  0.00000000000E+00 0.  1.
         -1   -1    0    0    0  501 -0.00000000000E+00 -0.00000000000E+00 -0.16821714057E+02  0.16821714057E+02  0.00000000000E+00 0.  1.
         35    2    1    2    0    0  0.00000000000E+00  0.00000000000E+00  0.10953711336E+04  0.11290145617E+04  0.27356162055E+03 0.  0.
         25    1    3    3    0    0 -0.38710385847E+02 -0.52977610380E+02  0.53956778601E+03  0.55663140126E+03  0.12000000000E+03 0.  0.
         25    1    3    3    0    0  0.38710385847E+02  0.52977610380E+02  0.55580334757E+03  0.57238316043E+03  0.12000000000E+03 0.  0.
<mgrwt>
<rscale>  0 0.27356162E+03</rscale>
<asrwt>0</asrwt>
<pdfrwt beam="1">  1        1 0.17110653E+00 0.27356162E+03</pdfrwt>
<pdfrwt beam="2">  1       -1 0.25879569E-02 0.27356162E+03</pdfrwt>
<totfact> 0.62016005E+03</totfact>
</mgrwt>
</event>
<event>
 5    1  0.1140254E+001  0.2742179E+03  0.7818608E-02  0.1098890E+00
          2   -1    0    0  501    0  0.00000000000E+00  0.00000000000E+00  0.22727242593E+02  0.22727242593E+02  0.00000000000E+00 0.  1.
         -2   -1    0    0    0  501 -0.00000000000E+00 -0.00000000000E+00 -0.82715105136E+03  0.82715105136E+03  0.00000000000E+00 0.  1.
         35    2    1    2    0    0  0.00000000000E+00  0.00000000000E+00 -0.80442380877E+03  0.84987829395E+03  0.27421788859E+03 0.  0.
         25    1    3    3    0    0  0.48091160988E+02 -0.36498926000E+01 -0.54331536899E+03  0.55849590120E+03  0.12000000000E+03 0.  0.
         25    1    3    3    0    0 -0.48091160988E+02  0.36498926000E+01 -0.26110843978E+03  0.29138239275E+03  0.12000000000E+03 0.  0.
<mgrwt>
<rscale>  0 0.27421789E+03</rscale>
<asrwt>0</asrwt>
<pdfrwt beam="1">  1        2 0.34964988E-02 0.27421789E+03</pdfrwt>
<pdfrwt beam="2">  1       -2 0.12725401E+00 0.27421789E+03</pdfrwt>
<totfact> 0.12222056E+03</totfact>
</mgrwt>
</event>
<event>
 5    1  0.1140254E+001  0.2745178E+03  0.7818608E-02  0.1098721E+00
          2   -1    0    0  501    0  0.00000000000E+00  0.00000000000E+00  0.23639502077E+03  0.23639502077E+03  0.00000000000E+00 0. -1.
         -2   -1    0    0    0  501 -0.00000000000E+00 -0.00000000000E+00 -0.79697131673E+02  0.79697131673E+02  0.00000000000E+00 0. -1.
         35    2    1    2    0    0  0.00000000000E+00  0.00000000000E+00  0.15669788910E+03  0.31609215245E+03  0.27451779613E+03 0.  0.
         25    1    3    3    0    0  0.37163827108E+02 -0.29383268572E+02  0.13230097732E+03  0.18479197795E+03  0.12000000000E+03 0.  0.
         25    1    3    3    0    0 -0.37163827108E+02  0.29383268572E+02  0.24396911784E+02  0.13130017449E+03  0.12000000000E+03 0.  0.
<mgrwt>
<rscale>  0 0.27451780E+03</rscale>
<asrwt>0</asrwt>
<pdfrwt beam="1">  1        2 0.36368465E-01 0.27451780E+03</pdfrwt>
<pdfrwt beam="2">  1       -2 0.12261097E-01 0.27451780E+03</pdfrwt>
<totfact> 0.67166047E+03</totfact>
</mgrwt>
</event>
<event>
 5    1  0.1140254E+001  0.2756248E+03  0.7818608E-02  0.1098103E+00
         -1   -1    0    0    0  501 -0.00000000000E+00  0.00000000000E+00  0.24344861812E+03  0.24344861812E+03  0.00000000000E+00 0.  1.
          1   -1    0    0  501    0  0.00000000000E+00 -0.00000000000E+00 -0.78013397609E+02  0.78013397609E+02  0.00000000000E+00 0.  1.
         35    2    1    2    0    0  0.00000000000E+00  0.00000000000E+00  0.16543522051E+03  0.32146201573E+03  0.27562477278E+03 0.  0.
         25    1    3    3    0    0  0.22133666655E+02  0.15281233367E+02  0.15526164695E+03  0.19806462154E+03  0.12000000000E+03 0.  0.
         25    1    3    3    0    0 -0.22133666655E+02 -0.15281233367E+02  0.10173573558E+02  0.12339739419E+03  0.12000000000E+03 0.  0.
<mgrwt>
<rscale>  0 0.27562477E+03</rscale>
<asrwt>0</asrwt>
<pdfrwt beam="1">  1        1 0.12002061E-01 0.27562477E+03</pdfrwt>
<pdfrwt beam="2">  1       -1 0.37453633E-01 0.27562477E+03</pdfrwt>
<totfact> 0.34655784E+03</totfact>
</mgrwt>
</event>
<event>
 5    1  0.1140254E+001  0.2756420E+03  0.7818608E-02  0.1098093E+00
         -1   -1    0    0    0  501 -0.00000000000E+00  0.00000000000E+00  0.61270228112E+02  0.61270228112E+02  0.00000000000E+00 0.  1.
          1   -1    0    0  501    0  0.00000000000E+00 -0.00000000000E+00 -0.31001408961E+03  0.31001408961E+03  0.00000000000E+00 0.  1.
         35    2    1    2    0    0  0.00000000000E+00  0.00000000000E+00 -0.24874386150E+03  0.37128431772E+03  0.27564204315E+03 0.  0.
         25    1    3    3    0    0  0.16556279944E+02 -0.42434110291E+02 -0.19198804390E+03  0.23094192586E+03  0.12000000000E+03 0.  0.
         25    1    3    3    0    0 -0.16556279944E+02  0.42434110291E+02 -0.56755817604E+02  0.14034239186E+03  0.12000000000E+03 0.  0.
<mgrwt>
<rscale>  0 0.27564204E+03</rscale>
<asrwt>0</asrwt>
<pdfrwt beam="1">  1        1 0.47694477E-01 0.27564204E+03</pdfrwt>
<pdfrwt beam="2">  1       -1 0.94261887E-02 0.27564204E+03</pdfrwt>
<totfact> 0.55791958E+03</totfact>
</mgrwt>
</event>
<event>
 5    1  0.1140254E+001  0.2745996E+03  0.7818608E-02  0.1098676E+00
          2   -1    0    0  501    0  0.00000000000E+00  0.00000000000E+00  0.10204800036E+03  0.10204800036E+03  0.00000000000E+00 0.  1.
         -2   -1    0    0    0  501 -0.00000000000E+00 -0.00000000000E+00 -0.18472916051E+03  0.18472916051E+03  0.00000000000E+00 0.  1.
         35    2    1    2    0    0  0.00000000000E+00  0.00000000000E+00 -0.82681160151E+02  0.28677716087E+03  0.27459964631E+03 0.  0.
         25    1    3    3    0    0  0.25849654971E+01 -0.62189713688E+02 -0.16254541781E+02  0.13615598651E+03  0.12000000000E+03 0.  0.
         25    1    3    3    0    0 -0.25849654971E+01  0.62189713688E+02 -0.66426618370E+02  0.15062117435E+03  0.12000000000E+03 0.  0.
<mgrwt>
<rscale>  0 0.27459965E+03</rscale>
<asrwt>0</asrwt>
<pdfrwt beam="1">  1        2 0.15699693E-01 0.27459965E+03</pdfrwt>
<pdfrwt beam="2">  1       -2 0.28419870E-01 0.27459965E+03</pdfrwt>
<totfact> 0.41413152E+03</totfact>
</mgrwt>
</event>
<event>
 5    1  0.1140254E+001  0.2825996E+03  0.7818608E-02  0.1094278E+00
         -2   -1    0    0    0  501 -0.00000000000E+00  0.00000000000E+00  0.57037011016E+02  0.57037011016E+02  0.00000000000E+00 0.  1.
          2   -1    0    0  501    0  0.00000000000E+00 -0.00000000000E+00 -0.35004692687E+03  0.35004692687E+03  0.00000000000E+00 0.  1.
         35    2    1    2    0    0  0.00000000000E+00  0.00000000000E+00 -0.29300991585E+03  0.40708393788E+03  0.28259957837E+03 0.  0.
         25    1    3    3    0    0  0.74373898595E+02  0.76765056703E+00 -0.15485044216E+03  0.20954886188E+03  0.12000000000E+03 0.  0.
         25    1    3    3    0    0 -0.74373898595E+02 -0.76765056703E+00 -0.13815947369E+03  0.19753507600E+03  0.12000000000E+03 0.  0.
<mgrwt>
<rscale>  0 0.28259958E+03</rscale>
<asrwt>0</asrwt>
<pdfrwt beam="1">  1        2 0.53853371E-01 0.28259958E+03</pdfrwt>
<pdfrwt beam="2">  1       -2 0.87749251E-02 0.28259958E+03</pdfrwt>
<totfact> 0.75088787E+03</totfact>
</mgrwt>
</event>
<event>
 5    1  0.1140254E+001  0.2753623E+03  0.7818608E-02  0.1098249E+00
         -2   -1    0    0    0  501 -0.00000000000E+00  0.00000000000E+00  0.23921139729E+02  0.23921139729E+02  0.00000000000E+00 0.  1.
          2   -1    0    0  501    0  0.00000000000E+00 -0.00000000000E+00 -0.79244126455E+03  0.79244126455E+03  0.00000000000E+00 0.  1.
         35    2    1    2    0    0  0.00000000000E+00  0.00000000000E+00 -0.76852012482E+03  0.81636240428E+03  0.27536229384E+03 0.  0.
         25    1    3    3    0    0 -0.50093267599E+02 -0.39396609513E+02 -0.45019813907E+03  0.47025502945E+03  0.12000000000E+03 0.  0.
         25    1    3    3    0    0  0.50093267599E+02  0.39396609513E+02 -0.31832198575E+03  0.34610737483E+03  0.12000000000E+03 0.  0.
<mgrwt>
<rscale>  0 0.27536229E+03</rscale>
<asrwt>0</asrwt>
<pdfrwt beam="1">  1        2 0.12191405E+00 0.27536229E+03</pdfrwt>
<pdfrwt beam="2">  1       -2 0.36801750E-02 0.27536229E+03</pdfrwt>
<totfact> 0.11154294E+04</totfact>
</mgrwt>
</event>
<event>
 5    1  0.1140254E+001  0.2760134E+03  0.7818608E-02  0.1097886E+00
          2   -1    0    0  501    0  0.00000000000E+00  0.00000000000E+00  0.45060861126E+03  0.45060861126E+03  0.00000000000E+00 0. -1.
         -2   -1    0    0    0  501 -0.00000000000E+00 -0.00000000000E+00 -0.42266943205E+02  0.42266943205E+02  0.00000000000E+00 0. -1.
         35    2    1    2    0    0  0.00000000000E+00  0.00000000000E+00  0.40834166805E+03  0.49287555446E+03  0.27601339518E+03 0.  0.
         25    1    3    3    0    0 -0.21545694311E+02  0.27230824403E+01  0.31954128823E+03  0.34202085756E+03  0.12000000000E+03 0.  0.
         25    1    3    3    0    0  0.21545694311E+02 -0.27230824403E+01  0.88800379820E+02  0.15085469690E+03  0.12000000000E+03 0.  0.
<mgrwt>
<rscale>  0 0.27601340E+03</rscale>
<asrwt>0</asrwt>
<pdfrwt beam="1">  1        2 0.69324399E-01 0.27601340E+03</pdfrwt>
<pdfrwt beam="2">  1       -2 0.65026069E-02 0.27601340E+03</pdfrwt>
<totfact> 0.90885741E+03</totfact>
</mgrwt>
</event>
<event>
 5    1  0.1140254E+001  0.2751986E+03  0.7818608E-02  0.1098341E+00
         -1   -1    0    0    0  501 -0.00000000000E+00  0.00000000000E+00  0.16434344067E+02  0.16434344067E+02  0.00000000000E+00 0. -1.
          1   -1    0    0  501    0  0.00000000000E+00 -0.00000000000E+00 -0.11520735842E+04  0.11520735842E+04  0.00000000000E+00 0. -1.
         35    2    1    2    0    0  0.00000000000E+00  0.00000000000E+00 -0.11356392401E+04  0.11685079283E+04  0.27519864588E+03 0.  0.
         25    1    3    3    0    0 -0.41468009715E+02  0.50736261660E+02 -0.50206615415E+03  0.52035006219E+03  0.12000000000E+03 0.  0.
         25    1    3    3    0    0  0.41468009715E+02 -0.50736261660E+02 -0.63357308597E+03  0.64815786606E+03  0.12000000000E+03 0.  0.
<mgrwt>
<rscale>  0 0.27519865E+03</rscale>
<asrwt>0</asrwt>
<pdfrwt beam="1">  1        1 0.17724210E+00 0.27519865E+03</pdfrwt>
<pdfrwt beam="2">  1       -1 0.25283605E-02 0.27519865E+03</pdfrwt>
<totfact> 0.60113402E+03</totfact>
</mgrwt>
</event>
<event>
 5    1  0.1140254E+001  0.2744479E+03  0.7818608E-02  0.1098761E+00
         -1   -1    0    0    0  501 -0.00000000000E+00  0.00000000000E+00  0.93956118860E+03  0.93956118860E+03  0.00000000000E+00 0.  1.
          1   -1    0    0  501    0  0.00000000000E+00 -0.00000000000E+00 -0.20041715778E+02  0.20041715778E+02  0.00000000000E+00 0.  1.
         35    2    1    2    0    0  0.00000000000E+00  0.00000000000E+00  0.91951947282E+03  0.95960290438E+03  0.27444794259E+03 0.  0.
         25    1    3    3    0    0 -0.32264005057E+02  0.66955206872E+01  0.66197089310E+03  0.67356607644E+03  0.12000000000E+03 0.  0.
         25    1    3    3    0    0  0.32264005057E+02 -0.66955206872E+01  0.25754857973E+03  0.28603682794E+03  0.12000000000E+03 0.  0.
<mgrwt>
<rscale>  0 0.27444794E+03</rscale>
<asrwt>0</asrwt>
<pdfrwt beam="1">  1        1 0.30833416E-02 0.27444794E+03</pdfrwt>
<pdfrwt beam="2">  1       -1 0.14454784E+00 0.27444794E+03</pdfrwt>
<totfact> 0.13649371E+03</totfact>
</mgrwt>
</event>
<event>
 5    1  0.1140254E+001  0.2753273E+03  0.7818608E-02  0.1098269E+00
          2   -1    0    0  501    0  0.00000000000E+00  0.00000000000E+00  0.47201085240E+03  0.47201085240E+03  0.00000000000E+00 0.  1.
         -2   -1    0    0    0  501 -0.00000000000E+00 -0.00000000000E+00 -0.40150104501E+02  0.40150104501E+02  0.00000000000E+00 0.  1.
         35    2    1    2    0    0  0.00000000000E+00  0.00000000000E+00  0.43186074790E+03  0.51216095690E+03  0.27532733282E+03 0.  0.
         25    1    3    3    0    0  0.39853024726E+02  0.49301067494E+00  0.11467764753E+03  0.17070286899E+03  0.12000000000E+03 0.  0.
         25    1    3    3    0    0 -0.39853024726E+02 -0.49301067494E+00  0.31718310037E+03  0.34145808791E+03  0.12000000000E+03 0.  0.
<mgrwt>
<rscale>  0 0.27532733E+03</rscale>
<asrwt>0</asrwt>
<pdfrwt beam="1">  1        2 0.72617050E-01 0.27532733E+03</pdfrwt>
<pdfrwt beam="2">  1       -2 0.61769395E-02 0.27532733E+03</pdfrwt>
<totfact> 0.93440977E+03</totfact>
</mgrwt>
</event>
<event>
 5    1  0.1140254E+001  0.2744023E+03  0.7818608E-02  0.1098786E+00
         -2   -1    0    0    0  501 -0.00000000000E+00  0.00000000000E+00  0.36519025837E+02  0.36519025837E+02  0.00000000000E+00 0.  1.
          2   -1    0    0  501    0  0.00000000000E+00 -0.00000000000E+00 -0.51546168887E+03  0.51546168887E+03  0.00000000000E+00 0.  1.
         35    2    1    2    0    0  0.00000000000E+00  0.00000000000E+00 -0.47894266304E+03  0.55198071471E+03  0.27440232312E+03 0.  0.
         25    1    3    3    0    0 -0.27721772972E+02 -0.24987780635E+02 -0.12872008170E+03  0.17989370559E+03  0.12000000000E+03 0.  0.
         25    1    3    3    0    0  0.27721772972E+02  0.24987780635E+02 -0.35022258134E+03  0.37208700912E+03  0.12000000000E+03 0.  0.
<mgrwt>
<rscale>  0 0.27440232E+03</rscale>
<asrwt>0</asrwt>
<pdfrwt beam="1">  1        2 0.79301804E-01 0.27440232E+03</pdfrwt>
<pdfrwt beam="2">  1       -2 0.56183113E-02 0.27440232E+03</pdfrwt>
<totfact> 0.97921627E+03</totfact>
</mgrwt>
</event>
<event>
 5    1  0.1140254E+001  0.2749806E+03  0.7818608E-02  0.1098462E+00
          1   -1    0    0  501    0  0.00000000000E+00  0.00000000000E+00  0.96723374196E+03  0.96723374196E+03  0.00000000000E+00 0. -1.
         -1   -1    0    0    0  501 -0.00000000000E+00 -0.00000000000E+00 -0.19543958749E+02  0.19543958749E+02  0.00000000000E+00 0. -1.
         35    2    1    2    0    0  0.00000000000E+00  0.00000000000E+00  0.94768978321E+03  0.98677770071E+03  0.27498055461E+03 0.  0.
         25    1    3    3    0    0  0.66730706817E+02 -0.69202556608E+01  0.46794921675E+03  0.48772671306E+03  0.12000000000E+03 0.  0.
         25    1    3    3    0    0 -0.66730706817E+02  0.69202556608E+01  0.47974056645E+03  0.49905098765E+03  0.12000000000E+03 0.  0.
<mgrwt>
<rscale>  0 0.27498055E+03</rscale>
<asrwt>0</asrwt>
<pdfrwt beam="1">  1        1 0.14880515E+00 0.27498055E+03</pdfrwt>
<pdfrwt beam="2">  1       -1 0.30067636E-02 0.27498055E+03</pdfrwt>
<totfact> 0.63604048E+03</totfact>
</mgrwt>
</event>
<event>
 5    1  0.1140254E+001  0.2766252E+03  0.7818608E-02  0.1097547E+00
         -1   -1    0    0    0  501 -0.00000000000E+00  0.00000000000E+00  0.96684156030E+02  0.96684156030E+02  0.00000000000E+00 0. -1.
          1   -1    0    0  501    0  0.00000000000E+00 -0.00000000000E+00 -0.19786466472E+03  0.19786466472E+03  0.00000000000E+00 0. -1.
         35    2    1    2    0    0  0.00000000000E+00  0.00000000000E+00 -0.10118050869E+03  0.29454882075E+03  0.27662522023E+03 0.  0.
         25    1    3    3    0    0  0.56465465720E+02 -0.23381115440E+02 -0.84183659166E+02  0.15881408580E+03  0.12000000000E+03 0.  0.
         25    1    3    3    0    0 -0.56465465720E+02  0.23381115440E+02 -0.16996849524E+02  0.13573473495E+03  0.12000000000E+03 0.  0.
<mgrwt>
<rscale>  0 0.27662522E+03</rscale>
<asrwt>0</asrwt>
<pdfrwt beam="1">  1        1 0.30440718E-01 0.27662522E+03</pdfrwt>
<pdfrwt beam="2">  1       -1 0.14874486E-01 0.27662522E+03</pdfrwt>
<totfact> 0.48120922E+03</totfact>
</mgrwt>
</event>
<event>
 5    1  0.1140254E+001  0.2750690E+03  0.7818608E-02  0.1098413E+00
         -1   -1    0    0    0  501 -0.00000000000E+00  0.00000000000E+00  0.13989567064E+02  0.13989567064E+02  0.00000000000E+00 0. -1.
          1   -1    0    0  501    0  0.00000000000E+00 -0.00000000000E+00 -0.13521317636E+04  0.13521317636E+04  0.00000000000E+00 0. -1.
         35    2    1    2    0    0  0.00000000000E+00  0.00000000000E+00 -0.13381421965E+04  0.13661213307E+04  0.27506899488E+03 0.  0.
         25    1    3    3    0    0 -0.59952149856E+02  0.18439546723E+01 -0.81955405460E+03  0.83046162395E+03  0.12000000000E+03 0.  0.
         25    1    3    3    0    0  0.59952149856E+02 -0.18439546723E+01 -0.51858814194E+03  0.53565970672E+03  0.12000000000E+03 0.  0.
<mgrwt>
<rscale>  0 0.27506899E+03</rscale>
<asrwt>0</asrwt>
<pdfrwt beam="1">  1        1 0.20802036E+00 0.27506899E+03</pdfrwt>
<pdfrwt beam="2">  1       -1 0.21522402E-02 0.27506899E+03</pdfrwt>
<totfact> 0.55362877E+03</totfact>
</mgrwt>
</event>
<event>
 4    1  0.1140254E+001  0.3416999E+03  0.7818608E-02  0.1066074E+00
         -1   -1    0    0    0  501 -0.00000000000E+00  0.00000000000E+00  0.39705366045E+03  0.39705366045E+03  0.00000000000E+00 0. -1.
          1   -1    0    0  501    0  0.00000000000E+00 -0.00000000000E+00 -0.73515768329E+02  0.73515768329E+02  0.00000000000E+00 0. -1.
         25    1    1    2    0    0  0.92118642826E+02  0.78830551612E+02  0.14873294951E+03  0.22632187365E+03  0.12000000000E+03 0.  0.
         25    1    1    2    0    0 -0.92118642826E+02 -0.78830551612E+02  0.17480494261E+03  0.24424755513E+03  0.12000000000E+03 0.  0.
<mgrwt>
<rscale>  0 0.34169990E+03</rscale>
<asrwt>0</asrwt>
<pdfrwt beam="1">  1        1 0.11310118E-01 0.34169990E+03</pdfrwt>
<pdfrwt beam="2">  1       -1 0.61085177E-01 0.34169990E+03</pdfrwt>
<totfact> 0.15297815E+03</totfact>
</mgrwt>
</event>
<event>
 5    1  0.1140254E+001  0.2749964E+03  0.7818608E-02  0.1098454E+00
          2   -1    0    0  501    0  0.00000000000E+00  0.00000000000E+00  0.99312424228E+02  0.99312424228E+02  0.00000000000E+00 0.  1.
         -2   -1    0    0    0  501 -0.00000000000E+00 -0.00000000000E+00 -0.19036650328E+03  0.19036650328E+03  0.00000000000E+00 0.  1.
         35    2    1    2    0    0  0.00000000000E+00  0.00000000000E+00 -0.91054079053E+02  0.28967892751E+03  0.27499642858E+03 0.  0.
         25    1    3    3    0    0  0.32199316117E+02  0.39092695879E+02  0.87870556817E+00  0.13025285775E+03  0.12000000000E+03 0.  0.
         25    1    3    3    0    0 -0.32199316117E+02 -0.39092695879E+02 -0.91932784621E+02  0.15942606976E+03  0.12000000000E+03 0.  0.
<mgrwt>
<rscale>  0 0.27499643E+03</rscale>
<asrwt>0</asrwt>
<pdfrwt beam="1">  1        2 0.15278835E-01 0.27499643E+03</pdfrwt>
<pdfrwt beam="2">  1       -2 0.29287154E-01 0.27499643E+03</pdfrwt>
<totfact> 0.40507367E+03</totfact>
</mgrwt>
</event>
<event>
 5    1  0.1140254E+001  0.2746871E+03  0.7818608E-02  0.1098627E+00
          1   -1    0    0  501    0  0.00000000000E+00  0.00000000000E+00  0.18333117376E+04  0.18333117376E+04  0.00000000000E+00 0. -1.
         -1   -1    0    0    0  501 -0.00000000000E+00 -0.00000000000E+00 -0.10289163358E+02  0.10289163358E+02  0.00000000000E+00 0. -1.
         35    2    1    2    0    0  0.00000000000E+00  0.00000000000E+00  0.18230225743E+04  0.18436009010E+04  0.27468705070E+03 0.  0.
         25    1    3    3    0    0  0.61123742654E+02  0.22463381703E+02  0.10116314544E+04  0.10208030735E+04  0.12000000000E+03 0.  0.
         25    1    3    3    0    0 -0.61123742654E+02 -0.22463381703E+02  0.81139111989E+03  0.82279782746E+03  0.12000000000E+03 0.  0.
<mgrwt>
<rscale>  0 0.27468705E+03</rscale>
<asrwt>0</asrwt>
<pdfrwt beam="1">  1        1 0.28204770E+00 0.27468705E+03</pdfrwt>
<pdfrwt beam="2">  1       -1 0.15829497E-02 0.27468705E+03</pdfrwt>
<totfact> 0.41772804E+03</totfact>
</mgrwt>
</event>
<event>
 5    1  0.1140254E+001  0.2684214E+03  0.7818608E-02  0.1102186E+00
         -3   -1    0    0    0  501 -0.00000000000E+00  0.00000000000E+00  0.20605708663E+02  0.20605708663E+02  0.00000000000E+00 0.  1.
          3   -1    0    0  501    0  0.00000000000E+00 -0.00000000000E+00 -0.87415169162E+03  0.87415169162E+03  0.00000000000E+00 0.  1.
         35    2    1    2    0    0  0.00000000000E+00  0.00000000000E+00 -0.85354598295E+03  0.89475740028E+03  0.26842142303E+03 0.  0.
         25    1    3    3    0    0 -0.52009043870E+01  0.28937375954E+02 -0.25202833163E+03  0.28068256283E+03  0.12000000000E+03 0.  0.
         25    1    3    3    0    0  0.52009043870E+01 -0.28937375954E+02 -0.60151765133E+03  0.61407483745E+03  0.12000000000E+03 0.  0.
<mgrwt>
<rscale>  0 0.26842142E+03</rscale>
<asrwt>0</asrwt>
<pdfrwt beam="1">  1        3 0.13448484E+00 0.26842142E+03</pdfrwt>
<pdfrwt beam="2">  1       -3 0.31701099E-02 0.26842142E+03</pdfrwt>
<totfact> 0.53266747E+02</totfact>
</mgrwt>
</event>
<event>
 5    1  0.1140254E+001  0.2766638E+03  0.7818608E-02  0.1097525E+00
          1   -1    0    0  501    0  0.00000000000E+00  0.00000000000E+00  0.77733715840E+02  0.77733715840E+02  0.00000000000E+00 0. -1.
         -1   -1    0    0    0  501 -0.00000000000E+00 -0.00000000000E+00 -0.24617001033E+03  0.24617001033E+03  0.00000000000E+00 0. -1.
         35    2    1    2    0    0  0.00000000000E+00  0.00000000000E+00 -0.16843629449E+03  0.32390372617E+03  0.27666376439E+03 0.  0.
         25    1    3    3    0    0 -0.37725559393E+02  0.57551101028E+02 -0.83513194818E+02  0.16158527399E+03  0.12000000000E+03 0.  0.
         25    1    3    3    0    0  0.37725559393E+02 -0.57551101028E+02 -0.84923099672E+02  0.16231845218E+03  0.12000000000E+03 0.  0.
<mgrwt>
<rscale>  0 0.27666376E+03</rscale>
<asrwt>0</asrwt>
<pdfrwt beam="1">  1        1 0.11959033E-01 0.27666376E+03</pdfrwt>
<pdfrwt beam="2">  1       -1 0.37872309E-01 0.27666376E+03</pdfrwt>
<totfact> 0.34151645E+03</totfact>
</mgrwt>
</event>
<event>
 5    1  0.1140254E+001  0.2748149E+03  0.7818608E-02  0.1098555E+00
         -1   -1    0    0    0  501 -0.00000000000E+00  0.00000000000E+00  0.19123987897E+02  0.19123987897E+02  0.00000000000E+00 0. -1.
          1   -1    0    0  501    0  0.00000000000E+00 -0.00000000000E+00 -0.98728423779E+03  0.98728423779E+03  0.00000000000E+00 0. -1.
         35    2    1    2    0    0  0.00000000000E+00  0.00000000000E+00 -0.96816024989E+03  0.10064082257E+04  0.27481493274E+03 0.  0.
         25    1    3    3    0    0  0.29871135983E+02 -0.43105602903E+02 -0.63641922162E+03  0.64975364825E+03  0.12000000000E+03 0.  0.
         25    1    3    3    0    0 -0.29871135983E+02  0.43105602903E+02 -0.33174102827E+03  0.35665457743E+03  0.12000000000E+03 0.  0.
<mgrwt>
<rscale>  0 0.27481493E+03</rscale>
<asrwt>0</asrwt>
<pdfrwt beam="1">  1        1 0.15188987E+00 0.27481493E+03</pdfrwt>
<pdfrwt beam="2">  1       -1 0.29421522E-02 0.27481493E+03</pdfrwt>
<totfact> 0.63421624E+03</totfact>
</mgrwt>
</event>
<event>
 5    1  0.1140254E+001  0.2746930E+03  0.7818608E-02  0.1098623E+00
          1   -1    0    0  501    0  0.00000000000E+00  0.00000000000E+00  0.26515642575E+03  0.26515642575E+03  0.00000000000E+00 0.  1.
         -1   -1    0    0    0  501 -0.00000000000E+00 -0.00000000000E+00 -0.71143154742E+02  0.71143154742E+02  0.00000000000E+00 0.  1.
         35    2    1    2    0    0  0.00000000000E+00  0.00000000000E+00  0.19401327101E+03  0.33629958049E+03  0.27469302596E+03 0.  0.
         25    1    3    3    0    0 -0.18520788064E+02 -0.56203625433E+02  0.13498277465E+03  0.19005845563E+03  0.12000000000E+03 0.  0.
         25    1    3    3    0    0  0.18520788064E+02  0.56203625433E+02  0.59030496358E+02  0.14624112487E+03  0.12000000000E+03 0.  0.
<mgrwt>
<rscale>  0 0.27469303E+03</rscale>
<asrwt>0</asrwt>
<pdfrwt beam="1">  1        1 0.40793296E-01 0.27469303E+03</pdfrwt>
<pdfrwt beam="2">  1       -1 0.10945101E-01 0.27469303E+03</pdfrwt>
<totfact> 0.53880528E+03</totfact>
</mgrwt>
</event>
<event>
 5    1  0.1140254E+001  0.2749363E+03  0.7818608E-02  0.1098487E+00
         -2   -1    0    0    0  501 -0.00000000000E+00  0.00000000000E+00  0.51027391223E+02  0.51027391223E+02  0.00000000000E+00 0. -1.
          2   -1    0    0  501    0  0.00000000000E+00 -0.00000000000E+00 -0.37034015770E+03  0.37034015770E+03  0.00000000000E+00 0. -1.
         35    2    1    2    0    0  0.00000000000E+00  0.00000000000E+00 -0.31931276648E+03  0.42136754893E+03  0.27493629890E+03 0.  0.
         25    1    3    3    0    0 -0.58219662676E+02 -0.23579611832E+01 -0.10877027949E+03  0.17212223216E+03  0.12000000000E+03 0.  0.
         25    1    3    3    0    0  0.58219662676E+02  0.23579611832E+01 -0.21054248699E+03  0.24924531677E+03  0.12000000000E+03 0.  0.
<mgrwt>
<rscale>  0 0.27493630E+03</rscale>
<asrwt>0</asrwt>
<pdfrwt beam="1">  1        2 0.56975407E-01 0.27493630E+03</pdfrwt>
<pdfrwt beam="2">  1       -2 0.78503681E-02 0.27493630E+03</pdfrwt>
<totfact> 0.84028500E+03</totfact>
</mgrwt>
</event>
<event>
 5    1  0.1140254E+001  0.2754341E+03  0.7818608E-02  0.1098209E+00
         -2   -1    0    0    0  501 -0.00000000000E+00  0.00000000000E+00  0.80487422238E+03  0.80487422238E+03  0.00000000000E+00 0. -1.
          2   -1    0    0  501    0  0.00000000000E+00 -0.00000000000E+00 -0.23563911024E+02  0.23563911024E+02  0.00000000000E+00 0. -1.
         35    2    1    2    0    0  0.00000000000E+00  0.00000000000E+00  0.78131031135E+03  0.82843813340E+03  0.27543409057E+03 0.  0.
         25    1    3    3    0    0 -0.39365023225E+02  0.27559007657E+01  0.22567263586E+03  0.25862199949E+03  0.12000000000E+03 0.  0.
         25    1    3    3    0    0  0.39365023225E+02 -0.27559007657E+01  0.55563767549E+03  0.56981613391E+03  0.12000000000E+03 0.  0.
<mgrwt>
<rscale>  0 0.27543409E+03</rscale>
<asrwt>0</asrwt>
<pdfrwt beam="1">  1        2 0.36252177E-02 0.27543409E+03</pdfrwt>
<pdfrwt beam="2">  1       -2 0.12382678E+00 0.27543409E+03</pdfrwt>
<totfact> 0.12449062E+03</totfact>
</mgrwt>
</event>
<event>
 5    1  0.1140254E+001  0.2748861E+03  0.7818608E-02  0.1098515E+00
         -2   -1    0    0    0  501 -0.00000000000E+00  0.00000000000E+00  0.29169072599E+02  0.29169072599E+02  0.00000000000E+00 0. -1.
          2   -1    0    0  501    0  0.00000000000E+00 -0.00000000000E+00 -0.64762397991E+03  0.64762397991E+03  0.00000000000E+00 0. -1.
         35    2    1    2    0    0  0.00000000000E+00  0.00000000000E+00 -0.61845490731E+03  0.67679305251E+03  0.27488609195E+03 0.  0.
         25    1    3    3    0    0  0.14079940322E+02 -0.97468749550E+01 -0.14971652711E+03  0.19263510786E+03  0.12000000000E+03 0.  0.
         25    1    3    3    0    0 -0.14079940322E+02  0.97468749550E+01 -0.46873838021E+03  0.48415794465E+03  0.12000000000E+03 0.  0.
<mgrwt>
<rscale>  0 0.27488609E+03</rscale>
<asrwt>0</asrwt>
<pdfrwt beam="1">  1        2 0.99634450E-01 0.27488609E+03</pdfrwt>
<pdfrwt beam="2">  1       -2 0.44875500E-02 0.27488609E+03</pdfrwt>
<totfact> 0.10593214E+04</totfact>
</mgrwt>
</event>
<event>
 5    1  0.1140254E+001  0.2751861E+03  0.7818608E-02  0.1098348E+00
         -2   -1    0    0    0  501 -0.00000000000E+00  0.00000000000E+00  0.94966417413E+01  0.94966417413E+01  0.00000000000E+00 0.  1.
          2   -1    0    0  501    0  0.00000000000E+00 -0.00000000000E+00 -0.19935301306E+04  0.19935301306E+04  0.00000000000E+00 0.  1.
         35    2    1    2    0    0  0.00000000000E+00  0.00000000000E+00 -0.19840334889E+04  0.20030267724E+04  0.27518605670E+03 0.  0.
         25    1    3    3    0    0 -0.33755771731E+02 -0.21493425792E+02 -0.13860432256E+04  0.13918035934E+04  0.12000000000E+03 0.  0.
         25    1    3    3    0    0  0.33755771731E+02  0.21493425792E+02 -0.59799026334E+03  0.61122317899E+03  0.12000000000E+03 0.  0.
<mgrwt>
<rscale>  0 0.27518606E+03</rscale>
<asrwt>0</asrwt>
<pdfrwt beam="1">  1        2 0.30669692E+00 0.27518606E+03</pdfrwt>
<pdfrwt beam="2">  1       -2 0.14610219E-02 0.27518606E+03</pdfrwt>
<totfact> 0.91815323E+03</totfact>
</mgrwt>
</event>
<event>
 5    1  0.1140254E+001  0.2775881E+03  0.7818608E-02  0.1097014E+00
         -1   -1    0    0    0  501 -0.00000000000E+00  0.00000000000E+00  0.33744047681E+02  0.33744047681E+02  0.00000000000E+00 0.  1.
          1   -1    0    0  501    0  0.00000000000E+00 -0.00000000000E+00 -0.57087978014E+03  0.57087978014E+03  0.00000000000E+00 0.  1.
         35    2    1    2    0    0  0.00000000000E+00  0.00000000000E+00 -0.53713573246E+03  0.60462382782E+03  0.27758814471E+03 0.  0.
         25    1    3    3    0    0 -0.63668089772E+02  0.20180284338E+02 -0.22484622603E+03  0.26347048201E+03  0.12000000000E+03 0.  0.
         25    1    3    3    0    0  0.63668089772E+02 -0.20180284338E+02 -0.31228950644E+03  0.34115334582E+03  0.12000000000E+03 0.  0.
<mgrwt>
<rscale>  0 0.27758814E+03</rscale>
<asrwt>0</asrwt>
<pdfrwt beam="1">  1        1 0.87827651E-01 0.27758814E+03</pdfrwt>
<pdfrwt beam="2">  1       -1 0.51913924E-02 0.27758814E+03</pdfrwt>
<totfact> 0.62467164E+03</totfact>
</mgrwt>
</event>
<event>
 4    1  0.1140254E+001  0.2433404E+03  0.7818608E-02  0.1117587E+00
          1   -1    0    0  501    0  0.00000000000E+00  0.00000000000E+00  0.13410193653E+02  0.13410193653E+02  0.00000000000E+00 0. -1.
         -1   -1    0    0    0  501 -0.00000000000E+00 -0.00000000000E+00 -0.11039091188E+04  0.11039091188E+04  0.00000000000E+00 0. -1.
         25    1    1    2    0    0 -0.84148685862E+01  0.18136046903E+02 -0.55432740563E+03  0.56751969027E+03  0.12000000000E+03 0.  0.
         25    1    1    2    0    0  0.84148685862E+01 -0.18136046903E+02 -0.53617151948E+03  0.54979962215E+03  0.12000000000E+03 0.  0.
<mgrwt>
<rscale>  0 0.24334038E+03</rscale>
<asrwt>0</asrwt>
<pdfrwt beam="1">  1        1 0.20631072E-02 0.24334038E+03</pdfrwt>
<pdfrwt beam="2">  1       -1 0.16983213E+00 0.24334038E+03</pdfrwt>
<totfact> 0.15563548E+03</totfact>
</mgrwt>
</event>
<event>
 5    1  0.1140254E+001  0.2785125E+03  0.7818608E-02  0.1096504E+00
          2   -1    0    0  501    0  0.00000000000E+00  0.00000000000E+00  0.20194490819E+04  0.20194490819E+04  0.00000000000E+00 0.  1.
         -2   -1    0    0    0  501 -0.00000000000E+00 -0.00000000000E+00 -0.96027685481E+01  0.96027685481E+01  0.00000000000E+00 0.  1.
         35    2    1    2    0    0  0.00000000000E+00  0.00000000000E+00  0.20098463134E+04  0.20290518505E+04  0.27851249256E+03 0.  0.
         25    1    3    3    0    0  0.61299342219E+02 -0.31407389991E+02  0.89013174805E+03  0.90082104904E+03  0.12000000000E+03 0.  0.
         25    1    3    3    0    0 -0.61299342219E+02  0.31407389991E+02  0.11197145653E+04  0.11282308014E+04  0.12000000000E+03 0.  0.
<mgrwt>
<rscale>  0 0.27851249E+03</rscale>
<asrwt>0</asrwt>
<pdfrwt beam="1">  1        2 0.31068414E+00 0.27851249E+03</pdfrwt>
<pdfrwt beam="2">  1       -2 0.14773506E-02 0.27851249E+03</pdfrwt>
<totfact> 0.87550257E+03</totfact>
</mgrwt>
</event>
<event>
 5    1  0.1140254E+001  0.2751779E+03  0.7818608E-02  0.1098352E+00
          2   -1    0    0  501    0  0.00000000000E+00  0.00000000000E+00  0.71979492411E+03  0.71979492411E+03  0.00000000000E+00 0. -1.
         -2   -1    0    0    0  501 -0.00000000000E+00 -0.00000000000E+00 -0.26300147552E+02  0.26300147552E+02  0.00000000000E+00 0. -1.
         35    2    1    2    0    0  0.00000000000E+00  0.00000000000E+00  0.69349477656E+03  0.74609507166E+03  0.27517785312E+03 0.  0.
         25    1    3    3    0    0 -0.13565774624E+02 -0.64268136377E+01  0.16884312159E+03  0.20768566124E+03  0.12000000000E+03 0.  0.
         25    1    3    3    0    0  0.13565774624E+02  0.64268136377E+01  0.52465165497E+03  0.53840941043E+03  0.12000000000E+03 0.  0.
<mgrwt>
<rscale>  0 0.27517785E+03</rscale>
<asrwt>0</asrwt>
<pdfrwt beam="1">  1        2 0.11073767E+00 0.27517785E+03</pdfrwt>
<pdfrwt beam="2">  1       -2 0.40461771E-02 0.27517785E+03</pdfrwt>
<totfact> 0.10904466E+04</totfact>
</mgrwt>
</event>
<event>
 4    1  0.1140254E+001  0.2513037E+03  0.7818608E-02  0.1112484E+00
         -2   -1    0    0    0  501 -0.00000000000E+00  0.00000000000E+00  0.70866777056E+02  0.70866777056E+02  0.00000000000E+00 0. -1.
          2   -1    0    0  501    0  0.00000000000E+00 -0.00000000000E+00 -0.22278960820E+03  0.22278960820E+03  0.00000000000E+00 0. -1.
         25    1    1    2    0    0  0.36478876126E+02  0.49141059595E+01 -0.69195558836E+02  0.14332788355E+03  0.12000000000E+03 0.  0.
         25    1    1    2    0    0 -0.36478876126E+02 -0.49141059595E+01 -0.82727272305E+02  0.15032850170E+03  0.12000000000E+03 0.  0.
<mgrwt>
<rscale>  0 0.25130365E+03</rscale>
<asrwt>0</asrwt>
<pdfrwt beam="1">  1        2 0.34275324E-01 0.25130365E+03</pdfrwt>
<pdfrwt beam="2">  1       -2 0.10902581E-01 0.25130365E+03</pdfrwt>
<totfact> 0.86198111E+03</totfact>
</mgrwt>
</event>
<event>
 5    1  0.1140254E+001  0.2789603E+03  0.7818608E-02  0.1096258E+00
          2   -1    0    0  501    0  0.00000000000E+00  0.00000000000E+00  0.15242765255E+02  0.15242765255E+02  0.00000000000E+00 0. -1.
         -2   -1    0    0    0  501 -0.00000000000E+00 -0.00000000000E+00 -0.12763242318E+04  0.12763242318E+04  0.00000000000E+00 0. -1.
         35    2    1    2    0    0  0.00000000000E+00  0.00000000000E+00 -0.12610814665E+04  0.12915669970E+04  0.27896028860E+03 0.  0.
         25    1    3    3    0    0  0.69105314111E+02 -0.16696041555E+02 -0.62758187791E+03  0.64289448257E+03  0.12000000000E+03 0.  0.
         25    1    3    3    0    0 -0.69105314111E+02  0.16696041555E+02 -0.63349958863E+03  0.64867251447E+03  0.12000000000E+03 0.  0.
<mgrwt>
<rscale>  0 0.27896029E+03</rscale>
<asrwt>0</asrwt>
<pdfrwt beam="1">  1        2 0.23450410E-02 0.27896029E+03</pdfrwt>
<pdfrwt beam="2">  1       -2 0.19635756E+00 0.27896029E+03</pdfrwt>
<totfact> 0.66877089E+02</totfact>
</mgrwt>
</event>
<event>
 5    1  0.1140254E+001  0.2761596E+03  0.7818608E-02  0.1097805E+00
          2   -1    0    0  501    0  0.00000000000E+00  0.00000000000E+00  0.37567954772E+03  0.37567954772E+03  0.00000000000E+00 0. -1.
         -2   -1    0    0    0  501 -0.00000000000E+00 -0.00000000000E+00 -0.50750793227E+02  0.50750793227E+02  0.00000000000E+00 0. -1.
         35    2    1    2    0    0  0.00000000000E+00  0.00000000000E+00  0.32492875450E+03  0.42643034095E+03  0.27615962809E+03 0.  0.
         25    1    3    3    0    0  0.18281963974E+02 -0.58811504380E+02  0.20808886100E+03  0.24797983250E+03  0.12000000000E+03 0.  0.
         25    1    3    3    0    0 -0.18281963974E+02  0.58811504380E+02  0.11683989350E+03  0.17845050845E+03  0.12000000000E+03 0.  0.
<mgrwt>
<rscale>  0 0.27615963E+03</rscale>
<asrwt>0</asrwt>
<pdfrwt beam="1">  1        2 0.57796852E-01 0.27615963E+03</pdfrwt>
<pdfrwt beam="2">  1       -2 0.78078146E-02 0.27615963E+03</pdfrwt>
<totfact> 0.83455992E+03</totfact>
</mgrwt>
</event>
<event>
 4    1  0.1140254E+001  0.3620380E+03  0.7818608E-02  0.1057780E+00
          2   -1    0    0  501    0  0.00000000000E+00  0.00000000000E+00  0.15559407590E+04  0.15559407590E+04  0.00000000000E+00 0. -1.
         -2   -1    0    0    0  501 -0.00000000000E+00 -0.00000000000E+00 -0.21059851340E+02  0.21059851340E+02  0.00000000000E+00 0. -1.
         25    1    1    2    0    0 -0.12988049853E+03  0.32231997064E+02  0.67401324343E+03  0.69756841805E+03  0.12000000000E+03 0.  0.
         25    1    1    2    0    0  0.12988049853E+03 -0.32231997064E+02  0.86086766427E+03  0.87943219234E+03  0.12000000000E+03 0.  0.
<mgrwt>
<rscale>  0 0.36203802E+03</rscale>
<asrwt>0</asrwt>
<pdfrwt beam="1">  1        2 0.23937541E+00 0.36203802E+03</pdfrwt>
<pdfrwt beam="2">  1       -2 0.32399783E-02 0.36203802E+03</pdfrwt>
<totfact> 0.48169167E+03</totfact>
</mgrwt>
</event>
<event>
 5    1  0.1140254E+001  0.2746539E+03  0.7818608E-02  0.1098645E+00
         -2   -1    0    0    0  501 -0.00000000000E+00  0.00000000000E+00  0.16028708612E+02  0.16028708612E+02  0.00000000000E+00 0. -1.
          2   -1    0    0  501    0  0.00000000000E+00 -0.00000000000E+00 -0.11765575124E+04  0.11765575124E+04  0.00000000000E+00 0. -1.
         35    2    1    2    0    0  0.00000000000E+00  0.00000000000E+00 -0.11605288038E+04  0.11925862210E+04  0.27465394613E+03 0.  0.
         25    1    3    3    0    0  0.37893537515E+02  0.34078357988E+02 -0.39292514248E+03  0.41398964028E+03  0.12000000000E+03 0.  0.
         25    1    3    3    0    0 -0.37893537515E+02 -0.34078357988E+02 -0.76760366129E+03  0.77859658071E+03  0.12000000000E+03 0.  0.
<mgrwt>
<rscale>  0 0.27465395E+03</rscale>
<asrwt>0</asrwt>
<pdfrwt beam="1">  1        2 0.18100890E+00 0.27465395E+03</pdfrwt>
<pdfrwt beam="2">  1       -2 0.24659545E-02 0.27465395E+03</pdfrwt>
<totfact> 0.11671842E+04</totfact>
</mgrwt>
</event>
<event>
 5    1  0.1140254E+001  0.2756566E+03  0.7818608E-02  0.1098085E+00
         -2   -1    0    0    0  501 -0.00000000000E+00  0.00000000000E+00  0.67391981032E+02  0.67391981032E+02  0.00000000000E+00 0.  1.
          2   -1    0    0  501    0  0.00000000000E+00 -0.00000000000E+00 -0.28188277641E+03  0.28188277641E+03  0.00000000000E+00 0.  1.
         35    2    1    2    0    0  0.00000000000E+00  0.00000000000E+00 -0.21449079538E+03  0.34927475744E+03  0.27565658868E+03 0.  0.
         25    1    3    3    0    0 -0.64371816494E+02 -0.11155926872E+02 -0.13020876694E+03  0.18873926049E+03  0.12000000000E+03 0.  0.
         25    1    3    3    0    0  0.64371816494E+02  0.11155926872E+02 -0.84282028437E+02  0.16053549695E+03  0.12000000000E+03 0.  0.
<mgrwt>
<rscale>  0 0.27565659E+03</rscale>
<asrwt>0</asrwt>
<pdfrwt beam="1">  1        2 0.43366581E-01 0.27565659E+03</pdfrwt>
<pdfrwt beam="2">  1       -2 0.10367997E-01 0.27565659E+03</pdfrwt>
<totfact> 0.72729250E+03</totfact>
</mgrwt>
</event>
<event>
 5    1  0.1140254E+001  0.2737110E+03  0.7818608E-02  0.1099174E+00
          2   -1    0    0  501    0  0.00000000000E+00  0.00000000000E+00  0.22546250170E+03  0.22546250170E+03  0.00000000000E+00 0. -1.
         -2   -1    0    0    0  501 -0.00000000000E+00 -0.00000000000E+00 -0.83071127083E+02  0.83071127083E+02  0.00000000000E+00 0. -1.
         35    2    1    2    0    0  0.00000000000E+00  0.00000000000E+00  0.14239137462E+03  0.30853362878E+03  0.27371097261E+03 0.  0.
         25    1    3    3    0    0  0.39437071128E+02  0.41393111770E+02  0.34482913534E+02  0.13732349984E+03  0.12000000000E+03 0.  0.
         25    1    3    3    0    0 -0.39437071128E+02 -0.41393111770E+02  0.10790846108E+03  0.17121012895E+03  0.12000000000E+03 0.  0.
<mgrwt>
<rscale>  0 0.27371097E+03</rscale>
<asrwt>0</asrwt>
<pdfrwt beam="1">  1        2 0.34686539E-01 0.27371097E+03</pdfrwt>
<pdfrwt beam="2">  1       -2 0.12780173E-01 0.27371097E+03</pdfrwt>
<totfact> 0.66102895E+03</totfact>
</mgrwt>
</event>
<event>
 5    1  0.1140254E+001  0.2751050E+03  0.7818608E-02  0.1098393E+00
          2   -1    0    0  501    0  0.00000000000E+00  0.00000000000E+00  0.43269212918E+03  0.43269212918E+03  0.00000000000E+00 0. -1.
         -2   -1    0    0    0  501 -0.00000000000E+00 -0.00000000000E+00 -0.43727839246E+02  0.43727839246E+02  0.00000000000E+00 0. -1.
         35    2    1    2    0    0  0.00000000000E+00  0.00000000000E+00  0.38896428994E+03  0.47641996843E+03  0.27510501172E+03 0.  0.
         25    1    3    3    0    0 -0.64924678964E+01 -0.54379910880E+02  0.26202947190E+03  0.29335775256E+03  0.12000000000E+03 0.  0.
         25    1    3    3    0    0  0.64924678964E+01  0.54379910880E+02  0.12693481804E+03  0.18306221587E+03  0.12000000000E+03 0.  0.
<mgrwt>
<rscale>  0 0.27510501E+03</rscale>
<asrwt>0</asrwt>
<pdfrwt beam="1">  1        2 0.66568017E-01 0.27510501E+03</pdfrwt>
<pdfrwt beam="2">  1       -2 0.67273602E-02 0.27510501E+03</pdfrwt>
<totfact> 0.90161970E+03</totfact>
</mgrwt>
</event>
<event>
 5    1  0.1140254E+001  0.2752500E+03  0.7818608E-02  0.1098312E+00
         -1   -1    0    0    0  501 -0.00000000000E+00  0.00000000000E+00  0.37587091077E+02  0.37587091077E+02  0.00000000000E+00 0. -1.
          1   -1    0    0  501    0  0.00000000000E+00 -0.00000000000E+00 -0.50391339726E+03  0.50391339726E+03  0.00000000000E+00 0. -1.
         35    2    1    2    0    0  0.00000000000E+00  0.00000000000E+00 -0.46632630619E+03  0.54150048834E+03  0.27524998643E+03 0.  0.
         25    1    3    3    0    0 -0.41378751923E+01  0.61628727669E+01 -0.10140463325E+03  0.15728319255E+03  0.12000000000E+03 0.  0.
         25    1    3    3    0    0  0.41378751923E+01 -0.61628727669E+01 -0.36492167293E+03  0.38421729579E+03  0.12000000000E+03 0.  0.
<mgrwt>
<rscale>  0 0.27524999E+03</rscale>
<asrwt>0</asrwt>
<pdfrwt beam="1">  1        1 0.77525139E-01 0.27524999E+03</pdfrwt>
<pdfrwt beam="2">  1       -1 0.57826294E-02 0.27524999E+03</pdfrwt>
<totfact> 0.62845724E+03</totfact>
</mgrwt>
</event>
<event>
 4    1  0.1140254E+001  0.2992487E+03  0.7818608E-02  0.1085617E+00
          1   -1    0    0  501    0  0.00000000000E+00  0.00000000000E+00  0.21413985189E+03  0.21413985189E+03  0.00000000000E+00 0. -1.
         -1   -1    0    0    0  501 -0.00000000000E+00 -0.00000000000E+00 -0.10454588604E+03  0.10454588604E+03  0.00000000000E+00 0. -1.
         25    1    1    2    0    0  0.47746890219E+02 -0.40423305089E+02  0.12276760992E+03  0.18271752834E+03  0.12000000000E+03 0.  0.
         25    1    1    2    0    0 -0.47746890219E+02  0.40423305089E+02 -0.13173644062E+02  0.13596820959E+03  0.12000000000E+03 0.  0.
<mgrwt>
<rscale>  0 0.29924866E+03</rscale>
<asrwt>0</asrwt>
<pdfrwt beam="1">  1        1 0.32944592E-01 0.29924866E+03</pdfrwt>
<pdfrwt beam="2">  1       -1 0.16083983E-01 0.29924866E+03</pdfrwt>
<totfact> 0.38538513E+03</totfact>
</mgrwt>
</event>
<event>
 5    1  0.1140254E+001  0.2758750E+03  0.7818608E-02  0.1097964E+00
         -2   -1    0    0    0  501 -0.00000000000E+00  0.00000000000E+00  0.13775678477E+02  0.13775678477E+02  0.00000000000E+00 0.  1.
          2   -1    0    0  501    0  0.00000000000E+00 -0.00000000000E+00 -0.13811840427E+04  0.13811840427E+04  0.00000000000E+00 0.  1.
         35    2    1    2    0    0  0.00000000000E+00  0.00000000000E+00 -0.13674083643E+04  0.13949597212E+04  0.27587495204E+03 0.  0.
         25    1    3    3    0    0 -0.41856850447E+02  0.29623257156E+02 -0.90967985988E+03  0.91899237252E+03  0.12000000000E+03 0.  0.
         25    1    3    3    0    0  0.41856850447E+02 -0.29623257156E+02 -0.45772850440E+03  0.47596734870E+03  0.12000000000E+03 0.  0.
<mgrwt>
<rscale>  0 0.27587495E+03</rscale>
<asrwt>0</asrwt>
<pdfrwt beam="1">  1        2 0.21248991E+00 0.27587495E+03</pdfrwt>
<pdfrwt beam="2">  1       -2 0.21193346E-02 0.27587495E+03</pdfrwt>
<totfact> 0.11227628E+04</totfact>
</mgrwt>
</event>
<event>
 5    1  0.1140254E+001  0.2752931E+03  0.7818608E-02  0.1098288E+00
          2   -1    0    0  501    0  0.00000000000E+00  0.00000000000E+00  0.11548437236E+04  0.11548437236E+04  0.00000000000E+00 0.  1.
         -2   -1    0    0    0  501 -0.00000000000E+00 -0.00000000000E+00 -0.16406175341E+02  0.16406175341E+02  0.00000000000E+00 0.  1.
         35    2    1    2    0    0  0.00000000000E+00  0.00000000000E+00  0.11384375483E+04  0.11712498990E+04  0.27529307017E+03 0.  0.
         25    1    3    3    0    0  0.32641812301E+02  0.19566547888E+02  0.33240269918E+03  0.35544323335E+03  0.12000000000E+03 0.  0.
         25    1    3    3    0    0 -0.32641812301E+02 -0.19566547888E+02  0.80603484912E+03  0.81580666564E+03  0.12000000000E+03 0.  0.
<mgrwt>
<rscale>  0 0.27529307E+03</rscale>
<asrwt>0</asrwt>
<pdfrwt beam="1">  1        2 0.17766820E+00 0.27529307E+03</pdfrwt>
<pdfrwt beam="2">  1       -2 0.25240279E-02 0.27529307E+03</pdfrwt>
<totfact> 0.11605866E+04</totfact>
</mgrwt>
</event>
<event>
 5    1  0.1140254E+001  0.2754136E+03  0.7818608E-02  0.1098221E+00
          2   -1    0    0  501    0  0.00000000000E+00  0.00000000000E+00  0.14622520220E+03  0.14622520220E+03  0.00000000000E+00 0. -1.
         -2   -1    0    0    0  501 -0.00000000000E+00 -0.00000000000E+00 -0.12968466494E+03  0.12968466494E+03  0.00000000000E+00 0. -1.
         35    2    1    2    0    0  0.00000000000E+00  0.00000000000E+00  0.16540537267E+02  0.27590986714E+03  0.27541362605E+03 0.  0.
         25    1    3    3    0    0  0.19276162334E+02 -0.47823992668E+02  0.51989037560E+02  0.14057583269E+03  0.12000000000E+03 0.  0.
         25    1    3    3    0    0 -0.19276162334E+02  0.47823992668E+02 -0.35448500293E+02  0.13533403446E+03  0.12000000000E+03 0.  0.
<mgrwt>
<rscale>  0 0.27541363E+03</rscale>
<asrwt>0</asrwt>
<pdfrwt beam="1">  1        2 0.22496185E-01 0.27541363E+03</pdfrwt>
<pdfrwt beam="2">  1       -2 0.19951487E-01 0.27541363E+03</pdfrwt>
<totfact> 0.50845222E+03</totfact>
</mgrwt>
</event>
<event>
 5    1  0.1140254E+001  0.2757670E+03  0.7818608E-02  0.1098024E+00
          2   -1    0    0  501    0  0.00000000000E+00  0.00000000000E+00  0.14074174561E+03  0.14074174561E+03  0.00000000000E+00 0. -1.
         -2   -1    0    0    0  501 -0.00000000000E+00 -0.00000000000E+00 -0.13508327223E+03  0.13508327223E+03  0.00000000000E+00 0. -1.
         35    2    1    2    0    0  0.00000000000E+00  0.00000000000E+00  0.56584733814E+01  0.27582501784E+03  0.27576697073E+03 0.  0.
         25    1    3    3    0    0  0.21067047180E+02 -0.62769003627E+02 -0.12276499806E+02  0.13760261895E+03  0.12000000000E+03 0.  0.
         25    1    3    3    0    0 -0.21067047180E+02  0.62769003627E+02  0.17934973188E+02  0.13822239890E+03  0.12000000000E+03 0.  0.
<mgrwt>
<rscale>  0 0.27576697E+03</rscale>
<asrwt>0</asrwt>
<pdfrwt beam="1">  1        2 0.21652576E-01 0.27576697E+03</pdfrwt>
<pdfrwt beam="2">  1       -2 0.20782042E-01 0.27576697E+03</pdfrwt>
<totfact> 0.49510159E+03</totfact>
</mgrwt>
</event>
<event>
 5    1  0.1140254E+001  0.2747044E+03  0.7818608E-02  0.1098617E+00
          2   -1    0    0  501    0  0.00000000000E+00  0.00000000000E+00  0.28625000370E+03  0.28625000370E+03  0.00000000000E+00 0. -1.
         -2   -1    0    0    0  501 -0.00000000000E+00 -0.00000000000E+00 -0.65906102804E+02  0.65906102804E+02  0.00000000000E+00 0. -1.
         35    2    1    2    0    0  0.00000000000E+00  0.00000000000E+00  0.22034390089E+03  0.35215610650E+03  0.27470436597E+03 0.  0.
         25    1    3    3    0    0  0.36362706017E+01 -0.64339340157E+02  0.87497484961E+02  0.16189065146E+03  0.12000000000E+03 0.  0.
         25    1    3    3    0    0 -0.36362706017E+01  0.64339340157E+02  0.13284641593E+03  0.19026545504E+03  0.12000000000E+03 0.  0.
<mgrwt>
<rscale>  0 0.27470437E+03</rscale>
<asrwt>0</asrwt>
<pdfrwt beam="1">  1        2 0.44038462E-01 0.27470437E+03</pdfrwt>
<pdfrwt beam="2">  1       -2 0.10139401E-01 0.27470437E+03</pdfrwt>
<totfact> 0.74112538E+03</totfact>
</mgrwt>
</event>
<event>
 5    1  0.1140254E+001  0.2748573E+03  0.7818608E-02  0.1098531E+00
         -1   -1    0    0    0  501 -0.00000000000E+00  0.00000000000E+00  0.25784369713E+02  0.25784369713E+02  0.00000000000E+00 0.  1.
          1   -1    0    0  501    0  0.00000000000E+00 -0.00000000000E+00 -0.73248378359E+03  0.73248378359E+03  0.00000000000E+00 0.  1.
         35    2    1    2    0    0  0.00000000000E+00  0.00000000000E+00 -0.70669941388E+03  0.75826815330E+03  0.27485729159E+03 0.  0.
         25    1    3    3    0    0  0.65144537131E+02  0.12758022932E+01 -0.39619460061E+03  0.41906515000E+03  0.12000000000E+03 0.  0.
         25    1    3    3    0    0 -0.65144537131E+02 -0.12758022932E+01 -0.31050481327E+03  0.33920300330E+03  0.12000000000E+03 0.  0.
<mgrwt>
<rscale>  0 0.27485729E+03</rscale>
<asrwt>0</asrwt>
<pdfrwt beam="1">  1        1 0.11268983E+00 0.27485729E+03</pdfrwt>
<pdfrwt beam="2">  1       -1 0.39668255E-02 0.27485729E+03</pdfrwt>
<totfact> 0.65460179E+03</totfact>
</mgrwt>
</event>
<event>
 5    1  0.1140254E+001  0.2759556E+03  0.7818608E-02  0.1097919E+00
         -2   -1    0    0    0  501 -0.00000000000E+00  0.00000000000E+00  0.23557008169E+03  0.23557008169E+03  0.00000000000E+00 0. -1.
          2   -1    0    0  501    0  0.00000000000E+00 -0.00000000000E+00 -0.80816148713E+02  0.80816148713E+02  0.00000000000E+00 0. -1.
         35    2    1    2    0    0  0.00000000000E+00  0.00000000000E+00  0.15475393297E+03  0.31638623040E+03  0.27595555261E+03 0.  0.
         25    1    3    3    0    0 -0.37002151020E+01 -0.67594024323E+02  0.68856986328E+02  0.15402573903E+03  0.12000000000E+03 0.  0.
         25    1    3    3    0    0  0.37002151020E+01  0.67594024323E+02  0.85896946645E+02  0.16236049137E+03  0.12000000000E+03 0.  0.
<mgrwt>
<rscale>  0 0.27595555E+03</rscale>
<asrwt>0</asrwt>
<pdfrwt beam="1">  1        2 0.12433254E-01 0.27595555E+03</pdfrwt>
<pdfrwt beam="2">  1       -2 0.36241551E-01 0.27595555E+03</pdfrwt>
<totfact> 0.35022941E+03</totfact>
</mgrwt>
</event>
<event>
 5    1  0.1140254E+001  0.2750555E+03  0.7818608E-02  0.1098421E+00
         -1   -1    0    0    0  501 -0.00000000000E+00  0.00000000000E+00  0.24741414391E+02  0.24741414391E+02  0.00000000000E+00 0. -1.
          1   -1    0    0  501    0  0.00000000000E+00 -0.00000000000E+00 -0.76446249852E+03  0.76446249852E+03  0.00000000000E+00 0. -1.
         35    2    1    2    0    0  0.00000000000E+00  0.00000000000E+00 -0.73972108413E+03  0.78920391291E+03  0.27505551048E+03 0.  0.
         25    1    3    3    0    0 -0.14740212323E+02  0.65090138310E+02 -0.34765698997E+03  0.37379055986E+03  0.12000000000E+03 0.  0.
         25    1    3    3    0    0  0.14740212323E+02 -0.65090138310E+02 -0.39206409416E+03  0.41541335305E+03  0.12000000000E+03 0.  0.
<mgrwt>
<rscale>  0 0.27505551E+03</rscale>
<asrwt>0</asrwt>
<pdfrwt beam="1">  1        1 0.11760961E+00 0.27505551E+03</pdfrwt>
<pdfrwt beam="2">  1       -1 0.38063717E-02 0.27505551E+03</pdfrwt>
<totfact> 0.65291588E+03</totfact>
</mgrwt>
</event>
<event>
 5    1  0.1140254E+001  0.2751773E+03  0.7818608E-02  0.1098353E+00
         -1   -1    0    0    0  501 -0.00000000000E+00  0.00000000000E+00  0.19150765162E+02  0.19150765162E+02  0.00000000000E+00 0. -1.
          1   -1    0    0  501    0  0.00000000000E+00 -0.00000000000E+00 -0.98850568723E+03  0.98850568723E+03  0.00000000000E+00 0. -1.
         35    2    1    2    0    0  0.00000000000E+00  0.00000000000E+00 -0.96935492207E+03  0.10076564524E+04  0.27517732666E+03 0.  0.
         25    1    3    3    0    0  0.41900400951E+02  0.33876611085E+02 -0.33695611740E+03  0.36172184539E+03  0.12000000000E+03 0.  0.
         25    1    3    3    0    0 -0.41900400951E+02 -0.33876611085E+02 -0.63239880467E+03  0.64593460700E+03  0.12000000000E+03 0.  0.
<mgrwt>
<rscale>  0 0.27517733E+03</rscale>
<asrwt>0</asrwt>
<pdfrwt beam="1">  1        1 0.15207777E+00 0.27517733E+03</pdfrwt>
<pdfrwt beam="2">  1       -1 0.29462721E-02 0.27517733E+03</pdfrwt>
<totfact> 0.63158832E+03</totfact>
</mgrwt>
</event>
<event>
 5    1  0.1140254E+001  0.2738546E+03  0.7818608E-02  0.1099094E+00
          1   -1    0    0  501    0  0.00000000000E+00  0.00000000000E+00  0.43008499622E+03  0.43008499622E+03  0.00000000000E+00 0.  1.
         -1   -1    0    0    0  501 -0.00000000000E+00 -0.00000000000E+00 -0.43593900968E+02  0.43593900968E+02  0.00000000000E+00 0.  1.
         35    2    1    2    0    0  0.00000000000E+00  0.00000000000E+00  0.38649109525E+03  0.47367889719E+03  0.27385457990E+03 0.  0.
         25    1    3    3    0    0 -0.48871798402E+02 -0.16710112152E+02  0.12232046752E+03  0.17896920769E+03  0.12000000000E+03 0.  0.
         25    1    3    3    0    0  0.48871798402E+02  0.16710112152E+02  0.26417062773E+03  0.29470968950E+03  0.12000000000E+03 0.  0.
<mgrwt>
<rscale>  0 0.27385458E+03</rscale>
<asrwt>0</asrwt>
<pdfrwt beam="1">  1        1 0.66166920E-01 0.27385458E+03</pdfrwt>
<pdfrwt beam="2">  1       -1 0.67067543E-02 0.27385458E+03</pdfrwt>
<totfact> 0.61827009E+03</totfact>
</mgrwt>
</event>
<event>
 5    1  0.1140254E+001  0.2755358E+03  0.7818608E-02  0.1098152E+00
         -1   -1    0    0    0  501 -0.00000000000E+00  0.00000000000E+00  0.32481685320E+02  0.32481685320E+02  0.00000000000E+00 0.  1.
          1   -1    0    0  501    0  0.00000000000E+00 -0.00000000000E+00 -0.58432907364E+03  0.58432907364E+03  0.00000000000E+00 0.  1.
         35    2    1    2    0    0  0.00000000000E+00  0.00000000000E+00 -0.55184738832E+03  0.61681075896E+03  0.27553579146E+03 0.  0.
         25    1    3    3    0    0  0.51641123589E+02  0.42140096036E+02 -0.24968350890E+03  0.28492884718E+03  0.12000000000E+03 0.  0.
         25    1    3    3    0    0 -0.51641123589E+02 -0.42140096036E+02 -0.30216387943E+03  0.33188191178E+03  0.12000000000E+03 0.  0.
<mgrwt>
<rscale>  0 0.27553579E+03</rscale>
<asrwt>0</asrwt>
<pdfrwt beam="1">  1        1 0.89896771E-01 0.27553579E+03</pdfrwt>
<pdfrwt beam="2">  1       -1 0.49971829E-02 0.27553579E+03</pdfrwt>
<totfact> 0.64044661E+03</totfact>
</mgrwt>
</event>
<event>
 5    1  0.1140254E+001  0.2766885E+03  0.7818608E-02  0.1097511E+00
          2   -1    0    0  501    0  0.00000000000E+00  0.00000000000E+00  0.47102464008E+03  0.47102464008E+03  0.00000000000E+00 0.  1.
         -2   -1    0    0    0  501 -0.00000000000E+00 -0.00000000000E+00 -0.40632982579E+02  0.40632982579E+02  0.00000000000E+00 0.  1.
         35    2    1    2    0    0  0.00000000000E+00  0.00000000000E+00  0.43039165750E+03  0.51165762266E+03  0.27668853243E+03 0.  0.
         25    1    3    3    0    0 -0.24635095359E+02 -0.53262976524E+02  0.28174981031E+03  0.31181210400E+03  0.12000000000E+03 0.  0.
         25    1    3    3    0    0  0.24635095359E+02  0.53262976524E+02  0.14864184719E+03  0.19984551866E+03  0.12000000000E+03 0.  0.
<mgrwt>
<rscale>  0 0.27668853E+03</rscale>
<asrwt>0</asrwt>
<pdfrwt beam="1">  1        2 0.72465325E-01 0.27668853E+03</pdfrwt>
<pdfrwt beam="2">  1       -2 0.62512284E-02 0.27668853E+03</pdfrwt>
<totfact> 0.91969269E+03</totfact>
</mgrwt>
</event>
<event>
 5    1  0.1140254E+001  0.2745648E+03  0.7818608E-02  0.1098695E+00
         -2   -1    0    0    0  501 -0.00000000000E+00  0.00000000000E+00  0.24767029372E+03  0.24767029372E+03  0.00000000000E+00 0.  1.
          2   -1    0    0  501    0  0.00000000000E+00 -0.00000000000E+00 -0.76094955033E+02  0.76094955033E+02  0.00000000000E+00 0.  1.
         35    2    1    2    0    0  0.00000000000E+00  0.00000000000E+00  0.17157533868E+03  0.32376524875E+03  0.27456481831E+03 0.  0.
         25    1    3    3    0    0  0.52789833445E+02  0.18713007352E+02  0.12845945980E+03  0.18449600530E+03  0.12000000000E+03 0.  0.
         25    1    3    3    0    0 -0.52789833445E+02 -0.18713007352E+02  0.43115878881E+02  0.13926924345E+03  0.12000000000E+03 0.  0.
<mgrwt>
<rscale>  0 0.27456482E+03</rscale>
<asrwt>0</asrwt>
<pdfrwt beam="1">  1        2 0.11706916E-01 0.27456482E+03</pdfrwt>
<pdfrwt beam="2">  1       -2 0.38103122E-01 0.27456482E+03</pdfrwt>
<totfact> 0.34284615E+03</totfact>
</mgrwt>
</event>
<event>
 5    1  0.1140254E+001  0.2742131E+03  0.7818608E-02  0.1098892E+00
         -1   -1    0    0    0  501 -0.00000000000E+00  0.00000000000E+00  0.38250412990E+02  0.38250412990E+02  0.00000000000E+00 0. -1.
          1   -1    0    0  501    0  0.00000000000E+00 -0.00000000000E+00 -0.49145102879E+03  0.49145102879E+03  0.00000000000E+00 0. -1.
         35    2    1    2    0    0  0.00000000000E+00  0.00000000000E+00 -0.45320061580E+03  0.52970144178E+03  0.27421309098E+03 0.  0.
         25    1    3    3    0    0  0.20406644570E+02  0.45152673328E+02 -0.14145112940E+03  0.19199900276E+03  0.12000000000E+03 0.  0.
         25    1    3    3    0    0 -0.20406644570E+02 -0.45152673328E+02 -0.31174948640E+03  0.33770243902E+03  0.12000000000E+03 0.  0.
<mgrwt>
<rscale>  0 0.27421309E+03</rscale>
<asrwt>0</asrwt>
<pdfrwt beam="1">  1        1 0.75607853E-01 0.27421309E+03</pdfrwt>
<pdfrwt beam="2">  1       -1 0.58846787E-02 0.27421309E+03</pdfrwt>
<totfact> 0.63272532E+03</totfact>
</mgrwt>
</event>
<event>
 5    1  0.1140254E+001  0.2764360E+03  0.7818608E-02  0.1097652E+00
          2   -1    0    0  501    0  0.00000000000E+00  0.00000000000E+00  0.75218359542E+03  0.75218359542E+03  0.00000000000E+00 0.  1.
         -2   -1    0    0    0  501 -0.00000000000E+00 -0.00000000000E+00 -0.25398331954E+02  0.25398331954E+02  0.00000000000E+00 0.  1.
         35    2    1    2    0    0  0.00000000000E+00  0.00000000000E+00  0.72678526347E+03  0.77758192738E+03  0.27643595024E+03 0.  0.
         25    1    3    3    0    0 -0.11378037677E+02 -0.39067342553E+02  0.51870074406E+03  0.53395334897E+03  0.12000000000E+03 0.  0.
         25    1    3    3    0    0  0.11378037677E+02  0.39067342553E+02  0.20808451941E+03  0.24362857840E+03  0.12000000000E+03 0.  0.
<mgrwt>
<rscale>  0 0.27643595E+03</rscale>
<asrwt>0</asrwt>
<pdfrwt beam="1">  1        2 0.11572054E+00 0.27643595E+03</pdfrwt>
<pdfrwt beam="2">  1       -2 0.39074363E-02 0.27643595E+03</pdfrwt>
<totfact> 0.10886162E+04</totfact>
</mgrwt>
</event>
<event>
 5    1  0.1140254E+001  0.2751726E+03  0.7818608E-02  0.1098355E+00
          2   -1    0    0  501    0  0.00000000000E+00  0.00000000000E+00  0.20611786890E+04  0.20611786890E+04  0.00000000000E+00 0.  1.
         -2   -1    0    0    0  501 -0.00000000000E+00 -0.00000000000E+00 -0.91840610106E+01  0.91840610106E+01  0.00000000000E+00 0.  1.
         35    2    1    2    0    0  0.00000000000E+00  0.00000000000E+00  0.20519946280E+04  0.20703627500E+04  0.27517260644E+03 0.  0.
         25    1    3    3    0    0  0.10322476193E+02  0.64936672059E+02  0.91783506670E+03  0.92797873605E+03  0.12000000000E+03 0.  0.
         25    1    3    3    0    0 -0.10322476193E+02 -0.64936672059E+02  0.11341595612E+04  0.11423840139E+04  0.12000000000E+03 0.  0.
<mgrwt>
<rscale>  0 0.27517261E+03</rscale>
<asrwt>0</asrwt>
<pdfrwt beam="1">  1        2 0.31710405E+00 0.27517261E+03</pdfrwt>
<pdfrwt beam="2">  1       -2 0.14129341E-02 0.27517261E+03</pdfrwt>
<totfact> 0.88824190E+03</totfact>
</mgrwt>
</event>
<event>
 5    1  0.1140254E+001  0.2750940E+03  0.7818608E-02  0.1098399E+00
          2   -1    0    0  501    0  0.00000000000E+00  0.00000000000E+00  0.15272482729E+03  0.15272482729E+03  0.00000000000E+00 0.  1.
         -2   -1    0    0    0  501 -0.00000000000E+00 -0.00000000000E+00 -0.12387753746E+03  0.12387753746E+03  0.00000000000E+00 0.  1.
         35    2    1    2    0    0  0.00000000000E+00  0.00000000000E+00  0.28847289834E+02  0.27660236475E+03  0.27509398767E+03 0.  0.
         25    1    3    3    0    0  0.66047556723E+02  0.23889493243E+01  0.26786945704E+02  0.13959057020E+03  0.12000000000E+03 0.  0.
         25    1    3    3    0    0 -0.66047556723E+02 -0.23889493243E+01  0.20603441302E+01  0.13701179455E+03  0.12000000000E+03 0.  0.
<mgrwt>
<rscale>  0 0.27509399E+03</rscale>
<asrwt>0</asrwt>
<pdfrwt beam="1">  1        2 0.23496127E-01 0.27509399E+03</pdfrwt>
<pdfrwt beam="2">  1       -2 0.19058083E-01 0.27509399E+03</pdfrwt>
<totfact> 0.52343504E+03</totfact>
</mgrwt>
</event>
<event>
 5    1  0.1140254E+001  0.2769167E+03  0.7818608E-02  0.1097385E+00
         -2   -1    0    0    0  501 -0.00000000000E+00  0.00000000000E+00  0.26466086587E+02  0.26466086587E+02  0.00000000000E+00 0. -1.
          2   -1    0    0  501    0  0.00000000000E+00 -0.00000000000E+00 -0.72435024818E+03  0.72435024818E+03  0.00000000000E+00 0. -1.
         35    2    1    2    0    0  0.00000000000E+00  0.00000000000E+00 -0.69788416160E+03  0.75081633477E+03  0.27691671230E+03 0.  0.
         25    1    3    3    0    0  0.32191554535E+02  0.57975883495E+02 -0.40132206152E+03  0.42409538587E+03  0.12000000000E+03 0.  0.
         25    1    3    3    0    0 -0.32191554535E+02 -0.57975883495E+02 -0.29656210007E+03  0.32672094890E+03  0.12000000000E+03 0.  0.
<mgrwt>
<rscale>  0 0.27691671E+03</rscale>
<asrwt>0</asrwt>
<pdfrwt beam="1">  1        2 0.11143850E+00 0.27691671E+03</pdfrwt>
<pdfrwt beam="2">  1       -2 0.40717056E-02 0.27691671E+03</pdfrwt>
<totfact> 0.10720914E+04</totfact>
</mgrwt>
</event>
<event>
 5    1  0.1140254E+001  0.2744148E+03  0.7818608E-02  0.1098779E+00
          2   -1    0    0  501    0  0.00000000000E+00  0.00000000000E+00  0.94738735822E+02  0.94738735822E+02  0.00000000000E+00 0. -1.
         -2   -1    0    0    0  501 -0.00000000000E+00 -0.00000000000E+00 -0.19871352441E+03  0.19871352441E+03  0.00000000000E+00 0. -1.
         35    2    1    2    0    0  0.00000000000E+00  0.00000000000E+00 -0.10397478858E+03  0.29345226023E+03  0.27441478162E+03 0.  0.
         25    1    3    3    0    0 -0.35074732850E+02 -0.41385075913E+02 -0.10807344137E+02  0.13213538542E+03  0.12000000000E+03 0.  0.
         25    1    3    3    0    0  0.35074732850E+02  0.41385075913E+02 -0.93167444448E+02  0.16131687481E+03  0.12000000000E+03 0.  0.
<mgrwt>
<rscale>  0 0.27441478E+03</rscale>
<asrwt>0</asrwt>
<pdfrwt beam="1">  1        2 0.14575190E-01 0.27441478E+03</pdfrwt>
<pdfrwt beam="2">  1       -2 0.30571311E-01 0.27441478E+03</pdfrwt>
<totfact> 0.39624002E+03</totfact>
</mgrwt>
</event>
<event>
 5    1  0.1140254E+001  0.2743871E+03  0.7818608E-02  0.1098795E+00
         -1   -1    0    0    0  501 -0.00000000000E+00  0.00000000000E+00  0.16764363434E+02  0.16764363434E+02  0.00000000000E+00 0. -1.
          1   -1    0    0  501    0  0.00000000000E+00 -0.00000000000E+00 -0.11227426254E+04  0.11227426254E+04  0.00000000000E+00 0. -1.
         35    2    1    2    0    0  0.00000000000E+00  0.00000000000E+00 -0.11059782620E+04  0.11395069889E+04  0.27438706541E+03 0.  0.
         25    1    3    3    0    0 -0.64642526844E+00  0.35775309983E+02 -0.32021169487E+03  0.34382527569E+03  0.12000000000E+03 0.  0.
         25    1    3    3    0    0  0.64642526844E+00 -0.35775309983E+02 -0.78576656714E+03  0.79568171319E+03  0.12000000000E+03 0.  0.
<mgrwt>
<rscale>  0 0.27438707E+03</rscale>
<asrwt>0</asrwt>
<pdfrwt beam="1">  1        1 0.17272963E+00 0.27438707E+03</pdfrwt>
<pdfrwt beam="2">  1       -1 0.25791329E-02 0.27438707E+03</pdfrwt>
<totfact> 0.61255955E+03</totfact>
</mgrwt>
</event>
<event>
 5    1  0.1140254E+001  0.2762658E+03  0.7818608E-02  0.1097746E+00
         -2   -1    0    0    0  501 -0.00000000000E+00  0.00000000000E+00  0.16109212326E+03  0.16109212326E+03  0.00000000000E+00 0.  1.
          2   -1    0    0  501    0  0.00000000000E+00 -0.00000000000E+00 -0.11844586447E+03  0.11844586447E+03  0.00000000000E+00 0.  1.
         35    2    1    2    0    0  0.00000000000E+00  0.00000000000E+00  0.42646258789E+02  0.27953798774E+03  0.27626578362E+03 0.  0.
         25    1    3    3    0    0 -0.66389472294E+02 -0.12368923041E+02  0.32413955475E+02  0.14146100805E+03  0.12000000000E+03 0.  0.
         25    1    3    3    0    0  0.66389472294E+02  0.12368923041E+02  0.10232303314E+02  0.13807697969E+03  0.12000000000E+03 0.  0.
<mgrwt>
<rscale>  0 0.27626578E+03</rscale>
<asrwt>0</asrwt>
<pdfrwt beam="1">  1        2 0.18222441E-01 0.27626578E+03</pdfrwt>
<pdfrwt beam="2">  1       -2 0.24783404E-01 0.27626578E+03</pdfrwt>
<totfact> 0.44410386E+03</totfact>
</mgrwt>
</event>
<event>
 5    1  0.1140254E+001  0.2750284E+03  0.7818608E-02  0.1098436E+00
          1   -1    0    0  501    0  0.00000000000E+00  0.00000000000E+00  0.63700701050E+03  0.63700701050E+03  0.00000000000E+00 0.  1.
         -1   -1    0    0    0  501 -0.00000000000E+00 -0.00000000000E+00 -0.29685943638E+02  0.29685943638E+02  0.00000000000E+00 0.  1.
         35    2    1    2    0    0  0.00000000000E+00  0.00000000000E+00  0.60732106686E+03  0.66669295414E+03  0.27502839280E+03 0.  0.
         25    1    3    3    0    0  0.51348525786E+01 -0.57018076069E+02  0.21855031585E+03  0.25581569199E+03  0.12000000000E+03 0.  0.
         25    1    3    3    0    0 -0.51348525786E+01  0.57018076069E+02  0.38877075101E+03  0.41087726215E+03  0.12000000000E+03 0.  0.
<mgrwt>
<rscale>  0 0.27502839E+03</rscale>
<asrwt>0</asrwt>
<pdfrwt beam="1">  1        1 0.98001068E-01 0.27502839E+03</pdfrwt>
<pdfrwt beam="2">  1       -1 0.45670687E-02 0.27502839E+03</pdfrwt>
<totfact> 0.64954371E+03</totfact>
</mgrwt>
</event>
<event>
 5    1  0.1140254E+001  0.2763099E+03  0.7818608E-02  0.1097722E+00
         -2   -1    0    0    0  501 -0.00000000000E+00  0.00000000000E+00  0.10694129913E+03  0.10694129913E+03  0.00000000000E+00 0.  1.
          2   -1    0    0  501    0  0.00000000000E+00 -0.00000000000E+00 -0.17847919621E+03  0.17847919621E+03  0.00000000000E+00 0.  1.
         35    2    1    2    0    0  0.00000000000E+00  0.00000000000E+00 -0.71537897079E+02  0.28542049533E+03  0.27630994994E+03 0.  0.
         25    1    3    3    0    0 -0.28965834005E+02  0.31834853629E+02  0.19224764892E+02  0.12892660327E+03  0.12000000000E+03 0.  0.
         25    1    3    3    0    0  0.28965834005E+02 -0.31834853629E+02 -0.90762661971E+02  0.15649389206E+03  0.12000000000E+03 0.  0.
<mgrwt>
<rscale>  0 0.27630995E+03</rscale>
<asrwt>0</asrwt>
<pdfrwt beam="1">  1        2 0.27458338E-01 0.27630995E+03</pdfrwt>
<pdfrwt beam="2">  1       -2 0.16452508E-01 0.27630995E+03</pdfrwt>
<totfact> 0.56355578E+03</totfact>
</mgrwt>
</event>
<event>
 5    1  0.1140254E+001  0.2741690E+03  0.7818608E-02  0.1098917E+00
          1   -1    0    0  501    0  0.00000000000E+00  0.00000000000E+00  0.26779997859E+04  0.26779997859E+04  0.00000000000E+00 0. -1.
         -1   -1    0    0    0  501 -0.00000000000E+00 -0.00000000000E+00 -0.70172365828E+01  0.70172365828E+01  0.00000000000E+00 0. -1.
         35    2    1    2    0    0  0.00000000000E+00  0.00000000000E+00  0.26709825493E+04  0.26850170225E+04  0.27416898487E+03 0.  0.
         25    1    3    3    0    0 -0.25188322400E+02 -0.53454673372E+02  0.10416428276E+04  0.10501959979E+04  0.12000000000E+03 0.  0.
         25    1    3    3    0    0  0.25188322400E+02  0.53454673372E+02  0.16293397217E+04  0.16348210246E+04  0.12000000000E+03 0.  0.
<mgrwt>
<rscale>  0 0.27416898E+03</rscale>
<asrwt>0</asrwt>
<pdfrwt beam="1">  1        1 0.41199915E+00 0.27416898E+03</pdfrwt>
<pdfrwt beam="2">  1       -1 0.10795770E-02 0.27416898E+03</pdfrwt>
<totfact> 0.20283659E+03</totfact>
</mgrwt>
</event>
<event>
 5    1  0.1140254E+001  0.2743088E+03  0.7818608E-02  0.1098839E+00
          2   -1    0    0  501    0  0.00000000000E+00  0.00000000000E+00  0.23799905815E+04  0.23799905815E+04  0.00000000000E+00 0.  1.
         -2   -1    0    0    0  501 -0.00000000000E+00 -0.00000000000E+00 -0.79039539114E+01  0.79039539114E+01  0.00000000000E+00 0.  1.
         35    2    1    2    0    0  0.00000000000E+00  0.00000000000E+00  0.23720866275E+04  0.23878945354E+04  0.27430884685E+03 0.  0.
         25    1    3    3    0    0 -0.45018261493E+02 -0.43574388175E+02  0.13779445117E+04  0.13845780760E+04  0.12000000000E+03 0.  0.
         25    1    3    3    0    0  0.45018261493E+02  0.43574388175E+02  0.99414211581E+03  0.10033164594E+04  0.12000000000E+03 0.  0.
<mgrwt>
<rscale>  0 0.27430885E+03</rscale>
<asrwt>0</asrwt>
<pdfrwt beam="1">  1        2 0.36615183E+00 0.27430885E+03</pdfrwt>
<pdfrwt beam="2">  1       -2 0.12159948E-02 0.27430885E+03</pdfrwt>
<totfact> 0.74759341E+03</totfact>
</mgrwt>
</event>
<event>
 5    1  0.1140254E+001  0.2748100E+03  0.7818608E-02  0.1098558E+00
          2   -1    0    0  501    0  0.00000000000E+00  0.00000000000E+00  0.20643663881E+03  0.20643663881E+03  0.00000000000E+00 0. -1.
         -2   -1    0    0    0  501 -0.00000000000E+00 -0.00000000000E+00 -0.91457262284E+02  0.91457262284E+02  0.00000000000E+00 0. -1.
         35    2    1    2    0    0  0.00000000000E+00  0.00000000000E+00  0.11497937653E+03  0.29789390110E+03  0.27480996940E+03 0.  0.
         25    1    3    3    0    0 -0.88173338586E+01  0.44856533665E+02  0.11048691427E+03  0.16940251537E+03  0.12000000000E+03 0.  0.
         25    1    3    3    0    0  0.88173338586E+01 -0.44856533665E+02  0.44924622586E+01  0.12849138573E+03  0.12000000000E+03 0.  0.
<mgrwt>
<rscale>  0 0.27480997E+03</rscale>
<asrwt>0</asrwt>
<pdfrwt beam="1">  1        2 0.31759483E-01 0.27480997E+03</pdfrwt>
<pdfrwt beam="2">  1       -2 0.14070348E-01 0.27480997E+03</pdfrwt>
<totfact> 0.62200924E+03</totfact>
</mgrwt>
</event>
<event>
 5    1  0.1140254E+001  0.2751700E+03  0.7818608E-02  0.1098357E+00
          1   -1    0    0  501    0  0.00000000000E+00  0.00000000000E+00  0.89917451032E+02  0.89917451032E+02  0.00000000000E+00 0. -1.
         -1   -1    0    0    0  501 -0.00000000000E+00 -0.00000000000E+00 -0.21052235616E+03  0.21052235616E+03  0.00000000000E+00 0. -1.
         35    2    1    2    0    0  0.00000000000E+00  0.00000000000E+00 -0.12060490513E+03  0.30043980720E+03  0.27517001037E+03 0.  0.
         25    1    3    3    0    0 -0.61987691278E+02 -0.26049986801E+02 -0.57108402412E+02  0.14893772292E+03  0.12000000000E+03 0.  0.
         25    1    3    3    0    0  0.61987691278E+02  0.26049986801E+02 -0.63496502721E+02  0.15150208428E+03  0.12000000000E+03 0.  0.
<mgrwt>
<rscale>  0 0.27517001E+03</rscale>
<asrwt>0</asrwt>
<pdfrwt beam="1">  1        1 0.13833454E-01 0.27517001E+03</pdfrwt>
<pdfrwt beam="2">  1       -1 0.32388055E-01 0.27517001E+03</pdfrwt>
<totfact> 0.36955350E+03</totfact>
</mgrwt>
</event>
<event>
 5    1  0.1140254E+001  0.2686489E+03  0.7818608E-02  0.1102055E+00
         -1   -1    0    0    0  501 -0.00000000000E+00  0.00000000000E+00  0.90339514179E+02  0.90339514179E+02  0.00000000000E+00 0. -1.
          1   -1    0    0  501    0  0.00000000000E+00 -0.00000000000E+00 -0.19972495323E+03  0.19972495323E+03  0.00000000000E+00 0. -1.
         35    2    1    2    0    0  0.00000000000E+00  0.00000000000E+00 -0.10938543905E+03  0.29006446741E+03  0.26864888047E+03 0.  0.
         25    1    3    3    0    0 -0.59085524517E+02 -0.58746423657E+01 -0.42991636846E+02  0.14061966957E+03  0.12000000000E+03 0.  0.
         25    1    3    3    0    0  0.59085524517E+02  0.58746423657E+01 -0.66393802202E+02  0.14944479784E+03  0.12000000000E+03 0.  0.
<mgrwt>
<rscale>  0 0.26864888E+03</rscale>
<asrwt>0</asrwt>
<pdfrwt beam="1">  1        1 0.30726916E-01 0.26864888E+03</pdfrwt>
<pdfrwt beam="2">  1       -1 0.13898387E-01 0.26864888E+03</pdfrwt>
<totfact> 0.52894733E+03</totfact>
</mgrwt>
</event>
<event>
 5    1  0.1140254E+001  0.2749819E+03  0.7818608E-02  0.1098462E+00
          1   -1    0    0  501    0  0.00000000000E+00  0.00000000000E+00  0.68816774260E+03  0.68816774260E+03  0.00000000000E+00 0.  1.
         -1   -1    0    0    0  501 -0.00000000000E+00 -0.00000000000E+00 -0.27469690631E+02  0.27469690631E+02  0.00000000000E+00 0.  1.
         35    2    1    2    0    0  0.00000000000E+00  0.00000000000E+00  0.66069805197E+03  0.71563743323E+03  0.27498185388E+03 0.  0.
         25    1    3    3    0    0 -0.39688232675E+02  0.34690518550E+02  0.43844377502E+03  0.45761504755E+03  0.12000000000E+03 0.  0.
         25    1    3    3    0    0  0.39688232675E+02 -0.34690518550E+02  0.22225427695E+03  0.25802238568E+03  0.12000000000E+03 0.  0.
<mgrwt>
<rscale>  0 0.27498185E+03</rscale>
<asrwt>0</asrwt>
<pdfrwt beam="1">  1        1 0.10587195E+00 0.27498185E+03</pdfrwt>
<pdfrwt beam="2">  1       -1 0.42261068E-02 0.27498185E+03</pdfrwt>
<totfact> 0.65287056E+03</totfact>
</mgrwt>
</event>
<event>
 5    1  0.1140254E+001  0.2762418E+03  0.7818608E-02  0.1097759E+00
         -2   -1    0    0    0  501 -0.00000000000E+00  0.00000000000E+00  0.16692786605E+03  0.16692786605E+03  0.00000000000E+00 0. -1.
          2   -1    0    0  501    0  0.00000000000E+00 -0.00000000000E+00 -0.11428518324E+03  0.11428518324E+03  0.00000000000E+00 0. -1.
         35    2    1    2    0    0  0.00000000000E+00  0.00000000000E+00  0.52642682813E+02  0.28121304928E+03  0.27624179089E+03 0.  0.
         25    1    3    3    0    0 -0.43572991874E+02  0.49651422505E+02  0.82964176312E+01  0.13723228455E+03  0.12000000000E+03 0.  0.
         25    1    3    3    0    0  0.43572991874E+02 -0.49651422505E+02  0.44346265182E+02  0.14398076473E+03  0.12000000000E+03 0.  0.
<mgrwt>
<rscale>  0 0.27624179E+03</rscale>
<asrwt>0</asrwt>
<pdfrwt beam="1">  1        2 0.17582336E-01 0.27624179E+03</pdfrwt>
<pdfrwt beam="2">  1       -2 0.25681210E-01 0.27624179E+03</pdfrwt>
<totfact> 0.43471520E+03</totfact>
</mgrwt>
</event>
<event>
 5    1  0.1140254E+001  0.2753334E+03  0.7818608E-02  0.1098265E+00
          3   -1    0    0  501    0  0.00000000000E+00  0.00000000000E+00  0.34393492139E+03  0.34393492139E+03  0.00000000000E+00 0. -1.
         -3   -1    0    0    0  501 -0.00000000000E+00 -0.00000000000E+00 -0.55103804785E+02  0.55103804785E+02  0.00000000000E+00 0. -1.
         35    2    1    2    0    0  0.00000000000E+00  0.00000000000E+00  0.28883111660E+03  0.39903872617E+03  0.27533341800E+03 0.  0.
         25    1    3    3    0    0  0.42710904355E+02 -0.50953111192E+02  0.12778452926E+03  0.18748153725E+03  0.12000000000E+03 0.  0.
         25    1    3    3    0    0 -0.42710904355E+02  0.50953111192E+02  0.16104658734E+03  0.21155718892E+03  0.12000000000E+03 0.  0.
<mgrwt>
<rscale>  0 0.27533342E+03</rscale>
<asrwt>0</asrwt>
<pdfrwt beam="1">  1        3 0.52913063E-01 0.27533342E+03</pdfrwt>
<pdfrwt beam="2">  1       -3 0.84775087E-02 0.27533342E+03</pdfrwt>
<totfact> 0.87905216E+02</totfact>
</mgrwt>
</event>
<event>
 5    1  0.1140254E+001  0.2761131E+03  0.7818608E-02  0.1097831E+00
          2   -1    0    0  501    0  0.00000000000E+00  0.00000000000E+00  0.18862574760E+04  0.18862574760E+04  0.00000000000E+00 0.  1.
         -2   -1    0    0    0  501 -0.00000000000E+00 -0.00000000000E+00 -0.10104458019E+02  0.10104458019E+02  0.00000000000E+00 0.  1.
         35    2    1    2    0    0  0.00000000000E+00  0.00000000000E+00  0.18761530180E+04  0.18963619340E+04  0.27611308900E+03 0.  0.
         25    1    3    3    0    0 -0.13833053198E+02  0.66614997338E+02  0.90002332241E+03  0.91053330094E+03  0.12000000000E+03 0.  0.
         25    1    3    3    0    0  0.13833053198E+02 -0.66614997338E+02  0.97612969559E+03  0.98582863311E+03  0.12000000000E+03 0.  0.
<mgrwt>
<rscale>  0 0.27611309E+03</rscale>
<asrwt>0</asrwt>
<pdfrwt beam="1">  1        2 0.29019318E+00 0.27611309E+03</pdfrwt>
<pdfrwt beam="2">  1       -2 0.15545335E-02 0.27611309E+03</pdfrwt>
<totfact> 0.95470770E+03</totfact>
</mgrwt>
</event>
<event>
 5    1  0.1140254E+001  0.2748532E+03  0.7818608E-02  0.1098534E+00
          1   -1    0    0  501    0  0.00000000000E+00  0.00000000000E+00  0.71903199121E+03  0.71903199121E+03  0.00000000000E+00 0.  1.
         -1   -1    0    0    0  501 -0.00000000000E+00 -0.00000000000E+00 -0.26265976192E+02  0.26265976192E+02  0.00000000000E+00 0.  1.
         35    2    1    2    0    0  0.00000000000E+00  0.00000000000E+00  0.69276601502E+03  0.74529796740E+03  0.27485324930E+03 0.  0.
         25    1    3    3    0    0 -0.53105409358E+01 -0.50230036983E+02  0.46565794554E+03  0.48351688771E+03  0.12000000000E+03 0.  0.
         25    1    3    3    0    0  0.53105409358E+01  0.50230036983E+02  0.22710806948E+03  0.26178107968E+03  0.12000000000E+03 0.  0.
<mgrwt>
<rscale>  0 0.27485325E+03</rscale>
<asrwt>0</asrwt>
<pdfrwt beam="1">  1        1 0.11062029E+00 0.27485325E+03</pdfrwt>
<pdfrwt beam="2">  1       -1 0.40409200E-02 0.27485325E+03</pdfrwt>
<totfact> 0.65453004E+03</totfact>
</mgrwt>
</event>
<event>
 5    1  0.1140254E+001  0.2807051E+03  0.7818608E-02  0.1095304E+00
         -2   -1    0    0    0  501 -0.00000000000E+00  0.00000000000E+00  0.13879718284E+03  0.13879718284E+03  0.00000000000E+00 0.  1.
          2   -1    0    0  501    0  0.00000000000E+00 -0.00000000000E+00 -0.14192539103E+03  0.14192539103E+03  0.00000000000E+00 0.  1.
         35    2    1    2    0    0  0.00000000000E+00  0.00000000000E+00 -0.31282081879E+01  0.28072257387E+03  0.28070514387E+03 0.  0.
         25    1    3    3    0    0  0.48070663033E+02  0.54000321184E+02 -0.10051156647E+02  0.14045586169E+03  0.12000000000E+03 0.  0.
         25    1    3    3    0    0 -0.48070663033E+02 -0.54000321184E+02  0.69229484594E+01  0.14026671219E+03  0.12000000000E+03 0.  0.
<mgrwt>
<rscale>  0 0.28070514E+03</rscale>
<asrwt>0</asrwt>
<pdfrwt beam="1">  1        2 0.21834676E-01 0.28070514E+03</pdfrwt>
<pdfrwt beam="2">  1       -2 0.21353413E-01 0.28070514E+03</pdfrwt>
<totfact> 0.46831324E+03</totfact>
</mgrwt>
</event>
<event>
 5    1  0.1140254E+001  0.2753517E+03  0.7818608E-02  0.1098255E+00
         -2   -1    0    0    0  501 -0.00000000000E+00  0.00000000000E+00  0.65379328777E+01  0.65379328777E+01  0.00000000000E+00 0.  1.
          2   -1    0    0  501    0  0.00000000000E+00 -0.00000000000E+00 -0.28991790063E+04  0.28991790063E+04  0.00000000000E+00 0.  1.
         35    2    1    2    0    0  0.00000000000E+00  0.00000000000E+00 -0.28926410735E+04  0.29057169392E+04  0.27535168599E+03 0.  0.
         25    1    3    3    0    0  0.51521519370E+02  0.30547906653E+02 -0.17744747203E+04  0.17795359436E+04  0.12000000000E+03 0.  0.
         25    1    3    3    0    0 -0.51521519370E+02 -0.30547906653E+02 -0.11181663531E+04  0.11261809956E+04  0.12000000000E+03 0.  0.
<mgrwt>
<rscale>  0 0.27535169E+03</rscale>
<asrwt>0</asrwt>
<pdfrwt beam="1">  1        2 0.44602735E+00 0.27535169E+03</pdfrwt>
<pdfrwt beam="2">  1       -2 0.10058362E-02 0.27535169E+03</pdfrwt>
<totfact> 0.50485550E+03</totfact>
</mgrwt>
</event>
<event>
 5    1  0.1140254E+001  0.2750524E+03  0.7818608E-02  0.1098422E+00
         -1   -1    0    0    0  501 -0.00000000000E+00  0.00000000000E+00  0.49164046960E+02  0.49164046960E+02  0.00000000000E+00 0.  1.
          1   -1    0    0  501    0  0.00000000000E+00 -0.00000000000E+00 -0.38470105401E+03  0.38470105401E+03  0.00000000000E+00 0.  1.
         35    2    1    2    0    0  0.00000000000E+00  0.00000000000E+00 -0.33553700705E+03  0.43386510097E+03  0.27505243634E+03 0.  0.
         25    1    3    3    0    0  0.39584712068E+02 -0.31497691818E+01 -0.25324779133E+03  0.28303942179E+03  0.12000000000E+03 0.  0.
         25    1    3    3    0    0 -0.39584712068E+02  0.31497691818E+01 -0.82289215722E+02  0.15082567918E+03  0.12000000000E+03 0.  0.
<mgrwt>
<rscale>  0 0.27505244E+03</rscale>
<asrwt>0</asrwt>
<pdfrwt beam="1">  1        1 0.59184779E-01 0.27505244E+03</pdfrwt>
<pdfrwt beam="2">  1       -1 0.75636993E-02 0.27505244E+03</pdfrwt>
<totfact> 0.59451016E+03</totfact>
</mgrwt>
</event>
<event>
 5    1  0.1140254E+001  0.2751819E+03  0.7818608E-02  0.1098350E+00
          1   -1    0    0  501    0  0.00000000000E+00  0.00000000000E+00  0.75297764929E+03  0.75297764929E+03  0.00000000000E+00 0. -1.
         -1   -1    0    0    0  501 -0.00000000000E+00 -0.00000000000E+00 -0.25141882903E+02  0.25141882903E+02  0.00000000000E+00 0. -1.
         35    2    1    2    0    0  0.00000000000E+00  0.00000000000E+00  0.72783576639E+03  0.77811953220E+03  0.27518194626E+03 0.  0.
         25    1    3    3    0    0  0.81972532432E+01 -0.32485619176E+02  0.19882629700E+03  0.23463675499E+03  0.12000000000E+03 0.  0.
         25    1    3    3    0    0 -0.81972532432E+01  0.32485619176E+02  0.52900946939E+03  0.54348277720E+03  0.12000000000E+03 0.  0.
<mgrwt>
<rscale>  0 0.27518195E+03</rscale>
<asrwt>0</asrwt>
<pdfrwt beam="1">  1        1 0.11584270E+00 0.27518195E+03</pdfrwt>
<pdfrwt beam="2">  1       -1 0.38679826E-02 0.27518195E+03</pdfrwt>
<totfact> 0.65222432E+03</totfact>
</mgrwt>
</event>
<event>
 5    1  0.1140254E+001  0.2754027E+03  0.7818608E-02  0.1098227E+00
         -3   -1    0    0    0  501 -0.00000000000E+00  0.00000000000E+00  0.11981116280E+03  0.11981116280E+03  0.00000000000E+00 0.  1.
          3   -1    0    0  501    0  0.00000000000E+00 -0.00000000000E+00 -0.15826289361E+03  0.15826289361E+03  0.00000000000E+00 0.  1.
         35    2    1    2    0    0  0.00000000000E+00  0.00000000000E+00 -0.38451730817E+02  0.27807405641E+03  0.27540269651E+03 0.  0.
         25    1    3    3    0    0  0.15356093559E+02 -0.45319297506E+01  0.47025474349E+02  0.12987587626E+03  0.12000000000E+03 0.  0.
         25    1    3    3    0    0 -0.15356093559E+02  0.45319297506E+01 -0.85477205166E+02  0.14819818015E+03  0.12000000000E+03 0.  0.
<mgrwt>
<rscale>  0 0.27540270E+03</rscale>
<asrwt>0</asrwt>
<pdfrwt beam="1">  1        3 0.24348137E-01 0.27540270E+03</pdfrwt>
<pdfrwt beam="2">  1       -3 0.18432487E-01 0.27540270E+03</pdfrwt>
<totfact> 0.10395705E+03</totfact>
</mgrwt>
</event>
<event>
 5    1  0.1140254E+001  0.2767021E+03  0.7818608E-02  0.1097504E+00
          1   -1    0    0  501    0  0.00000000000E+00  0.00000000000E+00  0.19478089774E+03  0.19478089774E+03  0.00000000000E+00 0. -1.
         -1   -1    0    0    0  501 -0.00000000000E+00 -0.00000000000E+00 -0.98269484030E+02  0.98269484030E+02  0.00000000000E+00 0. -1.
         35    2    1    2    0    0  0.00000000000E+00  0.00000000000E+00  0.96511413709E+02  0.29305038177E+03  0.27670213819E+03 0.  0.
         25    1    3    3    0    0  0.64734519324E+02  0.12560830273E+02  0.69242805980E+02  0.15343695327E+03  0.12000000000E+03 0.  0.
         25    1    3    3    0    0 -0.64734519324E+02 -0.12560830273E+02  0.27268607729E+02  0.13961342850E+03  0.12000000000E+03 0.  0.
<mgrwt>
<rscale>  0 0.27670214E+03</rscale>
<asrwt>0</asrwt>
<pdfrwt beam="1">  1        1 0.29966292E-01 0.27670214E+03</pdfrwt>
<pdfrwt beam="2">  1       -1 0.15118382E-01 0.27670214E+03</pdfrwt>
<totfact> 0.47833938E+03</totfact>
</mgrwt>
</event>
<event>
 5    1  0.1140254E+001  0.2752795E+03  0.7818608E-02  0.1098295E+00
          1   -1    0    0  501    0  0.00000000000E+00  0.00000000000E+00  0.11555900679E+03  0.11555900679E+03  0.00000000000E+00 0.  1.
         -1   -1    0    0    0  501 -0.00000000000E+00 -0.00000000000E+00 -0.16393958977E+03  0.16393958977E+03  0.00000000000E+00 0.  1.
         35    2    1    2    0    0  0.00000000000E+00  0.00000000000E+00 -0.48380582974E+02  0.27949859656E+03  0.27527946649E+03 0.  0.
         25    1    3    3    0    0 -0.40752461152E+02  0.12066205791E+02  0.28940890725E+02  0.13055240928E+03  0.12000000000E+03 0.  0.
         25    1    3    3    0    0  0.40752461152E+02 -0.12066205791E+02 -0.77321473699E+02  0.14894618729E+03  0.12000000000E+03 0.  0.
<mgrwt>
<rscale>  0 0.27527947E+03</rscale>
<asrwt>0</asrwt>
<pdfrwt beam="1">  1        1 0.17778309E-01 0.27527947E+03</pdfrwt>
<pdfrwt beam="2">  1       -1 0.25221475E-01 0.27527947E+03</pdfrwt>
<totfact> 0.40622706E+03</totfact>
</mgrwt>
</event>
<event>
 5    1  0.1140254E+001  0.2750715E+03  0.7818608E-02  0.1098412E+00
          2   -1    0    0  501    0  0.00000000000E+00  0.00000000000E+00  0.14958707341E+03  0.14958707341E+03  0.00000000000E+00 0.  1.
         -2   -1    0    0    0  501 -0.00000000000E+00 -0.00000000000E+00 -0.12645537054E+03  0.12645537054E+03  0.00000000000E+00 0.  1.
         35    2    1    2    0    0  0.00000000000E+00  0.00000000000E+00  0.23131702868E+02  0.27604244395E+03  0.27507154558E+03 0.  0.
         25    1    3    3    0    0  0.44975131715E+02  0.25006090071E+02 -0.31807318549E+02  0.13438665308E+03  0.12000000000E+03 0.  0.
         25    1    3    3    0    0 -0.44975131715E+02 -0.25006090071E+02  0.54939021417E+02  0.14165579087E+03  0.12000000000E+03 0.  0.
<mgrwt>
<rscale>  0 0.27507155E+03</rscale>
<asrwt>0</asrwt>
<pdfrwt beam="1">  1        2 0.23013396E-01 0.27507155E+03</pdfrwt>
<pdfrwt beam="2">  1       -2 0.19454672E-01 0.27507155E+03</pdfrwt>
<totfact> 0.51735277E+03</totfact>
</mgrwt>
</event>
<event>
 5    1  0.1140254E+001  0.2754736E+03  0.7818608E-02  0.1098187E+00
         -2   -1    0    0    0  501 -0.00000000000E+00  0.00000000000E+00  0.25489075821E+02  0.25489075821E+02  0.00000000000E+00 0. -1.
          2   -1    0    0  501    0  0.00000000000E+00 -0.00000000000E+00 -0.74429639320E+03  0.74429639320E+03  0.00000000000E+00 0. -1.
         35    2    1    2    0    0  0.00000000000E+00  0.00000000000E+00 -0.71880731738E+03  0.76978546902E+03  0.27547360817E+03 0.  0.
         25    1    3    3    0    0  0.21462120367E+02 -0.10623265679E+02 -0.53609222012E+03  0.54988030048E+03  0.12000000000E+03 0.  0.
         25    1    3    3    0    0 -0.21462120367E+02  0.10623265679E+02 -0.18271509726E+03  0.21990516854E+03  0.12000000000E+03 0.  0.
<mgrwt>
<rscale>  0 0.27547361E+03</rscale>
<asrwt>0</asrwt>
<pdfrwt beam="1">  1        2 0.11450714E+00 0.27547361E+03</pdfrwt>
<pdfrwt beam="2">  1       -2 0.39213963E-02 0.27547361E+03</pdfrwt>
<totfact> 0.10969215E+04</totfact>
</mgrwt>
</event>
<event>
 5    1  0.1140254E+001  0.2746714E+03  0.7818608E-02  0.1098635E+00
         -2   -1    0    0    0  501 -0.00000000000E+00  0.00000000000E+00  0.10893363020E+03  0.10893363020E+03  0.00000000000E+00 0.  1.
          2   -1    0    0  501    0  0.00000000000E+00 -0.00000000000E+00 -0.17314300159E+03  0.17314300159E+03  0.00000000000E+00 0.  1.
         35    2    1    2    0    0  0.00000000000E+00  0.00000000000E+00 -0.64209371391E+02  0.28207663178E+03  0.27467140882E+03 0.  0.
         25    1    3    3    0    0  0.19106703352E+02 -0.57229408867E+02 -0.61527131453E+02  0.14773577514E+03  0.12000000000E+03 0.  0.
         25    1    3    3    0    0 -0.19106703352E+02  0.57229408867E+02 -0.26822399379E+01  0.13434085664E+03  0.12000000000E+03 0.  0.
<mgrwt>
<rscale>  0 0.27467141E+03</rscale>
<asrwt>0</asrwt>
<pdfrwt beam="1">  1        2 0.26637385E-01 0.27467141E+03</pdfrwt>
<pdfrwt beam="2">  1       -2 0.16759020E-01 0.27467141E+03</pdfrwt>
<totfact> 0.56501744E+03</totfact>
</mgrwt>
</event>
<event>
 5    1  0.1140254E+001  0.2862977E+03  0.7818608E-02  0.1092298E+00
         -2   -1    0    0    0  501 -0.00000000000E+00  0.00000000000E+00  0.30390437135E+02  0.30390437135E+02  0.00000000000E+00 0.  1.
          2   -1    0    0  501    0  0.00000000000E+00 -0.00000000000E+00 -0.67427757756E+03  0.67427757756E+03  0.00000000000E+00 0.  1.
         35    2    1    2    0    0  0.00000000000E+00  0.00000000000E+00 -0.64388714043E+03  0.70466801470E+03  0.28629767958E+03 0.  0.
         25    1    3    3    0    0 -0.58765782666E+02  0.51219087922E+02 -0.33140543648E+03  0.36097974390E+03  0.12000000000E+03 0.  0.
         25    1    3    3    0    0  0.58765782666E+02 -0.51219087922E+02 -0.31248170395E+03  0.34368827079E+03  0.12000000000E+03 0.  0.
<mgrwt>
<rscale>  0 0.28629768E+03</rscale>
<asrwt>0</asrwt>
<pdfrwt beam="1">  1        2 0.10373501E+00 0.28629768E+03</pdfrwt>
<pdfrwt beam="2">  1       -2 0.46754521E-02 0.28629768E+03</pdfrwt>
<totfact> 0.95009240E+03</totfact>
</mgrwt>
</event>
<event>
 5    1  0.1140254E+001  0.2750262E+03  0.7818608E-02  0.1098437E+00
         -1   -1    0    0    0  501 -0.00000000000E+00  0.00000000000E+00  0.14991294893E+03  0.14991294893E+03  0.00000000000E+00 0.  1.
          1   -1    0    0  501    0  0.00000000000E+00 -0.00000000000E+00 -0.12613886616E+03  0.12613886616E+03  0.00000000000E+00 0.  1.
         35    2    1    2    0    0  0.00000000000E+00  0.00000000000E+00  0.23774082777E+02  0.27605181509E+03  0.27502617622E+03 0.  0.
         25    1    3    3    0    0 -0.54338765604E+02  0.46539249473E+01  0.51218488185E+02  0.14141320305E+03  0.12000000000E+03 0.  0.
         25    1    3    3    0    0  0.54338765604E+02 -0.46539249473E+01 -0.27444405408E+02  0.13463861204E+03  0.12000000000E+03 0.  0.
<mgrwt>
<rscale>  0 0.27502618E+03</rscale>
<asrwt>0</asrwt>
<pdfrwt beam="1">  1        1 0.19405979E-01 0.27502618E+03</pdfrwt>
<pdfrwt beam="2">  1       -1 0.23063531E-01 0.27502618E+03</pdfrwt>
<totfact> 0.42059020E+03</totfact>
</mgrwt>
</event>
<event>
 5    1  0.1140254E+001  0.2749990E+03  0.7818608E-02  0.1098452E+00
          1   -1    0    0  501    0  0.00000000000E+00  0.00000000000E+00  0.10429536380E+03  0.10429536380E+03  0.00000000000E+00 0.  1.
         -1   -1    0    0    0  501 -0.00000000000E+00 -0.00000000000E+00 -0.18127465645E+03  0.18127465645E+03  0.00000000000E+00 0.  1.
         35    2    1    2    0    0  0.00000000000E+00  0.00000000000E+00 -0.76979292656E+02  0.28557002025E+03  0.27499895448E+03 0.  0.
         25    1    3    3    0    0  0.60941571908E+02  0.10715243359E+02 -0.11461961210E+02  0.13549932908E+03  0.12000000000E+03 0.  0.
         25    1    3    3    0    0 -0.60941571908E+02 -0.10715243359E+02 -0.65517331446E+02  0.15007069116E+03  0.12000000000E+03 0.  0.
<mgrwt>
<rscale>  0 0.27499895E+03</rscale>
<asrwt>0</asrwt>
<pdfrwt beam="1">  1        1 0.16045441E-01 0.27499895E+03</pdfrwt>
<pdfrwt beam="2">  1       -1 0.27888408E-01 0.27499895E+03</pdfrwt>
<totfact> 0.39233102E+03</totfact>
</mgrwt>
</event>
<event>
 5    1  0.1140254E+001  0.2756170E+03  0.7818608E-02  0.1098107E+00
          1   -1    0    0  501    0  0.00000000000E+00  0.00000000000E+00  0.20051555833E+03  0.20051555833E+03  0.00000000000E+00 0. -1.
         -1   -1    0    0    0  501 -0.00000000000E+00 -0.00000000000E+00 -0.94711765632E+02  0.94711765632E+02  0.00000000000E+00 0. -1.
         35    2    1    2    0    0  0.00000000000E+00  0.00000000000E+00  0.10580379270E+03  0.29522732396E+03  0.27561699923E+03 0.  0.
         25    1    3    3    0    0  0.57088628591E+02 -0.31192531263E+02  0.32603745968E+02  0.14033919542E+03  0.12000000000E+03 0.  0.
         25    1    3    3    0    0 -0.57088628591E+02  0.31192531263E+02  0.73200046731E+02  0.15488812854E+03  0.12000000000E+03 0.  0.
<mgrwt>
<rscale>  0 0.27561700E+03</rscale>
<asrwt>0</asrwt>
<pdfrwt beam="1">  1        1 0.30848547E-01 0.27561700E+03</pdfrwt>
<pdfrwt beam="2">  1       -1 0.14571041E-01 0.27561700E+03</pdfrwt>
<totfact> 0.48885477E+03</totfact>
</mgrwt>
</event>
<event>
 5    1  0.1140254E+001  0.2751958E+03  0.7818608E-02  0.1098342E+00
          1   -1    0    0  501    0  0.00000000000E+00  0.00000000000E+00  0.45631332709E+02  0.45631332709E+02  0.00000000000E+00 0.  1.
         -1   -1    0    0    0  501 -0.00000000000E+00 -0.00000000000E+00 -0.41491632726E+03  0.41491632726E+03  0.00000000000E+00 0.  1.
         35    2    1    2    0    0  0.00000000000E+00  0.00000000000E+00 -0.36928499455E+03  0.46054765996E+03  0.27519582101E+03 0.  0.
         25    1    3    3    0    0  0.51642167199E+02 -0.16637979970E+02 -0.25136250173E+03  0.28377251996E+03  0.12000000000E+03 0.  0.
         25    1    3    3    0    0 -0.51642167199E+02  0.16637979970E+02 -0.11792249282E+03  0.17677514000E+03  0.12000000000E+03 0.  0.
<mgrwt>
<rscale>  0 0.27519582E+03</rscale>
<asrwt>0</asrwt>
<pdfrwt beam="1">  1        1 0.70202046E-02 0.27519582E+03</pdfrwt>
<pdfrwt beam="2">  1       -1 0.63833285E-01 0.27519582E+03</pdfrwt>
<totfact> 0.26718683E+03</totfact>
</mgrwt>
</event>
<event>
 5    1  0.1140254E+001  0.2751210E+03  0.7818608E-02  0.1098384E+00
         -1   -1    0    0    0  501 -0.00000000000E+00  0.00000000000E+00  0.56248469797E+03  0.56248469797E+03  0.00000000000E+00 0.  1.
          1   -1    0    0  501    0  0.00000000000E+00 -0.00000000000E+00 -0.33641601831E+02  0.33641601831E+02  0.00000000000E+00 0.  1.
         35    2    1    2    0    0  0.00000000000E+00  0.00000000000E+00  0.52884309614E+03  0.59612629980E+03  0.27512096427E+03 0.  0.
         25    1    3    3    0    0  0.60862263484E+02  0.16299551276E+02  0.31537522123E+03  0.34326581632E+03  0.12000000000E+03 0.  0.
         25    1    3    3    0    0 -0.60862263484E+02 -0.16299551276E+02  0.21346787491E+03  0.25286048348E+03  0.12000000000E+03 0.  0.
<mgrwt>
<rscale>  0 0.27512096E+03</rscale>
<asrwt>0</asrwt>
<pdfrwt beam="1">  1        1 0.51756315E-02 0.27512096E+03</pdfrwt>
<pdfrwt beam="2">  1       -1 0.86536101E-01 0.27512096E+03</pdfrwt>
<totfact> 0.21894666E+03</totfact>
</mgrwt>
</event>
<event>
 5    1  0.1140254E+001  0.2795069E+03  0.7818608E-02  0.1095959E+00
         -4   -1    0    0    0  501 -0.00000000000E+00  0.00000000000E+00  0.15082060098E+03  0.15082060098E+03  0.00000000000E+00 0.  1.
          4   -1    0    0  501    0  0.00000000000E+00 -0.00000000000E+00 -0.12949835959E+03  0.12949835959E+03  0.00000000000E+00 0.  1.
         35    2    1    2    0    0  0.00000000000E+00  0.00000000000E+00  0.21322241390E+02  0.28031896057E+03  0.27950685443E+03 0.  0.
         25    1    3    3    0    0  0.55966543815E+02 -0.33248198689E+02  0.40636482493E+02  0.14243953262E+03  0.12000000000E+03 0.  0.
         25    1    3    3    0    0 -0.55966543815E+02  0.33248198689E+02 -0.19314241103E+02  0.13787942795E+03  0.12000000000E+03 0.  0.
<mgrwt>
<rscale>  0 0.27950685E+03</rscale>
<asrwt>0</asrwt>
<pdfrwt beam="1">  1        4 0.19922825E-01 0.27950685E+03</pdfrwt>
<pdfrwt beam="2">  1       -4 0.23203169E-01 0.27950685E+03</pdfrwt>
<totfact> 0.73446631E+02</totfact>
</mgrwt>
</event>
<event>
 5    1  0.1140254E+001  0.2767268E+03  0.7818608E-02  0.1097490E+00
         -1   -1    0    0    0  501 -0.00000000000E+00  0.00000000000E+00  0.10856804299E+04  0.10856804299E+04  0.00000000000E+00 0.  1.
          1   -1    0    0  501    0  0.00000000000E+00 -0.00000000000E+00 -0.17633580315E+02  0.17633580315E+02  0.00000000000E+00 0.  1.
         35    2    1    2    0    0  0.00000000000E+00  0.00000000000E+00  0.10680468496E+04  0.11033140102E+04  0.27672681877E+03 0.  0.
         25    1    3    3    0    0 -0.32273225554E+01  0.67542838912E+02  0.48173689351E+03  0.50104179992E+03  0.12000000000E+03 0.  0.
         25    1    3    3    0    0  0.32273225554E+01 -0.67542838912E+02  0.58630995609E+03  0.60227221031E+03  0.12000000000E+03 0.  0.
<mgrwt>
<rscale>  0 0.27672682E+03</rscale>
<asrwt>0</asrwt>
<pdfrwt beam="1">  1        1 0.27128593E-02 0.27672682E+03</pdfrwt>
<pdfrwt beam="2">  1       -1 0.16702771E+00 0.27672682E+03</pdfrwt>
<totfact> 0.11106069E+03</totfact>
</mgrwt>
</event>
<event>
 5    1  0.1140254E+001  0.2756825E+03  0.7818608E-02  0.1098071E+00
         -1   -1    0    0    0  501 -0.00000000000E+00  0.00000000000E+00  0.26125075562E+03  0.26125075562E+03  0.00000000000E+00 0.  1.
          1   -1    0    0  501    0  0.00000000000E+00 -0.00000000000E+00 -0.72727858249E+02  0.72727858249E+02  0.00000000000E+00 0.  1.
         35    2    1    2    0    0  0.00000000000E+00  0.00000000000E+00  0.18852289737E+03  0.33397861387E+03  0.27568248346E+03 0.  0.
         25    1    3    3    0    0  0.66442550927E+02  0.11626370340E+02  0.85658977450E+02  0.16213341876E+03  0.12000000000E+03 0.  0.
         25    1    3    3    0    0 -0.66442550927E+02 -0.11626370340E+02  0.10286391992E+03  0.17184519511E+03  0.12000000000E+03 0.  0.
<mgrwt>
<rscale>  0 0.27568248E+03</rscale>
<asrwt>0</asrwt>
<pdfrwt beam="1">  1        1 0.11188901E-01 0.27568248E+03</pdfrwt>
<pdfrwt beam="2">  1       -1 0.40192424E-01 0.27568248E+03</pdfrwt>
<totfact> 0.33593945E+03</totfact>
</mgrwt>
</event>
<event>
 5    1  0.1140254E+001  0.2742892E+03  0.7818608E-02  0.1098850E+00
         -2   -1    0    0    0  501 -0.00000000000E+00  0.00000000000E+00  0.10446959490E+03  0.10446959490E+03  0.00000000000E+00 0. -1.
          2   -1    0    0  501    0  0.00000000000E+00 -0.00000000000E+00 -0.18003943599E+03  0.18003943599E+03  0.00000000000E+00 0. -1.
         35    2    1    2    0    0  0.00000000000E+00  0.00000000000E+00 -0.75569841089E+02  0.28450903089E+03  0.27428924109E+03 0.  0.
         25    1    3    3    0    0  0.19507803612E+02  0.38559193820E+02 -0.90074318069E+02  0.15614335915E+03  0.12000000000E+03 0.  0.
         25    1    3    3    0    0 -0.19507803612E+02 -0.38559193820E+02  0.14504476980E+02  0.12836567174E+03  0.12000000000E+03 0.  0.
<mgrwt>
<rscale>  0 0.27428924E+03</rscale>
<asrwt>0</asrwt>
<pdfrwt beam="1">  1        2 0.27698375E-01 0.27428924E+03</pdfrwt>
<pdfrwt beam="2">  1       -2 0.16072245E-01 0.27428924E+03</pdfrwt>
<totfact> 0.58019296E+03</totfact>
</mgrwt>
</event>
<event>
 5    1  0.1140254E+001  0.2754585E+03  0.7818608E-02  0.1098196E+00
          2   -1    0    0  501    0  0.00000000000E+00  0.00000000000E+00  0.25089515373E+02  0.25089515373E+02  0.00000000000E+00 0.  1.
         -2   -1    0    0    0  501 -0.00000000000E+00 -0.00000000000E+00 -0.75606662397E+03  0.75606662397E+03  0.00000000000E+00 0.  1.
         35    2    1    2    0    0  0.00000000000E+00  0.00000000000E+00 -0.73097710860E+03  0.78115613935E+03  0.27545849186E+03 0.  0.
         25    1    3    3    0    0  0.53352711817E+02 -0.28010858443E+02 -0.45235163278E+03  0.47186133527E+03  0.12000000000E+03 0.  0.
         25    1    3    3    0    0 -0.53352711817E+02  0.28010858443E+02 -0.27862547582E+03  0.30929480407E+03  0.12000000000E+03 0.  0.
<mgrwt>
<rscale>  0 0.27545849E+03</rscale>
<asrwt>0</asrwt>
<pdfrwt beam="1">  1        2 0.38599261E-02 0.27545849E+03</pdfrwt>
<pdfrwt beam="2">  1       -2 0.11631792E+00 0.27545849E+03</pdfrwt>
<totfact> 0.13317574E+03</totfact>
</mgrwt>
</event>
<event>
 5    1  0.1140254E+001  0.2681149E+03  0.7818608E-02  0.1102363E+00
          2   -1    0    0  501    0  0.00000000000E+00  0.00000000000E+00  0.10781226658E+04  0.10781226658E+04  0.00000000000E+00 0.  1.
         -2   -1    0    0    0  501 -0.00000000000E+00 -0.00000000000E+00 -0.16669157093E+02  0.16669157093E+02  0.00000000000E+00 0.  1.
         35    2    1    2    0    0  0.00000000000E+00  0.00000000000E+00  0.10614535087E+04  0.10947918229E+04  0.26811487152E+03 0.  0.
         25    1    3    3    0    0 -0.53394186553E+02  0.19581724400E+02  0.60568751149E+03  0.62007398322E+03  0.12000000000E+03 0.  0.
         25    1    3    3    0    0  0.53394186553E+02 -0.19581724400E+02  0.45576599726E+03  0.47471783971E+03  0.12000000000E+03 0.  0.
<mgrwt>
<rscale>  0 0.26811487E+03</rscale>
<asrwt>0</asrwt>
<pdfrwt beam="1">  1        2 0.16586497E+00 0.26811487E+03</pdfrwt>
<pdfrwt beam="2">  1       -2 0.25644865E-02 0.26811487E+03</pdfrwt>
<totfact> 0.12557127E+04</totfact>
</mgrwt>
</event>
<event>
 5    1  0.1140254E+001  0.2712396E+03  0.7818608E-02  0.1100572E+00
         -2   -1    0    0    0  501 -0.00000000000E+00  0.00000000000E+00  0.37561266963E+02  0.37561266963E+02  0.00000000000E+00 0.  1.
          2   -1    0    0  501    0  0.00000000000E+00 -0.00000000000E+00 -0.48967292412E+03  0.48967292412E+03  0.00000000000E+00 0.  1.
         35    2    1    2    0    0  0.00000000000E+00  0.00000000000E+00 -0.45211165716E+03  0.52723419109E+03  0.27123963890E+03 0.  0.
         25    1    3    3    0    0 -0.20208849888E+02  0.31663580977E+02 -0.32482194119E+03  0.34831059911E+03  0.12000000000E+03 0.  0.
         25    1    3    3    0    0  0.20208849888E+02 -0.31663580977E+02 -0.12728971597E+03  0.17892359198E+03  0.12000000000E+03 0.  0.
<mgrwt>
<rscale>  0 0.27123964E+03</rscale>
<asrwt>0</asrwt>
<pdfrwt beam="1">  1        2 0.75334297E-01 0.27123964E+03</pdfrwt>
<pdfrwt beam="2">  1       -2 0.57786564E-02 0.27123964E+03</pdfrwt>
<totfact> 0.99298568E+03</totfact>
</mgrwt>
</event>
<event>
 5    1  0.1140254E+001  0.2740158E+03  0.7818608E-02  0.1099003E+00
          2   -1    0    0  501    0  0.00000000000E+00  0.00000000000E+00  0.20116781186E+03  0.20116781186E+03  0.00000000000E+00 0. -1.
         -2   -1    0    0    0  501 -0.00000000000E+00 -0.00000000000E+00 -0.93310973130E+02  0.93310973130E+02  0.00000000000E+00 0. -1.
         35    2    1    2    0    0  0.00000000000E+00  0.00000000000E+00  0.10785683873E+03  0.29447878499E+03  0.27401579726E+03 0.  0.
         25    1    3    3    0    0 -0.15738894523E+02 -0.61580846388E+02  0.73487881527E+02  0.15440331011E+03  0.12000000000E+03 0.  0.
         25    1    3    3    0    0  0.15738894523E+02  0.61580846388E+02  0.34368957203E+02  0.14007547488E+03  0.12000000000E+03 0.  0.
<mgrwt>
<rscale>  0 0.27401580E+03</rscale>
<asrwt>0</asrwt>
<pdfrwt beam="1">  1        2 0.30948894E-01 0.27401580E+03</pdfrwt>
<pdfrwt beam="2">  1       -2 0.14355534E-01 0.27401580E+03</pdfrwt>
<totfact> 0.61903693E+03</totfact>
</mgrwt>
</event>
<event>
 5    1  0.1140254E+001  0.2746359E+03  0.7818608E-02  0.1098655E+00
          2   -1    0    0  501    0  0.00000000000E+00  0.00000000000E+00  0.42649651387E+03  0.42649651387E+03  0.00000000000E+00 0.  1.
         -2   -1    0    0    0  501 -0.00000000000E+00 -0.00000000000E+00 -0.44211909875E+02  0.44211909875E+02  0.00000000000E+00 0.  1.
         35    2    1    2    0    0  0.00000000000E+00  0.00000000000E+00  0.38228460399E+03  0.47070842374E+03  0.27463594399E+03 0.  0.
         25    1    3    3    0    0 -0.64071142382E+02  0.17082324188E+02  0.20434165080E+03  0.24607402816E+03  0.12000000000E+03 0.  0.
         25    1    3    3    0    0  0.64071142382E+02 -0.17082324188E+02  0.17794295319E+03  0.22463439558E+03  0.12000000000E+03 0.  0.
<mgrwt>
<rscale>  0 0.27463594E+03</rscale>
<asrwt>0</asrwt>
<pdfrwt beam="1">  1        2 0.65614846E-01 0.27463594E+03</pdfrwt>
<pdfrwt beam="2">  1       -2 0.68018326E-02 0.27463594E+03</pdfrwt>
<totfact> 0.90045880E+03</totfact>
</mgrwt>
</event>
<event>
 5    1  0.1140254E+001  0.2750843E+03  0.7818608E-02  0.1098404E+00
         -1   -1    0    0    0  501 -0.00000000000E+00  0.00000000000E+00  0.86474773306E+02  0.86474773306E+02  0.00000000000E+00 0.  1.
          1   -1    0    0  501    0  0.00000000000E+00 -0.00000000000E+00 -0.21876723376E+03  0.21876723376E+03  0.00000000000E+00 0.  1.
         35    2    1    2    0    0  0.00000000000E+00  0.00000000000E+00 -0.13229246045E+03  0.30524200706E+03  0.27508432850E+03 0.  0.
         25    1    3    3    0    0  0.47639548347E+02 -0.25666075323E+02 -0.21905867009E+02  0.13344714684E+03  0.12000000000E+03 0.  0.
         25    1    3    3    0    0 -0.47639548347E+02  0.25666075323E+02 -0.11038659344E+03  0.17179486023E+03  0.12000000000E+03 0.  0.
<mgrwt>
<rscale>  0 0.27508433E+03</rscale>
<asrwt>0</asrwt>
<pdfrwt beam="1">  1        1 0.33656497E-01 0.27508433E+03</pdfrwt>
<pdfrwt beam="2">  1       -1 0.13303811E-01 0.27508433E+03</pdfrwt>
<totfact> 0.50568390E+03</totfact>
</mgrwt>
</event>
<event>
 5    1  0.1140254E+001  0.2754649E+03  0.7818608E-02  0.1098192E+00
         -2   -1    0    0    0  501 -0.00000000000E+00  0.00000000000E+00  0.14610201021E+02  0.14610201021E+02  0.00000000000E+00 0.  1.
          2   -1    0    0  501    0  0.00000000000E+00 -0.00000000000E+00 -0.12984235723E+04  0.12984235723E+04  0.00000000000E+00 0.  1.
         35    2    1    2    0    0  0.00000000000E+00  0.00000000000E+00 -0.12838133713E+04  0.13130337733E+04  0.27546491175E+03 0.  0.
         25    1    3    3    0    0  0.54636605416E+02  0.37604193800E+02 -0.57957601913E+03  0.59557333385E+03  0.12000000000E+03 0.  0.
         25    1    3    3    0    0 -0.54636605416E+02 -0.37604193800E+02 -0.70423735213E+03  0.71746043945E+03  0.12000000000E+03 0.  0.
<mgrwt>
<rscale>  0 0.27546491E+03</rscale>
<asrwt>0</asrwt>
<pdfrwt beam="1">  1        2 0.19975758E+00 0.27546491E+03</pdfrwt>
<pdfrwt beam="2">  1       -2 0.22477220E-02 0.27546491E+03</pdfrwt>
<totfact> 0.11430505E+04</totfact>
</mgrwt>
</event>
<event>
 5    1  0.1140254E+001  0.2748603E+03  0.7818608E-02  0.1098530E+00
          2   -1    0    0  501    0  0.00000000000E+00  0.00000000000E+00  0.16501040800E+03  0.16501040800E+03  0.00000000000E+00 0.  1.
         -2   -1    0    0    0  501 -0.00000000000E+00 -0.00000000000E+00 -0.11445973527E+03  0.11445973527E+03  0.00000000000E+00 0.  1.
         35    2    1    2    0    0  0.00000000000E+00  0.00000000000E+00  0.50550672729E+02  0.27947014327E+03  0.27486031082E+03 0.  0.
         25    1    3    3    0    0 -0.51624738433E+02  0.24721109396E+02 -0.10104818105E+02  0.13333549496E+03  0.12000000000E+03 0.  0.
         25    1    3    3    0    0  0.51624738433E+02 -0.24721109396E+02  0.60655490834E+02  0.14613464831E+03  0.12000000000E+03 0.  0.
<mgrwt>
<rscale>  0 0.27486031E+03</rscale>
<asrwt>0</asrwt>
<pdfrwt beam="1">  1        2 0.25386217E-01 0.27486031E+03</pdfrwt>
<pdfrwt beam="2">  1       -2 0.17609190E-01 0.27486031E+03</pdfrwt>
<totfact> 0.54862513E+03</totfact>
</mgrwt>
</event>
<event>
 5    1  0.1140254E+001  0.2755911E+03  0.7818608E-02  0.1098122E+00
          2   -1    0    0  501    0  0.00000000000E+00  0.00000000000E+00  0.26660335893E+03  0.26660335893E+03  0.00000000000E+00 0. -1.
         -2   -1    0    0    0  501 -0.00000000000E+00 -0.00000000000E+00 -0.71220435810E+02  0.71220435810E+02  0.00000000000E+00 0. -1.
         35    2    1    2    0    0  0.00000000000E+00  0.00000000000E+00  0.19538292312E+03  0.33782379474E+03  0.27559105509E+03 0.  0.
         25    1    3    3    0    0 -0.41173274565E+02  0.43400417834E+01  0.31981198441E+02  0.13090787430E+03  0.12000000000E+03 0.  0.
         25    1    3    3    0    0  0.41173274565E+02 -0.43400417834E+01  0.16340172468E+03  0.20691592043E+03  0.12000000000E+03 0.  0.
<mgrwt>
<rscale>  0 0.27559106E+03</rscale>
<asrwt>0</asrwt>
<pdfrwt beam="1">  1        2 0.41015901E-01 0.27559106E+03</pdfrwt>
<pdfrwt beam="2">  1       -2 0.10956990E-01 0.27559106E+03</pdfrwt>
<totfact> 0.70698132E+03</totfact>
</mgrwt>
</event>
<event>
 5    1  0.1140254E+001  0.2747683E+03  0.7818608E-02  0.1098581E+00
          2   -1    0    0  501    0  0.00000000000E+00  0.00000000000E+00  0.22050681881E+03  0.22050681881E+03  0.00000000000E+00 0. -1.
         -2   -1    0    0    0  501 -0.00000000000E+00 -0.00000000000E+00 -0.85595548800E+02  0.85595548800E+02  0.00000000000E+00 0. -1.
         35    2    1    2    0    0  0.00000000000E+00  0.00000000000E+00  0.13491127001E+03  0.30610236761E+03  0.27476828179E+03 0.  0.
         25    1    3    3    0    0  0.73384260290E+01 -0.57431425179E+02  0.30136500686E+02  0.13660318360E+03  0.12000000000E+03 0.  0.
         25    1    3    3    0    0 -0.73384260290E+01  0.57431425179E+02  0.10477476932E+03  0.16949918401E+03  0.12000000000E+03 0.  0.
<mgrwt>
<rscale>  0 0.27476828E+03</rscale>
<asrwt>0</asrwt>
<pdfrwt beam="1">  1        2 0.33924126E-01 0.27476828E+03</pdfrwt>
<pdfrwt beam="2">  1       -2 0.13168546E-01 0.27476828E+03</pdfrwt>
<totfact> 0.64509033E+03</totfact>
</mgrwt>
</event>
<event>
 5    1  0.1140254E+001  0.2753683E+03  0.7818608E-02  0.1098246E+00
          3   -1    0    0  501    0  0.00000000000E+00  0.00000000000E+00  0.32544884819E+03  0.32544884819E+03  0.00000000000E+00 0. -1.
         -3   -1    0    0    0  501 -0.00000000000E+00 -0.00000000000E+00 -0.58248541716E+02  0.58248541716E+02  0.00000000000E+00 0. -1.
         35    2    1    2    0    0  0.00000000000E+00  0.00000000000E+00  0.26720030648E+03  0.38369738991E+03  0.27536826840E+03 0.  0.
         25    1    3    3    0    0  0.37640239710E+01 -0.16369177265E+02  0.22470322123E+03  0.25529131492E+03  0.12000000000E+03 0.  0.
         25    1    3    3    0    0 -0.37640239710E+01  0.16369177265E+02  0.42497085248E+02  0.12840607499E+03  0.12000000000E+03 0.  0.
<mgrwt>
<rscale>  0 0.27536827E+03</rscale>
<asrwt>0</asrwt>
<pdfrwt beam="1">  1        3 0.50069053E-01 0.27536827E+03</pdfrwt>
<pdfrwt beam="2">  1       -3 0.89613143E-02 0.27536827E+03</pdfrwt>
<totfact> 0.89699311E+02</totfact>
</mgrwt>
</event>
<event>
 5    1  0.1140254E+001  0.2747103E+03  0.7818608E-02  0.1098614E+00
          2   -1    0    0  501    0  0.00000000000E+00  0.00000000000E+00  0.34299857351E+03  0.34299857351E+03  0.00000000000E+00 0. -1.
         -2   -1    0    0    0  501 -0.00000000000E+00 -0.00000000000E+00 -0.55004421242E+02  0.55004421242E+02  0.00000000000E+00 0. -1.
         35    2    1    2    0    0  0.00000000000E+00  0.00000000000E+00  0.28799415227E+03  0.39800299476E+03  0.27471030576E+03 0.  0.
         25    1    3    3    0    0  0.57353753161E+02  0.14126076182E+02  0.98701455175E+02  0.16622567877E+03  0.12000000000E+03 0.  0.
         25    1    3    3    0    0 -0.57353753161E+02 -0.14126076182E+02  0.18929269710E+03  0.23177731598E+03  0.12000000000E+03 0.  0.
<mgrwt>
<rscale>  0 0.27471031E+03</rscale>
<asrwt>0</asrwt>
<pdfrwt beam="1">  1        2 0.52769010E-01 0.27471031E+03</pdfrwt>
<pdfrwt beam="2">  1       -2 0.84622189E-02 0.27471031E+03</pdfrwt>
<totfact> 0.81173033E+03</totfact>
</mgrwt>
</event>
<event>
 5    1  0.1140254E+001  0.2748602E+03  0.7818608E-02  0.1098530E+00
         -2   -1    0    0    0  501 -0.00000000000E+00  0.00000000000E+00  0.35136218038E+02  0.35136218038E+02  0.00000000000E+00 0. -1.
          2   -1    0    0  501    0  0.00000000000E+00 -0.00000000000E+00 -0.53753726035E+03  0.53753726035E+03  0.00000000000E+00 0. -1.
         35    2    1    2    0    0  0.00000000000E+00  0.00000000000E+00 -0.50240104231E+03  0.57267347839E+03  0.27486015632E+03 0.  0.
         25    1    3    3    0    0  0.24932207350E+02 -0.28462931543E+02 -0.13603558034E+03  0.18530362261E+03  0.12000000000E+03 0.  0.
         25    1    3    3    0    0 -0.24932207350E+02  0.28462931543E+02 -0.36636546198E+03  0.38736985578E+03  0.12000000000E+03 0.  0.
<mgrwt>
<rscale>  0 0.27486016E+03</rscale>
<asrwt>0</asrwt>
<pdfrwt beam="1">  1        2 0.82698039E-01 0.27486016E+03</pdfrwt>
<pdfrwt beam="2">  1       -2 0.54055721E-02 0.27486016E+03</pdfrwt>
<totfact> 0.99069674E+03</totfact>
</mgrwt>
</event>
<event>
 5    1  0.1140254E+001  0.2749967E+03  0.7818608E-02  0.1098453E+00
         -2   -1    0    0    0  501 -0.00000000000E+00  0.00000000000E+00  0.56253157867E+01  0.56253157867E+01  0.00000000000E+00 0. -1.
          2   -1    0    0  501    0  0.00000000000E+00 -0.00000000000E+00 -0.33608420273E+04  0.33608420273E+04  0.00000000000E+00 0. -1.
         35    2    1    2    0    0  0.00000000000E+00  0.00000000000E+00 -0.33552167115E+04  0.33664673431E+04  0.27499671062E+03 0.  0.
         25    1    3    3    0    0  0.59561068951E+02 -0.24970062449E+02 -0.19015949174E+04  0.19064716769E+04  0.12000000000E+03 0.  0.
         25    1    3    3    0    0 -0.59561068951E+02  0.24970062449E+02 -0.14536217941E+04  0.14599956662E+04  0.12000000000E+03 0.  0.
<mgrwt>
<rscale>  0 0.27499671E+03</rscale>
<asrwt>0</asrwt>
<pdfrwt beam="1">  1        2 0.51705447E+00 0.27499671E+03</pdfrwt>
<pdfrwt beam="2">  1       -2 0.86543010E-03 0.27499671E+03</pdfrwt>
<totfact> 0.32859367E+03</totfact>
</mgrwt>
</event>
<event>
 5    1  0.1140254E+001  0.2669233E+03  0.7818608E-02  0.1103053E+00
         -1   -1    0    0    0  501 -0.00000000000E+00  0.00000000000E+00  0.87395578129E+02  0.87395578129E+02  0.00000000000E+00 0.  1.
          1   -1    0    0  501    0  0.00000000000E+00 -0.00000000000E+00 -0.20380909449E+03  0.20380909449E+03  0.00000000000E+00 0.  1.
         35    2    1    2    0    0  0.00000000000E+00  0.00000000000E+00 -0.11641351636E+03  0.29120467262E+03  0.26692331214E+03 0.  0.
         25    1    3    3    0    0 -0.15521555680E+02 -0.25269415336E+02 -0.11310911466E+03  0.16755039201E+03  0.12000000000E+03 0.  0.
         25    1    3    3    0    0  0.15521555680E+02  0.25269415336E+02 -0.33044016958E+01  0.12365428061E+03  0.12000000000E+03 0.  0.
<mgrwt>
<rscale>  0 0.26692331E+03</rscale>
<asrwt>0</asrwt>
<pdfrwt beam="1">  1        1 0.31355245E-01 0.26692331E+03</pdfrwt>
<pdfrwt beam="2">  1       -1 0.13445474E-01 0.26692331E+03</pdfrwt>
<totfact> 0.54313588E+03</totfact>
</mgrwt>
</event>
<event>
 5    1  0.1140254E+001  0.2751787E+03  0.7818608E-02  0.1098352E+00
         -1   -1    0    0    0  501 -0.00000000000E+00  0.00000000000E+00  0.14615774142E+02  0.14615774142E+02  0.00000000000E+00 0.  1.
          1   -1    0    0  501    0  0.00000000000E+00 -0.00000000000E+00 -0.12952331156E+04  0.12952331156E+04  0.00000000000E+00 0.  1.
         35    2    1    2    0    0  0.00000000000E+00  0.00000000000E+00 -0.12806173414E+04  0.13098488897E+04  0.27517873957E+03 0.  0.
         25    1    3    3    0    0  0.42223134960E+02 -0.21767633669E+02 -0.41331081133E+03  0.43299243615E+03  0.12000000000E+03 0.  0.
         25    1    3    3    0    0 -0.42223134960E+02  0.21767633669E+02 -0.86730653011E+03  0.87685645358E+03  0.12000000000E+03 0.  0.
<mgrwt>
<rscale>  0 0.27517874E+03</rscale>
<asrwt>0</asrwt>
<pdfrwt beam="1">  1        1 0.19926671E+00 0.27517874E+03</pdfrwt>
<pdfrwt beam="2">  1       -1 0.22485798E-02 0.27517874E+03</pdfrwt>
<totfact> 0.56765584E+03</totfact>
</mgrwt>
</event>
<event>
 5    1  0.1140254E+001  0.2737349E+03  0.7818608E-02  0.1099161E+00
         -2   -1    0    0    0  501 -0.00000000000E+00  0.00000000000E+00  0.28719661507E+03  0.28719661507E+03  0.00000000000E+00 0.  1.
          2   -1    0    0  501    0  0.00000000000E+00 -0.00000000000E+00 -0.65226044166E+02  0.65226044166E+02  0.00000000000E+00 0.  1.
         35    2    1    2    0    0  0.00000000000E+00  0.00000000000E+00  0.22197057090E+03  0.35242265923E+03  0.27373490167E+03 0.  0.
         25    1    3    3    0    0 -0.46423185452E+02 -0.46651563329E+02  0.10956406164E+03  0.17531618326E+03  0.12000000000E+03 0.  0.
         25    1    3    3    0    0  0.46423185452E+02  0.46651563329E+02  0.11240650926E+03  0.17710647598E+03  0.12000000000E+03 0.  0.
<mgrwt>
<rscale>  0 0.27373490E+03</rscale>
<asrwt>0</asrwt>
<pdfrwt beam="1">  1        2 0.10034776E-01 0.27373490E+03</pdfrwt>
<pdfrwt beam="2">  1       -2 0.44184094E-01 0.27373490E+03</pdfrwt>
<totfact> 0.31192907E+03</totfact>
</mgrwt>
</event>
<event>
 5    1  0.1140254E+001  0.2691119E+03  0.7818608E-02  0.1101789E+00
          2   -1    0    0  501    0  0.00000000000E+00  0.00000000000E+00  0.37229400074E+03  0.37229400074E+03  0.00000000000E+00 0. -1.
         -2   -1    0    0    0  501 -0.00000000000E+00 -0.00000000000E+00 -0.48631748761E+02  0.48631748761E+02  0.00000000000E+00 0. -1.
         35    2    1    2    0    0  0.00000000000E+00  0.00000000000E+00  0.32366225197E+03  0.42092574950E+03  0.26911193440E+03 0.  0.
         25    1    3    3    0    0  0.18896549065E+02  0.39977276835E+02  0.22726419309E+03  0.26077629434E+03  0.12000000000E+03 0.  0.
         25    1    3    3    0    0 -0.18896549065E+02 -0.39977276835E+02  0.96398058881E+02  0.16014945515E+03  0.12000000000E+03 0.  0.
<mgrwt>
<rscale>  0 0.26911193E+03</rscale>
<asrwt>0</asrwt>
<pdfrwt beam="1">  1        2 0.57275998E-01 0.26911193E+03</pdfrwt>
<pdfrwt beam="2">  1       -2 0.74818077E-02 0.26911193E+03</pdfrwt>
<totfact> 0.89972464E+03</totfact>
</mgrwt>
</event>
<event>
 5    1  0.1140254E+001  0.2754466E+03  0.7818608E-02  0.1098202E+00
         -2   -1    0    0    0  501 -0.00000000000E+00  0.00000000000E+00  0.27835746473E+02  0.27835746473E+02  0.00000000000E+00 0. -1.
          2   -1    0    0  501    0  0.00000000000E+00 -0.00000000000E+00 -0.68141563836E+03  0.68141563836E+03  0.00000000000E+00 0. -1.
         35    2    1    2    0    0  0.00000000000E+00  0.00000000000E+00 -0.65357989189E+03  0.70925138483E+03  0.27544664059E+03 0.  0.
         25    1    3    3    0    0  0.35621193529E+02  0.26181747240E+02 -0.45842219508E+03  0.47592568985E+03  0.12000000000E+03 0.  0.
         25    1    3    3    0    0 -0.35621193529E+02 -0.26181747240E+02 -0.19515769681E+03  0.23332569499E+03  0.12000000000E+03 0.  0.
<mgrwt>
<rscale>  0 0.27544664E+03</rscale>
<asrwt>0</asrwt>
<pdfrwt beam="1">  1        2 0.10483317E+00 0.27544664E+03</pdfrwt>
<pdfrwt beam="2">  1       -2 0.42824227E-02 0.27544664E+03</pdfrwt>
<totfact> 0.10699690E+04</totfact>
</mgrwt>
</event>
<event>
 5    1  0.1140254E+001  0.2754135E+03  0.7818608E-02  0.1098221E+00
         -2   -1    0    0    0  501 -0.00000000000E+00  0.00000000000E+00  0.15505232414E+03  0.15505232414E+03  0.00000000000E+00 0. -1.
          2   -1    0    0  501    0  0.00000000000E+00 -0.00000000000E+00 -0.12230164501E+03  0.12230164501E+03  0.00000000000E+00 0. -1.
         35    2    1    2    0    0  0.00000000000E+00  0.00000000000E+00  0.32750679134E+02  0.27735396914E+03  0.27541353855E+03 0.  0.
         25    1    3    3    0    0  0.10171308547E+02 -0.25646775193E+02 -0.45718973536E+02  0.13134472634E+03  0.12000000000E+03 0.  0.
         25    1    3    3    0    0 -0.10171308547E+02  0.25646775193E+02  0.78469652669E+02  0.14600924281E+03  0.12000000000E+03 0.  0.
<mgrwt>
<rscale>  0 0.27541354E+03</rscale>
<asrwt>0</asrwt>
<pdfrwt beam="1">  1        2 0.18815638E-01 0.27541354E+03</pdfrwt>
<pdfrwt beam="2">  1       -2 0.23854204E-01 0.27541354E+03</pdfrwt>
<totfact> 0.45763578E+03</totfact>
</mgrwt>
</event>
<event>
 5    1  0.1140254E+001  0.2739926E+03  0.7818608E-02  0.1099016E+00
          1   -1    0    0  501    0  0.00000000000E+00  0.00000000000E+00  0.26411259018E+02  0.26411259018E+02  0.00000000000E+00 0. -1.
         -1   -1    0    0    0  501 -0.00000000000E+00 -0.00000000000E+00 -0.71060555917E+03  0.71060555917E+03  0.00000000000E+00 0. -1.
         35    2    1    2    0    0  0.00000000000E+00  0.00000000000E+00 -0.68419430015E+03  0.73701681819E+03  0.27399260927E+03 0.  0.
         25    1    3    3    0    0 -0.22389311784E+02 -0.70630416882E+01 -0.50828121178E+03  0.52278194124E+03  0.12000000000E+03 0.  0.
         25    1    3    3    0    0  0.22389311784E+02  0.70630416882E+01 -0.17591308837E+03  0.21423487695E+03  0.12000000000E+03 0.  0.
<mgrwt>
<rscale>  0 0.27399261E+03</rscale>
<asrwt>0</asrwt>
<pdfrwt beam="1">  1        1 0.40632699E-02 0.27399261E+03</pdfrwt>
<pdfrwt beam="2">  1       -1 0.10932395E+00 0.27399261E+03</pdfrwt>
<totfact> 0.18288176E+03</totfact>
</mgrwt>
</event>
<event>
 5    1  0.1140254E+001  0.2751700E+03  0.7818608E-02  0.1098357E+00
         -3   -1    0    0    0  501 -0.00000000000E+00  0.00000000000E+00  0.24643221383E+03  0.24643221383E+03  0.00000000000E+00 0.  1.
          3   -1    0    0  501    0  0.00000000000E+00 -0.00000000000E+00 -0.76814739105E+02  0.76814739105E+02  0.00000000000E+00 0.  1.
         35    2    1    2    0    0  0.00000000000E+00  0.00000000000E+00  0.16961747472E+03  0.32324695293E+03  0.27516995630E+03 0.  0.
         25    1    3    3    0    0  0.36800315432E+02 -0.54009291751E+02  0.10369063154E+03  0.17153137870E+03  0.12000000000E+03 0.  0.
         25    1    3    3    0    0 -0.36800315432E+02  0.54009291751E+02  0.65926843183E+02  0.15171557423E+03  0.12000000000E+03 0.  0.
<mgrwt>
<rscale>  0 0.27516996E+03</rscale>
<asrwt>0</asrwt>
<pdfrwt beam="1">  1        3 0.11817652E-01 0.27516996E+03</pdfrwt>
<pdfrwt beam="2">  1       -3 0.37912648E-01 0.27516996E+03</pdfrwt>
<totfact> 0.97673348E+02</totfact>
</mgrwt>
</event>
<event>
 5    1  0.1140254E+001  0.2744786E+03  0.7818608E-02  0.1098743E+00
          1   -1    0    0  501    0  0.00000000000E+00  0.00000000000E+00  0.15391201402E+03  0.15391201402E+03  0.00000000000E+00 0. -1.
         -1   -1    0    0    0  501 -0.00000000000E+00 -0.00000000000E+00 -0.12237272125E+03  0.12237272125E+03  0.00000000000E+00 0. -1.
         35    2    1    2    0    0  0.00000000000E+00  0.00000000000E+00  0.31539292772E+02  0.27628473527E+03  0.27447864754E+03 0.  0.
         25    1    3    3    0    0  0.45483660685E+02  0.33617558200E+02 -0.19614590690E+02  0.13410307892E+03  0.12000000000E+03 0.  0.
         25    1    3    3    0    0 -0.45483660685E+02 -0.33617558200E+02  0.51153883462E+02  0.14218165635E+03  0.12000000000E+03 0.  0.
<mgrwt>
<rscale>  0 0.27447865E+03</rscale>
<asrwt>0</asrwt>
<pdfrwt beam="1">  1        1 0.23678771E-01 0.27447865E+03</pdfrwt>
<pdfrwt beam="2">  1       -1 0.18826573E-01 0.27447865E+03</pdfrwt>
<totfact> 0.45374643E+03</totfact>
</mgrwt>
</event>
<event>
 5    1  0.1140254E+001  0.2745653E+03  0.7818608E-02  0.1098695E+00
          2   -1    0    0  501    0  0.00000000000E+00  0.00000000000E+00  0.79340879724E+03  0.79340879724E+03  0.00000000000E+00 0.  1.
         -2   -1    0    0    0  501 -0.00000000000E+00 -0.00000000000E+00 -0.23753868838E+02  0.23753868838E+02  0.00000000000E+00 0.  1.
         35    2    1    2    0    0  0.00000000000E+00  0.00000000000E+00  0.76965492840E+03  0.81716266608E+03  0.27456531831E+03 0.  0.
         25    1    3    3    0    0  0.62834122815E+02  0.18230263535E+02  0.34647493089E+03  0.37245851747E+03  0.12000000000E+03 0.  0.
         25    1    3    3    0    0 -0.62834122815E+02 -0.18230263535E+02  0.42317999751E+03  0.44470414861E+03  0.12000000000E+03 0.  0.
<mgrwt>
<rscale>  0 0.27456532E+03</rscale>
<asrwt>0</asrwt>
<pdfrwt beam="1">  1        2 0.12206287E+00 0.27456532E+03</pdfrwt>
<pdfrwt beam="2">  1       -2 0.36544420E-02 0.27456532E+03</pdfrwt>
<totfact> 0.11253659E+04</totfact>
</mgrwt>
</event>
<event>
 5    1  0.1140254E+001  0.2752511E+03  0.7818608E-02  0.1098311E+00
          2   -1    0    0  501    0  0.00000000000E+00  0.00000000000E+00  0.12988691544E+03  0.12988691544E+03  0.00000000000E+00 0.  1.
         -2   -1    0    0    0  501 -0.00000000000E+00 -0.00000000000E+00 -0.14582527625E+03  0.14582527625E+03  0.00000000000E+00 0.  1.
         35    2    1    2    0    0  0.00000000000E+00  0.00000000000E+00 -0.15938360809E+02  0.27571219169E+03  0.27525112407E+03 0.  0.
         25    1    3    3    0    0 -0.65260827052E+02 -0.92425781677E+01 -0.22006738281E+02  0.13866757851E+03  0.12000000000E+03 0.  0.
         25    1    3    3    0    0  0.65260827052E+02  0.92425781677E+01  0.60683774719E+01  0.13704461319E+03  0.12000000000E+03 0.  0.
<mgrwt>
<rscale>  0 0.27525112E+03</rscale>
<asrwt>0</asrwt>
<pdfrwt beam="1">  1        2 0.19982602E-01 0.27525112E+03</pdfrwt>
<pdfrwt beam="2">  1       -2 0.22434658E-01 0.27525112E+03</pdfrwt>
<totfact> 0.47530309E+03</totfact>
</mgrwt>
</event>
<event>
 5    1  0.1140254E+001  0.2773342E+03  0.7818608E-02  0.1097154E+00
          2   -1    0    0  501    0  0.00000000000E+00  0.00000000000E+00  0.29713137987E+04  0.29713137987E+04  0.00000000000E+00 0.  1.
         -2   -1    0    0    0  501 -0.00000000000E+00 -0.00000000000E+00 -0.64713993440E+01  0.64713993440E+01  0.00000000000E+00 0.  1.
         35    2    1    2    0    0  0.00000000000E+00  0.00000000000E+00  0.29648423994E+04  0.29777851980E+04  0.27733415345E+03 0.  0.
         25    1    3    3    0    0  0.10721972379E+02 -0.49996768497E+02  0.19876301468E+04  0.19919056800E+04  0.12000000000E+03 0.  0.
         25    1    3    3    0    0 -0.10721972379E+02  0.49996768497E+02  0.97721225259E+03  0.98587951808E+03  0.12000000000E+03 0.  0.
<mgrwt>
<rscale>  0 0.27733415E+03</rscale>
<asrwt>0</asrwt>
<pdfrwt beam="1">  1        2 0.45712411E+00 0.27733415E+03</pdfrwt>
<pdfrwt beam="2">  1       -2 0.99560227E-03 0.27733415E+03</pdfrwt>
<totfact> 0.46483612E+03</totfact>
</mgrwt>
</event>
<event>
 5    1  0.1140254E+001  0.2755113E+03  0.7818608E-02  0.1098166E+00
          2   -1    0    0  501    0  0.00000000000E+00  0.00000000000E+00  0.25474035206E+03  0.25474035206E+03  0.00000000000E+00 0.  1.
         -2   -1    0    0    0  501 -0.00000000000E+00 -0.00000000000E+00 -0.74493991485E+02  0.74493991485E+02  0.00000000000E+00 0.  1.
         35    2    1    2    0    0  0.00000000000E+00  0.00000000000E+00  0.18024636057E+03  0.32923434354E+03  0.27551134726E+03 0.  0.
         25    1    3    3    0    0  0.41311221199E+02 -0.53443984417E+02  0.85692161790E+02  0.16219131623E+03  0.12000000000E+03 0.  0.
         25    1    3    3    0    0 -0.41311221199E+02  0.53443984417E+02  0.94554198784E+02  0.16704302732E+03  0.12000000000E+03 0.  0.
<mgrwt>
<rscale>  0 0.27551135E+03</rscale>
<asrwt>0</asrwt>
<pdfrwt beam="1">  1        2 0.39190823E-01 0.27551135E+03</pdfrwt>
<pdfrwt beam="2">  1       -2 0.11460614E-01 0.27551135E+03</pdfrwt>
<totfact> 0.69085717E+03</totfact>
</mgrwt>
</event>
<event>
 5    1  0.1140254E+001  0.2750457E+03  0.7818608E-02  0.1098426E+00
         -1   -1    0    0    0  501 -0.00000000000E+00  0.00000000000E+00  0.36792296894E+02  0.36792296894E+02  0.00000000000E+00 0. -1.
          1   -1    0    0  501    0  0.00000000000E+00 -0.00000000000E+00 -0.51403528710E+03  0.51403528710E+03  0.00000000000E+00 0. -1.
         35    2    1    2    0    0  0.00000000000E+00  0.00000000000E+00 -0.47724299021E+03  0.55082758399E+03  0.27504573363E+03 0.  0.
         25    1    3    3    0    0  0.65305759854E+02  0.81983608698E+01 -0.26552628015E+03  0.29872438943E+03  0.12000000000E+03 0.  0.
         25    1    3    3    0    0 -0.65305759854E+02 -0.81983608698E+01 -0.21171671006E+03  0.25210319456E+03  0.12000000000E+03 0.  0.
<mgrwt>
<rscale>  0 0.27504573E+03</rscale>
<asrwt>0</asrwt>
<pdfrwt beam="1">  1        1 0.79082347E-01 0.27504573E+03</pdfrwt>
<pdfrwt beam="2">  1       -1 0.56603537E-02 0.27504573E+03</pdfrwt>
<totfact> 0.63200714E+03</totfact>
</mgrwt>
</event>
<event>
 5    1  0.1140254E+001  0.2751767E+03  0.7818608E-02  0.1098353E+00
         -2   -1    0    0    0  501 -0.00000000000E+00  0.00000000000E+00  0.10721116588E+02  0.10721116588E+02  0.00000000000E+00 0.  1.
          2   -1    0    0  501    0  0.00000000000E+00 -0.00000000000E+00 -0.17657259245E+04  0.17657259245E+04  0.00000000000E+00 0.  1.
         35    2    1    2    0    0  0.00000000000E+00  0.00000000000E+00 -0.17550048080E+04  0.17764470411E+04  0.27517669595E+03 0.  0.
         25    1    3    3    0    0  0.40149756075E+02 -0.73171713929E+01 -0.53195816784E+03  0.54685010399E+03  0.12000000000E+03 0.  0.
         25    1    3    3    0    0 -0.40149756075E+02  0.73171713929E+01 -0.12230466401E+04  0.12295969371E+04  0.12000000000E+03 0.  0.
<mgrwt>
<rscale>  0 0.27517670E+03</rscale>
<asrwt>0</asrwt>
<pdfrwt beam="1">  1        2 0.27165014E+00 0.27517670E+03</pdfrwt>
<pdfrwt beam="2">  1       -2 0.16494026E-02 0.27517670E+03</pdfrwt>
<totfact> 0.10126300E+04</totfact>
</mgrwt>
</event>
<event>
 5    1  0.1140254E+001  0.2768383E+03  0.7818608E-02  0.1097428E+00
         -1   -1    0    0    0  501 -0.00000000000E+00  0.00000000000E+00  0.19220249649E+02  0.19220249649E+02  0.00000000000E+00 0. -1.
          1   -1    0    0  501    0  0.00000000000E+00 -0.00000000000E+00 -0.99685780189E+03  0.99685780189E+03  0.00000000000E+00 0. -1.
         35    2    1    2    0    0  0.00000000000E+00  0.00000000000E+00 -0.97763755224E+03  0.10160780515E+04  0.27683826193E+03 0.  0.
         25    1    3    3    0    0  0.20689821555E+02  0.64049841098E+01 -0.24840008199E+03  0.27671590715E+03  0.12000000000E+03 0.  0.
         25    1    3    3    0    0 -0.20689821555E+02 -0.64049841098E+01 -0.72923747025E+03  0.73936214438E+03  0.12000000000E+03 0.  0.
<mgrwt>
<rscale>  0 0.27683826E+03</rscale>
<asrwt>0</asrwt>
<pdfrwt beam="1">  1        1 0.15336278E+00 0.27683826E+03</pdfrwt>
<pdfrwt beam="2">  1       -1 0.29569606E-02 0.27683826E+03</pdfrwt>
<totfact> 0.61929211E+03</totfact>
</mgrwt>
</event>
<event>
 5    1  0.1140254E+001  0.2749912E+03  0.7818608E-02  0.1098457E+00
          2   -1    0    0  501    0  0.00000000000E+00  0.00000000000E+00  0.19520170675E+03  0.19520170675E+03  0.00000000000E+00 0.  1.
         -2   -1    0    0    0  501 -0.00000000000E+00 -0.00000000000E+00 -0.96848756088E+02  0.96848756088E+02  0.00000000000E+00 0.  1.
         35    2    1    2    0    0  0.00000000000E+00  0.00000000000E+00  0.98352950659E+02  0.29205046283E+03  0.27499121793E+03 0.  0.
         25    1    3    3    0    0  0.58351375766E+00 -0.63666752163E+02  0.71736838010E+02  0.15362281649E+03  0.12000000000E+03 0.  0.
         25    1    3    3    0    0 -0.58351375766E+00  0.63666752163E+02  0.26616112649E+02  0.13842764634E+03  0.12000000000E+03 0.  0.
<mgrwt>
<rscale>  0 0.27499122E+03</rscale>
<asrwt>0</asrwt>
<pdfrwt beam="1">  1        2 0.30031032E-01 0.27499122E+03</pdfrwt>
<pdfrwt beam="2">  1       -2 0.14899809E-01 0.27499122E+03</pdfrwt>
<totfact> 0.60183416E+03</totfact>
</mgrwt>
</event>
<event>
 5    1  0.1140254E+001  0.2752337E+03  0.7818608E-02  0.1098321E+00
          3   -1    0    0  501    0  0.00000000000E+00  0.00000000000E+00  0.66297337358E+02  0.66297337358E+02  0.00000000000E+00 0.  1.
         -3   -1    0    0    0  501 -0.00000000000E+00 -0.00000000000E+00 -0.28565842456E+03  0.28565842456E+03  0.00000000000E+00 0.  1.
         35    2    1    2    0    0  0.00000000000E+00  0.00000000000E+00 -0.21936108720E+03  0.35195576192E+03  0.27523366758E+03 0.  0.
         25    1    3    3    0    0  0.21059316463E+02  0.46984145737E+02 -0.54126312917E+02  0.14135297135E+03  0.12000000000E+03 0.  0.
         25    1    3    3    0    0 -0.21059316463E+02 -0.46984145737E+02 -0.16523477429E+03  0.21060279057E+03  0.12000000000E+03 0.  0.
<mgrwt>
<rscale>  0 0.27523367E+03</rscale>
<asrwt>0</asrwt>
<pdfrwt beam="1">  1        3 0.10199590E-01 0.27523367E+03</pdfrwt>
<pdfrwt beam="2">  1       -3 0.43947450E-01 0.27523367E+03</pdfrwt>
<totfact> 0.93765774E+02</totfact>
</mgrwt>
</event>
<event>
 5    1  0.1140254E+001  0.2744168E+03  0.7818608E-02  0.1098778E+00
         -2   -1    0    0    0  501 -0.00000000000E+00  0.00000000000E+00  0.23710568424E+02  0.23710568424E+02  0.00000000000E+00 0.  1.
          2   -1    0    0  501    0  0.00000000000E+00 -0.00000000000E+00 -0.79399811646E+03  0.79399811646E+03  0.00000000000E+00 0.  1.
         35    2    1    2    0    0  0.00000000000E+00  0.00000000000E+00 -0.77028754804E+03  0.81770868488E+03  0.27441681194E+03 0.  0.
         25    1    3    3    0    0  0.10950097504E+02 -0.44315386773E+01 -0.19004948662E+03  0.22507410010E+03  0.12000000000E+03 0.  0.
         25    1    3    3    0    0 -0.10950097504E+02  0.44315386773E+01 -0.58023806141E+03  0.59263458478E+03  0.12000000000E+03 0.  0.
<mgrwt>
<rscale>  0 0.27441681E+03</rscale>
<asrwt>0</asrwt>
<pdfrwt beam="1">  1        2 0.12215355E+00 0.27441681E+03</pdfrwt>
<pdfrwt beam="2">  1       -2 0.36477800E-02 0.27441681E+03</pdfrwt>
<totfact> 0.11273632E+04</totfact>
</mgrwt>
</event>
<event>
 5    1  0.1140254E+001  0.2765650E+03  0.7818608E-02  0.1097580E+00
         -2   -1    0    0    0  501 -0.00000000000E+00  0.00000000000E+00  0.39359227905E+02  0.39359227905E+02  0.00000000000E+00 0.  1.
          2   -1    0    0  501    0  0.00000000000E+00 -0.00000000000E+00 -0.48583407734E+03  0.48583407734E+03  0.00000000000E+00 0.  1.
         35    2    1    2    0    0  0.00000000000E+00  0.00000000000E+00 -0.44647484943E+03  0.52519330524E+03  0.27656503159E+03 0.  0.
         25    1    3    3    0    0 -0.16991122920E+02  0.52965868191E+02 -0.14661683759E+03  0.19746032137E+03  0.12000000000E+03 0.  0.
         25    1    3    3    0    0  0.16991122920E+02 -0.52965868191E+02 -0.29985801184E+03  0.32773298387E+03  0.12000000000E+03 0.  0.
<mgrwt>
<rscale>  0 0.27656503E+03</rscale>
<asrwt>0</asrwt>
<pdfrwt beam="1">  1        2 0.74743706E-01 0.27656503E+03</pdfrwt>
<pdfrwt beam="2">  1       -2 0.60552657E-02 0.27656503E+03</pdfrwt>
<totfact> 0.93315652E+03</totfact>
</mgrwt>
</event>
<event>
 5    1  0.1140254E+001  0.2741220E+03  0.7818608E-02  0.1098943E+00
          2   -1    0    0  501    0  0.00000000000E+00  0.00000000000E+00  0.49711664851E+03  0.49711664851E+03  0.00000000000E+00 0. -1.
         -2   -1    0    0    0  501 -0.00000000000E+00 -0.00000000000E+00 -0.37789359717E+02  0.37789359717E+02  0.00000000000E+00 0. -1.
         35    2    1    2    0    0  0.00000000000E+00  0.00000000000E+00  0.45932728879E+03  0.53490600822E+03  0.27412201554E+03 0.  0.
         25    1    3    3    0    0  0.43537535663E+02 -0.42787530572E+01  0.32668080925E+03  0.35076227829E+03  0.12000000000E+03 0.  0.
         25    1    3    3    0    0 -0.43537535663E+02  0.42787530572E+01  0.13264647954E+03  0.18414372993E+03  0.12000000000E+03 0.  0.
<mgrwt>
<rscale>  0 0.27412202E+03</rscale>
<asrwt>0</asrwt>
<pdfrwt beam="1">  1        2 0.76479480E-01 0.27412202E+03</pdfrwt>
<pdfrwt beam="2">  1       -2 0.58137480E-02 0.27412202E+03</pdfrwt>
<totfact> 0.96779976E+03</totfact>
</mgrwt>
</event>
<event>
 5    1  0.1140254E+001  0.2737037E+03  0.7818608E-02  0.1099178E+00
          2   -1    0    0  501    0  0.00000000000E+00  0.00000000000E+00  0.31224518130E+04  0.31224518130E+04  0.00000000000E+00 0.  1.
         -2   -1    0    0    0  501 -0.00000000000E+00 -0.00000000000E+00 -0.59979891761E+01  0.59979891761E+01  0.00000000000E+00 0.  1.
         35    2    1    2    0    0  0.00000000000E+00  0.00000000000E+00  0.31164538238E+04  0.31284498022E+04  0.27370372432E+03 0.  0.
         25    1    3    3    0    0 -0.51543670794E+02 -0.30960975670E+02  0.18634544769E+04  0.18682820770E+04  0.12000000000E+03 0.  0.
         25    1    3    3    0    0  0.51543670794E+02  0.30960975670E+02  0.12529993469E+04  0.12601677251E+04  0.12000000000E+03 0.  0.
<mgrwt>
<rscale>  0 0.27370372E+03</rscale>
<asrwt>0</asrwt>
<pdfrwt beam="1">  1        2 0.48037590E+00 0.27370372E+03</pdfrwt>
<pdfrwt beam="2">  1       -2 0.92277006E-03 0.27370372E+03</pdfrwt>
<totfact> 0.42159703E+03</totfact>
</mgrwt>
</event>
<event>
 5    1  0.1140254E+001  0.2734812E+03  0.7818608E-02  0.1099304E+00
          1   -1    0    0  501    0  0.00000000000E+00  0.00000000000E+00  0.38333673677E+02  0.38333673677E+02  0.00000000000E+00 0.  1.
         -1   -1    0    0    0  501 -0.00000000000E+00 -0.00000000000E+00 -0.48776948583E+03  0.48776948583E+03  0.00000000000E+00 0.  1.
         35    2    1    2    0    0  0.00000000000E+00  0.00000000000E+00 -0.44943581215E+03  0.52610315950E+03  0.27348123372E+03 0.  0.
         25    1    3    3    0    0 -0.52370416028E+00 -0.23143947875E+02 -0.10672459832E+03  0.16225306307E+03  0.12000000000E+03 0.  0.
         25    1    3    3    0    0  0.52370416028E+00  0.23143947875E+02 -0.34271121383E+03  0.36385009644E+03  0.12000000000E+03 0.  0.
<mgrwt>
<rscale>  0 0.27348123E+03</rscale>
<asrwt>0</asrwt>
<pdfrwt beam="1">  1        1 0.58974890E-02 0.27348123E+03</pdfrwt>
<pdfrwt beam="2">  1       -1 0.75041450E-01 0.27348123E+03</pdfrwt>
<totfact> 0.24581782E+03</totfact>
</mgrwt>
</event>
<event>
 5    1  0.1140254E+001  0.2746043E+03  0.7818608E-02  0.1098673E+00
         -1   -1    0    0    0  501 -0.00000000000E+00  0.00000000000E+00  0.11793053806E+03  0.11793053806E+03  0.00000000000E+00 0. -1.
          1   -1    0    0  501    0  0.00000000000E+00 -0.00000000000E+00 -0.15985576601E+03  0.15985576601E+03  0.00000000000E+00 0. -1.
         35    2    1    2    0    0  0.00000000000E+00  0.00000000000E+00 -0.41925227949E+02  0.27778630406E+03  0.27460427161E+03 0.  0.
         25    1    3    3    0    0 -0.44337654756E+02  0.24556066696E+02 -0.64859558176E+02  0.14551835048E+03  0.12000000000E+03 0.  0.
         25    1    3    3    0    0  0.44337654756E+02 -0.24556066696E+02  0.22934330227E+02  0.13226795358E+03  0.12000000000E+03 0.  0.
<mgrwt>
<rscale>  0 0.27460427E+03</rscale>
<asrwt>0</asrwt>
<pdfrwt beam="1">  1        1 0.24593195E-01 0.27460427E+03</pdfrwt>
<pdfrwt beam="2">  1       -1 0.18143160E-01 0.27460427E+03</pdfrwt>
<totfact> 0.45893490E+03</totfact>
</mgrwt>
</event>
<event>
 5    1  0.1140254E+001  0.2752286E+03  0.7818608E-02  0.1098324E+00
          2   -1    0    0  501    0  0.00000000000E+00  0.00000000000E+00  0.74198044236E+03  0.74198044236E+03  0.00000000000E+00 0.  1.
         -2   -1    0    0    0  501 -0.00000000000E+00 -0.00000000000E+00 -0.25523173900E+02  0.25523173900E+02  0.00000000000E+00 0.  1.
         35    2    1    2    0    0  0.00000000000E+00  0.00000000000E+00  0.71645726846E+03  0.76750361626E+03  0.27522860215E+03 0.  0.
         25    1    3    3    0    0  0.46572157014E+02 -0.23981829005E+02  0.24012863434E+03  0.27350659034E+03  0.12000000000E+03 0.  0.
         25    1    3    3    0    0 -0.46572157014E+02  0.23981829005E+02  0.47632863412E+03  0.49399702591E+03  0.12000000000E+03 0.  0.
<mgrwt>
<rscale>  0 0.27522860E+03</rscale>
<asrwt>0</asrwt>
<pdfrwt beam="1">  1        2 0.11415082E+00 0.27522860E+03</pdfrwt>
<pdfrwt beam="2">  1       -2 0.39266427E-02 0.27522860E+03</pdfrwt>
<totfact> 0.10989170E+04</totfact>
</mgrwt>
</event>
<event>
 5    1  0.1140254E+001  0.2748410E+03  0.7818608E-02  0.1098540E+00
          2   -1    0    0  501    0  0.00000000000E+00  0.00000000000E+00  0.15186567041E+03  0.15186567041E+03  0.00000000000E+00 0.  1.
         -2   -1    0    0    0  501 -0.00000000000E+00 -0.00000000000E+00 -0.12434934030E+03  0.12434934030E+03  0.00000000000E+00 0.  1.
         35    2    1    2    0    0  0.00000000000E+00  0.00000000000E+00  0.27516330113E+02  0.27621501071E+03  0.27484101535E+03 0.  0.
         25    1    3    3    0    0 -0.39390011089E+01 -0.54107894102E+02 -0.25696420509E+02  0.13417706943E+03  0.12000000000E+03 0.  0.
         25    1    3    3    0    0  0.39390011089E+01  0.54107894102E+02  0.53212750622E+02  0.14203794128E+03  0.12000000000E+03 0.  0.
<mgrwt>
<rscale>  0 0.27484102E+03</rscale>
<asrwt>0</asrwt>
<pdfrwt beam="1">  1        2 0.23363949E-01 0.27484102E+03</pdfrwt>
<pdfrwt beam="2">  1       -2 0.19130668E-01 0.27484102E+03</pdfrwt>
<totfact> 0.52335685E+03</totfact>
</mgrwt>
</event>
<event>
 5    1  0.1140254E+001  0.2754396E+03  0.7818608E-02  0.1098206E+00
         -2   -1    0    0    0  501 -0.00000000000E+00  0.00000000000E+00  0.86339398237E+01  0.86339398237E+01  0.00000000000E+00 0. -1.
          2   -1    0    0  501    0  0.00000000000E+00 -0.00000000000E+00 -0.21967659286E+04  0.21967659286E+04  0.00000000000E+00 0. -1.
         35    2    1    2    0    0  0.00000000000E+00  0.00000000000E+00 -0.21881319888E+04  0.22053998685E+04  0.27543961106E+03 0.  0.
         25    1    3    3    0    0 -0.46042719789E+02 -0.13197152166E+02 -0.71236171239E+03  0.72398432728E+03  0.12000000000E+03 0.  0.
         25    1    3    3    0    0  0.46042719789E+02  0.13197152166E+02 -0.14757702764E+04  0.14814155412E+04  0.12000000000E+03 0.  0.
<mgrwt>
<rscale>  0 0.27543961E+03</rscale>
<asrwt>0</asrwt>
<pdfrwt beam="1">  1        2 0.33796380E+00 0.27543961E+03</pdfrwt>
<pdfrwt beam="2">  1       -2 0.13282992E-02 0.27543961E+03</pdfrwt>
<totfact> 0.82397816E+03</totfact>
</mgrwt>
</event>
<event>
 5    1  0.1140254E+001  0.2751164E+03  0.7818608E-02  0.1098387E+00
          1   -1    0    0  501    0  0.00000000000E+00  0.00000000000E+00  0.56701698378E+03  0.56701698378E+03  0.00000000000E+00 0. -1.
         -1   -1    0    0    0  501 -0.00000000000E+00 -0.00000000000E+00 -0.33371585509E+02  0.33371585509E+02  0.00000000000E+00 0. -1.
         35    2    1    2    0    0  0.00000000000E+00  0.00000000000E+00  0.53364539827E+03  0.60038856929E+03  0.27511638090E+03 0.  0.
         25    1    3    3    0    0 -0.41056160686E+02 -0.23496859211E+02  0.16251512929E+03  0.20748223531E+03  0.12000000000E+03 0.  0.
         25    1    3    3    0    0  0.41056160686E+02  0.23496859211E+02  0.37113026899E+03  0.39290633398E+03  0.12000000000E+03 0.  0.
<mgrwt>
<rscale>  0 0.27511638E+03</rscale>
<asrwt>0</asrwt>
<pdfrwt beam="1">  1        1 0.87233376E-01 0.27511638E+03</pdfrwt>
<pdfrwt beam="2">  1       -1 0.51340905E-02 0.27511638E+03</pdfrwt>
<totfact> 0.64092378E+03</totfact>
</mgrwt>
</event>
<event>
 5    1  0.1140254E+001  0.2755112E+03  0.7818608E-02  0.1098166E+00
         -4   -1    0    0    0  501 -0.00000000000E+00  0.00000000000E+00  0.10215217716E+03  0.10215217716E+03  0.00000000000E+00 0.  1.
          4   -1    0    0  501    0  0.00000000000E+00 -0.00000000000E+00 -0.18576800312E+03  0.18576800312E+03  0.00000000000E+00 0.  1.
         35    2    1    2    0    0  0.00000000000E+00  0.00000000000E+00 -0.83615825957E+02  0.28792018028E+03  0.27551120461E+03 0.  0.
         25    1    3    3    0    0 -0.17684946632E+02 -0.42219839177E+02  0.10248643510E+02  0.12884217808E+03  0.12000000000E+03 0.  0.
         25    1    3    3    0    0  0.17684946632E+02  0.42219839177E+02 -0.93864469467E+02  0.15907800221E+03  0.12000000000E+03 0.  0.
<mgrwt>
<rscale>  0 0.27551120E+03</rscale>
<asrwt>0</asrwt>
<pdfrwt beam="1">  1        4 0.28579693E-01 0.27551120E+03</pdfrwt>
<pdfrwt beam="2">  1       -4 0.15715720E-01 0.27551120E+03</pdfrwt>
<totfact> 0.75923024E+02</totfact>
</mgrwt>
</event>
<event>
 5    1  0.1140254E+001  0.2758893E+03  0.7818608E-02  0.1097956E+00
         -2   -1    0    0    0  501 -0.00000000000E+00  0.00000000000E+00  0.62076519849E+02  0.62076519849E+02  0.00000000000E+00 0.  1.
          2   -1    0    0  501    0  0.00000000000E+00 -0.00000000000E+00 -0.30653659922E+03  0.30653659922E+03  0.00000000000E+00 0.  1.
         35    2    1    2    0    0  0.00000000000E+00  0.00000000000E+00 -0.24446007937E+03  0.36861311907E+03  0.27588929146E+03 0.  0.
         25    1    3    3    0    0  0.20684217813E+01 -0.50780871444E+02 -0.61798699557E+02  0.14422917368E+03  0.12000000000E+03 0.  0.
         25    1    3    3    0    0 -0.20684217813E+01  0.50780871444E+02 -0.18266137982E+03  0.22438394539E+03  0.12000000000E+03 0.  0.
<mgrwt>
<rscale>  0 0.27588929E+03</rscale>
<asrwt>0</asrwt>
<pdfrwt beam="1">  1        2 0.47159475E-01 0.27588929E+03</pdfrwt>
<pdfrwt beam="2">  1       -2 0.95502342E-02 0.27588929E+03</pdfrwt>
<totfact> 0.75727296E+03</totfact>
</mgrwt>
</event>
<event>
 5    1  0.1140254E+001  0.2764559E+03  0.7818608E-02  0.1097641E+00
         -2   -1    0    0    0  501 -0.00000000000E+00  0.00000000000E+00  0.25396399893E+02  0.25396399893E+02  0.00000000000E+00 0.  1.
          2   -1    0    0  501    0  0.00000000000E+00 -0.00000000000E+00 -0.75234949494E+03  0.75234949494E+03  0.00000000000E+00 0.  1.
         35    2    1    2    0    0  0.00000000000E+00  0.00000000000E+00 -0.72695309505E+03  0.77774589483E+03  0.27645591788E+03 0.  0.
         25    1    3    3    0    0 -0.44082716818E+02 -0.18742372610E+02 -0.22529913606E+03  0.25971958564E+03  0.12000000000E+03 0.  0.
         25    1    3    3    0    0  0.44082716818E+02  0.18742372610E+02 -0.50165395898E+03  0.51802630919E+03  0.12000000000E+03 0.  0.
<mgrwt>
<rscale>  0 0.27645592E+03</rscale>
<asrwt>0</asrwt>
<pdfrwt beam="1">  1        2 0.11574606E+00 0.27645592E+03</pdfrwt>
<pdfrwt beam="2">  1       -2 0.39071390E-02 0.27645592E+03</pdfrwt>
<totfact> 0.10884448E+04</totfact>
</mgrwt>
</event>
<event>
 5    1  0.1140254E+001  0.2749555E+03  0.7818608E-02  0.1098476E+00
         -1   -1    0    0    0  501 -0.00000000000E+00  0.00000000000E+00  0.50606665568E+01  0.50606665568E+01  0.00000000000E+00 0. -1.
          1   -1    0    0  501    0  0.00000000000E+00 -0.00000000000E+00 -0.37347128349E+04  0.37347128349E+04  0.00000000000E+00 0. -1.
         35    2    1    2    0    0  0.00000000000E+00  0.00000000000E+00 -0.37296521683E+04  0.37397735014E+04  0.27495553344E+03 0.  0.
         25    1    3    3    0    0  0.58711286697E+02  0.28253320389E+02 -0.16476844585E+04  0.16533327977E+04  0.12000000000E+03 0.  0.
         25    1    3    3    0    0 -0.58711286697E+02 -0.28253320389E+02 -0.20819677099E+04  0.20864407037E+04  0.12000000000E+03 0.  0.
<mgrwt>
<rscale>  0 0.27495553E+03</rscale>
<asrwt>0</asrwt>
<pdfrwt beam="1">  1        1 0.57457071E+00 0.27495553E+03</pdfrwt>
<pdfrwt beam="2">  1       -1 0.77856476E-03 0.27495553E+03</pdfrwt>
<totfact> 0.55786405E+02</totfact>
</mgrwt>
</event>
<event>
 5    1  0.1140254E+001  0.2745101E+03  0.7818608E-02  0.1098726E+00
         -2   -1    0    0    0  501 -0.00000000000E+00  0.00000000000E+00  0.12510255156E+02  0.12510255156E+02  0.00000000000E+00 0. -1.
          2   -1    0    0  501    0  0.00000000000E+00 -0.00000000000E+00 -0.15058803837E+04  0.15058803837E+04  0.00000000000E+00 0. -1.
         35    2    1    2    0    0  0.00000000000E+00  0.00000000000E+00 -0.14933701285E+04  0.15183906388E+04  0.27451009333E+03 0.  0.
         25    1    3    3    0    0 -0.44262432789E+02  0.43790913603E+02 -0.87782885710E+03  0.88817808430E+03  0.12000000000E+03 0.  0.
         25    1    3    3    0    0  0.44262432789E+02 -0.43790913603E+02 -0.61554127141E+03  0.63021255453E+03  0.12000000000E+03 0.  0.
<mgrwt>
<rscale>  0 0.27451009E+03</rscale>
<asrwt>0</asrwt>
<pdfrwt beam="1">  1        2 0.23167388E+00 0.27451009E+03</pdfrwt>
<pdfrwt beam="2">  1       -2 0.19246549E-02 0.27451009E+03</pdfrwt>
<totfact> 0.11080190E+04</totfact>
</mgrwt>
</event>
<event>
 5    1  0.1140254E+001  0.2759641E+03  0.7818608E-02  0.1097914E+00
          2   -1    0    0  501    0  0.00000000000E+00  0.00000000000E+00  0.28347833419E+03  0.28347833419E+03  0.00000000000E+00 0. -1.
         -2   -1    0    0    0  501 -0.00000000000E+00 -0.00000000000E+00 -0.67162250648E+02  0.67162250648E+02  0.00000000000E+00 0. -1.
         35    2    1    2    0    0  0.00000000000E+00  0.00000000000E+00  0.21631608354E+03  0.35064058484E+03  0.27596407689E+03 0.  0.
         25    1    3    3    0    0 -0.16766225437E+02  0.66013934496E+02  0.10855391343E+03  0.17556451231E+03  0.12000000000E+03 0.  0.
         25    1    3    3    0    0  0.16766225437E+02 -0.66013934496E+02  0.10776217012E+03  0.17507607253E+03  0.12000000000E+03 0.  0.
<mgrwt>
<rscale>  0 0.27596408E+03</rscale>
<asrwt>0</asrwt>
<pdfrwt beam="1">  1        2 0.43612051E-01 0.27596408E+03</pdfrwt>
<pdfrwt beam="2">  1       -2 0.10332654E-01 0.27596408E+03</pdfrwt>
<totfact> 0.72686616E+03</totfact>
</mgrwt>
</event>
<event>
 5    1  0.1140254E+001  0.2742657E+03  0.7818608E-02  0.1098863E+00
          2   -1    0    0  501    0  0.00000000000E+00  0.00000000000E+00  0.97519222347E+03  0.97519222347E+03  0.00000000000E+00 0.  1.
         -2   -1    0    0    0  501 -0.00000000000E+00 -0.00000000000E+00 -0.19283808747E+02  0.19283808747E+02  0.00000000000E+00 0.  1.
         35    2    1    2    0    0  0.00000000000E+00  0.00000000000E+00  0.95590841472E+03  0.99447603221E+03  0.27426571298E+03 0.  0.
         25    1    3    3    0    0  0.59133326972E+02 -0.23485974817E+02  0.40943616735E+03  0.43137723225E+03  0.12000000000E+03 0.  0.
         25    1    3    3    0    0 -0.59133326972E+02  0.23485974817E+02  0.54647224737E+03  0.56309879996E+03  0.12000000000E+03 0.  0.
<mgrwt>
<rscale>  0 0.27426571E+03</rscale>
<asrwt>0</asrwt>
<pdfrwt beam="1">  1        2 0.15002953E+00 0.27426571E+03</pdfrwt>
<pdfrwt beam="2">  1       -2 0.29667406E-02 0.27426571E+03</pdfrwt>
<totfact> 0.11684451E+04</totfact>
</mgrwt>
</event>
<event>
 5    1  0.1140254E+001  0.2742695E+03  0.7818608E-02  0.1098861E+00
          3   -1    0    0  501    0  0.00000000000E+00  0.00000000000E+00  0.55868576534E+02  0.55868576534E+02  0.00000000000E+00 0.  1.
         -3   -1    0    0    0  501 -0.00000000000E+00 -0.00000000000E+00 -0.33661024421E+03  0.33661024421E+03  0.00000000000E+00 0.  1.
         35    2    1    2    0    0  0.00000000000E+00  0.00000000000E+00 -0.28074166768E+03  0.39247882075E+03  0.27426946743E+03 0.  0.
         25    1    3    3    0    0  0.42000724003E+02 -0.10831746541E+02 -0.68470559391E+02  0.14480885696E+03  0.12000000000E+03 0.  0.
         25    1    3    3    0    0 -0.42000724003E+02  0.10831746541E+02 -0.21227110829E+03  0.24766996379E+03  0.12000000000E+03 0.  0.
<mgrwt>
<rscale>  0 0.27426947E+03</rscale>
<asrwt>0</asrwt>
<pdfrwt beam="1">  1        3 0.85951657E-02 0.27426947E+03</pdfrwt>
<pdfrwt beam="2">  1       -3 0.51786191E-01 0.27426947E+03</pdfrwt>
<totfact> 0.89679385E+02</totfact>
</mgrwt>
</event>
<event>
 5    1  0.1140254E+001  0.2750305E+03  0.7818608E-02  0.1098435E+00
          1   -1    0    0  501    0  0.00000000000E+00  0.00000000000E+00  0.73883362030E+02  0.73883362030E+02  0.00000000000E+00 0.  1.
         -1   -1    0    0    0  501 -0.00000000000E+00 -0.00000000000E+00 -0.25594987792E+03  0.25594987792E+03  0.00000000000E+00 0.  1.
         35    2    1    2    0    0  0.00000000000E+00  0.00000000000E+00 -0.18206651589E+03  0.32983323995E+03  0.27503045280E+03 0.  0.
         25    1    3    3    0    0  0.18552960988E+01 -0.50634369427E+02 -0.14389816477E+03  0.19409781893E+03  0.12000000000E+03 0.  0.
         25    1    3    3    0    0 -0.18552960988E+01  0.50634369427E+02 -0.38168351121E+02  0.13573542102E+03  0.12000000000E+03 0.  0.
<mgrwt>
<rscale>  0 0.27503045E+03</rscale>
<asrwt>0</asrwt>
<pdfrwt beam="1">  1        1 0.11366671E-01 0.27503045E+03</pdfrwt>
<pdfrwt beam="2">  1       -1 0.39376904E-01 0.27503045E+03</pdfrwt>
<totfact> 0.34110352E+03</totfact>
</mgrwt>
</event>
<event>
 5    1  0.1140254E+001  0.2716636E+03  0.7818608E-02  0.1100331E+00
         -2   -1    0    0    0  501 -0.00000000000E+00  0.00000000000E+00  0.12849013558E+02  0.12849013558E+02  0.00000000000E+00 0.  1.
          2   -1    0    0  501    0  0.00000000000E+00 -0.00000000000E+00 -0.14359300010E+04  0.14359300010E+04  0.00000000000E+00 0.  1.
         35    2    1    2    0    0  0.00000000000E+00  0.00000000000E+00 -0.14230809874E+04  0.14487790146E+04  0.27166364535E+03 0.  0.
         25    1    3    3    0    0 -0.50112715268E+02 -0.74079819641E+01 -0.91699012625E+03  0.92619493309E+03  0.12000000000E+03 0.  0.
         25    1    3    3    0    0  0.50112715268E+02  0.74079819641E+01 -0.50609086118E+03  0.52258408147E+03  0.12000000000E+03 0.  0.
<mgrwt>
<rscale>  0 0.27166365E+03</rscale>
<asrwt>0</asrwt>
<pdfrwt beam="1">  1        2 0.22091222E+00 0.27166365E+03</pdfrwt>
<pdfrwt beam="2">  1       -2 0.19767721E-02 0.27166365E+03</pdfrwt>
<totfact> 0.11613559E+04</totfact>
</mgrwt>
</event>
<event>
 5    1  0.1140254E+001  0.2736709E+03  0.7818608E-02  0.1099197E+00
          2   -1    0    0  501    0  0.00000000000E+00  0.00000000000E+00  0.83375373914E+03  0.83375373914E+03  0.00000000000E+00 0. -1.
         -2   -1    0    0    0  501 -0.00000000000E+00 -0.00000000000E+00 -0.22457398154E+02  0.22457398154E+02  0.00000000000E+00 0. -1.
         35    2    1    2    0    0  0.00000000000E+00  0.00000000000E+00  0.81129634098E+03  0.85621113729E+03  0.27367089492E+03 0.  0.
         25    1    3    3    0    0  0.15184253179E+02 -0.57730363726E+02  0.49193124987E+03  0.50986244325E+03  0.12000000000E+03 0.  0.
         25    1    3    3    0    0 -0.15184253179E+02  0.57730363726E+02  0.31936509111E+03  0.34634869404E+03  0.12000000000E+03 0.  0.
<mgrwt>
<rscale>  0 0.27367089E+03</rscale>
<asrwt>0</asrwt>
<pdfrwt beam="1">  1        2 0.12826978E+00 0.27367089E+03</pdfrwt>
<pdfrwt beam="2">  1       -2 0.34549850E-02 0.27367089E+03</pdfrwt>
<totfact> 0.11485125E+04</totfact>
</mgrwt>
</event>
<event>
 5    1  0.1140254E+001  0.2728508E+03  0.7818608E-02  0.1099659E+00
         -1   -1    0    0    0  501 -0.00000000000E+00  0.00000000000E+00  0.13744998978E+03  0.13744998978E+03  0.00000000000E+00 0. -1.
          1   -1    0    0  501    0  0.00000000000E+00 -0.00000000000E+00 -0.13540849741E+03  0.13540849741E+03  0.00000000000E+00 0. -1.
         35    2    1    2    0    0  0.00000000000E+00  0.00000000000E+00  0.20414923676E+01  0.27285848718E+03  0.27285084999E+03 0.  0.
         25    1    3    3    0    0  0.47834171233E+02  0.40114456476E+02 -0.16717253741E+02  0.13629653014E+03  0.12000000000E+03 0.  0.
         25    1    3    3    0    0 -0.47834171233E+02 -0.40114456476E+02  0.18758746109E+02  0.13656195704E+03  0.12000000000E+03 0.  0.
<mgrwt>
<rscale>  0 0.27285085E+03</rscale>
<asrwt>0</asrwt>
<pdfrwt beam="1">  1        1 0.20832077E-01 0.27285085E+03</pdfrwt>
<pdfrwt beam="2">  1       -1 0.21146152E-01 0.27285085E+03</pdfrwt>
<totfact> 0.44254555E+03</totfact>
</mgrwt>
</event>
<event>
 5    1  0.1140254E+001  0.2750505E+03  0.7818608E-02  0.1098423E+00
          1   -1    0    0  501    0  0.00000000000E+00  0.00000000000E+00  0.15882694840E+03  0.15882694840E+03  0.00000000000E+00 0.  1.
         -1   -1    0    0    0  501 -0.00000000000E+00 -0.00000000000E+00 -0.11908049527E+03  0.11908049527E+03  0.00000000000E+00 0.  1.
         35    2    1    2    0    0  0.00000000000E+00  0.00000000000E+00  0.39746453128E+02  0.27790744367E+03  0.27505048030E+03 0.  0.
         25    1    3    3    0    0  0.62264711914E+02  0.19240322569E+02  0.36355464492E+02  0.14131101925E+03  0.12000000000E+03 0.  0.
         25    1    3    3    0    0 -0.62264711914E+02 -0.19240322569E+02  0.33909886356E+01  0.13659642443E+03  0.12000000000E+03 0.  0.
<mgrwt>
<rscale>  0 0.27505048E+03</rscale>
<asrwt>0</asrwt>
<pdfrwt beam="1">  1        1 0.24434915E-01 0.27505048E+03</pdfrwt>
<pdfrwt beam="2">  1       -1 0.18320076E-01 0.27505048E+03</pdfrwt>
<totfact> 0.45556806E+03</totfact>
</mgrwt>
</event>
<event>
 5    1  0.1140254E+001  0.2744712E+03  0.7818608E-02  0.1098748E+00
         -2   -1    0    0    0  501 -0.00000000000E+00  0.00000000000E+00  0.22985456146E+02  0.22985456146E+02  0.00000000000E+00 0. -1.
          2   -1    0    0  501    0  0.00000000000E+00 -0.00000000000E+00 -0.81937066322E+03  0.81937066322E+03  0.00000000000E+00 0. -1.
         35    2    1    2    0    0  0.00000000000E+00  0.00000000000E+00 -0.79638520708E+03  0.84235611937E+03  0.27447118936E+03 0.  0.
         25    1    3    3    0    0  0.17891396180E+02  0.58407645636E+02 -0.47951010385E+03  0.49805772238E+03  0.12000000000E+03 0.  0.
         25    1    3    3    0    0 -0.17891396180E+02 -0.58407645636E+02 -0.31687510323E+03  0.34429839699E+03  0.12000000000E+03 0.  0.
<mgrwt>
<rscale>  0 0.27447119E+03</rscale>
<asrwt>0</asrwt>
<pdfrwt beam="1">  1        2 0.12605704E+00 0.27447119E+03</pdfrwt>
<pdfrwt beam="2">  1       -2 0.35362237E-02 0.27447119E+03</pdfrwt>
<totfact> 0.11345517E+04</totfact>
</mgrwt>
</event>
<event>
 5    1  0.1140254E+001  0.2738297E+03  0.7818608E-02  0.1099108E+00
          2   -1    0    0  501    0  0.00000000000E+00  0.00000000000E+00  0.40448401006E+02  0.40448401006E+02  0.00000000000E+00 0. -1.
         -2   -1    0    0    0  501 -0.00000000000E+00 -0.00000000000E+00 -0.46344668235E+03  0.46344668235E+03  0.00000000000E+00 0. -1.
         35    2    1    2    0    0  0.00000000000E+00  0.00000000000E+00 -0.42299828134E+03  0.50389508336E+03  0.27382970805E+03 0.  0.
         25    1    3    3    0    0 -0.58550699893E+02 -0.79270925776E+01 -0.15770255392E+03  0.20678761754E+03  0.12000000000E+03 0.  0.
         25    1    3    3    0    0  0.58550699893E+02  0.79270925776E+01 -0.26529572743E+03  0.29710746582E+03  0.12000000000E+03 0.  0.
<mgrwt>
<rscale>  0 0.27382971E+03</rscale>
<asrwt>0</asrwt>
<pdfrwt beam="1">  1        2 0.62228308E-02 0.27382971E+03</pdfrwt>
<pdfrwt beam="2">  1       -2 0.71299491E-01 0.27382971E+03</pdfrwt>
<totfact> 0.21535644E+03</totfact>
</mgrwt>
</event>
<event>
 5    1  0.1140254E+001  0.2754612E+03  0.7818608E-02  0.1098194E+00
          1   -1    0    0  501    0  0.00000000000E+00  0.00000000000E+00  0.26239357197E+03  0.26239357197E+03  0.00000000000E+00 0.  1.
         -1   -1    0    0    0  501 -0.00000000000E+00 -0.00000000000E+00 -0.72294904011E+02  0.72294904011E+02  0.00000000000E+00 0.  1.
         35    2    1    2    0    0  0.00000000000E+00  0.00000000000E+00  0.19009866796E+03  0.33468847598E+03  0.27546119944E+03 0.  0.
         25    1    3    3    0    0  0.53011762207E+01  0.24208308585E+02  0.17146546581E+03  0.21074759937E+03  0.12000000000E+03 0.  0.
         25    1    3    3    0    0 -0.53011762207E+01 -0.24208308585E+02  0.18633202152E+02  0.12394087662E+03  0.12000000000E+03 0.  0.
<mgrwt>
<rscale>  0 0.27546120E+03</rscale>
<asrwt>0</asrwt>
<pdfrwt beam="1">  1        1 0.40368241E-01 0.27546120E+03</pdfrwt>
<pdfrwt beam="2">  1       -1 0.11122293E-01 0.27546120E+03</pdfrwt>
<totfact> 0.53252222E+03</totfact>
</mgrwt>
</event>
<event>
 5    1  0.1140254E+001  0.2757080E+03  0.7818608E-02  0.1098057E+00
          2   -1    0    0  501    0  0.00000000000E+00  0.00000000000E+00  0.22273285197E+03  0.22273285197E+03  0.00000000000E+00 0.  1.
         -2   -1    0    0    0  501 -0.00000000000E+00 -0.00000000000E+00 -0.85320708229E+02  0.85320708229E+02  0.00000000000E+00 0.  1.
         35    2    1    2    0    0  0.00000000000E+00  0.00000000000E+00  0.13741214374E+03  0.30805356020E+03  0.27570799536E+03 0.  0.
         25    1    3    3    0    0  0.35229581987E+02  0.57970134921E+02  0.67100595513E+02  0.15331063208E+03  0.12000000000E+03 0.  0.
         25    1    3    3    0    0 -0.35229581987E+02 -0.57970134921E+02  0.70311548230E+02  0.15474292812E+03  0.12000000000E+03 0.  0.
<mgrwt>
<rscale>  0 0.27570800E+03</rscale>
<asrwt>0</asrwt>
<pdfrwt beam="1">  1        2 0.34266592E-01 0.27570800E+03</pdfrwt>
<pdfrwt beam="2">  1       -2 0.13126263E-01 0.27570800E+03</pdfrwt>
<totfact> 0.64151569E+03</totfact>
</mgrwt>
</event>
<event>
 5    1  0.1140254E+001  0.2738119E+03  0.7818608E-02  0.1099118E+00
         -4   -1    0    0    0  501 -0.00000000000E+00  0.00000000000E+00  0.84222338031E+02  0.84222338031E+02  0.00000000000E+00 0. -1.
          4   -1    0    0  501    0  0.00000000000E+00 -0.00000000000E+00 -0.22254476166E+03  0.22254476166E+03  0.00000000000E+00 0. -1.
         35    2    1    2    0    0  0.00000000000E+00  0.00000000000E+00 -0.13832242363E+03  0.30676709969E+03  0.27381190729E+03 0.  0.
         25    1    3    3    0    0  0.39685554946E+01  0.37239449718E+02 -0.12991632742E+03  0.18077825693E+03  0.12000000000E+03 0.  0.
         25    1    3    3    0    0 -0.39685554946E+01 -0.37239449718E+02 -0.84060962152E+01  0.12598884277E+03  0.12000000000E+03 0.  0.
<mgrwt>
<rscale>  0 0.27381191E+03</rscale>
<asrwt>0</asrwt>
<pdfrwt beam="1">  1        4 0.34237655E-01 0.27381191E+03</pdfrwt>
<pdfrwt beam="2">  1       -4 0.12957283E-01 0.27381191E+03</pdfrwt>
<totfact> 0.75246163E+02</totfact>
</mgrwt>
</event>
<event>
 5    1  0.1140254E+001  0.2673537E+03  0.7818608E-02  0.1102804E+00
         -1   -1    0    0    0  501 -0.00000000000E+00  0.00000000000E+00  0.12441217155E+03  0.12441217155E+03  0.00000000000E+00 0.  1.
          1   -1    0    0  501    0  0.00000000000E+00 -0.00000000000E+00 -0.14363142188E+03  0.14363142188E+03  0.00000000000E+00 0.  1.
         35    2    1    2    0    0  0.00000000000E+00  0.00000000000E+00 -0.19219250320E+02  0.26804359343E+03  0.26735367661E+03 0.  0.
         25    1    3    3    0    0  0.16239717766E+02  0.58772761317E+01  0.46849336579E+02  0.12997357864E+03  0.12000000000E+03 0.  0.
         25    1    3    3    0    0 -0.16239717766E+02 -0.58772761317E+01 -0.66068586899E+02  0.13807001479E+03  0.12000000000E+03 0.  0.
<mgrwt>
<rscale>  0 0.26735368E+03</rscale>
<asrwt>0</asrwt>
<pdfrwt beam="1">  1        1 0.22097142E-01 0.26735368E+03</pdfrwt>
<pdfrwt beam="2">  1       -1 0.19140334E-01 0.26735368E+03</pdfrwt>
<totfact> 0.48218276E+03</totfact>
</mgrwt>
</event>
<event>
 5    1  0.1140254E+001  0.2788562E+03  0.7818608E-02  0.1096315E+00
          2   -1    0    0  501    0  0.00000000000E+00  0.00000000000E+00  0.43727114492E+02  0.43727114492E+02  0.00000000000E+00 0.  1.
         -2   -1    0    0    0  501 -0.00000000000E+00 -0.00000000000E+00 -0.44457987975E+03  0.44457987975E+03  0.00000000000E+00 0.  1.
         35    2    1    2    0    0  0.00000000000E+00  0.00000000000E+00 -0.40085276526E+03  0.48830699424E+03  0.27885620167E+03 0.  0.
         25    1    3    3    0    0 -0.61870857940E+02  0.14035378376E+02 -0.25622051472E+03  0.28995507768E+03  0.12000000000E+03 0.  0.
         25    1    3    3    0    0  0.61870857940E+02 -0.14035378376E+02 -0.14463225053E+03  0.19835191656E+03  0.12000000000E+03 0.  0.
<mgrwt>
<rscale>  0 0.27885620E+03</rscale>
<asrwt>0</asrwt>
<pdfrwt beam="1">  1        2 0.67272479E-02 0.27885620E+03</pdfrwt>
<pdfrwt beam="2">  1       -2 0.68396909E-01 0.27885620E+03</pdfrwt>
<totfact> 0.21288480E+03</totfact>
</mgrwt>
</event>
<event>
 5    1  0.1140254E+001  0.2821854E+03  0.7818608E-02  0.1094501E+00
         -1   -1    0    0    0  501 -0.00000000000E+00  0.00000000000E+00  0.16050791718E+02  0.16050791718E+02  0.00000000000E+00 0. -1.
          1   -1    0    0  501    0  0.00000000000E+00 -0.00000000000E+00 -0.12402595711E+04  0.12402595711E+04  0.00000000000E+00 0. -1.
         35    2    1    2    0    0  0.00000000000E+00  0.00000000000E+00 -0.12242087793E+04  0.12563103628E+04  0.28218538624E+03 0.  0.
         25    1    3    3    0    0 -0.39845708667E+02  0.61765837221E+02 -0.56660407839E+03  0.58381750641E+03  0.12000000000E+03 0.  0.
         25    1    3    3    0    0  0.39845708667E+02 -0.61765837221E+02 -0.65760470096E+03  0.67249285637E+03  0.12000000000E+03 0.  0.
<mgrwt>
<rscale>  0 0.28218539E+03</rscale>
<asrwt>0</asrwt>
<pdfrwt beam="1">  1        1 0.19080913E+00 0.28218539E+03</pdfrwt>
<pdfrwt beam="2">  1       -1 0.24693530E-02 0.28218539E+03</pdfrwt>
<totfact> 0.54000102E+03</totfact>
</mgrwt>
</event>
<event>
 5    1  0.1140254E+001  0.2761865E+03  0.7818608E-02  0.1097790E+00
         -2   -1    0    0    0  501 -0.00000000000E+00  0.00000000000E+00  0.39738407802E+03  0.39738407802E+03  0.00000000000E+00 0. -1.
          2   -1    0    0  501    0  0.00000000000E+00 -0.00000000000E+00 -0.47988208790E+02  0.47988208790E+02  0.00000000000E+00 0. -1.
         35    2    1    2    0    0  0.00000000000E+00  0.00000000000E+00  0.34939586923E+03  0.44537228681E+03  0.27618653194E+03 0.  0.
         25    1    3    3    0    0  0.12709751376E+02 -0.35480118812E+01  0.66575533792E+02  0.13786380188E+03  0.12000000000E+03 0.  0.
         25    1    3    3    0    0 -0.12709751376E+02  0.35480118812E+01  0.28282033544E+03  0.30750848493E+03  0.12000000000E+03 0.  0.
<mgrwt>
<rscale>  0 0.27618653E+03</rscale>
<asrwt>0</asrwt>
<pdfrwt beam="1">  1        2 0.73828016E-02 0.27618653E+03</pdfrwt>
<pdfrwt beam="2">  1       -2 0.61136010E-01 0.27618653E+03</pdfrwt>
<totfact> 0.23914840E+03</totfact>
</mgrwt>
</event>
<event>
 5    1  0.1140254E+001  0.2751798E+03  0.7818608E-02  0.1098351E+00
          2   -1    0    0  501    0  0.00000000000E+00  0.00000000000E+00  0.63017176470E+03  0.63017176470E+03  0.00000000000E+00 0. -1.
         -2   -1    0    0    0  501 -0.00000000000E+00 -0.00000000000E+00 -0.30040986497E+02  0.30040986497E+02  0.00000000000E+00 0. -1.
         35    2    1    2    0    0  0.00000000000E+00  0.00000000000E+00  0.60013077821E+03  0.66021275120E+03  0.27517980649E+03 0.  0.
         25    1    3    3    0    0 -0.42206418024E+02  0.52291864753E+02  0.29072368712E+03  0.32161480547E+03  0.12000000000E+03 0.  0.
         25    1    3    3    0    0  0.42206418024E+02 -0.52291864753E+02  0.30940709108E+03  0.33859794573E+03  0.12000000000E+03 0.  0.
<mgrwt>
<rscale>  0 0.27517981E+03</rscale>
<asrwt>0</asrwt>
<pdfrwt beam="1">  1        2 0.96949492E-01 0.27517981E+03</pdfrwt>
<pdfrwt beam="2">  1       -2 0.46216907E-02 0.27517981E+03</pdfrwt>
<totfact> 0.10464094E+04</totfact>
</mgrwt>
</event>
<event>
 5    1  0.1140254E+001  0.2748620E+03  0.7818608E-02  0.1098529E+00
          2   -1    0    0  501    0  0.00000000000E+00  0.00000000000E+00  0.17908308350E+03  0.17908308350E+03  0.00000000000E+00 0. -1.
         -2   -1    0    0    0  501 -0.00000000000E+00 -0.00000000000E+00 -0.10546655025E+03  0.10546655025E+03  0.00000000000E+00 0. -1.
         35    2    1    2    0    0  0.00000000000E+00  0.00000000000E+00  0.73616533243E+02  0.28454963375E+03  0.27486196554E+03 0.  0.
         25    1    3    3    0    0 -0.27810993454E+02  0.59903202226E+01  0.99591790426E+02  0.15851769622E+03  0.12000000000E+03 0.  0.
         25    1    3    3    0    0  0.27810993454E+02 -0.59903202226E+01 -0.25975257183E+02  0.12603193754E+03  0.12000000000E+03 0.  0.
<mgrwt>
<rscale>  0 0.27486197E+03</rscale>
<asrwt>0</asrwt>
<pdfrwt beam="1">  1        2 0.27551244E-01 0.27486197E+03</pdfrwt>
<pdfrwt beam="2">  1       -2 0.16225623E-01 0.27486197E+03</pdfrwt>
<totfact> 0.57450218E+03</totfact>
</mgrwt>
</event>
<event>
 5    1  0.1140254E+001  0.2768953E+03  0.7818608E-02  0.1097397E+00
          2   -1    0    0  501    0  0.00000000000E+00  0.00000000000E+00  0.61257797565E+03  0.61257797565E+03  0.00000000000E+00 0. -1.
         -2   -1    0    0    0  501 -0.00000000000E+00 -0.00000000000E+00 -0.31290308010E+02  0.31290308010E+02  0.00000000000E+00 0. -1.
         35    2    1    2    0    0  0.00000000000E+00  0.00000000000E+00  0.58128766764E+03  0.64386828366E+03  0.27689531263E+03 0.  0.
         25    1    3    3    0    0  0.26889022632E+02  0.47613804807E+01  0.43811457978E+03  0.45507150570E+03  0.12000000000E+03 0.  0.
         25    1    3    3    0    0 -0.26889022632E+02 -0.47613804807E+01  0.14317308786E+03  0.18879677797E+03  0.12000000000E+03 0.  0.
<mgrwt>
<rscale>  0 0.27689531E+03</rscale>
<asrwt>0</asrwt>
<pdfrwt beam="1">  1        2 0.94242757E-01 0.27689531E+03</pdfrwt>
<pdfrwt beam="2">  1       -2 0.48138940E-02 0.27689531E+03</pdfrwt>
<totfact> 0.10171808E+04</totfact>
</mgrwt>
</event>
<event>
 5    1  0.1140254E+001  0.2742002E+03  0.7818608E-02  0.1098900E+00
         -2   -1    0    0    0  501 -0.00000000000E+00  0.00000000000E+00  0.48156227271E+01  0.48156227271E+01  0.00000000000E+00 0. -1.
          2   -1    0    0  501    0  0.00000000000E+00 -0.00000000000E+00 -0.39032197045E+04  0.39032197045E+04  0.00000000000E+00 0. -1.
         35    2    1    2    0    0  0.00000000000E+00  0.00000000000E+00 -0.38984040818E+04  0.39080353273E+04  0.27420017154E+03 0.  0.
         25    1    3    3    0    0  0.50518708222E+02 -0.24718842740E+02 -0.14486833800E+04  0.14547325172E+04  0.12000000000E+03 0.  0.
         25    1    3    3    0    0 -0.50518708222E+02  0.24718842740E+02 -0.24497207018E+04  0.24533028101E+04  0.12000000000E+03 0.  0.
<mgrwt>
<rscale>  0 0.27420017E+03</rscale>
<asrwt>0</asrwt>
<pdfrwt beam="1">  1        2 0.60049313E+00 0.27420017E+03</pdfrwt>
<pdfrwt beam="2">  1       -2 0.74086776E-03 0.27420017E+03</pdfrwt>
<totfact> 0.17433338E+03</totfact>
</mgrwt>
</event>
<event>
 5    1  0.1140254E+001  0.2746970E+03  0.7818608E-02  0.1098621E+00
         -2   -1    0    0    0  501 -0.00000000000E+00  0.00000000000E+00  0.41525197163E+01  0.41525197163E+01  0.00000000000E+00 0.  1.
          2   -1    0    0  501    0  0.00000000000E+00 -0.00000000000E+00 -0.45429298897E+04  0.45429298897E+04  0.00000000000E+00 0.  1.
         35    2    1    2    0    0  0.00000000000E+00  0.00000000000E+00 -0.45387773700E+04  0.45470824094E+04  0.27469696712E+03 0.  0.
         25    1    3    3    0    0  0.47669102299E+02  0.10658589851E+02 -0.15146955739E+04  0.15202265063E+04  0.12000000000E+03 0.  0.
         25    1    3    3    0    0 -0.47669102299E+02 -0.10658589851E+02 -0.30240817961E+04  0.30268559031E+04  0.12000000000E+03 0.  0.
<mgrwt>
<rscale>  0 0.27469697E+03</rscale>
<asrwt>0</asrwt>
<pdfrwt beam="1">  1        2 0.69891519E+00 0.27469697E+03</pdfrwt>
<pdfrwt beam="2">  1       -2 0.63884654E-03 0.27469697E+03</pdfrwt>
<totfact> 0.63161151E+02</totfact>
</mgrwt>
</event>
<event>
 5    1  0.1140254E+001  0.2746977E+03  0.7818608E-02  0.1098621E+00
         -2   -1    0    0    0  501 -0.00000000000E+00  0.00000000000E+00  0.71398024003E+01  0.71398024003E+01  0.00000000000E+00 0.  1.
          2   -1    0    0  501    0  0.00000000000E+00 -0.00000000000E+00 -0.26421882307E+04  0.26421882307E+04  0.00000000000E+00 0.  1.
         35    2    1    2    0    0  0.00000000000E+00  0.00000000000E+00 -0.26350484283E+04  0.26493280331E+04  0.27469766560E+03 0.  0.
         25    1    3    3    0    0  0.90405887933E+01 -0.60678168542E+02 -0.10621483304E+04  0.10706645824E+04  0.12000000000E+03 0.  0.
         25    1    3    3    0    0 -0.90405887933E+01  0.60678168542E+02 -0.15729000979E+04  0.15786634507E+04  0.12000000000E+03 0.  0.
<mgrwt>
<rscale>  0 0.27469767E+03</rscale>
<asrwt>0</asrwt>
<pdfrwt beam="1">  1        2 0.40649041E+00 0.27469767E+03</pdfrwt>
<pdfrwt beam="2">  1       -2 0.10984314E-02 0.27469767E+03</pdfrwt>
<totfact> 0.62230191E+03</totfact>
</mgrwt>
</event>
<event>
 5    1  0.1140254E+001  0.2717969E+03  0.7818608E-02  0.1100256E+00
         -2   -1    0    0    0  501 -0.00000000000E+00  0.00000000000E+00  0.17728765728E+03  0.17728765728E+03  0.00000000000E+00 0. -1.
          2   -1    0    0  501    0  0.00000000000E+00 -0.00000000000E+00 -0.10417189704E+03  0.10417189704E+03  0.00000000000E+00 0. -1.
         35    2    1    2    0    0  0.00000000000E+00  0.00000000000E+00  0.73115760245E+02  0.28145955432E+03  0.27179692111E+03 0.  0.
         25    1    3    3    0    0 -0.57686616077E+01  0.60521053729E+01 -0.28923716567E+02  0.12371938739E+03  0.12000000000E+03 0.  0.
         25    1    3    3    0    0  0.57686616077E+01 -0.60521053729E+01  0.10203947681E+03  0.15774016693E+03  0.12000000000E+03 0.  0.
<mgrwt>
<rscale>  0 0.27179692E+03</rscale>
<asrwt>0</asrwt>
<pdfrwt beam="1">  1        2 0.16026446E-01 0.27179692E+03</pdfrwt>
<pdfrwt beam="2">  1       -2 0.27275024E-01 0.27179692E+03</pdfrwt>
<totfact> 0.43500889E+03</totfact>
</mgrwt>
</event>
<event>
 5    1  0.1140254E+001  0.2752564E+03  0.7818608E-02  0.1098308E+00
         -1   -1    0    0    0  501 -0.00000000000E+00  0.00000000000E+00  0.55771811241E+03  0.55771811241E+03  0.00000000000E+00 0.  1.
          1   -1    0    0  501    0  0.00000000000E+00 -0.00000000000E+00 -0.33962523689E+02  0.33962523689E+02  0.00000000000E+00 0.  1.
         35    2    1    2    0    0  0.00000000000E+00  0.00000000000E+00  0.52375558872E+03  0.59168063609E+03  0.27525635037E+03 0.  0.
         25    1    3    3    0    0 -0.19796457163E+02 -0.56843654484E+02  0.19673457503E+03  0.23817555245E+03  0.12000000000E+03 0.  0.
         25    1    3    3    0    0  0.19796457163E+02  0.56843654484E+02  0.32702101369E+03  0.35350508365E+03  0.12000000000E+03 0.  0.
<mgrwt>
<rscale>  0 0.27525635E+03</rscale>
<asrwt>0</asrwt>
<pdfrwt beam="1">  1        1 0.52250041E-02 0.27525635E+03</pdfrwt>
<pdfrwt beam="2">  1       -1 0.85802780E-01 0.27525635E+03</pdfrwt>
<totfact> 0.22002533E+03</totfact>
</mgrwt>
</event>
<event>
 5    1  0.1140254E+001  0.2723344E+03  0.7818608E-02  0.1099951E+00
          2   -1    0    0  501    0  0.00000000000E+00  0.00000000000E+00  0.27302527675E+04  0.27302527675E+04  0.00000000000E+00 0.  1.
         -2   -1    0    0    0  501 -0.00000000000E+00 -0.00000000000E+00 -0.67911319228E+01  0.67911319228E+01  0.00000000000E+00 0.  1.
         35    2    1    2    0    0  0.00000000000E+00  0.00000000000E+00  0.27234616355E+04  0.27370438994E+04  0.27233440272E+03 0.  0.
         25    1    3    3    0    0 -0.39734272214E+02 -0.37464384135E+02  0.17039011726E+04  0.17089943237E+04  0.12000000000E+03 0.  0.
         25    1    3    3    0    0  0.39734272214E+02  0.37464384135E+02  0.10195604629E+04  0.10280495756E+04  0.12000000000E+03 0.  0.
<mgrwt>
<rscale>  0 0.27233440E+03</rscale>
<asrwt>0</asrwt>
<pdfrwt beam="1">  1        2 0.42003801E+00 0.27233440E+03</pdfrwt>
<pdfrwt beam="2">  1       -2 0.10447917E-02 0.27233440E+03</pdfrwt>
<totfact> 0.59726095E+03</totfact>
</mgrwt>
</event>
<event>
 5    1  0.1140254E+001  0.2751648E+03  0.7818608E-02  0.1098359E+00
         -1   -1    0    0    0  501 -0.00000000000E+00  0.00000000000E+00  0.12289613765E+04  0.12289613765E+04  0.00000000000E+00 0. -1.
          1   -1    0    0  501    0  0.00000000000E+00 -0.00000000000E+00 -0.15402373696E+02  0.15402373696E+02  0.00000000000E+00 0. -1.
         35    2    1    2    0    0  0.00000000000E+00  0.00000000000E+00  0.12135590028E+04  0.12443637502E+04  0.27516484062E+03 0.  0.
         25    1    3    3    0    0  0.12871891009E+02  0.11823232724E+02  0.31288735252E+03  0.33556514983E+03  0.12000000000E+03 0.  0.
         25    1    3    3    0    0 -0.12871891009E+02 -0.11823232724E+02  0.90067165030E+03  0.90879860039E+03  0.12000000000E+03 0.  0.
<mgrwt>
<rscale>  0 0.27516484E+03</rscale>
<asrwt>0</asrwt>
<pdfrwt beam="1">  1        1 0.23695969E-02 0.27516484E+03</pdfrwt>
<pdfrwt beam="2">  1       -1 0.18907090E+00 0.27516484E+03</pdfrwt>
<totfact> 0.94171069E+02</totfact>
</mgrwt>
</event>
<event>
 5    1  0.1140254E+001  0.2749994E+03  0.7818608E-02  0.1098452E+00
         -1   -1    0    0    0  501 -0.00000000000E+00  0.00000000000E+00  0.22125749378E+02  0.22125749378E+02  0.00000000000E+00 0. -1.
          1   -1    0    0  501    0  0.00000000000E+00 -0.00000000000E+00 -0.85448699598E+03  0.85448699598E+03  0.00000000000E+00 0. -1.
         35    2    1    2    0    0  0.00000000000E+00  0.00000000000E+00 -0.83236124661E+03  0.87661274536E+03  0.27499938269E+03 0.  0.
         25    1    3    3    0    0  0.40825229050E+02  0.19951555516E+02 -0.25867515334E+03  0.28875179454E+03  0.12000000000E+03 0.  0.
         25    1    3    3    0    0 -0.40825229050E+02 -0.19951555516E+02 -0.57368609326E+03  0.58786095082E+03  0.12000000000E+03 0.  0.
<mgrwt>
<rscale>  0 0.27499938E+03</rscale>
<asrwt>0</asrwt>
<pdfrwt beam="1">  1        1 0.13145954E+00 0.27499938E+03</pdfrwt>
<pdfrwt beam="2">  1       -1 0.34039614E-02 0.27499938E+03</pdfrwt>
<totfact> 0.64860860E+03</totfact>
</mgrwt>
</event>
<event>
 5    1  0.1140254E+001  0.2767828E+03  0.7818608E-02  0.1097459E+00
          1   -1    0    0  501    0  0.00000000000E+00  0.00000000000E+00  0.88014997757E+03  0.88014997757E+03  0.00000000000E+00 0.  1.
         -1   -1    0    0    0  501 -0.00000000000E+00 -0.00000000000E+00 -0.21760130485E+02  0.21760130485E+02  0.00000000000E+00 0.  1.
         35    2    1    2    0    0  0.00000000000E+00  0.00000000000E+00  0.85838984708E+03  0.90191010805E+03  0.27678279107E+03 0.  0.
         25    1    3    3    0    0  0.51724507070E+02 -0.34633505151E+02  0.52570925588E+03  0.54281223828E+03  0.12000000000E+03 0.  0.
         25    1    3    3    0    0 -0.51724507070E+02  0.34633505151E+02  0.33268059120E+03  0.35909786977E+03  0.12000000000E+03 0.  0.
<mgrwt>
<rscale>  0 0.27678279E+03</rscale>
<asrwt>0</asrwt>
<pdfrwt beam="1">  1        1 0.13540766E+00 0.27678279E+03</pdfrwt>
<pdfrwt beam="2">  1       -1 0.33477131E-02 0.27678279E+03</pdfrwt>
<totfact> 0.63419049E+03</totfact>
</mgrwt>
</event>
<event>
 5    1  0.1140254E+001  0.2758204E+03  0.7818608E-02  0.1097994E+00
         -2   -1    0    0    0  501 -0.00000000000E+00  0.00000000000E+00  0.15292029011E+03  0.15292029011E+03  0.00000000000E+00 0.  1.
          2   -1    0    0  501    0  0.00000000000E+00 -0.00000000000E+00 -0.12437348926E+03  0.12437348926E+03  0.00000000000E+00 0.  1.
         35    2    1    2    0    0  0.00000000000E+00  0.00000000000E+00  0.28546800851E+02  0.27729377938E+03  0.27582044928E+03 0.  0.
         25    1    3    3    0    0 -0.76361208414E-01 -0.66312829254E+02  0.29247014981E+02  0.14018839125E+03  0.12000000000E+03 0.  0.
         25    1    3    3    0    0  0.76361208414E-01  0.66312829254E+02 -0.70021412998E+00  0.13710538813E+03  0.12000000000E+03 0.  0.
<mgrwt>
<rscale>  0 0.27582045E+03</rscale>
<asrwt>0</asrwt>
<pdfrwt beam="1">  1        2 0.19134383E-01 0.27582045E+03</pdfrwt>
<pdfrwt beam="2">  1       -2 0.23526198E-01 0.27582045E+03</pdfrwt>
<totfact> 0.45990022E+03</totfact>
</mgrwt>
</event>
<event>
 5    1  0.1140254E+001  0.2736006E+03  0.7818608E-02  0.1099236E+00
          2   -1    0    0  501    0  0.00000000000E+00  0.00000000000E+00  0.25400492296E+04  0.25400492296E+04  0.00000000000E+00 0.  1.
         -2   -1    0    0    0  501 -0.00000000000E+00 -0.00000000000E+00 -0.73677027523E+01  0.73677027523E+01  0.00000000000E+00 0.  1.
         35    2    1    2    0    0  0.00000000000E+00  0.00000000000E+00  0.25326815268E+04  0.25474169323E+04  0.27360064108E+03 0.  0.
         25    1    3    3    0    0  0.40706088922E+02 -0.39809269208E+02  0.15712668294E+04  0.15768707026E+04  0.12000000000E+03 0.  0.
         25    1    3    3    0    0 -0.40706088922E+02  0.39809269208E+02  0.96141469741E+03  0.97054622970E+03  0.12000000000E+03 0.  0.
<mgrwt>
<rscale>  0 0.27360064E+03</rscale>
<asrwt>0</asrwt>
<pdfrwt beam="1">  1        2 0.39077611E+00 0.27360064E+03</pdfrwt>
<pdfrwt beam="2">  1       -2 0.11334948E-02 0.27360064E+03</pdfrwt>
<totfact> 0.67732811E+03</totfact>
</mgrwt>
</event>
<event>
 5    1  0.1140254E+001  0.2749962E+03  0.7818608E-02  0.1098454E+00
         -1   -1    0    0    0  501 -0.00000000000E+00  0.00000000000E+00  0.14234516379E+02  0.14234516379E+02  0.00000000000E+00 0. -1.
          1   -1    0    0  501    0  0.00000000000E+00 -0.00000000000E+00 -0.13281604943E+04  0.13281604943E+04  0.00000000000E+00 0. -1.
         35    2    1    2    0    0  0.00000000000E+00  0.00000000000E+00 -0.13139259779E+04  0.13423950107E+04  0.27499616222E+03 0.  0.
         25    1    3    3    0    0 -0.13336154866E+02 -0.43937244983E+02 -0.89597671406E+03  0.90514231294E+03  0.12000000000E+03 0.  0.
         25    1    3    3    0    0  0.13336154866E+02  0.43937244983E+02 -0.41794926384E+03  0.43725269772E+03  0.12000000000E+03 0.  0.
<mgrwt>
<rscale>  0 0.27499616E+03</rscale>
<asrwt>0</asrwt>
<pdfrwt beam="1">  1        1 0.20433239E+00 0.27499616E+03</pdfrwt>
<pdfrwt beam="2">  1       -1 0.21899255E-02 0.27499616E+03</pdfrwt>
<totfact> 0.56032570E+03</totfact>
</mgrwt>
</event>
<event>
 5    1  0.1140254E+001  0.2740427E+03  0.7818608E-02  0.1098988E+00
          2   -1    0    0  501    0  0.00000000000E+00  0.00000000000E+00  0.78499209241E+03  0.78499209241E+03  0.00000000000E+00 0. -1.
         -2   -1    0    0    0  501 -0.00000000000E+00 -0.00000000000E+00 -0.23917250642E+02  0.23917250642E+02  0.00000000000E+00 0. -1.
         35    2    1    2    0    0  0.00000000000E+00  0.00000000000E+00  0.76107484177E+03  0.80890934305E+03  0.27404271657E+03 0.  0.
         25    1    3    3    0    0 -0.65096872690E+02 -0.37778811691E+01  0.34780378467E+03  0.37365672461E+03  0.12000000000E+03 0.  0.
         25    1    3    3    0    0  0.65096872690E+02  0.37778811691E+01  0.41327105710E+03  0.43525261844E+03  0.12000000000E+03 0.  0.
<mgrwt>
<rscale>  0 0.27404272E+03</rscale>
<asrwt>0</asrwt>
<pdfrwt beam="1">  1        2 0.12076799E+00 0.27404272E+03</pdfrwt>
<pdfrwt beam="2">  1       -2 0.36795776E-02 0.27404272E+03</pdfrwt>
<totfact> 0.11289289E+04</totfact>
</mgrwt>
</event>
<event>
 5    1  0.1140254E+001  0.2745962E+03  0.7818608E-02  0.1098678E+00
         -2   -1    0    0    0  501 -0.00000000000E+00  0.00000000000E+00  0.53701654862E+02  0.53701654862E+02  0.00000000000E+00 0.  1.
          2   -1    0    0  501    0  0.00000000000E+00 -0.00000000000E+00 -0.35102772090E+03  0.35102772090E+03  0.00000000000E+00 0.  1.
         35    2    1    2    0    0  0.00000000000E+00  0.00000000000E+00 -0.29732606603E+03  0.40472937576E+03  0.27459620911E+03 0.  0.
         25    1    3    3    0    0  0.75749288281E+01  0.26206185103E+02 -0.58928508956E+02  0.13644307550E+03  0.12000000000E+03 0.  0.
         25    1    3    3    0    0 -0.75749288281E+01 -0.26206185103E+02 -0.23839755708E+03  0.26828630026E+03  0.12000000000E+03 0.  0.
<mgrwt>
<rscale>  0 0.27459621E+03</rscale>
<asrwt>0</asrwt>
<pdfrwt beam="1">  1        2 0.54004263E-01 0.27459621E+03</pdfrwt>
<pdfrwt beam="2">  1       -2 0.82617933E-02 0.27459621E+03</pdfrwt>
<totfact> 0.82200737E+03</totfact>
</mgrwt>
</event>
<event>
 5    1  0.1140254E+001  0.2751213E+03  0.7818608E-02  0.1098384E+00
          2   -1    0    0  501    0  0.00000000000E+00  0.00000000000E+00  0.16019477123E+04  0.16019477123E+04  0.00000000000E+00 0.  1.
         -2   -1    0    0    0  501 -0.00000000000E+00 -0.00000000000E+00 -0.11812452669E+02  0.11812452669E+02  0.00000000000E+00 0.  1.
         35    2    1    2    0    0  0.00000000000E+00  0.00000000000E+00  0.15901352597E+04  0.16137601650E+04  0.27512129348E+03 0.  0.
         25    1    3    3    0    0 -0.51150656142E+02  0.40025109581E+00  0.10511736086E+04  0.10592367560E+04  0.12000000000E+03 0.  0.
         25    1    3    3    0    0  0.51150656142E+02 -0.40025109581E+00  0.53896165106E+03  0.55452340901E+03  0.12000000000E+03 0.  0.
<mgrwt>
<rscale>  0 0.27512129E+03</rscale>
<asrwt>0</asrwt>
<pdfrwt beam="1">  1        2 0.24645332E+00 0.27512129E+03</pdfrwt>
<pdfrwt beam="2">  1       -2 0.18173017E-02 0.27512129E+03</pdfrwt>
<totfact> 0.10716517E+04</totfact>
</mgrwt>
</event>
<event>
 5    1  0.1140254E+001  0.2753378E+03  0.7818608E-02  0.1098263E+00
         -2   -1    0    0    0  501 -0.00000000000E+00  0.00000000000E+00  0.33125214883E+03  0.33125214883E+03  0.00000000000E+00 0.  1.
          2   -1    0    0  501    0  0.00000000000E+00 -0.00000000000E+00 -0.57215411749E+02  0.57215411749E+02  0.00000000000E+00 0.  1.
         35    2    1    2    0    0  0.00000000000E+00  0.00000000000E+00  0.27403673708E+03  0.38846756057E+03  0.27533781497E+03 0.  0.
         25    1    3    3    0    0 -0.19799139951E+02  0.53696941122E+02  0.18744334045E+03  0.22980507677E+03  0.12000000000E+03 0.  0.
         25    1    3    3    0    0  0.19799139951E+02 -0.53696941122E+02  0.86593396625E+02  0.15866248381E+03  0.12000000000E+03 0.  0.
<mgrwt>
<rscale>  0 0.27533781E+03</rscale>
<asrwt>0</asrwt>
<pdfrwt beam="1">  1        2 0.88023712E-02 0.27533781E+03</pdfrwt>
<pdfrwt beam="2">  1       -2 0.50961868E-01 0.27533781E+03</pdfrwt>
<totfact> 0.27728808E+03</totfact>
</mgrwt>
</event>
<event>
 5    1  0.1140254E+001  0.2753441E+03  0.7818608E-02  0.1098259E+00
          1   -1    0    0  501    0  0.00000000000E+00  0.00000000000E+00  0.12984446634E+04  0.12984446634E+04  0.00000000000E+00 0.  1.
         -1   -1    0    0    0  501 -0.00000000000E+00 -0.00000000000E+00 -0.14597149276E+02  0.14597149276E+02  0.00000000000E+00 0.  1.
         35    2    1    2    0    0  0.00000000000E+00  0.00000000000E+00  0.12838475141E+04  0.13130418127E+04  0.27534407986E+03 0.  0.
         25    1    3    3    0    0 -0.55022527004E+02  0.82735137603E+00  0.45567275780E+03  0.47441102980E+03  0.12000000000E+03 0.  0.
         25    1    3    3    0    0  0.55022527004E+02 -0.82735137603E+00  0.82817475635E+03  0.83863078291E+03  0.12000000000E+03 0.  0.
<mgrwt>
<rscale>  0 0.27534408E+03</rscale>
<asrwt>0</asrwt>
<pdfrwt beam="1">  1        1 0.19976063E+00 0.27534408E+03</pdfrwt>
<pdfrwt beam="2">  1       -1 0.22457163E-02 0.27534408E+03</pdfrwt>
<totfact> 0.56585243E+03</totfact>
</mgrwt>
</event>
<event>
 4    1  0.1140254E+001  0.2548731E+03  0.7818608E-02  0.1110263E+00
          2   -1    0    0  501    0  0.00000000000E+00  0.00000000000E+00  0.10423779825E+04  0.10423779825E+04  0.00000000000E+00 0.  1.
         -2   -1    0    0    0  501 -0.00000000000E+00 -0.00000000000E+00 -0.15579830869E+02  0.15579830869E+02  0.00000000000E+00 0.  1.
         25    1    1    2    0    0 -0.10498184904E+02  0.41502603660E+02  0.50211141842E+03  0.51802370072E+03  0.12000000000E+03 0.  0.
         25    1    1    2    0    0  0.10498184904E+02 -0.41502603660E+02  0.52468673321E+03  0.53993411265E+03  0.12000000000E+03 0.  0.
<mgrwt>
<rscale>  0 0.25487309E+03</rscale>
<asrwt>0</asrwt>
<pdfrwt beam="1">  1        2 0.16036579E+00 0.25487309E+03</pdfrwt>
<pdfrwt beam="2">  1       -2 0.23968979E-02 0.25487309E+03</pdfrwt>
<totfact> 0.14547364E+04</totfact>
</mgrwt>
</event>
<event>
 5    1  0.1140254E+001  0.2742159E+03  0.7818608E-02  0.1098891E+00
          2   -1    0    0  501    0  0.00000000000E+00  0.00000000000E+00  0.14590080589E+03  0.14590080589E+03  0.00000000000E+00 0. -1.
         -2   -1    0    0    0  501 -0.00000000000E+00 -0.00000000000E+00 -0.12884496111E+03  0.12884496111E+03  0.00000000000E+00 0. -1.
         35    2    1    2    0    0  0.00000000000E+00  0.00000000000E+00  0.17055844782E+02  0.27474576699E+03  0.27421585410E+03 0.  0.
         25    1    3    3    0    0 -0.14228728004E+02  0.64591887602E+02  0.36179405898E+01  0.13706807848E+03  0.12000000000E+03 0.  0.
         25    1    3    3    0    0  0.14228728004E+02 -0.64591887602E+02  0.13437904193E+02  0.13767768851E+03  0.12000000000E+03 0.  0.
<mgrwt>
<rscale>  0 0.27421585E+03</rscale>
<asrwt>0</asrwt>
<pdfrwt beam="1">  1        2 0.22446278E-01 0.27421585E+03</pdfrwt>
<pdfrwt beam="2">  1       -2 0.19822302E-01 0.27421585E+03</pdfrwt>
<totfact> 0.51534276E+03</totfact>
</mgrwt>
</event>
<event>
 5    1  0.1140254E+001  0.2750530E+03  0.7818608E-02  0.1098422E+00
         -2   -1    0    0    0  501 -0.00000000000E+00  0.00000000000E+00  0.10003088319E+03  0.10003088319E+03  0.00000000000E+00 0. -1.
          2   -1    0    0  501    0  0.00000000000E+00 -0.00000000000E+00 -0.18907701541E+03  0.18907701541E+03  0.00000000000E+00 0. -1.
         35    2    1    2    0    0  0.00000000000E+00  0.00000000000E+00 -0.89046132221E+02  0.28910789861E+03  0.27505301920E+03 0.  0.
         25    1    3    3    0    0 -0.49884559093E+00  0.33980688917E+02 -0.10543788976E+03  0.16331590450E+03  0.12000000000E+03 0.  0.
         25    1    3    3    0    0  0.49884559093E+00 -0.33980688917E+02  0.16391757536E+02  0.12579199411E+03  0.12000000000E+03 0.  0.
<mgrwt>
<rscale>  0 0.27505302E+03</rscale>
<asrwt>0</asrwt>
<pdfrwt beam="1">  1        2 0.29088772E-01 0.27505302E+03</pdfrwt>
<pdfrwt beam="2">  1       -2 0.15389367E-01 0.27505302E+03</pdfrwt>
<totfact> 0.59084624E+03</totfact>
</mgrwt>
</event>
<event>
 5    1  0.1140254E+001  0.2755661E+03  0.7818608E-02  0.1098136E+00
          4   -1    0    0  501    0  0.00000000000E+00  0.00000000000E+00  0.17904958123E+03  0.17904958123E+03  0.00000000000E+00 0. -1.
         -4   -1    0    0    0  501 -0.00000000000E+00 -0.00000000000E+00 -0.10602742952E+03  0.10602742952E+03  0.00000000000E+00 0. -1.
         35    2    1    2    0    0  0.00000000000E+00  0.00000000000E+00  0.73022151708E+02  0.28507701074E+03  0.27556608538E+03 0.  0.
         25    1    3    3    0    0 -0.51387317298E+02  0.43895753619E+02  0.40735301049E+02  0.14362053585E+03  0.12000000000E+03 0.  0.
         25    1    3    3    0    0  0.51387317298E+02 -0.43895753619E+02  0.32286850659E+02  0.14145647490E+03  0.12000000000E+03 0.  0.
<mgrwt>
<rscale>  0 0.27556609E+03</rscale>
<asrwt>0</asrwt>
<pdfrwt beam="1">  1        4 0.27546089E-01 0.27556609E+03</pdfrwt>
<pdfrwt beam="2">  1       -4 0.16311912E-01 0.27556609E+03</pdfrwt>
<totfact> 0.76201925E+02</totfact>
</mgrwt>
</event>
<event>
 5    1  0.1140254E+001  0.2748978E+03  0.7818608E-02  0.1098509E+00
          2   -1    0    0  501    0  0.00000000000E+00  0.00000000000E+00  0.34337025511E+03  0.34337025511E+03  0.00000000000E+00 0.  1.
         -2   -1    0    0    0  501 -0.00000000000E+00 -0.00000000000E+00 -0.55019890767E+02  0.55019890767E+02  0.00000000000E+00 0.  1.
         35    2    1    2    0    0  0.00000000000E+00  0.00000000000E+00  0.28835036435E+03  0.39839014588E+03  0.27489775502E+03 0.  0.
         25    1    3    3    0    0 -0.59052466586E+02 -0.31379811695E+02  0.15070597671E+03  0.20392198951E+03  0.12000000000E+03 0.  0.
         25    1    3    3    0    0  0.59052466586E+02  0.31379811695E+02  0.13764438764E+03  0.19446815637E+03  0.12000000000E+03 0.  0.
<mgrwt>
<rscale>  0 0.27489776E+03</rscale>
<asrwt>0</asrwt>
<pdfrwt beam="1">  1        2 0.52826192E-01 0.27489776E+03</pdfrwt>
<pdfrwt beam="2">  1       -2 0.84645988E-02 0.27489776E+03</pdfrwt>
<totfact> 0.81044657E+03</totfact>
</mgrwt>
</event>
<event>
 5    1  0.1140254E+001  0.2691711E+03  0.7818608E-02  0.1101755E+00
         -2   -1    0    0    0  501 -0.00000000000E+00  0.00000000000E+00  0.85748664994E+02  0.85748664994E+02  0.00000000000E+00 0. -1.
          2   -1    0    0  501    0  0.00000000000E+00 -0.00000000000E+00 -0.21123677183E+03  0.21123677183E+03  0.00000000000E+00 0. -1.
         35    2    1    2    0    0  0.00000000000E+00  0.00000000000E+00 -0.12548810683E+03  0.29698543682E+03  0.26917110678E+03 0.  0.
         25    1    3    3    0    0 -0.46636725881E+02  0.33446758327E+02 -0.85344922809E+02  0.15804248066E+03  0.12000000000E+03 0.  0.
         25    1    3    3    0    0  0.46636725881E+02 -0.33446758327E+02 -0.40143184023E+02  0.13894295616E+03  0.12000000000E+03 0.  0.
<mgrwt>
<rscale>  0 0.26917111E+03</rscale>
<asrwt>0</asrwt>
<pdfrwt beam="1">  1        2 0.32497965E-01 0.26917111E+03</pdfrwt>
<pdfrwt beam="2">  1       -2 0.13192102E-01 0.26917111E+03</pdfrwt>
<totfact> 0.67349196E+03</totfact>
</mgrwt>
</event>
<event>
 5    1  0.1140254E+001  0.2741767E+03  0.7818608E-02  0.1098913E+00
          4   -1    0    0  501    0  0.00000000000E+00  0.00000000000E+00  0.18067920917E+02  0.18067920917E+02  0.00000000000E+00 0. -1.
         -4   -1    0    0    0  501 -0.00000000000E+00 -0.00000000000E+00 -0.10401427855E+04  0.10401427855E+04  0.00000000000E+00 0. -1.
         35    2    1    2    0    0  0.00000000000E+00  0.00000000000E+00 -0.10220748646E+04  0.10582107064E+04  0.27417671376E+03 0.  0.
         25    1    3    3    0    0 -0.17507306226E+02 -0.11156838618E+02 -0.26809028912E+03  0.29445438346E+03  0.12000000000E+03 0.  0.
         25    1    3    3    0    0  0.17507306226E+02  0.11156838618E+02 -0.75398457549E+03  0.76375632298E+03  0.12000000000E+03 0.  0.
<mgrwt>
<rscale>  0 0.27417671E+03</rscale>
<asrwt>0</asrwt>
<pdfrwt beam="1">  1        4 0.27796783E-02 0.27417671E+03</pdfrwt>
<pdfrwt beam="2">  1       -4 0.16002207E+00 0.27417671E+03</pdfrwt>
<totfact> 0.30383923E+02</totfact>
</mgrwt>
</event>
<event>
 5    1  0.1140254E+001  0.2746678E+03  0.7818608E-02  0.1098637E+00
         -1   -1    0    0    0  501 -0.00000000000E+00  0.00000000000E+00  0.47004991518E+02  0.47004991518E+02  0.00000000000E+00 0. -1.
          1   -1    0    0  501    0  0.00000000000E+00 -0.00000000000E+00 -0.40124683584E+03  0.40124683584E+03  0.00000000000E+00 0. -1.
         35    2    1    2    0    0  0.00000000000E+00  0.00000000000E+00 -0.35424184432E+03  0.44825182736E+03  0.27466782932E+03 0.  0.
         25    1    3    3    0    0 -0.51662761496E+02  0.16872468006E+02 -0.24047200492E+03  0.27419063852E+03  0.12000000000E+03 0.  0.
         25    1    3    3    0    0  0.51662761496E+02 -0.16872468006E+02 -0.11376983940E+03  0.17406118884E+03  0.12000000000E+03 0.  0.
<mgrwt>
<rscale>  0 0.27466783E+03</rscale>
<asrwt>0</asrwt>
<pdfrwt beam="1">  1        1 0.61730282E-01 0.27466783E+03</pdfrwt>
<pdfrwt beam="2">  1       -1 0.72315372E-02 0.27466783E+03</pdfrwt>
<totfact> 0.60312569E+03</totfact>
</mgrwt>
</event>
<event>
 5    1  0.1140254E+001  0.2745594E+03  0.7818608E-02  0.1098698E+00
         -1   -1    0    0    0  501 -0.00000000000E+00  0.00000000000E+00  0.24103295880E+02  0.24103295880E+02  0.00000000000E+00 0. -1.
          1   -1    0    0  501    0  0.00000000000E+00 -0.00000000000E+00 -0.78187304598E+03  0.78187304598E+03  0.00000000000E+00 0. -1.
         35    2    1    2    0    0  0.00000000000E+00  0.00000000000E+00 -0.75776975010E+03  0.80597634186E+03  0.27455940973E+03 0.  0.
         25    1    3    3    0    0  0.41390270016E+02  0.46966210919E+02 -0.31151228162E+03  0.33964522817E+03  0.12000000000E+03 0.  0.
         25    1    3    3    0    0 -0.41390270016E+02 -0.46966210919E+02 -0.44625746848E+03  0.46633111368E+03  0.12000000000E+03 0.  0.
<mgrwt>
<rscale>  0 0.27455941E+03</rscale>
<asrwt>0</asrwt>
<pdfrwt beam="1">  1        1 0.12028817E+00 0.27455941E+03</pdfrwt>
<pdfrwt beam="2">  1       -1 0.37081991E-02 0.27455941E+03</pdfrwt>
<totfact> 0.65590661E+03</totfact>
</mgrwt>
</event>
<event>
 5    1  0.1140254E+001  0.2820502E+03  0.7818608E-02  0.1094574E+00
         -2   -1    0    0    0  501 -0.00000000000E+00  0.00000000000E+00  0.62954484090E+01  0.62954484090E+01  0.00000000000E+00 0. -1.
          2   -1    0    0  501    0  0.00000000000E+00 -0.00000000000E+00 -0.31591202811E+04  0.31591202811E+04  0.00000000000E+00 0. -1.
         35    2    1    2    0    0  0.00000000000E+00  0.00000000000E+00 -0.31528248327E+04  0.31654157295E+04  0.28205019941E+03 0.  0.
         25    1    3    3    0    0  0.59993185389E+02  0.42258213650E+02 -0.16903895044E+04  0.16962315925E+04  0.12000000000E+03 0.  0.
         25    1    3    3    0    0 -0.59993185389E+02 -0.42258213650E+02 -0.14624353283E+04  0.14691841370E+04  0.12000000000E+03 0.  0.
<mgrwt>
<rscale>  0 0.28205020E+03</rscale>
<asrwt>0</asrwt>
<pdfrwt beam="1">  1        2 0.48601916E+00 0.28205020E+03</pdfrwt>
<pdfrwt beam="2">  1       -2 0.96852922E-03 0.28205020E+03</pdfrwt>
<totfact> 0.37295653E+03</totfact>
</mgrwt>
</event>
<event>
 5    1  0.1140254E+001  0.2764768E+03  0.7818608E-02  0.1097629E+00
         -2   -1    0    0    0  501 -0.00000000000E+00  0.00000000000E+00  0.34613959534E+02  0.34613959534E+02  0.00000000000E+00 0.  1.
          2   -1    0    0  501    0  0.00000000000E+00 -0.00000000000E+00 -0.55208518045E+03  0.55208518045E+03  0.00000000000E+00 0.  1.
         35    2    1    2    0    0  0.00000000000E+00  0.00000000000E+00 -0.51747122091E+03  0.58669913998E+03  0.27647679176E+03 0.  0.
         25    1    3    3    0    0 -0.38217059368E+02  0.52222452005E+02 -0.30722474359E+03  0.33611719860E+03  0.12000000000E+03 0.  0.
         25    1    3    3    0    0  0.38217059368E+02 -0.52222452005E+02 -0.21024647732E+03  0.25058194138E+03  0.12000000000E+03 0.  0.
<mgrwt>
<rscale>  0 0.27647679E+03</rscale>
<asrwt>0</asrwt>
<pdfrwt beam="1">  1        2 0.84936183E-01 0.27647679E+03</pdfrwt>
<pdfrwt beam="2">  1       -2 0.53252245E-02 0.27647679E+03</pdfrwt>
<totfact> 0.98350413E+03</totfact>
</mgrwt>
</event>
<event>
 5    1  0.1140254E+001  0.2751858E+03  0.7818608E-02  0.1098348E+00
          1   -1    0    0  501    0  0.00000000000E+00  0.00000000000E+00  0.53334364023E+03  0.53334364023E+03  0.00000000000E+00 0. -1.
         -1   -1    0    0    0  501 -0.00000000000E+00 -0.00000000000E+00 -0.35496457582E+02  0.35496457582E+02  0.00000000000E+00 0. -1.
         35    2    1    2    0    0  0.00000000000E+00  0.00000000000E+00  0.49784718265E+03  0.56884009781E+03  0.27518582741E+03 0.  0.
         25    1    3    3    0    0  0.11717624646E+01 -0.41586430696E+02  0.13952263151E+03  0.18867265024E+03  0.12000000000E+03 0.  0.
         25    1    3    3    0    0 -0.11717624646E+01  0.41586430696E+02  0.35832455114E+03  0.38016744757E+03  0.12000000000E+03 0.  0.
<mgrwt>
<rscale>  0 0.27518583E+03</rscale>
<asrwt>0</asrwt>
<pdfrwt beam="1">  1        1 0.82052862E-01 0.27518583E+03</pdfrwt>
<pdfrwt beam="2">  1       -1 0.54609939E-02 0.27518583E+03</pdfrwt>
<totfact> 0.63483406E+03</totfact>
</mgrwt>
</event>
<event>
 5    1  0.1140254E+001  0.2756210E+03  0.7818608E-02  0.1098105E+00
         -2   -1    0    0    0  501 -0.00000000000E+00  0.00000000000E+00  0.11030402087E+02  0.11030402087E+02  0.00000000000E+00 0.  1.
          2   -1    0    0  501    0  0.00000000000E+00 -0.00000000000E+00 -0.17217622262E+04  0.17217622262E+04  0.00000000000E+00 0.  1.
         35    2    1    2    0    0  0.00000000000E+00  0.00000000000E+00 -0.17107318241E+04  0.17327926283E+04  0.27562096911E+03 0.  0.
         25    1    3    3    0    0  0.50312413291E+02 -0.45190977914E+02 -0.88216171845E+03  0.89285097352E+03  0.12000000000E+03 0.  0.
         25    1    3    3    0    0 -0.50312413291E+02  0.45190977914E+02 -0.82857010566E+03  0.83994165476E+03  0.12000000000E+03 0.  0.
<mgrwt>
<rscale>  0 0.27562097E+03</rscale>
<asrwt>0</asrwt>
<pdfrwt beam="1">  1        2 0.26488637E+00 0.27562097E+03</pdfrwt>
<pdfrwt beam="2">  1       -2 0.16969857E-02 0.27562097E+03</pdfrwt>
<totfact> 0.10244062E+04</totfact>
</mgrwt>
</event>
<event>
 5    1  0.1140254E+001  0.2751661E+03  0.7818608E-02  0.1098359E+00
         -1   -1    0    0    0  501 -0.00000000000E+00  0.00000000000E+00  0.27554538642E+02  0.27554538642E+02  0.00000000000E+00 0. -1.
          1   -1    0    0  501    0  0.00000000000E+00 -0.00000000000E+00 -0.68696823497E+03  0.68696823497E+03  0.00000000000E+00 0. -1.
         35    2    1    2    0    0  0.00000000000E+00  0.00000000000E+00 -0.65941369633E+03  0.71452277361E+03  0.27516607913E+03 0.  0.
         25    1    3    3    0    0 -0.42284791239E+02  0.39844446497E+01 -0.46526368876E+03  0.48236311991E+03  0.12000000000E+03 0.  0.
         25    1    3    3    0    0  0.42284791239E+02 -0.39844446497E+01 -0.19415000757E+03  0.23215965370E+03  0.12000000000E+03 0.  0.
<mgrwt>
<rscale>  0 0.27516608E+03</rscale>
<asrwt>0</asrwt>
<pdfrwt beam="1">  1        1 0.10568741E+00 0.27516608E+03</pdfrwt>
<pdfrwt beam="2">  1       -1 0.42391600E-02 0.27516608E+03</pdfrwt>
<totfact> 0.65153604E+03</totfact>
</mgrwt>
</event>
<event>
 5    1  0.1140254E+001  0.2717297E+03  0.7818608E-02  0.1100294E+00
         -2   -1    0    0    0  501 -0.00000000000E+00  0.00000000000E+00  0.12404716669E+02  0.12404716669E+02  0.00000000000E+00 0. -1.
          2   -1    0    0  501    0  0.00000000000E+00 -0.00000000000E+00 -0.14880834477E+04  0.14880834477E+04  0.00000000000E+00 0. -1.
         35    2    1    2    0    0  0.00000000000E+00  0.00000000000E+00 -0.14756787310E+04  0.15004881644E+04  0.27172967117E+03 0.  0.
         25    1    3    3    0    0  0.54726703987E+02  0.11623562756E+02 -0.56951974790E+03  0.58470750174E+03  0.12000000000E+03 0.  0.
         25    1    3    3    0    0 -0.54726703987E+02 -0.11623562756E+02 -0.90615898311E+03  0.91578066261E+03  0.12000000000E+03 0.  0.
<mgrwt>
<rscale>  0 0.27172967E+03</rscale>
<asrwt>0</asrwt>
<pdfrwt beam="1">  1        2 0.22893598E+00 0.27172967E+03</pdfrwt>
<pdfrwt beam="2">  1       -2 0.19084174E-02 0.27172967E+03</pdfrwt>
<totfact> 0.11465302E+04</totfact>
</mgrwt>
</event>
<event>
 5    1  0.1140254E+001  0.2750315E+03  0.7818608E-02  0.1098434E+00
         -2   -1    0    0    0  501 -0.00000000000E+00  0.00000000000E+00  0.14467099889E+02  0.14467099889E+02  0.00000000000E+00 0.  1.
          2   -1    0    0  501    0  0.00000000000E+00 -0.00000000000E+00 -0.13071441265E+04  0.13071441265E+04  0.00000000000E+00 0.  1.
         35    2    1    2    0    0  0.00000000000E+00  0.00000000000E+00 -0.12926770266E+04  0.13216112264E+04  0.27503152290E+03 0.  0.
         25    1    3    3    0    0  0.47412109607E+02  0.46007356605E+02 -0.70440120296E+03  0.71759712913E+03  0.12000000000E+03 0.  0.
         25    1    3    3    0    0 -0.47412109607E+02 -0.46007356605E+02 -0.58827582366E+03  0.60401409727E+03  0.12000000000E+03 0.  0.
<mgrwt>
<rscale>  0 0.27503152E+03</rscale>
<asrwt>0</asrwt>
<pdfrwt beam="1">  1        2 0.20109914E+00 0.27503152E+03</pdfrwt>
<pdfrwt beam="2">  1       -2 0.22257072E-02 0.27503152E+03</pdfrwt>
<totfact> 0.11469084E+04</totfact>
</mgrwt>
</event>
<event>
 5    1  0.1140254E+001  0.2742735E+03  0.7818608E-02  0.1098858E+00
         -1   -1    0    0    0  501 -0.00000000000E+00  0.00000000000E+00  0.29103956183E+02  0.29103956183E+02  0.00000000000E+00 0.  1.
          1   -1    0    0  501    0  0.00000000000E+00 -0.00000000000E+00 -0.64618326797E+03  0.64618326797E+03  0.00000000000E+00 0.  1.
         35    2    1    2    0    0  0.00000000000E+00  0.00000000000E+00 -0.61707931179E+03  0.67528722415E+03  0.27427350960E+03 0.  0.
         25    1    3    3    0    0  0.47983246873E+02  0.44917278597E+02 -0.33144317018E+03  0.35857290605E+03  0.12000000000E+03 0.  0.
         25    1    3    3    0    0 -0.47983246873E+02 -0.44917278597E+02 -0.28563614161E+03  0.31671431810E+03  0.12000000000E+03 0.  0.
<mgrwt>
<rscale>  0 0.27427351E+03</rscale>
<asrwt>0</asrwt>
<pdfrwt beam="1">  1        1 0.99412808E-01 0.27427351E+03</pdfrwt>
<pdfrwt beam="2">  1       -1 0.44775318E-02 0.27427351E+03</pdfrwt>
<totfact> 0.65556039E+03</totfact>
</mgrwt>
</event>
<event>
 5    1  0.1140254E+001  0.2750452E+03  0.7818608E-02  0.1098426E+00
         -2   -1    0    0    0  501 -0.00000000000E+00  0.00000000000E+00  0.78698064173E+01  0.78698064173E+01  0.00000000000E+00 0.  1.
          2   -1    0    0  501    0  0.00000000000E+00 -0.00000000000E+00 -0.24031672285E+04  0.24031672285E+04  0.00000000000E+00 0.  1.
         35    2    1    2    0    0  0.00000000000E+00  0.00000000000E+00 -0.23952974221E+04  0.24110370349E+04  0.27504516630E+03 0.  0.
         25    1    3    3    0    0  0.53646427160E+02  0.15928015564E+02 -0.87191072514E+03  0.88190699818E+03  0.12000000000E+03 0.  0.
         25    1    3    3    0    0 -0.53646427160E+02 -0.15928015564E+02 -0.15233866969E+04  0.15291300367E+04  0.12000000000E+03 0.  0.
<mgrwt>
<rscale>  0 0.27504517E+03</rscale>
<asrwt>0</asrwt>
<pdfrwt beam="1">  1        2 0.36971825E+00 0.27504517E+03</pdfrwt>
<pdfrwt beam="2">  1       -2 0.12107387E-02 0.27504517E+03</pdfrwt>
<totfact> 0.73089879E+03</totfact>
</mgrwt>
</event>
<event>
 5    1  0.1140254E+001  0.2741644E+03  0.7818608E-02  0.1098920E+00
         -1   -1    0    0    0  501 -0.00000000000E+00  0.00000000000E+00  0.12692299779E+02  0.12692299779E+02  0.00000000000E+00 0.  1.
          1   -1    0    0  501    0  0.00000000000E+00 -0.00000000000E+00 -0.14805458631E+04  0.14805458631E+04  0.00000000000E+00 0.  1.
         35    2    1    2    0    0  0.00000000000E+00  0.00000000000E+00 -0.14678535633E+04  0.14932381629E+04  0.27416441732E+03 0.  0.
         25    1    3    3    0    0 -0.16878264072E+02  0.63723962409E+02 -0.77083173299E+03  0.78289665970E+03  0.12000000000E+03 0.  0.
         25    1    3    3    0    0  0.16878264072E+02 -0.63723962409E+02 -0.69702183033E+03  0.71034150318E+03  0.12000000000E+03 0.  0.
<mgrwt>
<rscale>  0 0.27416442E+03</rscale>
<asrwt>0</asrwt>
<pdfrwt beam="1">  1        1 0.22777620E+00 0.27416442E+03</pdfrwt>
<pdfrwt beam="2">  1       -1 0.19526623E-02 0.27416442E+03</pdfrwt>
<totfact> 0.52355287E+03</totfact>
</mgrwt>
</event>
<event>
 5    1  0.1140254E+001  0.2758642E+03  0.7818608E-02  0.1097970E+00
          2   -1    0    0  501    0  0.00000000000E+00  0.00000000000E+00  0.31120038751E+04  0.31120038751E+04  0.00000000000E+00 0. -1.
         -2   -1    0    0    0  501 -0.00000000000E+00 -0.00000000000E+00 -0.61135071474E+01  0.61135071474E+01  0.00000000000E+00 0. -1.
         35    2    1    2    0    0  0.00000000000E+00  0.00000000000E+00  0.31058903680E+04  0.31181173823E+04  0.27586415449E+03 0.  0.
         25    1    3    3    0    0 -0.54192015164E+02  0.18735380543E+02  0.11395751022E+04  0.11473095496E+04  0.12000000000E+03 0.  0.
         25    1    3    3    0    0  0.54192015164E+02 -0.18735380543E+02  0.19663152658E+04  0.19708078327E+04  0.12000000000E+03 0.  0.
<mgrwt>
<rscale>  0 0.27586415E+03</rscale>
<asrwt>0</asrwt>
<pdfrwt beam="1">  1        2 0.47876856E+00 0.27586415E+03</pdfrwt>
<pdfrwt beam="2">  1       -2 0.94054205E-03 0.27586415E+03</pdfrwt>
<totfact> 0.41603325E+03</totfact>
</mgrwt>
</event>
<event>
 5    1  0.1140254E+001  0.2746018E+03  0.7818608E-02  0.1098674E+00
          3   -1    0    0  501    0  0.00000000000E+00  0.00000000000E+00  0.55029491626E+02  0.55029491626E+02  0.00000000000E+00 0.  1.
         -3   -1    0    0    0  501 -0.00000000000E+00 -0.00000000000E+00 -0.34257163406E+03  0.34257163406E+03  0.00000000000E+00 0.  1.
         35    2    1    2    0    0  0.00000000000E+00  0.00000000000E+00 -0.28754214244E+03  0.39760112569E+03  0.27460184171E+03 0.  0.
         25    1    3    3    0    0  0.31090352213E+02 -0.45596029077E+02 -0.89480203754E+02  0.15953781599E+03  0.12000000000E+03 0.  0.
         25    1    3    3    0    0 -0.31090352213E+02  0.45596029077E+02 -0.19806193868E+03  0.23806330970E+03  0.12000000000E+03 0.  0.
<mgrwt>
<rscale>  0 0.27460184E+03</rscale>
<asrwt>0</asrwt>
<pdfrwt beam="1">  1        3 0.84660758E-02 0.27460184E+03</pdfrwt>
<pdfrwt beam="2">  1       -3 0.52703327E-01 0.27460184E+03</pdfrwt>
<totfact> 0.88736353E+02</totfact>
</mgrwt>
</event>
<event>
 5    1  0.1140254E+001  0.2750451E+03  0.7818608E-02  0.1098426E+00
          2   -1    0    0  501    0  0.00000000000E+00  0.00000000000E+00  0.25310136254E+03  0.25310136254E+03  0.00000000000E+00 0. -1.
         -2   -1    0    0    0  501 -0.00000000000E+00 -0.00000000000E+00 -0.74722855196E+02  0.74722855196E+02  0.00000000000E+00 0. -1.
         35    2    1    2    0    0  0.00000000000E+00  0.00000000000E+00  0.17837850734E+03  0.32782421774E+03  0.27504513421E+03 0.  0.
         25    1    3    3    0    0  0.38900271104E+02  0.26728982240E+02  0.32217457044E+02  0.13291212933E+03  0.12000000000E+03 0.  0.
         25    1    3    3    0    0 -0.38900271104E+02 -0.26728982240E+02  0.14616105030E+03  0.19491208841E+03  0.12000000000E+03 0.  0.
<mgrwt>
<rscale>  0 0.27504513E+03</rscale>
<asrwt>0</asrwt>
<pdfrwt beam="1">  1        2 0.38938671E-01 0.27504513E+03</pdfrwt>
<pdfrwt beam="2">  1       -2 0.11495824E-01 0.27504513E+03</pdfrwt>
<totfact> 0.69222360E+03</totfact>
</mgrwt>
</event>
<event>
 5    1  0.1140254E+001  0.2748607E+03  0.7818608E-02  0.1098530E+00
         -2   -1    0    0    0  501 -0.00000000000E+00  0.00000000000E+00  0.98921502658E+01  0.98921502658E+01  0.00000000000E+00 0.  1.
          2   -1    0    0  501    0  0.00000000000E+00 -0.00000000000E+00 -0.19093014527E+04  0.19093014527E+04  0.00000000000E+00 0.  1.
         35    2    1    2    0    0  0.00000000000E+00  0.00000000000E+00 -0.18994093024E+04  0.19191936030E+04  0.27486066923E+03 0.  0.
         25    1    3    3    0    0  0.75971777053E+01 -0.63670195051E+01 -0.14122785280E+04  0.14174021647E+04  0.12000000000E+03 0.  0.
         25    1    3    3    0    0 -0.75971777053E+01  0.63670195051E+01 -0.48713077448E+03  0.50179143824E+03  0.12000000000E+03 0.  0.
<mgrwt>
<rscale>  0 0.27486067E+03</rscale>
<asrwt>0</asrwt>
<pdfrwt beam="1">  1        2 0.29373880E+00 0.27486067E+03</pdfrwt>
<pdfrwt beam="2">  1       -2 0.15218687E-02 0.27486067E+03</pdfrwt>
<totfact> 0.95773895E+03</totfact>
</mgrwt>
</event>
<event>
 5    1  0.1140254E+001  0.2748877E+03  0.7818608E-02  0.1098514E+00
         -1   -1    0    0    0  501 -0.00000000000E+00  0.00000000000E+00  0.14103459869E+02  0.14103459869E+02  0.00000000000E+00 0.  1.
          1   -1    0    0  501    0  0.00000000000E+00 -0.00000000000E+00 -0.13394450156E+04  0.13394450156E+04  0.00000000000E+00 0.  1.
         35    2    1    2    0    0  0.00000000000E+00  0.00000000000E+00 -0.13253415557E+04  0.13535484755E+04  0.27488767905E+03 0.  0.
         25    1    3    3    0    0 -0.44286885693E+02 -0.40000995702E+02 -0.81278441092E+03  0.82375961696E+03  0.12000000000E+03 0.  0.
         25    1    3    3    0    0  0.44286885693E+02  0.40000995702E+02 -0.51255714479E+03  0.52978885849E+03  0.12000000000E+03 0.  0.
<mgrwt>
<rscale>  0 0.27488768E+03</rscale>
<asrwt>0</asrwt>
<pdfrwt beam="1">  1        1 0.20606850E+00 0.27488768E+03</pdfrwt>
<pdfrwt beam="2">  1       -1 0.21697626E-02 0.27488768E+03</pdfrwt>
<totfact> 0.55802956E+03</totfact>
</mgrwt>
</event>
<event>
 5    1  0.1140254E+001  0.2746425E+03  0.7818608E-02  0.1098652E+00
          2   -1    0    0  501    0  0.00000000000E+00  0.00000000000E+00  0.47858566353E+03  0.47858566353E+03  0.00000000000E+00 0.  1.
         -2   -1    0    0    0  501 -0.00000000000E+00 -0.00000000000E+00 -0.39401779400E+02  0.39401779400E+02  0.00000000000E+00 0.  1.
         35    2    1    2    0    0  0.00000000000E+00  0.00000000000E+00  0.43918388413E+03  0.51798744293E+03  0.27464250755E+03 0.  0.
         25    1    3    3    0    0  0.33007292387E+02 -0.49282804329E+02  0.16180233831E+03  0.20999588766E+03  0.12000000000E+03 0.  0.
         25    1    3    3    0    0 -0.33007292387E+02  0.49282804329E+02  0.27738154582E+03  0.30799155526E+03  0.12000000000E+03 0.  0.
<mgrwt>
<rscale>  0 0.27464251E+03</rscale>
<asrwt>0</asrwt>
<pdfrwt beam="1">  1        2 0.73628559E-01 0.27464251E+03</pdfrwt>
<pdfrwt beam="2">  1       -2 0.60618126E-02 0.27464251E+03</pdfrwt>
<totfact> 0.94706293E+03</totfact>
</mgrwt>
</event>
<event>
 5    1  0.1140254E+001  0.2784508E+03  0.7818608E-02  0.1096538E+00
         -2   -1    0    0    0  501 -0.00000000000E+00  0.00000000000E+00  0.28510859381E+02  0.28510859381E+02  0.00000000000E+00 0.  1.
          2   -1    0    0  501    0  0.00000000000E+00 -0.00000000000E+00 -0.67987129843E+03  0.67987129843E+03  0.00000000000E+00 0.  1.
         35    2    1    2    0    0  0.00000000000E+00  0.00000000000E+00 -0.65136043905E+03  0.70838215781E+03  0.27845082142E+03 0.  0.
         25    1    3    3    0    0  0.50459679694E+02 -0.46119843777E+02 -0.28085247160E+03  0.31297177200E+03  0.12000000000E+03 0.  0.
         25    1    3    3    0    0 -0.50459679694E+02  0.46119843777E+02 -0.37050796745E+03  0.39541038581E+03  0.12000000000E+03 0.  0.
<mgrwt>
<rscale>  0 0.27845082E+03</rscale>
<asrwt>0</asrwt>
<pdfrwt beam="1">  1        2 0.10459557E+00 0.27845082E+03</pdfrwt>
<pdfrwt beam="2">  1       -2 0.43862867E-02 0.27845082E+03</pdfrwt>
<totfact> 0.10351749E+04</totfact>
</mgrwt>
</event>
<event>
 5    1  0.1140254E+001  0.2752394E+03  0.7818608E-02  0.1098318E+00
          4   -1    0    0  501    0  0.00000000000E+00  0.00000000000E+00  0.24684435629E+03  0.24684435629E+03  0.00000000000E+00 0.  1.
         -4   -1    0    0    0  501 -0.00000000000E+00 -0.00000000000E+00 -0.76725179158E+02  0.76725179158E+02  0.00000000000E+00 0.  1.
         35    2    1    2    0    0  0.00000000000E+00  0.00000000000E+00  0.17011917713E+03  0.32356953545E+03  0.27523936826E+03 0.  0.
         25    1    3    3    0    0 -0.20958279213E+02 -0.23178251473E+02  0.14890393305E+02  0.12489277250E+03  0.12000000000E+03 0.  0.
         25    1    3    3    0    0  0.20958279213E+02  0.23178251473E+02  0.15522878383E+03  0.19867676295E+03  0.12000000000E+03 0.  0.
<mgrwt>
<rscale>  0 0.27523937E+03</rscale>
<asrwt>0</asrwt>
<pdfrwt beam="1">  1        4 0.37976055E-01 0.27523937E+03</pdfrwt>
<pdfrwt beam="2">  1       -4 0.11803874E-01 0.27523937E+03</pdfrwt>
<totfact> 0.72243523E+02</totfact>
</mgrwt>
</event>
<event>
 5    1  0.1140254E+001  0.2746881E+03  0.7818608E-02  0.1098626E+00
          2   -1    0    0  501    0  0.00000000000E+00  0.00000000000E+00  0.22427411621E+04  0.22427411621E+04  0.00000000000E+00 0. -1.
         -2   -1    0    0    0  501 -0.00000000000E+00 -0.00000000000E+00 -0.84108627181E+01  0.84108627181E+01  0.00000000000E+00 0. -1.
         35    2    1    2    0    0  0.00000000000E+00  0.00000000000E+00  0.22343302994E+04  0.22511520249E+04  0.27468809968E+03 0.  0.
         25    1    3    3    0    0  0.12104287777E+02 -0.34884419788E+01  0.57946930767E+03  0.59189810064E+03  0.12000000000E+03 0.  0.
         25    1    3    3    0    0 -0.12104287777E+02  0.34884419788E+01  0.16548609918E+04  0.16592539242E+04  0.12000000000E+03 0.  0.
<mgrwt>
<rscale>  0 0.27468810E+03</rscale>
<asrwt>0</asrwt>
<pdfrwt beam="1">  1        2 0.34503663E+00 0.27468810E+03</pdfrwt>
<pdfrwt beam="2">  1       -2 0.12939807E-02 0.27468810E+03</pdfrwt>
<totfact> 0.80910995E+03</totfact>
</mgrwt>
</event>
<event>
 5    1  0.1140254E+001  0.2748455E+03  0.7818608E-02  0.1098538E+00
         -2   -1    0    0    0  501 -0.00000000000E+00  0.00000000000E+00  0.52245064661E+01  0.52245064661E+01  0.00000000000E+00 0. -1.
          2   -1    0    0  501    0  0.00000000000E+00 -0.00000000000E+00 -0.36146975632E+04  0.36146975632E+04  0.00000000000E+00 0. -1.
         35    2    1    2    0    0  0.00000000000E+00  0.00000000000E+00 -0.36094730567E+04  0.36199220696E+04  0.27484548962E+03 0.  0.
         25    1    3    3    0    0  0.29623395026E+02 -0.58428050759E+02 -0.16214650651E+04  0.16272185901E+04  0.12000000000E+03 0.  0.
         25    1    3    3    0    0 -0.29623395026E+02  0.58428050759E+02 -0.19880079916E+04  0.19927034795E+04  0.12000000000E+03 0.  0.
<mgrwt>
<rscale>  0 0.27484549E+03</rscale>
<asrwt>0</asrwt>
<pdfrwt beam="1">  1        2 0.55610635E+00 0.27484549E+03</pdfrwt>
<pdfrwt beam="2">  1       -2 0.80377163E-03 0.27484549E+03</pdfrwt>
<totfact> 0.24856668E+03</totfact>
</mgrwt>
</event>
<event>
 5    1  0.1140254E+001  0.2763618E+03  0.7818608E-02  0.1097693E+00
          2   -1    0    0  501    0  0.00000000000E+00  0.00000000000E+00  0.18321367157E+03  0.18321367157E+03  0.00000000000E+00 0.  1.
         -2   -1    0    0    0  501 -0.00000000000E+00 -0.00000000000E+00 -0.10421688137E+03  0.10421688137E+03  0.00000000000E+00 0.  1.
         35    2    1    2    0    0  0.00000000000E+00  0.00000000000E+00  0.78996790201E+02  0.28743055294E+03  0.27636177359E+03 0.  0.
         25    1    3    3    0    0 -0.51345967396E+02 -0.45353647594E+02  0.40301162765E+02  0.14393590740E+03  0.12000000000E+03 0.  0.
         25    1    3    3    0    0  0.51345967396E+02  0.45353647594E+02  0.38695627436E+02  0.14349464555E+03  0.12000000000E+03 0.  0.
<mgrwt>
<rscale>  0 0.27636177E+03</rscale>
<asrwt>0</asrwt>
<pdfrwt beam="1">  1        2 0.28186719E-01 0.27636177E+03</pdfrwt>
<pdfrwt beam="2">  1       -2 0.16033366E-01 0.27636177E+03</pdfrwt>
<totfact> 0.57155629E+03</totfact>
</mgrwt>
</event>
<event>
 5    1  0.1140254E+001  0.2757046E+03  0.7818608E-02  0.1098058E+00
          2   -1    0    0  501    0  0.00000000000E+00  0.00000000000E+00  0.90516740306E+03  0.90516740306E+03  0.00000000000E+00 0. -1.
         -2   -1    0    0    0  501 -0.00000000000E+00 -0.00000000000E+00 -0.20994193979E+02  0.20994193979E+02  0.00000000000E+00 0. -1.
         35    2    1    2    0    0  0.00000000000E+00  0.00000000000E+00  0.88417320908E+03  0.92616159704E+03  0.27570462487E+03 0.  0.
         25    1    3    3    0    0  0.46628959244E+02 -0.27403242793E+02  0.57969558663E+03  0.59445115082E+03  0.12000000000E+03 0.  0.
         25    1    3    3    0    0 -0.46628959244E+02  0.27403242793E+02  0.30447762245E+03  0.33171044622E+03  0.12000000000E+03 0.  0.
<mgrwt>
<rscale>  0 0.27570462E+03</rscale>
<asrwt>0</asrwt>
<pdfrwt beam="1">  1        2 0.13925649E+00 0.27570462E+03</pdfrwt>
<pdfrwt beam="2">  1       -2 0.32298767E-02 0.27570462E+03</pdfrwt>
<totfact> 0.11400480E+04</totfact>
</mgrwt>
</event>
<event>
 5    1  0.1140254E+001  0.2726184E+03  0.7818608E-02  0.1099790E+00
         -2   -1    0    0    0  501 -0.00000000000E+00  0.00000000000E+00  0.10805395721E+03  0.10805395721E+03  0.00000000000E+00 0.  1.
          2   -1    0    0  501    0  0.00000000000E+00 -0.00000000000E+00 -0.17195294235E+03  0.17195294235E+03  0.00000000000E+00 0.  1.
         35    2    1    2    0    0  0.00000000000E+00  0.00000000000E+00 -0.63898985142E+02  0.28000689956E+03  0.27261838437E+03 0.  0.
         25    1    3    3    0    0 -0.29347960127E+01  0.30432858533E+02  0.26563096158E+02  0.12665058225E+03  0.12000000000E+03 0.  0.
         25    1    3    3    0    0  0.29347960127E+01 -0.30432858533E+02 -0.90462081300E+02  0.15335631731E+03  0.12000000000E+03 0.  0.
<mgrwt>
<rscale>  0 0.27261838E+03</rscale>
<asrwt>0</asrwt>
<pdfrwt beam="1">  1        2 0.26454299E-01 0.27261838E+03</pdfrwt>
<pdfrwt beam="2">  1       -2 0.16623686E-01 0.27261838E+03</pdfrwt>
<totfact> 0.57697619E+03</totfact>
</mgrwt>
</event>
<event>
 5    1  0.1140254E+001  0.2731872E+03  0.7818608E-02  0.1099469E+00
         -4   -1    0    0    0  501 -0.00000000000E+00  0.00000000000E+00  0.15658128066E+03  0.15658128066E+03  0.00000000000E+00 0.  1.
          4   -1    0    0  501    0  0.00000000000E+00 -0.00000000000E+00 -0.11915735491E+03  0.11915735491E+03  0.00000000000E+00 0.  1.
         35    2    1    2    0    0  0.00000000000E+00  0.00000000000E+00  0.37423925752E+02  0.27573863557E+03  0.27318719759E+03 0.  0.
         25    1    3    3    0    0 -0.61681591248E+02 -0.18994019573E+02  0.90086579144E+01  0.13655236137E+03  0.12000000000E+03 0.  0.
         25    1    3    3    0    0  0.61681591248E+02  0.18994019573E+02  0.28415267838E+02  0.13918627420E+03  0.12000000000E+03 0.  0.
<mgrwt>
<rscale>  0 0.27318720E+03</rscale>
<asrwt>0</asrwt>
<pdfrwt beam="1">  1        4 0.18331901E-01 0.27318720E+03</pdfrwt>
<pdfrwt beam="2">  1       -4 0.24089428E-01 0.27318720E+03</pdfrwt>
<totfact> 0.79385465E+02</totfact>
</mgrwt>
</event>
<event>
 5    1  0.1140254E+001  0.2750917E+03  0.7818608E-02  0.1098400E+00
         -2   -1    0    0    0  501 -0.00000000000E+00  0.00000000000E+00  0.72577519690E+02  0.72577519690E+02  0.00000000000E+00 0. -1.
          2   -1    0    0  501    0  0.00000000000E+00 -0.00000000000E+00 -0.26067110230E+03  0.26067110230E+03  0.00000000000E+00 0. -1.
         35    2    1    2    0    0  0.00000000000E+00  0.00000000000E+00 -0.18809358261E+03  0.33324862199E+03  0.27509170878E+03 0.  0.
         25    1    3    3    0    0  0.53667742371E+02 -0.38738059292E+02 -0.10827753680E+03  0.17465648796E+03  0.12000000000E+03 0.  0.
         25    1    3    3    0    0 -0.53667742371E+02  0.38738059292E+02 -0.79816045804E+02  0.15859213403E+03  0.12000000000E+03 0.  0.
<mgrwt>
<rscale>  0 0.27509171E+03</rscale>
<asrwt>0</asrwt>
<pdfrwt beam="1">  1        2 0.40103247E-01 0.27509171E+03</pdfrwt>
<pdfrwt beam="2">  1       -2 0.11165772E-01 0.27509171E+03</pdfrwt>
<totfact> 0.70269134E+03</totfact>
</mgrwt>
</event>
<event>
 5    1  0.1140254E+001  0.2748278E+03  0.7818608E-02  0.1098548E+00
          1   -1    0    0  501    0  0.00000000000E+00  0.00000000000E+00  0.11158828150E+04  0.11158828150E+04  0.00000000000E+00 0. -1.
         -1   -1    0    0    0  501 -0.00000000000E+00 -0.00000000000E+00 -0.16921645296E+02  0.16921645296E+02  0.00000000000E+00 0. -1.
         35    2    1    2    0    0  0.00000000000E+00  0.00000000000E+00  0.10989611697E+04  0.11328044603E+04  0.27482775105E+03 0.  0.
         25    1    3    3    0    0 -0.49622821359E+01  0.66349817987E+02  0.58022946291E+03  0.59623246491E+03  0.12000000000E+03 0.  0.
         25    1    3    3    0    0  0.49622821359E+01 -0.66349817987E+02  0.51873170675E+03  0.53657199534E+03  0.12000000000E+03 0.  0.
<mgrwt>
<rscale>  0 0.27482775E+03</rscale>
<asrwt>0</asrwt>
<pdfrwt beam="1">  1        1 0.17167422E+00 0.27482775E+03</pdfrwt>
<pdfrwt beam="2">  1       -1 0.26033309E-02 0.27482775E+03</pdfrwt>
<totfact> 0.61109912E+03</totfact>
</mgrwt>
</event>
<event>
 5    1  0.1140254E+001  0.2750763E+03  0.7818608E-02  0.1098409E+00
          2   -1    0    0  501    0  0.00000000000E+00  0.00000000000E+00  0.24684449472E+04  0.24684449472E+04  0.00000000000E+00 0. -1.
         -2   -1    0    0    0  501 -0.00000000000E+00 -0.00000000000E+00 -0.76634275024E+01  0.76634275024E+01  0.00000000000E+00 0. -1.
         35    2    1    2    0    0  0.00000000000E+00  0.00000000000E+00  0.24607815197E+04  0.24761083747E+04  0.27507634501E+03 0.  0.
         25    1    3    3    0    0  0.57969647167E+02 -0.35491387554E+01  0.92597492005E+03  0.93552265015E+03  0.12000000000E+03 0.  0.
         25    1    3    3    0    0 -0.57969647167E+02  0.35491387554E+01  0.15348065996E+04  0.15405857245E+04  0.12000000000E+03 0.  0.
<mgrwt>
<rscale>  0 0.27507635E+03</rscale>
<asrwt>0</asrwt>
<pdfrwt beam="1">  1        2 0.37976013E+00 0.27507635E+03</pdfrwt>
<pdfrwt beam="2">  1       -2 0.11789908E-02 0.27507635E+03</pdfrwt>
<totfact> 0.70010782E+03</totfact>
</mgrwt>
</event>
<event>
 5    1  0.1140254E+001  0.2740898E+03  0.7818608E-02  0.1098961E+00
         -2   -1    0    0    0  501 -0.00000000000E+00  0.00000000000E+00  0.25545558947E+02  0.25545558947E+02  0.00000000000E+00 0. -1.
          2   -1    0    0  501    0  0.00000000000E+00 -0.00000000000E+00 -0.73520805760E+03  0.73520805760E+03  0.00000000000E+00 0. -1.
         35    2    1    2    0    0  0.00000000000E+00  0.00000000000E+00 -0.70966249866E+03  0.76075361655E+03  0.27408977196E+03 0.  0.
         25    1    3    3    0    0 -0.49734923920E+02 -0.32019580283E+02 -0.43728392670E+03  0.45729208252E+03  0.12000000000E+03 0.  0.
         25    1    3    3    0    0  0.49734923920E+02  0.32019580283E+02 -0.27237857196E+03  0.30346153404E+03  0.12000000000E+03 0.  0.
<mgrwt>
<rscale>  0 0.27408977E+03</rscale>
<asrwt>0</asrwt>
<pdfrwt beam="1">  1        2 0.11310894E+00 0.27408977E+03</pdfrwt>
<pdfrwt beam="2">  1       -2 0.39300856E-02 0.27408977E+03</pdfrwt>
<totfact> 0.11098069E+04</totfact>
</mgrwt>
</event>
<event>
 5    1  0.1140254E+001  0.2754079E+03  0.7818608E-02  0.1098224E+00
         -2   -1    0    0    0  501 -0.00000000000E+00  0.00000000000E+00  0.12583200748E+02  0.12583200748E+02  0.00000000000E+00 0.  1.
          2   -1    0    0  501    0  0.00000000000E+00 -0.00000000000E+00 -0.15069599986E+04  0.15069599986E+04  0.00000000000E+00 0.  1.
         35    2    1    2    0    0  0.00000000000E+00  0.00000000000E+00 -0.14943767979E+04  0.15195431994E+04  0.27540791696E+03 0.  0.
         25    1    3    3    0    0 -0.45263986835E+02  0.38922111406E+02 -0.92154442459E+03  0.93123997216E+03  0.12000000000E+03 0.  0.
         25    1    3    3    0    0  0.45263986835E+02 -0.38922111406E+02 -0.57283237331E+03  0.58830322723E+03  0.12000000000E+03 0.  0.
<mgrwt>
<rscale>  0 0.27540792E+03</rscale>
<asrwt>0</asrwt>
<pdfrwt beam="1">  1        2 0.23184008E+00 0.27540792E+03</pdfrwt>
<pdfrwt beam="2">  1       -2 0.19358764E-02 0.27540792E+03</pdfrwt>
<totfact> 0.10972044E+04</totfact>
</mgrwt>
</event>
<event>
 5    1  0.1140254E+001  0.2751354E+03  0.7818608E-02  0.1098376E+00
         -3   -1    0    0    0  501 -0.00000000000E+00  0.00000000000E+00  0.19726998198E+03  0.19726998198E+03  0.00000000000E+00 0.  1.
          3   -1    0    0  501    0  0.00000000000E+00 -0.00000000000E+00 -0.95933887251E+02  0.95933887251E+02  0.00000000000E+00 0.  1.
         35    2    1    2    0    0  0.00000000000E+00  0.00000000000E+00  0.10133609473E+03  0.29320386923E+03  0.27513543000E+03 0.  0.
         25    1    3    3    0    0 -0.27302500898E+01  0.18918500972E+02  0.11939773694E+03  0.17035604930E+03  0.12000000000E+03 0.  0.
         25    1    3    3    0    0  0.27302500898E+01 -0.18918500972E+02 -0.18061642210E+02  0.12284781994E+03  0.12000000000E+03 0.  0.
<mgrwt>
<rscale>  0 0.27513543E+03</rscale>
<asrwt>0</asrwt>
<pdfrwt beam="1">  1        3 0.14759060E-01 0.27513543E+03</pdfrwt>
<pdfrwt beam="2">  1       -3 0.30349228E-01 0.27513543E+03</pdfrwt>
<totfact> 0.10199178E+03</totfact>
</mgrwt>
</event>
<event>
 5    1  0.1140254E+001  0.2744034E+03  0.7818608E-02  0.1098786E+00
         -1   -1    0    0    0  501 -0.00000000000E+00  0.00000000000E+00  0.13863727657E+04  0.13863727657E+04  0.00000000000E+00 0. -1.
          1   -1    0    0  501    0  0.00000000000E+00 -0.00000000000E+00 -0.13578098600E+02  0.13578098600E+02  0.00000000000E+00 0. -1.
         35    2    1    2    0    0  0.00000000000E+00  0.00000000000E+00  0.13727946671E+04  0.13999508643E+04  0.27440339728E+03 0.  0.
         25    1    3    3    0    0  0.10592662214E+02 -0.49557414663E+02  0.90619926949E+03  0.91551365794E+03  0.12000000000E+03 0.  0.
         25    1    3    3    0    0 -0.10592662214E+02  0.49557414663E+02  0.46659539761E+03  0.48443720636E+03  0.12000000000E+03 0.  0.
<mgrwt>
<rscale>  0 0.27440340E+03</rscale>
<asrwt>0</asrwt>
<pdfrwt beam="1">  1        1 0.20889393E-02 0.27440340E+03</pdfrwt>
<pdfrwt beam="2">  1       -1 0.21328801E+00 0.27440340E+03</pdfrwt>
<totfact> 0.77562767E+02</totfact>
</mgrwt>
</event>
<event>
 5    1  0.1140254E+001  0.2752872E+03  0.7818608E-02  0.1098291E+00
         -2   -1    0    0    0  501 -0.00000000000E+00  0.00000000000E+00  0.43716097010E+02  0.43716097010E+02  0.00000000000E+00 0. -1.
          2   -1    0    0  501    0  0.00000000000E+00 -0.00000000000E+00 -0.43338188455E+03  0.43338188455E+03  0.00000000000E+00 0. -1.
         35    2    1    2    0    0  0.00000000000E+00  0.00000000000E+00 -0.38966578754E+03  0.47709798156E+03  0.27528722824E+03 0.  0.
         25    1    3    3    0    0  0.17723224496E+02  0.25824883586E+02 -0.91358076854E+02  0.15403679919E+03  0.12000000000E+03 0.  0.
         25    1    3    3    0    0 -0.17723224496E+02 -0.25824883586E+02 -0.29830771069E+03  0.32306118237E+03  0.12000000000E+03 0.  0.
<mgrwt>
<rscale>  0 0.27528723E+03</rscale>
<asrwt>0</asrwt>
<pdfrwt beam="1">  1        2 0.66674138E-01 0.27528723E+03</pdfrwt>
<pdfrwt beam="2">  1       -2 0.67255532E-02 0.27528723E+03</pdfrwt>
<totfact> 0.90044376E+03</totfact>
</mgrwt>
</event>
<event>
 5    1  0.1140254E+001  0.2738348E+03  0.7818608E-02  0.1099105E+00
          2   -1    0    0  501    0  0.00000000000E+00  0.00000000000E+00  0.47311455514E+03  0.47311455514E+03  0.00000000000E+00 0. -1.
         -2   -1    0    0    0  501 -0.00000000000E+00 -0.00000000000E+00 -0.39623321652E+02  0.39623321652E+02  0.00000000000E+00 0. -1.
         35    2    1    2    0    0  0.00000000000E+00  0.00000000000E+00  0.43349123349E+03  0.51273787680E+03  0.27383476914E+03 0.  0.
         25    1    3    3    0    0 -0.44199480972E+02  0.14623204437E+02  0.12934203221E+03  0.18247409000E+03  0.12000000000E+03 0.  0.
         25    1    3    3    0    0  0.44199480972E+02 -0.14623204437E+02  0.30414920129E+03  0.33026378680E+03  0.12000000000E+03 0.  0.
<mgrwt>
<rscale>  0 0.27383477E+03</rscale>
<asrwt>0</asrwt>
<pdfrwt beam="1">  1        2 0.72786851E-01 0.27383477E+03</pdfrwt>
<pdfrwt beam="2">  1       -2 0.60958960E-02 0.27383477E+03</pdfrwt>
<totfact> 0.95089525E+03</totfact>
</mgrwt>
</event>
<event>
 5    1  0.1140254E+001  0.2752054E+03  0.7818608E-02  0.1098337E+00
          1   -1    0    0  501    0  0.00000000000E+00  0.00000000000E+00  0.20864017102E+04  0.20864017102E+04  0.00000000000E+00 0. -1.
         -1   -1    0    0    0  501 -0.00000000000E+00 -0.00000000000E+00 -0.90751931781E+01  0.90751931781E+01  0.00000000000E+00 0. -1.
         35    2    1    2    0    0  0.00000000000E+00  0.00000000000E+00  0.20773265170E+04  0.20954769034E+04  0.27520536744E+03 0.  0.
         25    1    3    3    0    0 -0.34250499183E+02 -0.36694081207E+02  0.69687454754E+03  0.70891021103E+03  0.12000000000E+03 0.  0.
         25    1    3    3    0    0  0.34250499183E+02  0.36694081207E+02  0.13804519695E+04  0.13865666924E+04  0.12000000000E+03 0.  0.
<mgrwt>
<rscale>  0 0.27520537E+03</rscale>
<asrwt>0</asrwt>
<pdfrwt beam="1">  1        1 0.32098450E+00 0.27520537E+03</pdfrwt>
<pdfrwt beam="2">  1       -1 0.13961852E-02 0.27520537E+03</pdfrwt>
<totfact> 0.34346645E+03</totfact>
</mgrwt>
</event>
<event>
 5    1  0.1140254E+001  0.2749864E+03  0.7818608E-02  0.1098459E+00
         -2   -1    0    0    0  501 -0.00000000000E+00  0.00000000000E+00  0.25224809262E+02  0.25224809262E+02  0.00000000000E+00 0. -1.
          2   -1    0    0  501    0  0.00000000000E+00 -0.00000000000E+00 -0.74943620526E+03  0.74943620526E+03  0.00000000000E+00 0. -1.
         35    2    1    2    0    0  0.00000000000E+00  0.00000000000E+00 -0.72421139600E+03  0.77466101453E+03  0.27498643844E+03 0.  0.
         25    1    3    3    0    0 -0.20410719690E+02  0.62925318321E+02 -0.33021006906E+03  0.35751207375E+03  0.12000000000E+03 0.  0.
         25    1    3    3    0    0  0.20410719690E+02 -0.62925318321E+02 -0.39400132694E+03  0.41714894078E+03  0.12000000000E+03 0.  0.
<mgrwt>
<rscale>  0 0.27498644E+03</rscale>
<asrwt>0</asrwt>
<pdfrwt beam="1">  1        2 0.11529789E+00 0.27498644E+03</pdfrwt>
<pdfrwt beam="2">  1       -2 0.38807395E-02 0.27498644E+03</pdfrwt>
<totfact> 0.11046947E+04</totfact>
</mgrwt>
</event>
<event>
 5    1  0.1140254E+001  0.2751636E+03  0.7818608E-02  0.1098360E+00
         -1   -1    0    0    0  501 -0.00000000000E+00  0.00000000000E+00  0.55273198803E+02  0.55273198803E+02  0.00000000000E+00 0.  1.
          1   -1    0    0  501    0  0.00000000000E+00 -0.00000000000E+00 -0.34245805955E+03  0.34245805955E+03  0.00000000000E+00 0.  1.
         35    2    1    2    0    0  0.00000000000E+00  0.00000000000E+00 -0.28718486074E+03  0.39773125835E+03  0.27516360520E+03 0.  0.
         25    1    3    3    0    0  0.19741968866E+02 -0.44408617584E+02 -0.21087713339E+03  0.24744905746E+03  0.12000000000E+03 0.  0.
         25    1    3    3    0    0 -0.19741968866E+02  0.44408617584E+02 -0.76307727350E+02  0.15028220089E+03  0.12000000000E+03 0.  0.
<mgrwt>
<rscale>  0 0.27516361E+03</rscale>
<asrwt>0</asrwt>
<pdfrwt beam="1">  1        1 0.52685856E-01 0.27516361E+03</pdfrwt>
<pdfrwt beam="2">  1       -1 0.85035689E-02 0.27516361E+03</pdfrwt>
<totfact> 0.57636443E+03</totfact>
</mgrwt>
</event>
<event>
 5    1  0.1140254E+001  0.2773414E+03  0.7818608E-02  0.1097150E+00
         -2   -1    0    0    0  501 -0.00000000000E+00  0.00000000000E+00  0.12294065932E+04  0.12294065932E+04  0.00000000000E+00 0. -1.
          2   -1    0    0  501    0  0.00000000000E+00 -0.00000000000E+00 -0.15641336604E+02  0.15641336604E+02  0.00000000000E+00 0. -1.
         35    2    1    2    0    0  0.00000000000E+00  0.00000000000E+00  0.12137652566E+04  0.12450479298E+04  0.27734139502E+03 0.  0.
         25    1    3    3    0    0 -0.68637272302E+02  0.21810585562E+01  0.65475767853E+03  0.66919612204E+03  0.12000000000E+03 0.  0.
         25    1    3    3    0    0  0.68637272302E+02 -0.21810585562E+01  0.55900757811E+03  0.57585180781E+03  0.12000000000E+03 0.  0.
<mgrwt>
<rscale>  0 0.27734140E+03</rscale>
<asrwt>0</asrwt>
<pdfrwt beam="1">  1        2 0.24063604E-02 0.27734140E+03</pdfrwt>
<pdfrwt beam="2">  1       -2 0.18913940E+00 0.27734140E+03</pdfrwt>
<totfact> 0.71840463E+02</totfact>
</mgrwt>
</event>
<event>
 5    1  0.1140254E+001  0.2765191E+03  0.7818608E-02  0.1097605E+00
          3   -1    0    0  501    0  0.00000000000E+00  0.00000000000E+00  0.91002078524E+03  0.91002078524E+03  0.00000000000E+00 0.  1.
         -3   -1    0    0    0  501 -0.00000000000E+00 -0.00000000000E+00 -0.21005784245E+02  0.21005784245E+02  0.00000000000E+00 0.  1.
         35    2    1    2    0    0  0.00000000000E+00  0.00000000000E+00  0.88901500100E+03  0.93102656949E+03  0.27651907908E+03 0.  0.
         25    1    3    3    0    0  0.55094857663E+01 -0.66688843772E+02  0.49644419583E+03  0.51510639279E+03  0.12000000000E+03 0.  0.
         25    1    3    3    0    0 -0.55094857663E+01  0.66688843772E+02  0.39257080517E+03  0.41592017670E+03  0.12000000000E+03 0.  0.
<mgrwt>
<rscale>  0 0.27651908E+03</rscale>
<asrwt>0</asrwt>
<pdfrwt beam="1">  1        3 0.14000317E+00 0.27651908E+03</pdfrwt>
<pdfrwt beam="2">  1       -3 0.32316598E-02 0.27651908E+03</pdfrwt>
<totfact> 0.46940485E+02</totfact>
</mgrwt>
</event>
<event>
 5    1  0.1140254E+001  0.2755489E+03  0.7818608E-02  0.1098145E+00
          2   -1    0    0  501    0  0.00000000000E+00  0.00000000000E+00  0.20236358572E+03  0.20236358572E+03  0.00000000000E+00 0. -1.
         -2   -1    0    0    0  501 -0.00000000000E+00 -0.00000000000E+00 -0.93800486053E+02  0.93800486053E+02  0.00000000000E+00 0. -1.
         35    2    1    2    0    0  0.00000000000E+00  0.00000000000E+00  0.10856309966E+03  0.29616407177E+03  0.27554892633E+03 0.  0.
         25    1    3    3    0    0  0.24449524469E-01  0.53287749077E+02  0.94189038091E+01  0.13163700296E+03  0.12000000000E+03 0.  0.
         25    1    3    3    0    0 -0.24449524469E-01 -0.53287749077E+02  0.99144195855E+02  0.16452706881E+03  0.12000000000E+03 0.  0.
<mgrwt>
<rscale>  0 0.27554893E+03</rscale>
<asrwt>0</asrwt>
<pdfrwt beam="1">  1        2 0.31132859E-01 0.27554893E+03</pdfrwt>
<pdfrwt beam="2">  1       -2 0.14430844E-01 0.27554893E+03</pdfrwt>
<totfact> 0.60988848E+03</totfact>
</mgrwt>
</event>
<event>
 5    1  0.1140254E+001  0.2739719E+03  0.7818608E-02  0.1099028E+00
          1   -1    0    0  501    0  0.00000000000E+00  0.00000000000E+00  0.75581794139E+03  0.75581794139E+03  0.00000000000E+00 0. -1.
         -1   -1    0    0    0  501 -0.00000000000E+00 -0.00000000000E+00 -0.24827599070E+02  0.24827599070E+02  0.00000000000E+00 0. -1.
         35    2    1    2    0    0  0.00000000000E+00  0.00000000000E+00  0.73099034232E+03  0.78064554046E+03  0.27397185855E+03 0.  0.
         25    1    3    3    0    0  0.34723477313E+02  0.55646943676E+01  0.20612275040E+03  0.24108768930E+03  0.12000000000E+03 0.  0.
         25    1    3    3    0    0 -0.34723477313E+02 -0.55646943676E+01  0.52486759192E+03  0.53955785116E+03  0.12000000000E+03 0.  0.
<mgrwt>
<rscale>  0 0.27397186E+03</rscale>
<asrwt>0</asrwt>
<pdfrwt beam="1">  1        1 0.11627967E+00 0.27397186E+03</pdfrwt>
<pdfrwt beam="2">  1       -1 0.38196312E-02 0.27397186E+03</pdfrwt>
<totfact> 0.66070342E+03</totfact>
</mgrwt>
</event>
<event>
 5    1  0.1140254E+001  0.2752184E+03  0.7818608E-02  0.1098330E+00
          2   -1    0    0  501    0  0.00000000000E+00  0.00000000000E+00  0.20371432205E+04  0.20371432205E+04  0.00000000000E+00 0. -1.
         -2   -1    0    0    0  501 -0.00000000000E+00 -0.00000000000E+00 -0.92955122628E+01  0.92955122628E+01  0.00000000000E+00 0. -1.
         35    2    1    2    0    0  0.00000000000E+00  0.00000000000E+00  0.20278477083E+04  0.20464387328E+04  0.27521838447E+03 0.  0.
         25    1    3    3    0    0 -0.38498180579E+02 -0.39587645273E+01  0.14237989228E+04  0.14293708946E+04  0.12000000000E+03 0.  0.
         25    1    3    3    0    0  0.38498180579E+02  0.39587645273E+01  0.60404878548E+03  0.61706783822E+03  0.12000000000E+03 0.  0.
<mgrwt>
<rscale>  0 0.27521838E+03</rscale>
<asrwt>0</asrwt>
<pdfrwt beam="1">  1        2 0.31340629E+00 0.27521838E+03</pdfrwt>
<pdfrwt beam="2">  1       -2 0.14300804E-02 0.27521838E+03</pdfrwt>
<totfact> 0.89855999E+03</totfact>
</mgrwt>
</event>
<event>
 5    1  0.1140254E+001  0.2774681E+03  0.7818608E-02  0.1097080E+00
         -1   -1    0    0    0  501 -0.00000000000E+00  0.00000000000E+00  0.11147700214E+02  0.11147700214E+02  0.00000000000E+00 0. -1.
          1   -1    0    0  501    0  0.00000000000E+00 -0.00000000000E+00 -0.17265562805E+04  0.17265562805E+04  0.00000000000E+00 0. -1.
         35    2    1    2    0    0  0.00000000000E+00  0.00000000000E+00 -0.17154085803E+04  0.17377039808E+04  0.27746806532E+03 0.  0.
         25    1    3    3    0    0 -0.27050965935E+02  0.56468755104E+02 -0.10483478937E+04  0.10570495642E+04  0.12000000000E+03 0.  0.
         25    1    3    3    0    0  0.27050965935E+02 -0.56468755104E+02 -0.66706068666E+03  0.68065441654E+03  0.12000000000E+03 0.  0.
<mgrwt>
<rscale>  0 0.27746807E+03</rscale>
<asrwt>0</asrwt>
<pdfrwt beam="1">  1        1 0.26562407E+00 0.27746807E+03</pdfrwt>
<pdfrwt beam="2">  1       -1 0.17150306E-02 0.27746807E+03</pdfrwt>
<totfact> 0.43613089E+03</totfact>
</mgrwt>
</event>
<event>
 5    1  0.1140254E+001  0.2750566E+03  0.7818608E-02  0.1098420E+00
         -1   -1    0    0    0  501 -0.00000000000E+00  0.00000000000E+00  0.38110124346E+03  0.38110124346E+03  0.00000000000E+00 0. -1.
          1   -1    0    0  501    0  0.00000000000E+00 -0.00000000000E+00 -0.49629940396E+02  0.49629940396E+02  0.00000000000E+00 0. -1.
         35    2    1    2    0    0  0.00000000000E+00  0.00000000000E+00  0.33147130306E+03  0.43073118386E+03  0.27505659052E+03 0.  0.
         25    1    3    3    0    0  0.38139581433E+02 -0.31685542433E+02  0.94739357135E+02  0.16073004405E+03  0.12000000000E+03 0.  0.
         25    1    3    3    0    0 -0.38139581433E+02  0.31685542433E+02  0.23673194593E+03  0.27000113980E+03  0.12000000000E+03 0.  0.
<mgrwt>
<rscale>  0 0.27505659E+03</rscale>
<asrwt>0</asrwt>
<pdfrwt beam="1">  1        1 0.76353757E-02 0.27505659E+03</pdfrwt>
<pdfrwt beam="2">  1       -1 0.58630959E-01 0.27505659E+03</pdfrwt>
<totfact> 0.28079010E+03</totfact>
</mgrwt>
</event>
<event>
 5    1  0.1140254E+001  0.2743483E+03  0.7818608E-02  0.1098816E+00
          4   -1    0    0  501    0  0.00000000000E+00  0.00000000000E+00  0.88266981365E+02  0.88266981365E+02  0.00000000000E+00 0. -1.
         -4   -1    0    0    0  501 -0.00000000000E+00 -0.00000000000E+00 -0.21317997190E+03  0.21317997190E+03  0.00000000000E+00 0. -1.
         35    2    1    2    0    0  0.00000000000E+00  0.00000000000E+00 -0.12491299053E+03  0.30144695326E+03  0.27434833775E+03 0.  0.
         25    1    3    3    0    0 -0.33577837989E+02  0.57228609308E+02 -0.58320710518E+02  0.14900969835E+03  0.12000000000E+03 0.  0.
         25    1    3    3    0    0  0.33577837989E+02 -0.57228609308E+02 -0.66592280015E+02  0.15243725491E+03  0.12000000000E+03 0.  0.
<mgrwt>
<rscale>  0 0.27434834E+03</rscale>
<asrwt>0</asrwt>
<pdfrwt beam="1">  1        4 0.13579536E-01 0.27434834E+03</pdfrwt>
<pdfrwt beam="2">  1       -4 0.32796918E-01 0.27434834E+03</pdfrwt>
<totfact> 0.75384090E+02</totfact>
</mgrwt>
</event>
<event>
 5    1  0.1140254E+001  0.2745105E+03  0.7818608E-02  0.1098726E+00
          2   -1    0    0  501    0  0.00000000000E+00  0.00000000000E+00  0.19144007980E+03  0.19144007980E+03  0.00000000000E+00 0. -1.
         -2   -1    0    0    0  501 -0.00000000000E+00 -0.00000000000E+00 -0.98406804684E+02  0.98406804684E+02  0.00000000000E+00 0. -1.
         35    2    1    2    0    0  0.00000000000E+00  0.00000000000E+00  0.93033275117E+02  0.28984688448E+03  0.27451052105E+03 0.  0.
         25    1    3    3    0    0 -0.40540614732E+02 -0.20536098170E+02  0.97959561665E+02  0.16143527648E+03  0.12000000000E+03 0.  0.
         25    1    3    3    0    0  0.40540614732E+02  0.20536098170E+02 -0.49262865476E+01  0.12841160800E+03  0.12000000000E+03 0.  0.
<mgrwt>
<rscale>  0 0.27451052E+03</rscale>
<asrwt>0</asrwt>
<pdfrwt beam="1">  1        2 0.29452320E-01 0.27451052E+03</pdfrwt>
<pdfrwt beam="2">  1       -2 0.15139508E-01 0.27451052E+03</pdfrwt>
<totfact> 0.59879489E+03</totfact>
</mgrwt>
</event>
<event>
 5    1  0.1140254E+001  0.2761969E+03  0.7818608E-02  0.1097784E+00
         -2   -1    0    0    0  501 -0.00000000000E+00  0.00000000000E+00  0.12580362941E+03  0.12580362941E+03  0.00000000000E+00 0. -1.
          2   -1    0    0  501    0  0.00000000000E+00 -0.00000000000E+00 -0.15159487713E+03  0.15159487713E+03  0.00000000000E+00 0. -1.
         35    2    1    2    0    0  0.00000000000E+00  0.00000000000E+00 -0.25791247720E+02  0.27739850654E+03  0.27619692788E+03 0.  0.
         25    1    3    3    0    0  0.17543756427E+01 -0.59584056311E+02 -0.46475313641E+02  0.14182133964E+03  0.12000000000E+03 0.  0.
         25    1    3    3    0    0 -0.17543756427E+01  0.59584056311E+02  0.20684065921E+02  0.13557716690E+03  0.12000000000E+03 0.  0.
<mgrwt>
<rscale>  0 0.27619693E+03</rscale>
<asrwt>0</asrwt>
<pdfrwt beam="1">  1        2 0.23322289E-01 0.27619693E+03</pdfrwt>
<pdfrwt beam="2">  1       -2 0.19354405E-01 0.27619693E+03</pdfrwt>
<totfact> 0.51422111E+03</totfact>
</mgrwt>
</event>
<event>
 5    1  0.1140254E+001  0.2751659E+03  0.7818608E-02  0.1098359E+00
          1   -1    0    0  501    0  0.00000000000E+00  0.00000000000E+00  0.56975807640E+02  0.56975807640E+02  0.00000000000E+00 0. -1.
         -1   -1    0    0    0  501 -0.00000000000E+00 -0.00000000000E+00 -0.33223002900E+03  0.33223002900E+03  0.00000000000E+00 0. -1.
         35    2    1    2    0    0  0.00000000000E+00  0.00000000000E+00 -0.27525422137E+03  0.38920583664E+03  0.27516594429E+03 0.  0.
         25    1    3    3    0    0  0.48385643585E+02  0.36025651476E+02 -0.17982525622E+03  0.22444629835E+03  0.12000000000E+03 0.  0.
         25    1    3    3    0    0 -0.48385643585E+02 -0.36025651476E+02 -0.95428965142E+02  0.16475953829E+03  0.12000000000E+03 0.  0.
<mgrwt>
<rscale>  0 0.27516594E+03</rscale>
<asrwt>0</asrwt>
<pdfrwt beam="1">  1        1 0.87655089E-02 0.27516594E+03</pdfrwt>
<pdfrwt beam="2">  1       -1 0.51112312E-01 0.27516594E+03</pdfrwt>
<totfact> 0.30149800E+03</totfact>
</mgrwt>
</event>
<event>
 5    1  0.1140254E+001  0.2712131E+03  0.7818608E-02  0.1100587E+00
         -2   -1    0    0    0  501 -0.00000000000E+00  0.00000000000E+00  0.13054185277E+02  0.13054185277E+02  0.00000000000E+00 0.  1.
          2   -1    0    0  501    0  0.00000000000E+00 -0.00000000000E+00 -0.14086770246E+04  0.14086770246E+04  0.00000000000E+00 0.  1.
         35    2    1    2    0    0  0.00000000000E+00  0.00000000000E+00 -0.13956228394E+04  0.14217312099E+04  0.27121305923E+03 0.  0.
         25    1    3    3    0    0 -0.16924082780E+02  0.47912126447E+02 -0.89445270097E+03  0.90389580744E+03  0.12000000000E+03 0.  0.
         25    1    3    3    0    0  0.16924082780E+02 -0.47912126447E+02 -0.50117013838E+03  0.51783540246E+03  0.12000000000E+03 0.  0.
<mgrwt>
<rscale>  0 0.27121306E+03</rscale>
<asrwt>0</asrwt>
<pdfrwt beam="1">  1        2 0.21671951E+00 0.27121306E+03</pdfrwt>
<pdfrwt beam="2">  1       -2 0.20083365E-02 0.27121306E+03</pdfrwt>
<totfact> 0.11737345E+04</totfact>
</mgrwt>
</event>
<event>
 5    1  0.1140254E+001  0.2749698E+03  0.7818608E-02  0.1098468E+00
          1   -1    0    0  501    0  0.00000000000E+00  0.00000000000E+00  0.39918263782E+03  0.39918263782E+03  0.00000000000E+00 0.  1.
         -1   -1    0    0    0  501 -0.00000000000E+00 -0.00000000000E+00 -0.47351997362E+02  0.47351997362E+02  0.00000000000E+00 0.  1.
         35    2    1    2    0    0  0.00000000000E+00  0.00000000000E+00  0.35183064045E+03  0.44653463518E+03  0.27496978171E+03 0.  0.
         25    1    3    3    0    0 -0.57170561553E+02 -0.26054389565E+02  0.13766502060E+03  0.19312939243E+03  0.12000000000E+03 0.  0.
         25    1    3    3    0    0  0.57170561553E+02  0.26054389565E+02  0.21416561986E+03  0.25340524275E+03  0.12000000000E+03 0.  0.
<mgrwt>
<rscale>  0 0.27496978E+03</rscale>
<asrwt>0</asrwt>
<pdfrwt beam="1">  1        1 0.61412711E-01 0.27496978E+03</pdfrwt>
<pdfrwt beam="2">  1       -1 0.72849229E-02 0.27496978E+03</pdfrwt>
<totfact> 0.60039835E+03</totfact>
</mgrwt>
</event>
<event>
 5    1  0.1140254E+001  0.2750273E+03  0.7818608E-02  0.1098436E+00
         -2   -1    0    0    0  501 -0.00000000000E+00  0.00000000000E+00  0.76425654075E+01  0.76425654075E+01  0.00000000000E+00 0. -1.
          2   -1    0    0  501    0  0.00000000000E+00 -0.00000000000E+00 -0.24742999741E+04  0.24742999741E+04  0.00000000000E+00 0. -1.
         35    2    1    2    0    0  0.00000000000E+00  0.00000000000E+00 -0.24666574087E+04  0.24819425395E+04  0.27502726694E+03 0.  0.
         25    1    3    3    0    0 -0.28307418586E+02  0.48544438913E+02 -0.90149179097E+03  0.91117798573E+03  0.12000000000E+03 0.  0.
         25    1    3    3    0    0  0.28307418586E+02 -0.48544438913E+02 -0.15651656177E+04  0.15707645538E+04  0.12000000000E+03 0.  0.
<mgrwt>
<rscale>  0 0.27502727E+03</rscale>
<asrwt>0</asrwt>
<pdfrwt beam="1">  1        2 0.38066181E+00 0.27502727E+03</pdfrwt>
<pdfrwt beam="2">  1       -2 0.11757784E-02 0.27502727E+03</pdfrwt>
<totfact> 0.69773439E+03</totfact>
</mgrwt>
</event>
<event>
 5    1  0.1140254E+001  0.2749569E+03  0.7818608E-02  0.1098476E+00
          2   -1    0    0  501    0  0.00000000000E+00  0.00000000000E+00  0.23971879071E+04  0.23971879071E+04  0.00000000000E+00 0.  1.
         -2   -1    0    0    0  501 -0.00000000000E+00 -0.00000000000E+00 -0.78843738654E+01  0.78843738654E+01  0.00000000000E+00 0.  1.
         35    2    1    2    0    0  0.00000000000E+00  0.00000000000E+00  0.23893035333E+04  0.24050722810E+04  0.27495691070E+03 0.  0.
         25    1    3    3    0    0  0.60869357478E+01 -0.37284651427E+01  0.61118930132E+03  0.62289912047E+03  0.12000000000E+03 0.  0.
         25    1    3    3    0    0 -0.60869357478E+01  0.37284651427E+01  0.17781142319E+04  0.17821731605E+04  0.12000000000E+03 0.  0.
<mgrwt>
<rscale>  0 0.27495691E+03</rscale>
<asrwt>0</asrwt>
<pdfrwt beam="1">  1        2 0.36879756E+00 0.27495691E+03</pdfrwt>
<pdfrwt beam="2">  1       -2 0.12129825E-02 0.27495691E+03</pdfrwt>
<totfact> 0.73439239E+03</totfact>
</mgrwt>
</event>
<event>
 5    1  0.1140254E+001  0.2747288E+03  0.7818608E-02  0.1098603E+00
          2   -1    0    0  501    0  0.00000000000E+00  0.00000000000E+00  0.40345395168E+03  0.40345395168E+03  0.00000000000E+00 0. -1.
         -2   -1    0    0    0  501 -0.00000000000E+00 -0.00000000000E+00 -0.46768604674E+02  0.46768604674E+02  0.00000000000E+00 0. -1.
         35    2    1    2    0    0  0.00000000000E+00  0.00000000000E+00  0.35668534700E+03  0.45022255635E+03  0.27472879987E+03 0.  0.
         25    1    3    3    0    0 -0.14745780577E+02  0.33895536868E+02  0.26962532732E+03  0.29742925646E+03  0.12000000000E+03 0.  0.
         25    1    3    3    0    0  0.14745780577E+02 -0.33895536868E+02  0.87060019679E+02  0.15279329989E+03  0.12000000000E+03 0.  0.
<mgrwt>
<rscale>  0 0.27472880E+03</rscale>
<asrwt>0</asrwt>
<pdfrwt beam="1">  1        2 0.62069836E-01 0.27472880E+03</pdfrwt>
<pdfrwt beam="2">  1       -2 0.71951702E-02 0.27472880E+03</pdfrwt>
<totfact> 0.87694673E+03</totfact>
</mgrwt>
</event>
<event>
 5    1  0.1140254E+001  0.2734365E+03  0.7818608E-02  0.1099329E+00
         -2   -1    0    0    0  501 -0.00000000000E+00  0.00000000000E+00  0.11526802251E+02  0.11526802251E+02  0.00000000000E+00 0.  1.
          2   -1    0    0  501    0  0.00000000000E+00 -0.00000000000E+00 -0.16216010792E+04  0.16216010792E+04  0.00000000000E+00 0.  1.
         35    2    1    2    0    0  0.00000000000E+00  0.00000000000E+00 -0.16100742770E+04  0.16331278815E+04  0.27343646406E+03 0.  0.
         25    1    3    3    0    0 -0.26631838644E+02  0.14983954077E+02 -0.11511443575E+04  0.11577854316E+04  0.12000000000E+03 0.  0.
         25    1    3    3    0    0  0.26631838644E+02 -0.14983954077E+02 -0.45892991942E+03  0.47534244987E+03  0.12000000000E+03 0.  0.
<mgrwt>
<rscale>  0 0.27343646E+03</rscale>
<asrwt>0</asrwt>
<pdfrwt beam="1">  1        2 0.24947699E+00 0.27343646E+03</pdfrwt>
<pdfrwt beam="2">  1       -2 0.17733549E-02 0.27343646E+03</pdfrwt>
<totfact> 0.10844314E+04</totfact>
</mgrwt>
</event>
<event>
 5    1  0.1140254E+001  0.2730862E+03  0.7818608E-02  0.1099526E+00
         -2   -1    0    0    0  501 -0.00000000000E+00  0.00000000000E+00  0.61633570921E+02  0.61633570921E+02  0.00000000000E+00 0. -1.
          2   -1    0    0  501    0  0.00000000000E+00 -0.00000000000E+00 -0.30249767529E+03  0.30249767529E+03  0.00000000000E+00 0. -1.
         35    2    1    2    0    0  0.00000000000E+00  0.00000000000E+00 -0.24086410437E+03  0.36413124621E+03  0.27308615434E+03 0.  0.
         25    1    3    3    0    0 -0.60203398998E+02  0.20032002023E+02 -0.10073202625E+03  0.16903452745E+03  0.12000000000E+03 0.  0.
         25    1    3    3    0    0  0.60203398998E+02 -0.20032002023E+02 -0.14013207812E+03  0.19509671877E+03  0.12000000000E+03 0.  0.
<mgrwt>
<rscale>  0 0.27308615E+03</rscale>
<asrwt>0</asrwt>
<pdfrwt beam="1">  1        2 0.46538104E-01 0.27308615E+03</pdfrwt>
<pdfrwt beam="2">  1       -2 0.94820879E-02 0.27308615E+03</pdfrwt>
<totfact> 0.77660407E+03</totfact>
</mgrwt>
</event>
<event>
 5    1  0.1140254E+001  0.2762144E+03  0.7818608E-02  0.1097775E+00
          1   -1    0    0  501    0  0.00000000000E+00  0.00000000000E+00  0.93026687927E+02  0.93026687927E+02  0.00000000000E+00 0.  1.
         -1   -1    0    0    0  501 -0.00000000000E+00 -0.00000000000E+00 -0.20503358352E+03  0.20503358352E+03  0.00000000000E+00 0.  1.
         35    2    1    2    0    0  0.00000000000E+00  0.00000000000E+00 -0.11200689559E+03  0.29806027145E+03  0.27621437464E+03 0.  0.
         25    1    3    3    0    0 -0.60434923506E+01 -0.68094245924E+02 -0.55469258684E+02  0.14882939490E+03  0.12000000000E+03 0.  0.
         25    1    3    3    0    0  0.60434923506E+01  0.68094245924E+02 -0.56537636911E+02  0.14923087655E+03  0.12000000000E+03 0.  0.
<mgrwt>
<rscale>  0 0.27621437E+03</rscale>
<asrwt>0</asrwt>
<pdfrwt beam="1">  1        1 0.14311798E-01 0.27621437E+03</pdfrwt>
<pdfrwt beam="2">  1       -1 0.31543628E-01 0.27621437E+03</pdfrwt>
<totfact> 0.36979386E+03</totfact>
</mgrwt>
</event>
<event>
 5    1  0.1140254E+001  0.2776481E+03  0.7818608E-02  0.1096980E+00
         -1   -1    0    0    0  501 -0.00000000000E+00  0.00000000000E+00  0.26282489865E+02  0.26282489865E+02  0.00000000000E+00 0.  1.
          1   -1    0    0  501    0  0.00000000000E+00 -0.00000000000E+00 -0.73326852561E+03  0.73326852561E+03  0.00000000000E+00 0.  1.
         35    2    1    2    0    0  0.00000000000E+00  0.00000000000E+00 -0.70698603574E+03  0.75955101547E+03  0.27764814131E+03 0.  0.
         25    1    3    3    0    0  0.28111600591E+02 -0.24043915976E+02 -0.19156247517E+03  0.22905142190E+03  0.12000000000E+03 0.  0.
         25    1    3    3    0    0 -0.28111600591E+02  0.24043915976E+02 -0.51542356057E+03  0.53049959357E+03  0.12000000000E+03 0.  0.
<mgrwt>
<rscale>  0 0.27764814E+03</rscale>
<asrwt>0</asrwt>
<pdfrwt beam="1">  1        1 0.11281053E+00 0.27764814E+03</pdfrwt>
<pdfrwt beam="2">  1       -1 0.40434603E-02 0.27764814E+03</pdfrwt>
<totfact> 0.63539262E+03</totfact>
</mgrwt>
</event>
<event>
 5    1  0.1140254E+001  0.2763616E+03  0.7818608E-02  0.1097693E+00
          2   -1    0    0  501    0  0.00000000000E+00  0.00000000000E+00  0.23552985326E+03  0.23552985326E+03  0.00000000000E+00 0. -1.
         -2   -1    0    0    0  501 -0.00000000000E+00 -0.00000000000E+00 -0.81068013968E+02  0.81068013968E+02  0.00000000000E+00 0. -1.
         35    2    1    2    0    0  0.00000000000E+00  0.00000000000E+00  0.15446183929E+03  0.31659786723E+03  0.27636162855E+03 0.  0.
         25    1    3    3    0    0  0.66781229416E+02  0.13188944150E+02  0.86123596170E+02  0.16263749465E+03  0.12000000000E+03 0.  0.
         25    1    3    3    0    0 -0.66781229416E+02 -0.13188944150E+02  0.68338243121E+02  0.15396037257E+03  0.12000000000E+03 0.  0.
<mgrwt>
<rscale>  0 0.27636163E+03</rscale>
<asrwt>0</asrwt>
<pdfrwt beam="1">  1        2 0.36235362E-01 0.27636163E+03</pdfrwt>
<pdfrwt beam="2">  1       -2 0.12472002E-01 0.27636163E+03</pdfrwt>
<totfact> 0.65612920E+03</totfact>
</mgrwt>
</event>
<event>
 5    1  0.1140254E+001  0.2754204E+03  0.7818608E-02  0.1098217E+00
         -2   -1    0    0    0  501 -0.00000000000E+00  0.00000000000E+00  0.27840076477E+02  0.27840076477E+02  0.00000000000E+00 0. -1.
          2   -1    0    0  501    0  0.00000000000E+00 -0.00000000000E+00 -0.68117965495E+03  0.68117965495E+03  0.00000000000E+00 0. -1.
         35    2    1    2    0    0  0.00000000000E+00  0.00000000000E+00 -0.65333957847E+03  0.70901973142E+03  0.27542036009E+03 0.  0.
         25    1    3    3    0    0  0.59912283320E+02  0.17673259800E+02 -0.26042081977E+03  0.29346350570E+03  0.12000000000E+03 0.  0.
         25    1    3    3    0    0 -0.59912283320E+02 -0.17673259800E+02 -0.39291875870E+03  0.41555622573E+03  0.12000000000E+03 0.  0.
<mgrwt>
<rscale>  0 0.27542036E+03</rscale>
<asrwt>0</asrwt>
<pdfrwt beam="1">  1        2 0.10479687E+00 0.27542036E+03</pdfrwt>
<pdfrwt beam="2">  1       -2 0.42830886E-02 0.27542036E+03</pdfrwt>
<totfact> 0.10701602E+04</totfact>
</mgrwt>
</event>
<event>
 5    1  0.1140254E+001  0.2751827E+03  0.7818608E-02  0.1098350E+00
          1   -1    0    0  501    0  0.00000000000E+00  0.00000000000E+00  0.67349649015E+02  0.67349649015E+02  0.00000000000E+00 0.  1.
         -1   -1    0    0    0  501 -0.00000000000E+00 -0.00000000000E+00 -0.28109092525E+03  0.28109092525E+03  0.00000000000E+00 0.  1.
         35    2    1    2    0    0  0.00000000000E+00  0.00000000000E+00 -0.21374127623E+03  0.34844057426E+03  0.27518266774E+03 0.  0.
         25    1    3    3    0    0  0.35889067064E+02  0.24645274158E+02 -0.17188017795E+03  0.21409859935E+03  0.12000000000E+03 0.  0.
         25    1    3    3    0    0 -0.35889067064E+02 -0.24645274158E+02 -0.41861098283E+02  0.13434197491E+03  0.12000000000E+03 0.  0.
<mgrwt>
<rscale>  0 0.27518267E+03</rscale>
<asrwt>0</asrwt>
<pdfrwt beam="1">  1        1 0.10361484E-01 0.27518267E+03</pdfrwt>
<pdfrwt beam="2">  1       -1 0.43244758E-01 0.27518267E+03</pdfrwt>
<totfact> 0.32663000E+03</totfact>
</mgrwt>
</event>
<event>
 5    1  0.1140254E+001  0.2740763E+03  0.7818608E-02  0.1098969E+00
         -1   -1    0    0    0  501 -0.00000000000E+00  0.00000000000E+00  0.96938895579E+01  0.96938895579E+01  0.00000000000E+00 0. -1.
          1   -1    0    0  501    0  0.00000000000E+00 -0.00000000000E+00 -0.19372471215E+04  0.19372471215E+04  0.00000000000E+00 0. -1.
         35    2    1    2    0    0  0.00000000000E+00  0.00000000000E+00 -0.19275532320E+04  0.19469410111E+04  0.27407633712E+03 0.  0.
         25    1    3    3    0    0 -0.26987428776E+02  0.47523191647E+02 -0.69867789262E+03  0.71101165440E+03  0.12000000000E+03 0.  0.
         25    1    3    3    0    0  0.26987428776E+02 -0.47523191647E+02 -0.12288753394E+04  0.12359293567E+04  0.12000000000E+03 0.  0.
<mgrwt>
<rscale>  0 0.27407634E+03</rscale>
<asrwt>0</asrwt>
<pdfrwt beam="1">  1        1 0.29803797E+00 0.27407634E+03</pdfrwt>
<pdfrwt beam="2">  1       -1 0.14913679E-02 0.27407634E+03</pdfrwt>
<totfact> 0.39003783E+03</totfact>
</mgrwt>
</event>
<event>
 5    1  0.1140254E+001  0.2744311E+03  0.7818608E-02  0.1098770E+00
         -1   -1    0    0    0  501 -0.00000000000E+00  0.00000000000E+00  0.55963865573E+02  0.55963865573E+02  0.00000000000E+00 0.  1.
          1   -1    0    0  501    0  0.00000000000E+00 -0.00000000000E+00 -0.33643331893E+03  0.33643331893E+03  0.00000000000E+00 0.  1.
         35    2    1    2    0    0  0.00000000000E+00  0.00000000000E+00 -0.28046945336E+03  0.39239718451E+03  0.27443111365E+03 0.  0.
         25    1    3    3    0    0  0.25927568896E+02 -0.61285028305E+02 -0.14005664243E+03  0.19607130491E+03  0.12000000000E+03 0.  0.
         25    1    3    3    0    0 -0.25927568896E+02  0.61285028305E+02 -0.14041281093E+03  0.19632587959E+03  0.12000000000E+03 0.  0.
<mgrwt>
<rscale>  0 0.27443111E+03</rscale>
<asrwt>0</asrwt>
<pdfrwt beam="1">  1        1 0.51758972E-01 0.27443111E+03</pdfrwt>
<pdfrwt beam="2">  1       -1 0.86098256E-02 0.27443111E+03</pdfrwt>
<totfact> 0.57829490E+03</totfact>
</mgrwt>
</event>
<event>
 5    1  0.1140254E+001  0.2752020E+03  0.7818608E-02  0.1098339E+00
          2   -1    0    0  501    0  0.00000000000E+00  0.00000000000E+00  0.20460699392E+04  0.20460699392E+04  0.00000000000E+00 0. -1.
         -2   -1    0    0    0  501 -0.00000000000E+00 -0.00000000000E+00 -0.92538539273E+01  0.92538539273E+01  0.00000000000E+00 0. -1.
         35    2    1    2    0    0  0.00000000000E+00  0.00000000000E+00  0.20368160853E+04  0.20553237931E+04  0.27520197923E+03 0.  0.
         25    1    3    3    0    0 -0.65108234291E+01  0.63838545198E+02  0.86603001784E+03  0.87665600008E+03  0.12000000000E+03 0.  0.
         25    1    3    3    0    0  0.65108234291E+01 -0.63838545198E+02  0.11707860674E+04  0.11786677931E+04  0.12000000000E+03 0.  0.
<mgrwt>
<rscale>  0 0.27520198E+03</rscale>
<asrwt>0</asrwt>
<pdfrwt beam="1">  1        2 0.31477963E+00 0.27520198E+03</pdfrwt>
<pdfrwt beam="2">  1       -2 0.14236715E-02 0.27520198E+03</pdfrwt>
<totfact> 0.89473302E+03</totfact>
</mgrwt>
</event>
<event>
 5    1  0.1140254E+001  0.2752763E+03  0.7818608E-02  0.1098297E+00
         -2   -1    0    0    0  501 -0.00000000000E+00  0.00000000000E+00  0.13965552025E+02  0.13965552025E+02  0.00000000000E+00 0. -1.
          2   -1    0    0  501    0  0.00000000000E+00 -0.00000000000E+00 -0.13564991320E+04  0.13564991320E+04  0.00000000000E+00 0. -1.
         35    2    1    2    0    0  0.00000000000E+00  0.00000000000E+00 -0.13425335800E+04  0.13704646841E+04  0.27527629176E+03 0.  0.
         25    1    3    3    0    0 -0.16223740292E+02 -0.11313241109E+02 -0.99210282716E+03  0.99952949873E+03  0.12000000000E+03 0.  0.
         25    1    3    3    0    0  0.16223740292E+02  0.11313241109E+02 -0.35043075286E+03  0.37093518534E+03  0.12000000000E+03 0.  0.
<mgrwt>
<rscale>  0 0.27527629E+03</rscale>
<asrwt>0</asrwt>
<pdfrwt beam="1">  1        2 0.20869216E+00 0.27527629E+03</pdfrwt>
<pdfrwt beam="2">  1       -2 0.21485466E-02 0.27527629E+03</pdfrwt>
<totfact> 0.11349709E+04</totfact>
</mgrwt>
</event>
<event>
 5    1  0.1140254E+001  0.2749597E+03  0.7818608E-02  0.1098474E+00
          1   -1    0    0  501    0  0.00000000000E+00  0.00000000000E+00  0.20403931339E+04  0.20403931339E+04  0.00000000000E+00 0. -1.
         -1   -1    0    0    0  501 -0.00000000000E+00 -0.00000000000E+00 -0.92632676637E+01  0.92632676637E+01  0.00000000000E+00 0. -1.
         35    2    1    2    0    0  0.00000000000E+00  0.00000000000E+00  0.20311298662E+04  0.20496564015E+04  0.27495968969E+03 0.  0.
         25    1    3    3    0    0 -0.57337781538E+02  0.19671666518E+02  0.12298202073E+04  0.12371468538E+04  0.12000000000E+03 0.  0.
         25    1    3    3    0    0  0.57337781538E+02 -0.19671666518E+02  0.80130965893E+03  0.81250954772E+03  0.12000000000E+03 0.  0.
<mgrwt>
<rscale>  0 0.27495969E+03</rscale>
<asrwt>0</asrwt>
<pdfrwt beam="1">  1        1 0.31390628E+00 0.27495969E+03</pdfrwt>
<pdfrwt beam="2">  1       -1 0.14251197E-02 0.27495969E+03</pdfrwt>
<totfact> 0.35714338E+03</totfact>
</mgrwt>
</event>
<event>
 5    1  0.1140254E+001  0.2749330E+03  0.7818608E-02  0.1098489E+00
         -2   -1    0    0    0  501 -0.00000000000E+00  0.00000000000E+00  0.40959131135E+02  0.40959131135E+02  0.00000000000E+00 0.  1.
          2   -1    0    0  501    0  0.00000000000E+00 -0.00000000000E+00 -0.46136321839E+03  0.46136321839E+03  0.00000000000E+00 0.  1.
         35    2    1    2    0    0  0.00000000000E+00  0.00000000000E+00 -0.42040408726E+03  0.50232234953E+03  0.27493298502E+03 0.  0.
         25    1    3    3    0    0  0.41508600638E+02 -0.21401373262E+02 -0.12227347949E+03  0.17757191921E+03  0.12000000000E+03 0.  0.
         25    1    3    3    0    0 -0.41508600638E+02  0.21401373262E+02 -0.29813060777E+03  0.32475043032E+03  0.12000000000E+03 0.  0.
<mgrwt>
<rscale>  0 0.27493299E+03</rscale>
<asrwt>0</asrwt>
<pdfrwt beam="1">  1        2 0.70978950E-01 0.27493299E+03</pdfrwt>
<pdfrwt beam="2">  1       -2 0.63014054E-02 0.27493299E+03</pdfrwt>
<totfact> 0.92929802E+03</totfact>
</mgrwt>
</event>
<event>
 5    1  0.1140254E+001  0.2735636E+03  0.7818608E-02  0.1099257E+00
         -1   -1    0    0    0  501 -0.00000000000E+00  0.00000000000E+00  0.51643730362E+02  0.51643730362E+02  0.00000000000E+00 0. -1.
          1   -1    0    0  501    0  0.00000000000E+00 -0.00000000000E+00 -0.36227556583E+03  0.36227556583E+03  0.00000000000E+00 0. -1.
         35    2    1    2    0    0  0.00000000000E+00  0.00000000000E+00 -0.31063183547E+03  0.41391929619E+03  0.27356360605E+03 0.  0.
         25    1    3    3    0    0 -0.31295013859E+02 -0.18145741267E+02 -0.23819836202E+03  0.26915999979E+03  0.12000000000E+03 0.  0.
         25    1    3    3    0    0  0.31295013859E+02  0.18145741267E+02 -0.72433473446E+02  0.14475929640E+03  0.12000000000E+03 0.  0.
<mgrwt>
<rscale>  0 0.27356361E+03</rscale>
<asrwt>0</asrwt>
<pdfrwt beam="1">  1        1 0.55734700E-01 0.27356361E+03</pdfrwt>
<pdfrwt beam="2">  1       -1 0.79451897E-02 0.27356361E+03</pdfrwt>
<totfact> 0.59529090E+03</totfact>
</mgrwt>
</event>
<event>
 5    1  0.1140254E+001  0.2779780E+03  0.7818608E-02  0.1096798E+00
          1   -1    0    0  501    0  0.00000000000E+00  0.00000000000E+00  0.51684471834E+02  0.51684471834E+02  0.00000000000E+00 0. -1.
         -1   -1    0    0    0  501 -0.00000000000E+00 -0.00000000000E+00 -0.37376673548E+03  0.37376673548E+03  0.00000000000E+00 0. -1.
         35    2    1    2    0    0  0.00000000000E+00  0.00000000000E+00 -0.32208226364E+03  0.42545120731E+03  0.27797795821E+03 0.  0.
         25    1    3    3    0    0  0.40754215197E+02 -0.29631246086E+02 -0.23569260829E+03  0.26923952608E+03  0.12000000000E+03 0.  0.
         25    1    3    3    0    0 -0.40754215197E+02  0.29631246086E+02 -0.86389655353E+02  0.15621168123E+03  0.12000000000E+03 0.  0.
<mgrwt>
<rscale>  0 0.27797796E+03</rscale>
<asrwt>0</asrwt>
<pdfrwt beam="1">  1        1 0.79514575E-02 0.27797796E+03</pdfrwt>
<pdfrwt beam="2">  1       -1 0.57502572E-01 0.27797796E+03</pdfrwt>
<totfact> 0.27582499E+03</totfact>
</mgrwt>
</event>
<event>
 5    1  0.1140254E+001  0.2753861E+03  0.7818608E-02  0.1098236E+00
         -1   -1    0    0    0  501 -0.00000000000E+00  0.00000000000E+00  0.93520334693E+02  0.93520334693E+02  0.00000000000E+00 0. -1.
          1   -1    0    0  501    0  0.00000000000E+00 -0.00000000000E+00 -0.20272995872E+03  0.20272995872E+03  0.00000000000E+00 0. -1.
         35    2    1    2    0    0  0.00000000000E+00  0.00000000000E+00 -0.10920962402E+03  0.29625029341E+03  0.27538608237E+03 0.  0.
         25    1    3    3    0    0 -0.67356218979E+02 -0.37260263408E+01 -0.51444541116E+02  0.14696014534E+03  0.12000000000E+03 0.  0.
         25    1    3    3    0    0  0.67356218979E+02  0.37260263408E+01 -0.57765082908E+02  0.14929014807E+03  0.12000000000E+03 0.  0.
<mgrwt>
<rscale>  0 0.27538608E+03</rscale>
<asrwt>0</asrwt>
<pdfrwt beam="1">  1        1 0.31189224E-01 0.27538608E+03</pdfrwt>
<pdfrwt beam="2">  1       -1 0.14387744E-01 0.27538608E+03</pdfrwt>
<totfact> 0.49187783E+03</totfact>
</mgrwt>
</event>
<event>
 5    1  0.1140254E+001  0.2771610E+03  0.7818608E-02  0.1097250E+00
         -1   -1    0    0    0  501 -0.00000000000E+00  0.00000000000E+00  0.16620301777E+03  0.16620301777E+03  0.00000000000E+00 0.  1.
          1   -1    0    0  501    0  0.00000000000E+00 -0.00000000000E+00 -0.11554873363E+03  0.11554873363E+03  0.00000000000E+00 0.  1.
         35    2    1    2    0    0  0.00000000000E+00  0.00000000000E+00  0.50654284138E+02  0.28175175140E+03  0.27716095128E+03 0.  0.
         25    1    3    3    0    0  0.42327814874E+02 -0.21321127840E+02  0.76744705192E+02  0.15011989934E+03  0.12000000000E+03 0.  0.
         25    1    3    3    0    0 -0.42327814874E+02  0.21321127840E+02 -0.26090421054E+02  0.13163185205E+03  0.12000000000E+03 0.  0.
<mgrwt>
<rscale>  0 0.27716095E+03</rscale>
<asrwt>0</asrwt>
<pdfrwt beam="1">  1        1 0.17776728E-01 0.27716095E+03</pdfrwt>
<pdfrwt beam="2">  1       -1 0.25569695E-01 0.27716095E+03</pdfrwt>
<totfact> 0.39717609E+03</totfact>
</mgrwt>
</event>
<event>
 5    1  0.1140254E+001  0.2794308E+03  0.7818608E-02  0.1096000E+00
         -2   -1    0    0    0  501 -0.00000000000E+00  0.00000000000E+00  0.79095463677E+01  0.79095463677E+01  0.00000000000E+00 0. -1.
          2   -1    0    0  501    0  0.00000000000E+00 -0.00000000000E+00 -0.24679531710E+04  0.24679531710E+04  0.00000000000E+00 0. -1.
         35    2    1    2    0    0  0.00000000000E+00  0.00000000000E+00 -0.24600436246E+04  0.24758627173E+04  0.27943077883E+03 0.  0.
         25    1    3    3    0    0 -0.49650938373E+02  0.27050370927E+02 -0.84143060310E+03  0.85182298518E+03  0.12000000000E+03 0.  0.
         25    1    3    3    0    0  0.49650938373E+02 -0.27050370927E+02 -0.16186130215E+04  0.16240397322E+04  0.12000000000E+03 0.  0.
<mgrwt>
<rscale>  0 0.27943078E+03</rscale>
<asrwt>0</asrwt>
<pdfrwt beam="1">  1        2 0.37968495E+00 0.27943078E+03</pdfrwt>
<pdfrwt beam="2">  1       -2 0.12168538E-02 0.27943078E+03</pdfrwt>
<totfact> 0.66894896E+03</totfact>
</mgrwt>
</event>
<event>
 5    1  0.1140254E+001  0.2750491E+03  0.7818608E-02  0.1098424E+00
         -2   -1    0    0    0  501 -0.00000000000E+00  0.00000000000E+00  0.12339060977E+03  0.12339060977E+03  0.00000000000E+00 0. -1.
          2   -1    0    0  501    0  0.00000000000E+00 -0.00000000000E+00 -0.15327743999E+03  0.15327743999E+03  0.00000000000E+00 0. -1.
         35    2    1    2    0    0  0.00000000000E+00  0.00000000000E+00 -0.29886830218E+02  0.27666804977E+03  0.27504906315E+03 0.  0.
         25    1    3    3    0    0 -0.38708637994E+02  0.18430699233E+02  0.37080911380E+02  0.13271414137E+03  0.12000000000E+03 0.  0.
         25    1    3    3    0    0  0.38708637994E+02 -0.18430699233E+02 -0.66967741599E+02  0.14395390840E+03  0.12000000000E+03 0.  0.
<mgrwt>
<rscale>  0 0.27504906E+03</rscale>
<asrwt>0</asrwt>
<pdfrwt beam="1">  1        2 0.23581144E-01 0.27504906E+03</pdfrwt>
<pdfrwt beam="2">  1       -2 0.18983171E-01 0.27504906E+03</pdfrwt>
<totfact> 0.52481162E+03</totfact>
</mgrwt>
</event>
<event>
 5    1  0.1140254E+001  0.2748566E+03  0.7818608E-02  0.1098532E+00
         -2   -1    0    0    0  501 -0.00000000000E+00  0.00000000000E+00  0.44201788361E+03  0.44201788361E+03  0.00000000000E+00 0.  1.
          2   -1    0    0  501    0  0.00000000000E+00 -0.00000000000E+00 -0.42727998752E+02  0.42727998752E+02  0.00000000000E+00 0.  1.
         35    2    1    2    0    0  0.00000000000E+00  0.00000000000E+00  0.39928988486E+03  0.48474588236E+03  0.27485661410E+03 0.  0.
         25    1    3    3    0    0 -0.54736486542E+02 -0.26935239791E+02  0.24842297874E+03  0.28255188279E+03  0.12000000000E+03 0.  0.
         25    1    3    3    0    0  0.54736486542E+02  0.26935239791E+02  0.15086690612E+03  0.20219399957E+03  0.12000000000E+03 0.  0.
<mgrwt>
<rscale>  0 0.27485661E+03</rscale>
<asrwt>0</asrwt>
<pdfrwt beam="1">  1        2 0.65735386E-02 0.27485661E+03</pdfrwt>
<pdfrwt beam="2">  1       -2 0.68002748E-01 0.27485661E+03</pdfrwt>
<totfact> 0.22197008E+03</totfact>
</mgrwt>
</event>
<event>
 5    1  0.1140254E+001  0.2750697E+03  0.7818608E-02  0.1098413E+00
         -2   -1    0    0    0  501 -0.00000000000E+00  0.00000000000E+00  0.18603390206E+02  0.18603390206E+02  0.00000000000E+00 0. -1.
          2   -1    0    0  501    0  0.00000000000E+00 -0.00000000000E+00 -0.10167951727E+04  0.10167951727E+04  0.00000000000E+00 0. -1.
         35    2    1    2    0    0  0.00000000000E+00  0.00000000000E+00 -0.99819178249E+03  0.10353985629E+04  0.27506971740E+03 0.  0.
         25    1    3    3    0    0  0.35123687083E+02 -0.57107393941E+02 -0.51630810828E+03  0.53429298191E+03  0.12000000000E+03 0.  0.
         25    1    3    3    0    0 -0.35123687083E+02  0.57107393941E+02 -0.48188367421E+03  0.50110558100E+03  0.12000000000E+03 0.  0.
<mgrwt>
<rscale>  0 0.27506972E+03</rscale>
<asrwt>0</asrwt>
<pdfrwt beam="1">  1        2 0.15643006E+00 0.27506972E+03</pdfrwt>
<pdfrwt beam="2">  1       -2 0.28620594E-02 0.27506972E+03</pdfrwt>
<totfact> 0.11622754E+04</totfact>
</mgrwt>
</event>
<event>
 5    1  0.1140254E+001  0.2765483E+03  0.7818608E-02  0.1097589E+00
          2   -1    0    0  501    0  0.00000000000E+00  0.00000000000E+00  0.57319538379E+03  0.57319538379E+03  0.00000000000E+00 0.  1.
         -2   -1    0    0    0  501 -0.00000000000E+00 -0.00000000000E+00 -0.33356405331E+02  0.33356405331E+02  0.00000000000E+00 0.  1.
         35    2    1    2    0    0  0.00000000000E+00  0.00000000000E+00  0.53983897846E+03  0.60655178912E+03  0.27654827828E+03 0.  0.
         25    1    3    3    0    0  0.28232865048E+02 -0.62557675637E+02  0.26327409475E+03  0.29736140707E+03  0.12000000000E+03 0.  0.
         25    1    3    3    0    0 -0.28232865048E+02  0.62557675637E+02  0.27656488371E+03  0.30919038205E+03  0.12000000000E+03 0.  0.
<mgrwt>
<rscale>  0 0.27654828E+03</rscale>
<asrwt>0</asrwt>
<pdfrwt beam="1">  1        2 0.88183898E-01 0.27654828E+03</pdfrwt>
<pdfrwt beam="2">  1       -2 0.51317551E-02 0.27654828E+03</pdfrwt>
<totfact> 0.99680941E+03</totfact>
</mgrwt>
</event>
<event>
 5    1  0.1140254E+001  0.2741458E+03  0.7818608E-02  0.1098930E+00
          2   -1    0    0  501    0  0.00000000000E+00  0.00000000000E+00  0.78599495850E+02  0.78599495850E+02  0.00000000000E+00 0. -1.
         -2   -1    0    0    0  501 -0.00000000000E+00 -0.00000000000E+00 -0.23904709137E+03  0.23904709137E+03  0.00000000000E+00 0. -1.
         35    2    1    2    0    0  0.00000000000E+00  0.00000000000E+00 -0.16044759552E+03  0.31764658722E+03  0.27414580694E+03 0.  0.
         25    1    3    3    0    0  0.40421035982E+02  0.37973056376E+02 -0.38236040020E+02  0.13761470821E+03  0.12000000000E+03 0.  0.
         25    1    3    3    0    0 -0.40421035982E+02 -0.37973056376E+02 -0.12221155550E+03  0.18003187900E+03  0.12000000000E+03 0.  0.
<mgrwt>
<rscale>  0 0.27414581E+03</rscale>
<asrwt>0</asrwt>
<pdfrwt beam="1">  1        2 0.12092230E-01 0.27414581E+03</pdfrwt>
<pdfrwt beam="2">  1       -2 0.36776475E-01 0.27414581E+03</pdfrwt>
<totfact> 0.35235340E+03</totfact>
</mgrwt>
</event>
<event>
 5    1  0.1140254E+001  0.2746829E+03  0.7818608E-02  0.1098629E+00
         -1   -1    0    0    0  501 -0.00000000000E+00  0.00000000000E+00  0.50771209183E+02  0.50771209183E+02  0.00000000000E+00 0. -1.
          1   -1    0    0  501    0  0.00000000000E+00 -0.00000000000E+00 -0.37152298632E+03  0.37152298632E+03  0.00000000000E+00 0. -1.
         35    2    1    2    0    0  0.00000000000E+00  0.00000000000E+00 -0.32075177714E+03  0.42229419551E+03  0.27468288083E+03 0.  0.
         25    1    3    3    0    0 -0.27159814020E+02 -0.26117528931E+02 -0.75569869670E+02  0.14673304337E+03  0.12000000000E+03 0.  0.
         25    1    3    3    0    0  0.27159814020E+02  0.26117528931E+02 -0.24518190747E+03  0.27556115214E+03  0.12000000000E+03 0.  0.
<mgrwt>
<rscale>  0 0.27468288E+03</rscale>
<asrwt>0</asrwt>
<pdfrwt beam="1">  1        1 0.57157384E-01 0.27468288E+03</pdfrwt>
<pdfrwt beam="2">  1       -1 0.78109551E-02 0.27468288E+03</pdfrwt>
<totfact> 0.59176233E+03</totfact>
</mgrwt>
</event>
<event>
 5    1  0.1140254E+001  0.2751962E+03  0.7818608E-02  0.1098342E+00
         -2   -1    0    0    0  501 -0.00000000000E+00  0.00000000000E+00  0.16223065772E+02  0.16223065772E+02  0.00000000000E+00 0. -1.
          2   -1    0    0  501    0  0.00000000000E+00 -0.00000000000E+00 -0.11670567144E+04  0.11670567144E+04  0.00000000000E+00 0. -1.
         35    2    1    2    0    0  0.00000000000E+00  0.00000000000E+00 -0.11508336486E+04  0.11832797802E+04  0.27519620519E+03 0.  0.
         25    1    3    3    0    0  0.53814493127E+02 -0.22485382187E+02 -0.72006076717E+03  0.73231762269E+03  0.12000000000E+03 0.  0.
         25    1    3    3    0    0 -0.53814493127E+02  0.22485382187E+02 -0.43077288146E+03  0.45096215748E+03  0.12000000000E+03 0.  0.
<mgrwt>
<rscale>  0 0.27519621E+03</rscale>
<asrwt>0</asrwt>
<pdfrwt beam="1">  1        2 0.17954719E+00 0.27519621E+03</pdfrwt>
<pdfrwt beam="2">  1       -2 0.24958562E-02 0.27519621E+03</pdfrwt>
<totfact> 0.11610848E+04</totfact>
</mgrwt>
</event>
<event>
 5    1  0.1140254E+001  0.2750513E+03  0.7818608E-02  0.1098423E+00
         -2   -1    0    0    0  501 -0.00000000000E+00  0.00000000000E+00  0.26473596671E+02  0.26473596671E+02  0.00000000000E+00 0. -1.
          2   -1    0    0  501    0  0.00000000000E+00 -0.00000000000E+00 -0.71442123742E+03  0.71442123742E+03  0.00000000000E+00 0. -1.
         35    2    1    2    0    0  0.00000000000E+00  0.00000000000E+00 -0.68794764075E+03  0.74089483409E+03  0.27505126571E+03 0.  0.
         25    1    3    3    0    0  0.36802326875E+01  0.62585505545E+02 -0.27894491488E+03  0.31006572715E+03  0.12000000000E+03 0.  0.
         25    1    3    3    0    0 -0.36802326875E+01 -0.62585505545E+02 -0.40900272588E+03  0.43082910695E+03  0.12000000000E+03 0.  0.
<mgrwt>
<rscale>  0 0.27505127E+03</rscale>
<asrwt>0</asrwt>
<pdfrwt beam="1">  1        2 0.10991097E+00 0.27505127E+03</pdfrwt>
<pdfrwt beam="2">  1       -2 0.40728606E-02 0.27505127E+03</pdfrwt>
<totfact> 0.10896351E+04</totfact>
</mgrwt>
</event>
<event>
 5    1  0.1140254E+001  0.2752698E+03  0.7818608E-02  0.1098301E+00
          1   -1    0    0  501    0  0.00000000000E+00  0.00000000000E+00  0.12466736971E+03  0.12466736971E+03  0.00000000000E+00 0. -1.
         -1   -1    0    0    0  501 -0.00000000000E+00 -0.00000000000E+00 -0.15195126666E+03  0.15195126666E+03  0.00000000000E+00 0. -1.
         35    2    1    2    0    0  0.00000000000E+00  0.00000000000E+00 -0.27283896951E+02  0.27661863636E+03  0.27526979302E+03 0.  0.
         25    1    3    3    0    0 -0.48126986776E+02 -0.10040740761E+02  0.32696274807E+02  0.13373881156E+03  0.12000000000E+03 0.  0.
         25    1    3    3    0    0  0.48126986776E+02  0.10040740761E+02 -0.59980171758E+02  0.14287982480E+03  0.12000000000E+03 0.  0.
<mgrwt>
<rscale>  0 0.27526979E+03</rscale>
<asrwt>0</asrwt>
<pdfrwt beam="1">  1        1 0.19179595E-01 0.27526979E+03</pdfrwt>
<pdfrwt beam="2">  1       -1 0.23377118E-01 0.27526979E+03</pdfrwt>
<totfact> 0.41761297E+03</totfact>
</mgrwt>
</event>
<event>
 5    1  0.1140254E+001  0.2754390E+03  0.7818608E-02  0.1098206E+00
         -2   -1    0    0    0  501 -0.00000000000E+00  0.00000000000E+00  0.19907182978E+04  0.19907182978E+04  0.00000000000E+00 0. -1.
          2   -1    0    0  501    0  0.00000000000E+00 -0.00000000000E+00 -0.95275433946E+01  0.95275433946E+01  0.00000000000E+00 0. -1.
         35    2    1    2    0    0  0.00000000000E+00  0.00000000000E+00  0.19811907544E+04  0.20002458412E+04  0.27543895853E+03 0.  0.
         25    1    3    3    0    0  0.49023727310E+02 -0.12053232399E+02  0.66436542554E+03  0.67700075694E+03  0.12000000000E+03 0.  0.
         25    1    3    3    0    0 -0.49023727310E+02  0.12053232399E+02  0.13168253289E+04  0.13232450843E+04  0.12000000000E+03 0.  0.
<mgrwt>
<rscale>  0 0.27543896E+03</rscale>
<asrwt>0</asrwt>
<pdfrwt beam="1">  1        2 0.14657775E-02 0.27543896E+03</pdfrwt>
<pdfrwt beam="2">  1       -2 0.30626402E+00 0.27543896E+03</pdfrwt>
<totfact> 0.28388551E+02</totfact>
</mgrwt>
</event>
<event>
 5    1  0.1140254E+001  0.2712683E+03  0.7818608E-02  0.1100556E+00
         -3   -1    0    0    0  501 -0.00000000000E+00  0.00000000000E+00  0.33915395253E+03  0.33915395253E+03  0.00000000000E+00 0. -1.
          3   -1    0    0  501    0  0.00000000000E+00 -0.00000000000E+00 -0.54242670091E+02  0.54242670091E+02  0.00000000000E+00 0. -1.
         35    2    1    2    0    0  0.00000000000E+00  0.00000000000E+00  0.28491128244E+03  0.39339662262E+03  0.27126825068E+03 0.  0.
         25    1    3    3    0    0 -0.95763246068E+01  0.60670759746E+02  0.16415892731E+03  0.21241657303E+03  0.12000000000E+03 0.  0.
         25    1    3    3    0    0  0.95763246068E+01 -0.60670759746E+02  0.12075235513E+03  0.18098004959E+03  0.12000000000E+03 0.  0.
<mgrwt>
<rscale>  0 0.27126825E+03</rscale>
<asrwt>0</asrwt>
<pdfrwt beam="1">  1        3 0.83450263E-02 0.27126825E+03</pdfrwt>
<pdfrwt beam="2">  1       -3 0.52177530E-01 0.27126825E+03</pdfrwt>
<totfact> 0.92618394E+02</totfact>
</mgrwt>
</event>
<event>
 5    1  0.1140254E+001  0.2753790E+03  0.7818608E-02  0.1098240E+00
          2   -1    0    0  501    0  0.00000000000E+00  0.00000000000E+00  0.60085765346E+03  0.60085765346E+03  0.00000000000E+00 0. -1.
         -2   -1    0    0    0  501 -0.00000000000E+00 -0.00000000000E+00 -0.31552221717E+02  0.31552221717E+02  0.00000000000E+00 0. -1.
         35    2    1    2    0    0  0.00000000000E+00  0.00000000000E+00  0.56930543174E+03  0.63240987518E+03  0.27537896726E+03 0.  0.
         25    1    3    3    0    0 -0.88666555875E+01 -0.54893564759E+02  0.37259644804E+03  0.39537328453E+03  0.12000000000E+03 0.  0.
         25    1    3    3    0    0  0.88666555875E+01  0.54893564759E+02  0.19670898371E+03  0.23703659064E+03  0.12000000000E+03 0.  0.
<mgrwt>
<rscale>  0 0.27537897E+03</rscale>
<asrwt>0</asrwt>
<pdfrwt beam="1">  1        2 0.92439631E-01 0.27537897E+03</pdfrwt>
<pdfrwt beam="2">  1       -2 0.48541884E-02 0.27537897E+03</pdfrwt>
<totfact> 0.10270458E+04</totfact>
</mgrwt>
</event>
<event>
 5    1  0.1140254E+001  0.2747396E+03  0.7818608E-02  0.1098597E+00
          1   -1    0    0  501    0  0.00000000000E+00  0.00000000000E+00  0.33699331077E+03  0.33699331077E+03  0.00000000000E+00 0.  1.
         -1   -1    0    0    0  501 -0.00000000000E+00 -0.00000000000E+00 -0.55996553990E+02  0.55996553990E+02  0.00000000000E+00 0.  1.
         35    2    1    2    0    0  0.00000000000E+00  0.00000000000E+00  0.28099675678E+03  0.39298986476E+03  0.27473961579E+03 0.  0.
         25    1    3    3    0    0 -0.77195048160E+01 -0.43259498641E+02  0.68415313558E+02  0.14495388959E+03  0.12000000000E+03 0.  0.
         25    1    3    3    0    0  0.77195048160E+01  0.43259498641E+02  0.21258144322E+03  0.24803597517E+03  0.12000000000E+03 0.  0.
<mgrwt>
<rscale>  0 0.27473962E+03</rscale>
<asrwt>0</asrwt>
<pdfrwt beam="1">  1        1 0.51845123E-01 0.27473962E+03</pdfrwt>
<pdfrwt beam="2">  1       -1 0.86148547E-02 0.27473962E+03</pdfrwt>
<totfact> 0.57658458E+03</totfact>
</mgrwt>
</event>
<event>
 5    1  0.1140254E+001  0.2746296E+03  0.7818608E-02  0.1098659E+00
          1   -1    0    0  501    0  0.00000000000E+00  0.00000000000E+00  0.65831474645E+03  0.65831474645E+03  0.00000000000E+00 0.  1.
         -1   -1    0    0    0  501 -0.00000000000E+00 -0.00000000000E+00 -0.28641844419E+02  0.28641844419E+02  0.00000000000E+00 0.  1.
         35    2    1    2    0    0  0.00000000000E+00  0.00000000000E+00  0.62967290203E+03  0.68695659087E+03  0.27462955811E+03 0.  0.
         25    1    3    3    0    0 -0.37008378127E+02 -0.29023565578E+02  0.43331278641E+03  0.45207516883E+03  0.12000000000E+03 0.  0.
         25    1    3    3    0    0  0.37008378127E+02  0.29023565578E+02  0.19636011563E+03  0.23488142204E+03  0.12000000000E+03 0.  0.
<mgrwt>
<rscale>  0 0.27462956E+03</rscale>
<asrwt>0</asrwt>
<pdfrwt beam="1">  1        1 0.10127918E+00 0.27462956E+03</pdfrwt>
<pdfrwt beam="2">  1       -1 0.44064381E-02 0.27462956E+03</pdfrwt>
<totfact> 0.65387033E+03</totfact>
</mgrwt>
</event>
<event>
 5    1  0.1140254E+001  0.2750164E+03  0.7818608E-02  0.1098442E+00
         -1   -1    0    0    0  501 -0.00000000000E+00  0.00000000000E+00  0.52581400582E+02  0.52581400582E+02  0.00000000000E+00 0.  1.
          1   -1    0    0  501    0  0.00000000000E+00 -0.00000000000E+00 -0.35960433187E+03  0.35960433187E+03  0.00000000000E+00 0.  1.
         35    2    1    2    0    0  0.00000000000E+00  0.00000000000E+00 -0.30702293129E+03  0.41218573245E+03  0.27501635897E+03 0.  0.
         25    1    3    3    0    0 -0.33645156079E+01 -0.67060878640E+02 -0.15331029661E+03  0.20594302236E+03  0.12000000000E+03 0.  0.
         25    1    3    3    0    0  0.33645156079E+01  0.67060878640E+02 -0.15371263467E+03  0.20624271010E+03  0.12000000000E+03 0.  0.
<mgrwt>
<rscale>  0 0.27501636E+03</rscale>
<asrwt>0</asrwt>
<pdfrwt beam="1">  1        1 0.55323745E-01 0.27501636E+03</pdfrwt>
<pdfrwt beam="2">  1       -1 0.80894460E-02 0.27501636E+03</pdfrwt>
<totfact> 0.58472646E+03</totfact>
</mgrwt>
</event>
<event>
 5    1  0.1140254E+001  0.2753807E+03  0.7818608E-02  0.1098239E+00
          1   -1    0    0  501    0  0.00000000000E+00  0.00000000000E+00  0.33718610830E+03  0.33718610830E+03  0.00000000000E+00 0.  1.
         -1   -1    0    0    0  501 -0.00000000000E+00 -0.00000000000E+00 -0.56226002760E+02  0.56226002760E+02  0.00000000000E+00 0.  1.
         35    2    1    2    0    0  0.00000000000E+00  0.00000000000E+00  0.28096010554E+03  0.39341211106E+03  0.27538066059E+03 0.  0.
         25    1    3    3    0    0  0.45563644163E+02 -0.33584656658E+02  0.19306097453E+03  0.23425736855E+03  0.12000000000E+03 0.  0.
         25    1    3    3    0    0 -0.45563644163E+02  0.33584656658E+02  0.87899131011E+02  0.15915474251E+03  0.12000000000E+03 0.  0.
<mgrwt>
<rscale>  0 0.27538066E+03</rscale>
<asrwt>0</asrwt>
<pdfrwt beam="1">  1        1 0.51874785E-01 0.27538066E+03</pdfrwt>
<pdfrwt beam="2">  1       -1 0.86501545E-02 0.27538066E+03</pdfrwt>
<totfact> 0.57261003E+03</totfact>
</mgrwt>
</event>
<event>
 5    1  0.1140254E+001  0.2755476E+03  0.7818608E-02  0.1098146E+00
         -1   -1    0    0    0  501 -0.00000000000E+00  0.00000000000E+00  0.43158543302E+02  0.43158543302E+02  0.00000000000E+00 0. -1.
          1   -1    0    0  501    0  0.00000000000E+00 -0.00000000000E+00 -0.43981146621E+03  0.43981146621E+03  0.00000000000E+00 0. -1.
         35    2    1    2    0    0  0.00000000000E+00  0.00000000000E+00 -0.39665292291E+03  0.48297000951E+03  0.27554761628E+03 0.  0.
         25    1    3    3    0    0  0.80244274381E+01  0.47587195575E+02 -0.11513587585E+03  0.17316235886E+03  0.12000000000E+03 0.  0.
         25    1    3    3    0    0 -0.80244274381E+01 -0.47587195575E+02 -0.28151704706E+03  0.30980765065E+03  0.12000000000E+03 0.  0.
<mgrwt>
<rscale>  0 0.27554762E+03</rscale>
<asrwt>0</asrwt>
<pdfrwt beam="1">  1        1 0.67663306E-01 0.27554762E+03</pdfrwt>
<pdfrwt beam="2">  1       -1 0.66397755E-02 0.27554762E+03</pdfrwt>
<totfact> 0.60991730E+03</totfact>
</mgrwt>
</event>
<event>
 5    1  0.1140254E+001  0.2758677E+03  0.7818608E-02  0.1097968E+00
         -1   -1    0    0    0  501 -0.00000000000E+00  0.00000000000E+00  0.37747193784E+03  0.37747193784E+03  0.00000000000E+00 0.  1.
          1   -1    0    0  501    0  0.00000000000E+00 -0.00000000000E+00 -0.50403074294E+02  0.50403074294E+02  0.00000000000E+00 0.  1.
         35    2    1    2    0    0  0.00000000000E+00  0.00000000000E+00  0.32706886355E+03  0.42787501213E+03  0.27586769385E+03 0.  0.
         25    1    3    3    0    0 -0.65270966004E+02  0.16563870861E+02  0.14873175553E+03  0.20262229869E+03  0.12000000000E+03 0.  0.
         25    1    3    3    0    0  0.65270966004E+02 -0.16563870861E+02  0.17833710802E+03  0.22525271345E+03  0.12000000000E+03 0.  0.
<mgrwt>
<rscale>  0 0.27586769E+03</rscale>
<asrwt>0</asrwt>
<pdfrwt beam="1">  1        1 0.77543194E-02 0.27586769E+03</pdfrwt>
<pdfrwt beam="2">  1       -1 0.58072604E-01 0.27586769E+03</pdfrwt>
<totfact> 0.28003734E+03</totfact>
</mgrwt>
</event>
<event>
 5    1  0.1140254E+001  0.2752421E+03  0.7818608E-02  0.1098316E+00
         -2   -1    0    0    0  501 -0.00000000000E+00  0.00000000000E+00  0.11828062930E+02  0.11828062930E+02  0.00000000000E+00 0.  1.
          2   -1    0    0  501    0  0.00000000000E+00 -0.00000000000E+00 -0.16012385328E+04  0.16012385328E+04  0.00000000000E+00 0.  1.
         35    2    1    2    0    0  0.00000000000E+00  0.00000000000E+00 -0.15894104699E+04  0.16130665957E+04  0.27524207622E+03 0.  0.
         25    1    3    3    0    0 -0.32062835821E+02 -0.31578508018E+02 -0.10885703037E+04  0.10960887435E+04  0.12000000000E+03 0.  0.
         25    1    3    3    0    0  0.32062835821E+02  0.31578508018E+02 -0.50084016621E+03  0.51697785223E+03  0.12000000000E+03 0.  0.
<mgrwt>
<rscale>  0 0.27524208E+03</rscale>
<asrwt>0</asrwt>
<pdfrwt beam="1">  1        2 0.24634426E+00 0.27524208E+03</pdfrwt>
<pdfrwt beam="2">  1       -2 0.18197029E-02 0.27524208E+03</pdfrwt>
<totfact> 0.10705105E+04</totfact>
</mgrwt>
</event>
<event>
 5    1  0.1140254E+001  0.2761848E+03  0.7818608E-02  0.1097791E+00
          2   -1    0    0  501    0  0.00000000000E+00  0.00000000000E+00  0.32096854946E+03  0.32096854946E+03  0.00000000000E+00 0. -1.
         -2   -1    0    0    0  501 -0.00000000000E+00 -0.00000000000E+00 -0.59412376919E+02  0.59412376919E+02  0.00000000000E+00 0. -1.
         35    2    1    2    0    0  0.00000000000E+00  0.00000000000E+00  0.26155617254E+03  0.38038092637E+03  0.27618475294E+03 0.  0.
         25    1    3    3    0    0 -0.57645814145E+02 -0.27363334625E+02  0.16444979768E+03  0.21334368499E+03  0.12000000000E+03 0.  0.
         25    1    3    3    0    0  0.57645814145E+02  0.27363334625E+02  0.97106374861E+02  0.16703724138E+03  0.12000000000E+03 0.  0.
<mgrwt>
<rscale>  0 0.27618475E+03</rscale>
<asrwt>0</asrwt>
<pdfrwt beam="1">  1        2 0.49379776E-01 0.27618475E+03</pdfrwt>
<pdfrwt beam="2">  1       -2 0.91403658E-02 0.27618475E+03</pdfrwt>
<totfact> 0.77248426E+03</totfact>
</mgrwt>
</event>
<event>
 5    1  0.1140254E+001  0.2745650E+03  0.7818608E-02  0.1098695E+00
          2   -1    0    0  501    0  0.00000000000E+00  0.00000000000E+00  0.79252035678E+03  0.79252035678E+03  0.00000000000E+00 0.  1.
         -2   -1    0    0    0  501 -0.00000000000E+00 -0.00000000000E+00 -0.23780446088E+02  0.23780446088E+02  0.00000000000E+00 0.  1.
         35    2    1    2    0    0  0.00000000000E+00  0.00000000000E+00  0.76873991070E+03  0.81630080287E+03  0.27456502048E+03 0.  0.
         25    1    3    3    0    0  0.14302462810E+02  0.61611417703E+02  0.44715455896E+03  0.46727692735E+03  0.12000000000E+03 0.  0.
         25    1    3    3    0    0 -0.14302462810E+02 -0.61611417703E+02  0.32158535173E+03  0.34902387552E+03  0.12000000000E+03 0.  0.
<mgrwt>
<rscale>  0 0.27456502E+03</rscale>
<asrwt>0</asrwt>
<pdfrwt beam="1">  1        2 0.12192619E+00 0.27456502E+03</pdfrwt>
<pdfrwt beam="2">  1       -2 0.36585308E-02 0.27456502E+03</pdfrwt>
<totfact> 0.11250792E+04</totfact>
</mgrwt>
</event>
<event>
 5    1  0.1140254E+001  0.2631599E+03  0.7818608E-02  0.1105259E+00
          2   -1    0    0  501    0  0.00000000000E+00  0.00000000000E+00  0.53322769066E+03  0.53322769066E+03  0.00000000000E+00 0. -1.
         -2   -1    0    0    0  501 -0.00000000000E+00 -0.00000000000E+00 -0.32468841887E+02  0.32468841887E+02  0.00000000000E+00 0. -1.
         35    2    1    2    0    0  0.00000000000E+00  0.00000000000E+00  0.50075884878E+03  0.56569653255E+03  0.26315991775E+03 0.  0.
         25    1    3    3    0    0  0.34248768618E+02 -0.60065557866E+01  0.33912111820E+03  0.36140308476E+03  0.12000000000E+03 0.  0.
         25    1    3    3    0    0 -0.34248768618E+02  0.60065557866E+01  0.16163773058E+03  0.20429344779E+03  0.12000000000E+03 0.  0.
<mgrwt>
<rscale>  0 0.26315992E+03</rscale>
<asrwt>0</asrwt>
<pdfrwt beam="1">  1        2 0.82035023E-01 0.26315992E+03</pdfrwt>
<pdfrwt beam="2">  1       -2 0.49952068E-02 0.26315992E+03</pdfrwt>
<totfact> 0.11254359E+04</totfact>
</mgrwt>
</event>
<event>
 5    1  0.1140254E+001  0.2744579E+03  0.7818608E-02  0.1098755E+00
          1   -1    0    0  501    0  0.00000000000E+00  0.00000000000E+00  0.99056122696E+03  0.99056122696E+03  0.00000000000E+00 0. -1.
         -1   -1    0    0    0  501 -0.00000000000E+00 -0.00000000000E+00 -0.19011231860E+02  0.19011231860E+02  0.00000000000E+00 0. -1.
         35    2    1    2    0    0  0.00000000000E+00  0.00000000000E+00  0.97154999510E+03  0.10095724588E+04  0.27445793235E+03 0.  0.
         25    1    3    3    0    0 -0.45482337869E+02  0.40676291447E+02  0.58369193269E+03  0.59901542220E+03  0.12000000000E+03 0.  0.
         25    1    3    3    0    0  0.45482337869E+02 -0.40676291447E+02  0.38785806242E+03  0.41055703663E+03  0.12000000000E+03 0.  0.
<mgrwt>
<rscale>  0 0.27445793E+03</rscale>
<asrwt>0</asrwt>
<pdfrwt beam="1">  1        1 0.15239399E+00 0.27445793E+03</pdfrwt>
<pdfrwt beam="2">  1       -1 0.29248057E-02 0.27445793E+03</pdfrwt>
<totfact> 0.63613340E+03</totfact>
</mgrwt>
</event>
<event>
 5    1  0.1140254E+001  0.2747817E+03  0.7818608E-02  0.1098574E+00
          2   -1    0    0  501    0  0.00000000000E+00  0.00000000000E+00  0.58615315093E+03  0.58615315093E+03  0.00000000000E+00 0.  1.
         -2   -1    0    0    0  501 -0.00000000000E+00 -0.00000000000E+00 -0.32203611596E+02  0.32203611596E+02  0.00000000000E+00 0.  1.
         35    2    1    2    0    0  0.00000000000E+00  0.00000000000E+00  0.55394953933E+03  0.61835676252E+03  0.27478171998E+03 0.  0.
         25    1    3    3    0    0  0.11587731211E+02  0.65837837146E+02  0.28307655312E+03  0.31464461102E+03  0.12000000000E+03 0.  0.
         25    1    3    3    0    0 -0.11587731211E+02 -0.65837837146E+02  0.27087298621E+03  0.30371215151E+03  0.12000000000E+03 0.  0.
<mgrwt>
<rscale>  0 0.27478172E+03</rscale>
<asrwt>0</asrwt>
<pdfrwt beam="1">  1        2 0.90177400E-01 0.27478172E+03</pdfrwt>
<pdfrwt beam="2">  1       -2 0.49544022E-02 0.27478172E+03</pdfrwt>
<totfact> 0.10245794E+04</totfact>
</mgrwt>
</event>
<event>
 5    1  0.1140254E+001  0.2783720E+03  0.7818608E-02  0.1096581E+00
         -2   -1    0    0    0  501 -0.00000000000E+00  0.00000000000E+00  0.12995036589E+02  0.12995036589E+02  0.00000000000E+00 0. -1.
          2   -1    0    0  501    0  0.00000000000E+00 -0.00000000000E+00 -0.14907806358E+04  0.14907806358E+04  0.00000000000E+00 0. -1.
         35    2    1    2    0    0  0.00000000000E+00  0.00000000000E+00 -0.14777855992E+04  0.15037756724E+04  0.27837204535E+03 0.  0.
         25    1    3    3    0    0 -0.52417385969E+02 -0.37743596506E+02 -0.89174152837E+03  0.90209484803E+03  0.12000000000E+03 0.  0.
         25    1    3    3    0    0  0.52417385969E+02  0.37743596506E+02 -0.58604407085E+03  0.60168082437E+03  0.12000000000E+03 0.  0.
<mgrwt>
<rscale>  0 0.27837205E+03</rscale>
<asrwt>0</asrwt>
<pdfrwt beam="1">  1        2 0.22935073E+00 0.27837205E+03</pdfrwt>
<pdfrwt beam="2">  1       -2 0.19992376E-02 0.27837205E+03</pdfrwt>
<totfact> 0.10677606E+04</totfact>
</mgrwt>
</event>
<event>
 5    1  0.1140254E+001  0.2746725E+03  0.7818608E-02  0.1098635E+00
          2   -1    0    0  501    0  0.00000000000E+00  0.00000000000E+00  0.13197823533E+03  0.13197823533E+03  0.00000000000E+00 0. -1.
         -2   -1    0    0    0  501 -0.00000000000E+00 -0.00000000000E+00 -0.14291178376E+03  0.14291178376E+03  0.00000000000E+00 0. -1.
         35    2    1    2    0    0  0.00000000000E+00  0.00000000000E+00 -0.10933548434E+02  0.27489001909E+03  0.27467249610E+03 0.  0.
         25    1    3    3    0    0  0.37593794215E+02  0.50188557026E+02 -0.28486302986E+02  0.13836059438E+03  0.12000000000E+03 0.  0.
         25    1    3    3    0    0 -0.37593794215E+02 -0.50188557026E+02  0.17552754552E+02  0.13652942471E+03  0.12000000000E+03 0.  0.
<mgrwt>
<rscale>  0 0.27467250E+03</rscale>
<asrwt>0</asrwt>
<pdfrwt beam="1">  1        2 0.20304344E-01 0.27467250E+03</pdfrwt>
<pdfrwt beam="2">  1       -2 0.21986428E-01 0.27467250E+03</pdfrwt>
<totfact> 0.48329049E+03</totfact>
</mgrwt>
</event>
<event>
 5    1  0.1140254E+001  0.2747755E+03  0.7818608E-02  0.1098577E+00
         -2   -1    0    0    0  501 -0.00000000000E+00  0.00000000000E+00  0.54607651258E+02  0.54607651258E+02  0.00000000000E+00 0. -1.
          2   -1    0    0  501    0  0.00000000000E+00 -0.00000000000E+00 -0.34565477827E+03  0.34565477827E+03  0.00000000000E+00 0. -1.
         35    2    1    2    0    0  0.00000000000E+00  0.00000000000E+00 -0.29104712701E+03  0.40026242953E+03  0.27477551265E+03 0.  0.
         25    1    3    3    0    0  0.18230709664E+02 -0.28195278338E+01 -0.51851706515E+02  0.13201858953E+03  0.12000000000E+03 0.  0.
         25    1    3    3    0    0 -0.18230709664E+02  0.28195278338E+01 -0.23919542050E+03  0.26824384000E+03  0.12000000000E+03 0.  0.
<mgrwt>
<rscale>  0 0.27477551E+03</rscale>
<asrwt>0</asrwt>
<pdfrwt beam="1">  1        2 0.53177658E-01 0.27477551E+03</pdfrwt>
<pdfrwt beam="2">  1       -2 0.84011772E-02 0.27477551E+03</pdfrwt>
<totfact> 0.81420220E+03</totfact>
</mgrwt>
</event>
<event>
 5    1  0.1140254E+001  0.2766742E+03  0.7818608E-02  0.1097519E+00
          1   -1    0    0  501    0  0.00000000000E+00  0.00000000000E+00  0.12566959731E+03  0.12566959731E+03  0.00000000000E+00 0.  1.
         -1   -1    0    0    0  501 -0.00000000000E+00 -0.00000000000E+00 -0.15228145721E+03  0.15228145721E+03  0.00000000000E+00 0.  1.
         35    2    1    2    0    0  0.00000000000E+00  0.00000000000E+00 -0.26611859898E+02  0.27795105453E+03  0.27667417231E+03 0.  0.
         25    1    3    3    0    0  0.56215636261E+02 -0.26358974292E+02  0.16532257124E+02  0.13611873057E+03  0.12000000000E+03 0.  0.
         25    1    3    3    0    0 -0.56215636261E+02  0.26358974292E+02 -0.43144117023E+02  0.14183232396E+03  0.12000000000E+03 0.  0.
<mgrwt>
<rscale>  0 0.27667417E+03</rscale>
<asrwt>0</asrwt>
<pdfrwt beam="1">  1        1 0.19333784E-01 0.27667417E+03</pdfrwt>
<pdfrwt beam="2">  1       -1 0.23427916E-01 0.27667417E+03</pdfrwt>
<totfact> 0.41190013E+03</totfact>
</mgrwt>
</event>
<event>
 5    1  0.1140254E+001  0.2777580E+03  0.7818608E-02  0.1096920E+00
         -1   -1    0    0    0  501 -0.00000000000E+00  0.00000000000E+00  0.52148667996E+02  0.52148667996E+02  0.00000000000E+00 0. -1.
          1   -1    0    0  501    0  0.00000000000E+00 -0.00000000000E+00 -0.36985366880E+03  0.36985366880E+03  0.00000000000E+00 0. -1.
         35    2    1    2    0    0  0.00000000000E+00  0.00000000000E+00 -0.31770500080E+03  0.42200233679E+03  0.27775799669E+03 0.  0.
         25    1    3    3    0    0 -0.15588257734E+02  0.62483819284E+02 -0.20018670111E+03  0.24211967444E+03  0.12000000000E+03 0.  0.
         25    1    3    3    0    0  0.15588257734E+02 -0.62483819284E+02 -0.11751829969E+03  0.17988266235E+03  0.12000000000E+03 0.  0.
<mgrwt>
<rscale>  0 0.27775800E+03</rscale>
<asrwt>0</asrwt>
<pdfrwt beam="1">  1        1 0.56900565E-01 0.27775800E+03</pdfrwt>
<pdfrwt beam="2">  1       -1 0.80228719E-02 0.27775800E+03</pdfrwt>
<totfact> 0.57153548E+03</totfact>
</mgrwt>
</event>
<event>
 5    1  0.1140254E+001  0.2751216E+03  0.7818608E-02  0.1098384E+00
         -1   -1    0    0    0  501 -0.00000000000E+00  0.00000000000E+00  0.46054050821E+02  0.46054050821E+02  0.00000000000E+00 0. -1.
          1   -1    0    0  501    0  0.00000000000E+00 -0.00000000000E+00 -0.41088606410E+03  0.41088606410E+03  0.00000000000E+00 0. -1.
         35    2    1    2    0    0  0.00000000000E+00  0.00000000000E+00 -0.36483201328E+03  0.45694011492E+03  0.27512155625E+03 0.  0.
         25    1    3    3    0    0  0.22162979201E+01  0.65478435175E+02 -0.20763877676E+03  0.24860852573E+03  0.12000000000E+03 0.  0.
         25    1    3    3    0    0 -0.22162979201E+01 -0.65478435175E+02 -0.15719323652E+03  0.20833158920E+03  0.12000000000E+03 0.  0.
<mgrwt>
<rscale>  0 0.27512156E+03</rscale>
<asrwt>0</asrwt>
<pdfrwt beam="1">  1        1 0.63213244E-01 0.27512156E+03</pdfrwt>
<pdfrwt beam="2">  1       -1 0.70852382E-02 0.27512156E+03</pdfrwt>
<totfact> 0.60349004E+03</totfact>
</mgrwt>
</event>
<event>
 5    1  0.1140254E+001  0.2752090E+03  0.7818608E-02  0.1098335E+00
         -1   -1    0    0    0  501 -0.00000000000E+00  0.00000000000E+00  0.13295827606E+03  0.13295827606E+03  0.00000000000E+00 0.  1.
          1   -1    0    0  501    0  0.00000000000E+00 -0.00000000000E+00 -0.14241305284E+03  0.14241305284E+03  0.00000000000E+00 0.  1.
         35    2    1    2    0    0  0.00000000000E+00  0.00000000000E+00 -0.94547767793E+01  0.27537132891E+03  0.27520896784E+03 0.  0.
         25    1    3    3    0    0 -0.64993771428E+02  0.13427629127E+02  0.67031178744E+01  0.13729320208E+03  0.12000000000E+03 0.  0.
         25    1    3    3    0    0  0.64993771428E+02 -0.13427629127E+02 -0.16157894654E+02  0.13807812683E+03  0.12000000000E+03 0.  0.
<mgrwt>
<rscale>  0 0.27520897E+03</rscale>
<asrwt>0</asrwt>
<pdfrwt beam="1">  1        1 0.21909700E-01 0.27520897E+03</pdfrwt>
<pdfrwt beam="2">  1       -1 0.20455119E-01 0.27520897E+03</pdfrwt>
<totfact> 0.43803113E+03</totfact>
</mgrwt>
</event>
<event>
 5    1  0.1140254E+001  0.2745956E+03  0.7818608E-02  0.1098678E+00
         -2   -1    0    0    0  501 -0.00000000000E+00  0.00000000000E+00  0.19034418610E+02  0.19034418610E+02  0.00000000000E+00 0. -1.
          2   -1    0    0  501    0  0.00000000000E+00 -0.00000000000E+00 -0.99034726188E+03  0.99034726188E+03  0.00000000000E+00 0. -1.
         35    2    1    2    0    0  0.00000000000E+00  0.00000000000E+00 -0.97131284327E+03  0.10093816805E+04  0.27459558884E+03 0.  0.
         25    1    3    3    0    0  0.21407815173E+02 -0.62425288356E+02 -0.52157362765E+03  0.53925342858E+03  0.12000000000E+03 0.  0.
         25    1    3    3    0    0 -0.21407815173E+02  0.62425288356E+02 -0.44973921561E+03  0.47012825190E+03  0.12000000000E+03 0.  0.
<mgrwt>
<rscale>  0 0.27459559E+03</rscale>
<asrwt>0</asrwt>
<pdfrwt beam="1">  1        2 0.15236109E+00 0.27459559E+03</pdfrwt>
<pdfrwt beam="2">  1       -2 0.29283726E-02 0.27459559E+03</pdfrwt>
<totfact> 0.11659330E+04</totfact>
</mgrwt>
</event>
<event>
 5    1  0.1140254E+001  0.2749471E+03  0.7818608E-02  0.1098481E+00
          1   -1    0    0  501    0  0.00000000000E+00  0.00000000000E+00  0.64893432158E+02  0.64893432158E+02  0.00000000000E+00 0.  1.
         -1   -1    0    0    0  501 -0.00000000000E+00 -0.00000000000E+00 -0.29123103724E+03  0.29123103724E+03  0.00000000000E+00 0.  1.
         35    2    1    2    0    0  0.00000000000E+00  0.00000000000E+00 -0.22633760508E+03  0.35612446940E+03  0.27494713352E+03 0.  0.
         25    1    3    3    0    0  0.56011107311E+01 -0.37895525828E+02 -0.18448433748E+03  0.22338736333E+03  0.12000000000E+03 0.  0.
         25    1    3    3    0    0 -0.56011107311E+01  0.37895525828E+02 -0.41853267605E+02  0.13273710607E+03  0.12000000000E+03 0.  0.
<mgrwt>
<rscale>  0 0.27494713E+03</rscale>
<asrwt>0</asrwt>
<pdfrwt beam="1">  1        1 0.99836050E-02 0.27494713E+03</pdfrwt>
<pdfrwt beam="2">  1       -1 0.44804775E-01 0.27494713E+03</pdfrwt>
<totfact> 0.32205380E+03</totfact>
</mgrwt>
</event>
<event>
 5    1  0.1140254E+001  0.2749258E+03  0.7818608E-02  0.1098493E+00
         -2   -1    0    0    0  501 -0.00000000000E+00  0.00000000000E+00  0.12199978261E+02  0.12199978261E+02  0.00000000000E+00 0. -1.
          2   -1    0    0  501    0  0.00000000000E+00 -0.00000000000E+00 -0.15488590404E+04  0.15488590404E+04  0.00000000000E+00 0. -1.
         35    2    1    2    0    0  0.00000000000E+00  0.00000000000E+00 -0.15366590622E+04  0.15610590187E+04  0.27492578360E+03 0.  0.
         25    1    3    3    0    0  0.18744624928E+02 -0.56606926119E+02 -0.94244873378E+03  0.95192716153E+03  0.12000000000E+03 0.  0.
         25    1    3    3    0    0 -0.18744624928E+02  0.56606926119E+02 -0.59421032838E+03  0.60913185715E+03  0.12000000000E+03 0.  0.
<mgrwt>
<rscale>  0 0.27492578E+03</rscale>
<asrwt>0</asrwt>
<pdfrwt beam="1">  1        2 0.23828600E+00 0.27492578E+03</pdfrwt>
<pdfrwt beam="2">  1       -2 0.18769198E-02 0.27492578E+03</pdfrwt>
<totfact> 0.10905735E+04</totfact>
</mgrwt>
</event>
<event>
 5    1  0.1140254E+001  0.2722109E+03  0.7818608E-02  0.1100021E+00
          1   -1    0    0  501    0  0.00000000000E+00  0.00000000000E+00  0.26588798704E+04  0.26588798704E+04  0.00000000000E+00 0.  1.
         -1   -1    0    0    0  501 -0.00000000000E+00 -0.00000000000E+00 -0.69671019242E+01  0.69671019242E+01  0.00000000000E+00 0.  1.
         35    2    1    2    0    0  0.00000000000E+00  0.00000000000E+00  0.26519127685E+04  0.26658469724E+04  0.27221085255E+03 0.  0.
         25    1    3    3    0    0  0.63445150871E+02  0.99396353381E+01  0.13335646112E+04  0.13404919454E+04  0.12000000000E+03 0.  0.
         25    1    3    3    0    0 -0.63445150871E+02 -0.99396353381E+01  0.13183481573E+04  0.13253550270E+04  0.12000000000E+03 0.  0.
<mgrwt>
<rscale>  0 0.27221085E+03</rscale>
<asrwt>0</asrwt>
<pdfrwt beam="1">  1        1 0.40905763E+00 0.27221085E+03</pdfrwt>
<pdfrwt beam="2">  1       -1 0.10718640E-02 0.27221085E+03</pdfrwt>
<totfact> 0.21116670E+03</totfact>
</mgrwt>
</event>
<event>
 5    1  0.1140254E+001  0.2816255E+03  0.7818608E-02  0.1094804E+00
          2   -1    0    0  501    0  0.00000000000E+00  0.00000000000E+00  0.16319778041E+03  0.16319778041E+03  0.00000000000E+00 0.  1.
         -2   -1    0    0    0  501 -0.00000000000E+00 -0.00000000000E+00 -0.12149814553E+03  0.12149814553E+03  0.00000000000E+00 0.  1.
         35    2    1    2    0    0  0.00000000000E+00  0.00000000000E+00  0.41699634882E+02  0.28469592594E+03  0.28162547949E+03 0.  0.
         25    1    3    3    0    0 -0.71400081401E+02 -0.13270568910E+02  0.33400817395E+02  0.14418631775E+03  0.12000000000E+03 0.  0.
         25    1    3    3    0    0  0.71400081401E+02  0.13270568910E+02  0.82988174874E+01  0.14050960819E+03  0.12000000000E+03 0.  0.
<mgrwt>
<rscale>  0 0.28162548E+03</rscale>
<asrwt>0</asrwt>
<pdfrwt beam="1">  1        2 0.25107351E-01 0.28162548E+03</pdfrwt>
<pdfrwt beam="2">  1       -2 0.18692022E-01 0.28162548E+03</pdfrwt>
<totfact> 0.50259841E+03</totfact>
</mgrwt>
</event>
<event>
 5    1  0.1140254E+001  0.2774382E+03  0.7818608E-02  0.1097096E+00
         -1   -1    0    0    0  501 -0.00000000000E+00  0.00000000000E+00  0.44173200844E+02  0.44173200844E+02  0.00000000000E+00 0.  1.
          1   -1    0    0  501    0  0.00000000000E+00 -0.00000000000E+00 -0.43562577618E+03  0.43562577618E+03  0.00000000000E+00 0.  1.
         35    2    1    2    0    0  0.00000000000E+00  0.00000000000E+00 -0.39145257534E+03  0.47979897702E+03  0.27743817260E+03 0.  0.
         25    1    3    3    0    0  0.20929313432E+02  0.61389379171E+02 -0.23934990049E+03  0.27549059313E+03  0.12000000000E+03 0.  0.
         25    1    3    3    0    0 -0.20929313432E+02 -0.61389379171E+02 -0.15210267485E+03  0.20430838390E+03  0.12000000000E+03 0.  0.
<mgrwt>
<rscale>  0 0.27743817E+03</rscale>
<asrwt>0</asrwt>
<pdfrwt beam="1">  1        1 0.67019348E-01 0.27743817E+03</pdfrwt>
<pdfrwt beam="2">  1       -1 0.67958773E-02 0.27743817E+03</pdfrwt>
<totfact> 0.59629163E+03</totfact>
</mgrwt>
</event>
<event>
 5    1  0.1140254E+001  0.2750009E+03  0.7818608E-02  0.1098451E+00
         -2   -1    0    0    0  501 -0.00000000000E+00  0.00000000000E+00  0.10198749718E+02  0.10198749718E+02  0.00000000000E+00 0. -1.
          2   -1    0    0  501    0  0.00000000000E+00 -0.00000000000E+00 -0.18537937178E+04  0.18537937178E+04  0.00000000000E+00 0. -1.
         35    2    1    2    0    0  0.00000000000E+00  0.00000000000E+00 -0.18435949681E+04  0.18639924675E+04  0.27500093204E+03 0.  0.
         25    1    3    3    0    0  0.49959124834E+02 -0.20252388911E+02 -0.11929485610E+04  0.12001801292E+04  0.12000000000E+03 0.  0.
         25    1    3    3    0    0 -0.49959124834E+02  0.20252388911E+02 -0.65064640707E+03  0.66381233827E+03  0.12000000000E+03 0.  0.
<mgrwt>
<rscale>  0 0.27500093E+03</rscale>
<asrwt>0</asrwt>
<pdfrwt beam="1">  1        2 0.28519888E+00 0.27500093E+03</pdfrwt>
<pdfrwt beam="2">  1       -2 0.15690393E-02 0.27500093E+03</pdfrwt>
<totfact> 0.97944944E+03</totfact>
</mgrwt>
</event>
<event>
 5    1  0.1140254E+001  0.2747833E+03  0.7818608E-02  0.1098573E+00
         -2   -1    0    0    0  501 -0.00000000000E+00  0.00000000000E+00  0.54366463331E+01  0.54366463331E+01  0.00000000000E+00 0.  1.
          2   -1    0    0  501    0  0.00000000000E+00 -0.00000000000E+00 -0.34720796236E+04  0.34720796236E+04  0.00000000000E+00 0.  1.
         35    2    1    2    0    0  0.00000000000E+00  0.00000000000E+00 -0.34666429773E+04  0.34775162699E+04  0.27478332521E+03 0.  0.
         25    1    3    3    0    0  0.65368986542E+02 -0.13826642232E+01 -0.15536970428E+04  0.15596953282E+04  0.12000000000E+03 0.  0.
         25    1    3    3    0    0 -0.65368986542E+02  0.13826642232E+01 -0.19129459345E+04  0.19178209417E+04  0.12000000000E+03 0.  0.
<mgrwt>
<rscale>  0 0.27478333E+03</rscale>
<asrwt>0</asrwt>
<pdfrwt beam="1">  1        2 0.53416591E+00 0.27478333E+03</pdfrwt>
<pdfrwt beam="2">  1       -2 0.83640742E-03 0.27478333E+03</pdfrwt>
<totfact> 0.29239492E+03</totfact>
</mgrwt>
</event>
<event>
 5    1  0.1140254E+001  0.2739960E+03  0.7818608E-02  0.1099014E+00
         -2   -1    0    0    0  501 -0.00000000000E+00  0.00000000000E+00  0.17225323319E+03  0.17225323319E+03  0.00000000000E+00 0. -1.
          2   -1    0    0  501    0  0.00000000000E+00 -0.00000000000E+00 -0.10895851269E+03  0.10895851269E+03  0.00000000000E+00 0. -1.
         35    2    1    2    0    0  0.00000000000E+00  0.00000000000E+00  0.63294720504E+02  0.28121174588E+03  0.27399602985E+03 0.  0.
         25    1    3    3    0    0  0.62366754085E+02  0.28922214886E+01  0.53909113771E+02  0.14561651523E+03  0.12000000000E+03 0.  0.
         25    1    3    3    0    0 -0.62366754085E+02 -0.28922214886E+01  0.93856067335E+01  0.13559523065E+03  0.12000000000E+03 0.  0.
<mgrwt>
<rscale>  0 0.27399603E+03</rscale>
<asrwt>0</asrwt>
<pdfrwt beam="1">  1        2 0.16762848E-01 0.27399603E+03</pdfrwt>
<pdfrwt beam="2">  1       -2 0.26500497E-01 0.27399603E+03</pdfrwt>
<totfact> 0.43456048E+03</totfact>
</mgrwt>
</event>
<event>
 5    1  0.1140254E+001  0.2754167E+03  0.7818608E-02  0.1098219E+00
         -1   -1    0    0    0  501 -0.00000000000E+00  0.00000000000E+00  0.33653572999E+03  0.33653572999E+03  0.00000000000E+00 0. -1.
          1   -1    0    0  501    0  0.00000000000E+00 -0.00000000000E+00 -0.56349423991E+02  0.56349423991E+02  0.00000000000E+00 0. -1.
         35    2    1    2    0    0  0.00000000000E+00  0.00000000000E+00  0.28018630600E+03  0.39288515398E+03  0.27541673542E+03 0.  0.
         25    1    3    3    0    0 -0.53255230207E+02 -0.22397138107E+02  0.19003823757E+03  0.23206094691E+03  0.12000000000E+03 0.  0.
         25    1    3    3    0    0  0.53255230207E+02  0.22397138107E+02  0.90148068427E+02  0.16082420707E+03  0.12000000000E+03 0.  0.
<mgrwt>
<rscale>  0 0.27541674E+03</rscale>
<asrwt>0</asrwt>
<pdfrwt beam="1">  1        1 0.86691423E-02 0.27541674E+03</pdfrwt>
<pdfrwt beam="2">  1       -1 0.51774727E-01 0.27541674E+03</pdfrwt>
<totfact> 0.29881031E+03</totfact>
</mgrwt>
</event>
<event>
 5    1  0.1140254E+001  0.2750559E+03  0.7818608E-02  0.1098420E+00
          1   -1    0    0  501    0  0.00000000000E+00  0.00000000000E+00  0.31444609295E+03  0.31444609295E+03  0.00000000000E+00 0. -1.
         -1   -1    0    0    0  501 -0.00000000000E+00 -0.00000000000E+00 -0.60150036098E+02  0.60150036098E+02  0.00000000000E+00 0. -1.
         35    2    1    2    0    0  0.00000000000E+00  0.00000000000E+00  0.25429605686E+03  0.37459612905E+03  0.27505594952E+03 0.  0.
         25    1    3    3    0    0 -0.45103297469E+02 -0.47780203952E+02  0.14624795672E+03  0.20026412604E+03  0.12000000000E+03 0.  0.
         25    1    3    3    0    0  0.45103297469E+02  0.47780203952E+02  0.10804810013E+03  0.17433200301E+03  0.12000000000E+03 0.  0.
<mgrwt>
<rscale>  0 0.27505595E+03</rscale>
<asrwt>0</asrwt>
<pdfrwt beam="1">  1        1 0.48376321E-01 0.27505595E+03</pdfrwt>
<pdfrwt beam="2">  1       -1 0.92538519E-02 0.27505595E+03</pdfrwt>
<totfact> 0.56378660E+03</totfact>
</mgrwt>
</event>
<event>
 5    1  0.1140254E+001  0.2748222E+03  0.7818608E-02  0.1098551E+00
         -2   -1    0    0    0  501 -0.00000000000E+00  0.00000000000E+00  0.47668977522E+03  0.47668977522E+03  0.00000000000E+00 0. -1.
          2   -1    0    0  501    0  0.00000000000E+00 -0.00000000000E+00 -0.39610266153E+02  0.39610266153E+02  0.00000000000E+00 0. -1.
         35    2    1    2    0    0  0.00000000000E+00  0.00000000000E+00  0.43707950907E+03  0.51630004138E+03  0.27482218884E+03 0.  0.
         25    1    3    3    0    0 -0.24342482568E+02  0.16418521594E+02  0.10551183644E+03  0.16246498680E+03  0.12000000000E+03 0.  0.
         25    1    3    3    0    0  0.24342482568E+02 -0.16418521594E+02  0.33156767263E+03  0.35383505457E+03  0.12000000000E+03 0.  0.
<mgrwt>
<rscale>  0 0.27482219E+03</rscale>
<asrwt>0</asrwt>
<pdfrwt beam="1">  1        2 0.60938874E-02 0.27482219E+03</pdfrwt>
<pdfrwt beam="2">  1       -2 0.73336884E-01 0.27482219E+03</pdfrwt>
<totfact> 0.20827798E+03</totfact>
</mgrwt>
</event>
<event>
 5    1  0.1140254E+001  0.2753646E+03  0.7818608E-02  0.1098248E+00
          2   -1    0    0  501    0  0.00000000000E+00  0.00000000000E+00  0.25798466209E+04  0.25798466209E+04  0.00000000000E+00 0. -1.
         -2   -1    0    0    0  501 -0.00000000000E+00 -0.00000000000E+00 -0.73478836114E+01  0.73478836114E+01  0.00000000000E+00 0. -1.
         35    2    1    2    0    0  0.00000000000E+00  0.00000000000E+00  0.25724987373E+04  0.25871945045E+04  0.27536457801E+03 0.  0.
         25    1    3    3    0    0 -0.41335053402E+01 -0.43552096349E+02  0.80326626835E+03  0.81335758977E+03  0.12000000000E+03 0.  0.
         25    1    3    3    0    0  0.41335053402E+01  0.43552096349E+02  0.17692324689E+04  0.17738369147E+04  0.12000000000E+03 0.  0.
<mgrwt>
<rscale>  0 0.27536458E+03</rscale>
<asrwt>0</asrwt>
<pdfrwt beam="1">  1        2 0.39689876E+00 0.27536458E+03</pdfrwt>
<pdfrwt beam="2">  1       -2 0.11304457E-02 0.27536458E+03</pdfrwt>
<totfact> 0.64640620E+03</totfact>
</mgrwt>
</event>
<event>
 5    1  0.1140254E+001  0.2720493E+03  0.7818608E-02  0.1100112E+00
         -2   -1    0    0    0  501 -0.00000000000E+00  0.00000000000E+00  0.10347299463E+02  0.10347299463E+02  0.00000000000E+00 0.  1.
          2   -1    0    0  501    0  0.00000000000E+00 -0.00000000000E+00 -0.17881673914E+04  0.17881673914E+04  0.00000000000E+00 0.  1.
         35    2    1    2    0    0  0.00000000000E+00  0.00000000000E+00 -0.17778200919E+04  0.17985146909E+04  0.27204928590E+03 0.  0.
         25    1    3    3    0    0  0.49436302246E+02 -0.19773051944E+02 -0.11243004083E+04  0.11319391899E+04  0.12000000000E+03 0.  0.
         25    1    3    3    0    0 -0.49436302246E+02  0.19773051944E+02 -0.65351968363E+03  0.66657550094E+03  0.12000000000E+03 0.  0.
<mgrwt>
<rscale>  0 0.27204929E+03</rscale>
<asrwt>0</asrwt>
<pdfrwt beam="1">  1        2 0.27510261E+00 0.27204929E+03</pdfrwt>
<pdfrwt beam="2">  1       -2 0.15918926E-02 0.27204929E+03</pdfrwt>
<totfact> 0.10379219E+04</totfact>
</mgrwt>
</event>
<event>
 5    1  0.1140254E+001  0.2746902E+03  0.7818608E-02  0.1098625E+00
         -2   -1    0    0    0  501 -0.00000000000E+00  0.00000000000E+00  0.15272487426E+02  0.15272487426E+02  0.00000000000E+00 0.  1.
          2   -1    0    0  501    0  0.00000000000E+00 -0.00000000000E+00 -0.12351411193E+04  0.12351411193E+04  0.00000000000E+00 0.  1.
         35    2    1    2    0    0  0.00000000000E+00  0.00000000000E+00 -0.12198686319E+04  0.12504136068E+04  0.27469020524E+03 0.  0.
         25    1    3    3    0    0 -0.25585080873E+02 -0.61707378348E+02 -0.61508503461E+03  0.63023170081E+03  0.12000000000E+03 0.  0.
         25    1    3    3    0    0  0.25585080873E+02  0.61707378348E+02 -0.60478359731E+03  0.62018190596E+03  0.12000000000E+03 0.  0.
<mgrwt>
<rscale>  0 0.27469021E+03</rscale>
<asrwt>0</asrwt>
<pdfrwt beam="1">  1        2 0.19002168E+00 0.27469021E+03</pdfrwt>
<pdfrwt beam="2">  1       -2 0.23496138E-02 0.27469021E+03</pdfrwt>
<totfact> 0.11612651E+04</totfact>
</mgrwt>
</event>
<event>
 5    1  0.1140254E+001  0.2776139E+03  0.7818608E-02  0.1096999E+00
          2   -1    0    0  501    0  0.00000000000E+00  0.00000000000E+00  0.78021531677E+03  0.78021531677E+03  0.00000000000E+00 0. -1.
         -2   -1    0    0    0  501 -0.00000000000E+00 -0.00000000000E+00 -0.24694941926E+02  0.24694941926E+02  0.00000000000E+00 0. -1.
         35    2    1    2    0    0  0.00000000000E+00  0.00000000000E+00  0.75552037485E+03  0.80491025870E+03  0.27761391851E+03 0.  0.
         25    1    3    3    0    0 -0.31903638199E+01 -0.68038699431E+02  0.42153314785E+03  0.44354214881E+03  0.12000000000E+03 0.  0.
         25    1    3    3    0    0  0.31903638199E+01  0.68038699431E+02  0.33398722700E+03  0.36136810988E+03  0.12000000000E+03 0.  0.
<mgrwt>
<rscale>  0 0.27761392E+03</rscale>
<asrwt>0</asrwt>
<pdfrwt beam="1">  1        2 0.12003311E+00 0.27761392E+03</pdfrwt>
<pdfrwt beam="2">  1       -2 0.37992224E-02 0.27761392E+03</pdfrwt>
<totfact> 0.10848303E+04</totfact>
</mgrwt>
</event>
<event>
 5    1  0.1140254E+001  0.2746090E+03  0.7818608E-02  0.1098670E+00
          1   -1    0    0  501    0  0.00000000000E+00  0.00000000000E+00  0.18132215853E+03  0.18132215853E+03  0.00000000000E+00 0.  1.
         -1   -1    0    0    0  501 -0.00000000000E+00 -0.00000000000E+00 -0.10397257040E+03  0.10397257040E+03  0.00000000000E+00 0.  1.
         35    2    1    2    0    0  0.00000000000E+00  0.00000000000E+00  0.77349588129E+02  0.28529472892E+03  0.27460903767E+03 0.  0.
         25    1    3    3    0    0  0.31297237420E+02 -0.55563659249E+02  0.18271507296E+02  0.13711559094E+03  0.12000000000E+03 0.  0.
         25    1    3    3    0    0 -0.31297237420E+02  0.55563659249E+02  0.59078080833E+02  0.14817913799E+03  0.12000000000E+03 0.  0.
<mgrwt>
<rscale>  0 0.27460904E+03</rscale>
<asrwt>0</asrwt>
<pdfrwt beam="1">  1        1 0.27895717E-01 0.27460904E+03</pdfrwt>
<pdfrwt beam="2">  1       -1 0.15995780E-01 0.27460904E+03</pdfrwt>
<totfact> 0.47856601E+03</totfact>
</mgrwt>
</event>
<event>
 5    1  0.1140254E+001  0.2747465E+03  0.7818608E-02  0.1098593E+00
          1   -1    0    0  501    0  0.00000000000E+00  0.00000000000E+00  0.13301905191E+04  0.13301905191E+04  0.00000000000E+00 0.  1.
         -1   -1    0    0    0  501 -0.00000000000E+00 -0.00000000000E+00 -0.14187000983E+02  0.14187000983E+02  0.00000000000E+00 0.  1.
         35    2    1    2    0    0  0.00000000000E+00  0.00000000000E+00  0.13160035181E+04  0.13443775201E+04  0.27474653193E+03 0.  0.
         25    1    3    3    0    0  0.21649082558E+02  0.62355118570E+02  0.60562656520E+03  0.62091898028E+03  0.12000000000E+03 0.  0.
         25    1    3    3    0    0 -0.21649082558E+02 -0.62355118570E+02  0.71037695293E+03  0.72345853982E+03  0.12000000000E+03 0.  0.
<mgrwt>
<rscale>  0 0.27474653E+03</rscale>
<asrwt>0</asrwt>
<pdfrwt beam="1">  1        1 0.20464460E+00 0.27474653E+03</pdfrwt>
<pdfrwt beam="2">  1       -1 0.21826166E-02 0.27474653E+03</pdfrwt>
<totfact> 0.56128415E+03</totfact>
</mgrwt>
</event>
<event>
 5    1  0.1140254E+001  0.2745079E+03  0.7818608E-02  0.1098727E+00
         -1   -1    0    0    0  501 -0.00000000000E+00  0.00000000000E+00  0.35266778643E+02  0.35266778643E+02  0.00000000000E+00 0.  1.
          1   -1    0    0  501    0  0.00000000000E+00 -0.00000000000E+00 -0.53417534214E+03  0.53417534214E+03  0.00000000000E+00 0.  1.
         35    2    1    2    0    0  0.00000000000E+00  0.00000000000E+00 -0.49890856350E+03  0.56944212079E+03  0.27450787637E+03 0.  0.
         25    1    3    3    0    0  0.51097711159E+02  0.26576997465E+02 -0.31891857606E+03  0.34558120759E+03  0.12000000000E+03 0.  0.
         25    1    3    3    0    0 -0.51097711159E+02 -0.26576997465E+02 -0.17998998744E+03  0.22386091320E+03  0.12000000000E+03 0.  0.
<mgrwt>
<rscale>  0 0.27450788E+03</rscale>
<asrwt>0</asrwt>
<pdfrwt beam="1">  1        1 0.82180816E-01 0.27450788E+03</pdfrwt>
<pdfrwt beam="2">  1       -1 0.54256586E-02 0.27450788E+03</pdfrwt>
<totfact> 0.63966470E+03</totfact>
</mgrwt>
</event>
<event>
 5    1  0.1140254E+001  0.2752172E+03  0.7818608E-02  0.1098330E+00
          1   -1    0    0  501    0  0.00000000000E+00  0.00000000000E+00  0.38557708440E+03  0.38557708440E+03  0.00000000000E+00 0. -1.
         -1   -1    0    0    0  501 -0.00000000000E+00 -0.00000000000E+00 -0.49111134749E+02  0.49111134749E+02  0.00000000000E+00 0. -1.
         35    2    1    2    0    0  0.00000000000E+00  0.00000000000E+00  0.33646594965E+03  0.43468821915E+03  0.27521720984E+03 0.  0.
         25    1    3    3    0    0 -0.14250184261E+02  0.55576044540E+02  0.11251748614E+03  0.17421810803E+03  0.12000000000E+03 0.  0.
         25    1    3    3    0    0  0.14250184261E+02 -0.55576044540E+02  0.22394846351E+03  0.26047011112E+03  0.12000000000E+03 0.  0.
<mgrwt>
<rscale>  0 0.27521721E+03</rscale>
<asrwt>0</asrwt>
<pdfrwt beam="1">  1        1 0.59319550E-01 0.27521721E+03</pdfrwt>
<pdfrwt beam="2">  1       -1 0.75555594E-02 0.27521721E+03</pdfrwt>
<totfact> 0.59376963E+03</totfact>
</mgrwt>
</event>
<event>
 5    1  0.1140254E+001  0.2761619E+03  0.7818608E-02  0.1097804E+00
          1   -1    0    0  501    0  0.00000000000E+00  0.00000000000E+00  0.65432189337E+03  0.65432189337E+03  0.00000000000E+00 0.  1.
         -1   -1    0    0    0  501 -0.00000000000E+00 -0.00000000000E+00 -0.29139091242E+02  0.29139091242E+02  0.00000000000E+00 0.  1.
         35    2    1    2    0    0  0.00000000000E+00  0.00000000000E+00  0.62518280213E+03  0.68346098461E+03  0.27616187537E+03 0.  0.
         25    1    3    3    0    0 -0.27865624857E+02  0.61046932921E+02  0.28098250600E+03  0.31281686295E+03  0.12000000000E+03 0.  0.
         25    1    3    3    0    0  0.27865624857E+02 -0.61046932921E+02  0.34420029613E+03  0.37064412166E+03  0.12000000000E+03 0.  0.
<mgrwt>
<rscale>  0 0.27616188E+03</rscale>
<asrwt>0</asrwt>
<pdfrwt beam="1">  1        1 0.10066490E+00 0.27616188E+03</pdfrwt>
<pdfrwt beam="2">  1       -1 0.44829376E-02 0.27616188E+03</pdfrwt>
<totfact> 0.64294969E+03</totfact>
</mgrwt>
</event>
<event>
 5    1  0.1140254E+001  0.2771288E+03  0.7818608E-02  0.1097268E+00
         -1   -1    0    0    0  501 -0.00000000000E+00  0.00000000000E+00  0.92416733576E+03  0.92416733576E+03  0.00000000000E+00 0. -1.
          1   -1    0    0  501    0  0.00000000000E+00 -0.00000000000E+00 -0.20775554828E+02  0.20775554828E+02  0.00000000000E+00 0. -1.
         35    2    1    2    0    0  0.00000000000E+00  0.00000000000E+00  0.90339178094E+03  0.94494289059E+03  0.27712877263E+03 0.  0.
         25    1    3    3    0    0 -0.64865182182E+02  0.19582683215E+02  0.50100388975E+03  0.51961126901E+03  0.12000000000E+03 0.  0.
         25    1    3    3    0    0  0.64865182182E+02 -0.19582683215E+02  0.40238789119E+03  0.42533162158E+03  0.12000000000E+03 0.  0.
<mgrwt>
<rscale>  0 0.27712877E+03</rscale>
<asrwt>0</asrwt>
<pdfrwt beam="1">  1        1 0.31962399E-02 0.27712877E+03</pdfrwt>
<pdfrwt beam="2">  1       -1 0.14217956E+00 0.27712877E+03</pdfrwt>
<totfact> 0.13542471E+03</totfact>
</mgrwt>
</event>
<event>
 5    1  0.1140254E+001  0.2658401E+03  0.7818608E-02  0.1103684E+00
         -3   -1    0    0    0  501 -0.00000000000E+00  0.00000000000E+00  0.13533418049E+04  0.13533418049E+04  0.00000000000E+00 0.  1.
          3   -1    0    0  501    0  0.00000000000E+00 -0.00000000000E+00 -0.13054894723E+02  0.13054894723E+02  0.00000000000E+00 0.  1.
         35    2    1    2    0    0  0.00000000000E+00  0.00000000000E+00  0.13402869101E+04  0.13663966996E+04  0.26584006310E+03 0.  0.
         25    1    3    3    0    0 -0.47869783178E+02  0.26895513876E+02  0.75187464726E+03  0.76336778161E+03  0.12000000000E+03 0.  0.
         25    1    3    3    0    0  0.47869783178E+02 -0.26895513876E+02  0.58841226288E+03  0.60302891798E+03  0.12000000000E+03 0.  0.
<mgrwt>
<rscale>  0 0.26584006E+03</rscale>
<asrwt>0</asrwt>
<pdfrwt beam="1">  1        3 0.20084464E-02 0.26584006E+03</pdfrwt>
<pdfrwt beam="2">  1       -3 0.20820632E+00 0.26584006E+03</pdfrwt>
<totfact> 0.34024343E+02</totfact>
</mgrwt>
</event>
<event>
 5    1  0.1140254E+001  0.2746740E+03  0.7818608E-02  0.1098634E+00
         -2   -1    0    0    0  501 -0.00000000000E+00  0.00000000000E+00  0.89909382037E+01  0.89909382037E+01  0.00000000000E+00 0. -1.
          2   -1    0    0  501    0  0.00000000000E+00 -0.00000000000E+00 -0.20978290259E+04  0.20978290259E+04  0.00000000000E+00 0. -1.
         35    2    1    2    0    0  0.00000000000E+00  0.00000000000E+00 -0.20888380877E+04  0.21068199641E+04  0.27467399683E+03 0.  0.
         25    1    3    3    0    0  0.25248465548E+02  0.20037071864E+02 -0.14931442402E+04  0.14983052730E+04  0.12000000000E+03 0.  0.
         25    1    3    3    0    0 -0.25248465548E+02 -0.20037071864E+02 -0.59569384751E+03  0.60851469105E+03  0.12000000000E+03 0.  0.
<mgrwt>
<rscale>  0 0.27467400E+03</rscale>
<asrwt>0</asrwt>
<pdfrwt beam="1">  1        2 0.32274256E+00 0.27467400E+03</pdfrwt>
<pdfrwt beam="2">  1       -2 0.13832228E-02 0.27467400E+03</pdfrwt>
<totfact> 0.87631697E+03</totfact>
</mgrwt>
</event>
<event>
 5    1  0.1140254E+001  0.2759399E+03  0.7818608E-02  0.1097927E+00
          2   -1    0    0  501    0  0.00000000000E+00  0.00000000000E+00  0.76110050317E+03  0.76110050317E+03  0.00000000000E+00 0.  1.
         -2   -1    0    0    0  501 -0.00000000000E+00 -0.00000000000E+00 -0.25010759139E+02  0.25010759139E+02  0.00000000000E+00 0.  1.
         35    2    1    2    0    0  0.00000000000E+00  0.00000000000E+00  0.73608974403E+03  0.78611126231E+03  0.27593985842E+03 0.  0.
         25    1    3    3    0    0  0.19308482614E+02  0.37832740265E+02  0.51963923434E+03  0.53500380148E+03  0.12000000000E+03 0.  0.
         25    1    3    3    0    0 -0.19308482614E+02 -0.37832740265E+02  0.21645050969E+03  0.25110746083E+03  0.12000000000E+03 0.  0.
<mgrwt>
<rscale>  0 0.27593986E+03</rscale>
<asrwt>0</asrwt>
<pdfrwt beam="1">  1        2 0.11709237E+00 0.27593986E+03</pdfrwt>
<pdfrwt beam="2">  1       -2 0.38478097E-02 0.27593986E+03</pdfrwt>
<totfact> 0.10977462E+04</totfact>
</mgrwt>
</event>
<event>
 5    1  0.1140254E+001  0.2743846E+03  0.7818608E-02  0.1098796E+00
         -2   -1    0    0    0  501 -0.00000000000E+00  0.00000000000E+00  0.46688662053E+02  0.46688662053E+02  0.00000000000E+00 0. -1.
          2   -1    0    0  501    0  0.00000000000E+00 -0.00000000000E+00 -0.40313274974E+03  0.40313274974E+03  0.00000000000E+00 0. -1.
         35    2    1    2    0    0  0.00000000000E+00  0.00000000000E+00 -0.35644408768E+03  0.44982141179E+03  0.27438461119E+03 0.  0.
         25    1    3    3    0    0  0.63088451230E+02 -0.20903465371E+02 -0.18174621048E+03  0.22770329942E+03  0.12000000000E+03 0.  0.
         25    1    3    3    0    0 -0.63088451230E+02  0.20903465371E+02 -0.17469787720E+03  0.22211811237E+03  0.12000000000E+03 0.  0.
<mgrwt>
<rscale>  0 0.27438461E+03</rscale>
<asrwt>0</asrwt>
<pdfrwt beam="1">  1        2 0.62020426E-01 0.27438461E+03</pdfrwt>
<pdfrwt beam="2">  1       -2 0.71828708E-02 0.27438461E+03</pdfrwt>
<totfact> 0.87999625E+03</totfact>
</mgrwt>
</event>
<event>
 5    1  0.1140254E+001  0.2732976E+03  0.7818608E-02  0.1099407E+00
          2   -1    0    0  501    0  0.00000000000E+00  0.00000000000E+00  0.51523253030E+03  0.51523253030E+03  0.00000000000E+00 0. -1.
         -2   -1    0    0    0  501 -0.00000000000E+00 -0.00000000000E+00 -0.36241675256E+02  0.36241675256E+02  0.00000000000E+00 0. -1.
         35    2    1    2    0    0  0.00000000000E+00  0.00000000000E+00  0.47899085504E+03  0.55147420555E+03  0.27329756709E+03 0.  0.
         25    1    3    3    0    0  0.54612692099E+02  0.70982533418E+01  0.31055016662E+03  0.33745271865E+03  0.12000000000E+03 0.  0.
         25    1    3    3    0    0 -0.54612692099E+02 -0.70982533418E+01  0.16844068842E+03  0.21402148690E+03  0.12000000000E+03 0.  0.
<mgrwt>
<rscale>  0 0.27329757E+03</rscale>
<asrwt>0</asrwt>
<pdfrwt beam="1">  1        2 0.79266538E-01 0.27329757E+03</pdfrwt>
<pdfrwt beam="2">  1       -2 0.55756427E-02 0.27329757E+03</pdfrwt>
<totfact> 0.99103169E+03</totfact>
</mgrwt>
</event>
<event>
 5    1  0.1140254E+001  0.2750096E+03  0.7818608E-02  0.1098446E+00
          1   -1    0    0  501    0  0.00000000000E+00  0.00000000000E+00  0.76930272668E+02  0.76930272668E+02  0.00000000000E+00 0.  1.
         -1   -1    0    0    0  501 -0.00000000000E+00 -0.00000000000E+00 -0.24577544833E+03  0.24577544833E+03  0.00000000000E+00 0.  1.
         35    2    1    2    0    0  0.00000000000E+00  0.00000000000E+00 -0.16884517566E+03  0.32270572100E+03  0.27500961623E+03 0.  0.
         25    1    3    3    0    0 -0.59865261891E+02 -0.18299822277E+02 -0.55948020498E+02  0.14645447782E+03  0.12000000000E+03 0.  0.
         25    1    3    3    0    0  0.59865261891E+02  0.18299822277E+02 -0.11289715516E+03  0.17625124317E+03  0.12000000000E+03 0.  0.
<mgrwt>
<rscale>  0 0.27500962E+03</rscale>
<asrwt>0</asrwt>
<pdfrwt beam="1">  1        1 0.11835426E-01 0.27500962E+03</pdfrwt>
<pdfrwt beam="2">  1       -1 0.37811608E-01 0.27500962E+03</pdfrwt>
<totfact> 0.34719213E+03</totfact>
</mgrwt>
</event>
<event>
 5    1  0.1140254E+001  0.2751121E+03  0.7818608E-02  0.1098389E+00
          1   -1    0    0  501    0  0.00000000000E+00  0.00000000000E+00  0.21268057322E+04  0.21268057322E+04  0.00000000000E+00 0.  1.
         -1   -1    0    0    0  501 -0.00000000000E+00 -0.00000000000E+00 -0.88967536999E+01  0.88967536999E+01  0.00000000000E+00 0.  1.
         35    2    1    2    0    0  0.00000000000E+00  0.00000000000E+00  0.21179089785E+04  0.21357024859E+04  0.27511209909E+03 0.  0.
         25    1    3    3    0    0  0.33262063195E+01  0.14518955796E+02  0.15679985139E+04  0.15726541906E+04  0.12000000000E+03 0.  0.
         25    1    3    3    0    0 -0.33262063195E+01 -0.14518955796E+02  0.54991046463E+03  0.56304829529E+03  0.12000000000E+03 0.  0.
<mgrwt>
<rscale>  0 0.27511210E+03</rscale>
<asrwt>0</asrwt>
<pdfrwt beam="1">  1        1 0.32720048E+00 0.27511210E+03</pdfrwt>
<pdfrwt beam="2">  1       -1 0.13687330E-02 0.27511210E+03</pdfrwt>
<totfact> 0.33275627E+03</totfact>
</mgrwt>
</event>
<event>
 5    1  0.1140254E+001  0.2750710E+03  0.7818608E-02  0.1098412E+00
          2   -1    0    0  501    0  0.00000000000E+00  0.00000000000E+00  0.27946104620E+04  0.27946104620E+04  0.00000000000E+00 0.  1.
         -2   -1    0    0    0  501 -0.00000000000E+00 -0.00000000000E+00 -0.67687473251E+01  0.67687473251E+01  0.00000000000E+00 0.  1.
         35    2    1    2    0    0  0.00000000000E+00  0.00000000000E+00  0.27878417147E+04  0.28013792094E+04  0.27507098785E+03 0.  0.
         25    1    3    3    0    0 -0.27574730584E+02 -0.28528895106E+02  0.84155111358E+03  0.85098915409E+03  0.12000000000E+03 0.  0.
         25    1    3    3    0    0  0.27574730584E+02  0.28528895106E+02  0.19462906011E+04  0.19503900553E+04  0.12000000000E+03 0.  0.
<mgrwt>
<rscale>  0 0.27507099E+03</rscale>
<asrwt>0</asrwt>
<pdfrwt beam="1">  1        2 0.42993915E+00 0.27507099E+03</pdfrwt>
<pdfrwt beam="2">  1       -2 0.10413480E-02 0.27507099E+03</pdfrwt>
<totfact> 0.55155845E+03</totfact>
</mgrwt>
</event>
<event>
 5    1  0.1140254E+001  0.2730451E+03  0.7818608E-02  0.1099549E+00
         -2   -1    0    0    0  501 -0.00000000000E+00  0.00000000000E+00  0.17940624583E+02  0.17940624583E+02  0.00000000000E+00 0.  1.
          2   -1    0    0  501    0  0.00000000000E+00 -0.00000000000E+00 -0.10388937422E+04  0.10388937422E+04  0.00000000000E+00 0.  1.
         35    2    1    2    0    0  0.00000000000E+00  0.00000000000E+00 -0.10209531176E+04  0.10568343668E+04  0.27304507034E+03 0.  0.
         25    1    3    3    0    0 -0.27395879560E+02 -0.26896754080E+02 -0.30697130635E+03  0.33182126593E+03  0.12000000000E+03 0.  0.
         25    1    3    3    0    0  0.27395879560E+02  0.26896754080E+02 -0.71398181124E+03  0.72501310083E+03  0.12000000000E+03 0.  0.
<mgrwt>
<rscale>  0 0.27304507E+03</rscale>
<asrwt>0</asrwt>
<pdfrwt beam="1">  1        2 0.15982979E+00 0.27304507E+03</pdfrwt>
<pdfrwt beam="2">  1       -2 0.27600964E-02 0.27304507E+03</pdfrwt>
<totfact> 0.11891531E+04</totfact>
</mgrwt>
</event>
<event>
 5    1  0.1140254E+001  0.2748978E+03  0.7818608E-02  0.1098509E+00
         -1   -1    0    0    0  501 -0.00000000000E+00  0.00000000000E+00  0.11435179320E+02  0.11435179320E+02  0.00000000000E+00 0.  1.
          1   -1    0    0  501    0  0.00000000000E+00 -0.00000000000E+00 -0.16521122865E+04  0.16521122865E+04  0.00000000000E+00 0.  1.
         35    2    1    2    0    0  0.00000000000E+00  0.00000000000E+00 -0.16406771072E+04  0.16635474658E+04  0.27489780103E+03 0.  0.
         25    1    3    3    0    0  0.58421867694E+02  0.10068536278E+02 -0.10095594107E+04  0.10183931921E+04  0.12000000000E+03 0.  0.
         25    1    3    3    0    0 -0.58421867694E+02 -0.10068536278E+02 -0.63111769646E+03  0.64515427366E+03  0.12000000000E+03 0.  0.
<mgrwt>
<rscale>  0 0.27489780E+03</rscale>
<asrwt>0</asrwt>
<pdfrwt beam="1">  1        1 0.25417096E+00 0.27489780E+03</pdfrwt>
<pdfrwt beam="2">  1       -1 0.17592595E-02 0.27489780E+03</pdfrwt>
<totfact> 0.46998715E+03</totfact>
</mgrwt>
</event>
<event>
 5    1  0.1140254E+001  0.2746426E+03  0.7818608E-02  0.1098652E+00
         -1   -1    0    0    0  501 -0.00000000000E+00  0.00000000000E+00  0.63457373504E+03  0.63457373504E+03  0.00000000000E+00 0.  1.
          1   -1    0    0  501    0  0.00000000000E+00 -0.00000000000E+00 -0.29716230666E+02  0.29716230666E+02  0.00000000000E+00 0.  1.
         35    2    1    2    0    0  0.00000000000E+00  0.00000000000E+00  0.60485750437E+03  0.66428996570E+03  0.27464260037E+03 0.  0.
         25    1    3    3    0    0  0.39339330443E+02 -0.47271896527E+02  0.23959147723E+03  0.27492961114E+03  0.12000000000E+03 0.  0.
         25    1    3    3    0    0 -0.39339330443E+02  0.47271896527E+02  0.36526602714E+03  0.38936035456E+03  0.12000000000E+03 0.  0.
<mgrwt>
<rscale>  0 0.27464260E+03</rscale>
<asrwt>0</asrwt>
<pdfrwt beam="1">  1        1 0.45717283E-02 0.27464260E+03</pdfrwt>
<pdfrwt beam="2">  1       -1 0.97626718E-01 0.27464260E+03</pdfrwt>
<totfact> 0.20031658E+03</totfact>
</mgrwt>
</event>
<event>
 5    1  0.1140254E+001  0.2733933E+03  0.7818608E-02  0.1099353E+00
          2   -1    0    0  501    0  0.00000000000E+00  0.00000000000E+00  0.46829852415E+03  0.46829852415E+03  0.00000000000E+00 0. -1.
         -2   -1    0    0    0  501 -0.00000000000E+00 -0.00000000000E+00 -0.39901841889E+02  0.39901841889E+02  0.00000000000E+00 0. -1.
         35    2    1    2    0    0  0.00000000000E+00  0.00000000000E+00  0.42839668226E+03  0.50820036604E+03  0.27339329668E+03 0.  0.
         25    1    3    3    0    0  0.19215015314E+02  0.16676481354E+02  0.32632718956E+03  0.34862122209E+03  0.12000000000E+03 0.  0.
         25    1    3    3    0    0 -0.19215015314E+02 -0.16676481354E+02  0.10206949270E+03  0.15957914395E+03  0.12000000000E+03 0.  0.
<mgrwt>
<rscale>  0 0.27339330E+03</rscale>
<asrwt>0</asrwt>
<pdfrwt beam="1">  1        2 0.72045923E-01 0.27339330E+03</pdfrwt>
<pdfrwt beam="2">  1       -2 0.61387452E-02 0.27339330E+03</pdfrwt>
<totfact> 0.95138622E+03</totfact>
</mgrwt>
</event>
<event>
 5    1  0.1140254E+001  0.2739975E+03  0.7818608E-02  0.1099013E+00
          2   -1    0    0  501    0  0.00000000000E+00  0.00000000000E+00  0.87081586595E+03  0.87081586595E+03  0.00000000000E+00 0. -1.
         -2   -1    0    0    0  501 -0.00000000000E+00 -0.00000000000E+00 -0.21552961682E+02  0.21552961682E+02  0.00000000000E+00 0. -1.
         35    2    1    2    0    0  0.00000000000E+00  0.00000000000E+00  0.84926290427E+03  0.89236882764E+03  0.27399752547E+03 0.  0.
         25    1    3    3    0    0  0.52084033517E+02  0.13917754363E+02  0.54916968758E+03  0.56470682322E+03  0.12000000000E+03 0.  0.
         25    1    3    3    0    0 -0.52084033517E+02 -0.13917754363E+02  0.30009321669E+03  0.32766200442E+03  0.12000000000E+03 0.  0.
<mgrwt>
<rscale>  0 0.27399753E+03</rscale>
<asrwt>0</asrwt>
<pdfrwt beam="1">  1        2 0.13397164E+00 0.27399753E+03</pdfrwt>
<pdfrwt beam="2">  1       -2 0.33158409E-02 0.27399753E+03</pdfrwt>
<totfact> 0.11538740E+04</totfact>
</mgrwt>
</event>
<event>
 5    1  0.1140254E+001  0.2744062E+03  0.7818608E-02  0.1098784E+00
          1   -1    0    0  501    0  0.00000000000E+00  0.00000000000E+00  0.11056347181E+03  0.11056347181E+03  0.00000000000E+00 0.  1.
         -1   -1    0    0    0  501 -0.00000000000E+00 -0.00000000000E+00 -0.17026140275E+03  0.17026140275E+03  0.00000000000E+00 0.  1.
         35    2    1    2    0    0  0.00000000000E+00  0.00000000000E+00 -0.59697930938E+02  0.28082487456E+03  0.27440620841E+03 0.  0.
         25    1    3    3    0    0  0.64222029092E+02  0.15769179832E+02 -0.37197152374E+02  0.14197451954E+03  0.12000000000E+03 0.  0.
         25    1    3    3    0    0 -0.64222029092E+02 -0.15769179832E+02 -0.22500778564E+02  0.13885035502E+03  0.12000000000E+03 0.  0.
<mgrwt>
<rscale>  0 0.27440621E+03</rscale>
<asrwt>0</asrwt>
<pdfrwt beam="1">  1        1 0.17009765E-01 0.27440621E+03</pdfrwt>
<pdfrwt beam="2">  1       -1 0.26194062E-01 0.27440621E+03</pdfrwt>
<totfact> 0.40388857E+03</totfact>
</mgrwt>
</event>
<event>
 5    1  0.1140254E+001  0.2761202E+03  0.7818608E-02  0.1097827E+00
         -1   -1    0    0    0  501 -0.00000000000E+00  0.00000000000E+00  0.24008246593E+02  0.24008246593E+02  0.00000000000E+00 0.  1.
          1   -1    0    0  501    0  0.00000000000E+00 -0.00000000000E+00 -0.79391853362E+03  0.79391853362E+03  0.00000000000E+00 0.  1.
         35    2    1    2    0    0  0.00000000000E+00  0.00000000000E+00 -0.76991028703E+03  0.81792678021E+03  0.27612020520E+03 0.  0.
         25    1    3    3    0    0 -0.87269591272E+01 -0.67707441913E+02 -0.38604120433E+03  0.40998569359E+03  0.12000000000E+03 0.  0.
         25    1    3    3    0    0  0.87269591272E+01  0.67707441913E+02 -0.38386908269E+03  0.40794108662E+03  0.12000000000E+03 0.  0.
<mgrwt>
<rscale>  0 0.27612021E+03</rscale>
<asrwt>0</asrwt>
<pdfrwt beam="1">  1        1 0.12214129E+00 0.27612021E+03</pdfrwt>
<pdfrwt beam="2">  1       -1 0.36935771E-02 0.27612021E+03</pdfrwt>
<totfact> 0.64460233E+03</totfact>
</mgrwt>
</event>
<event>
 5    1  0.1140254E+001  0.2771834E+03  0.7818608E-02  0.1097237E+00
          2   -1    0    0  501    0  0.00000000000E+00  0.00000000000E+00  0.27549326366E+02  0.27549326366E+02  0.00000000000E+00 0.  1.
         -2   -1    0    0    0  501 -0.00000000000E+00 -0.00000000000E+00 -0.69720956728E+03  0.69720956728E+03  0.00000000000E+00 0.  1.
         35    2    1    2    0    0  0.00000000000E+00  0.00000000000E+00 -0.66966024091E+03  0.72475889364E+03  0.27718336107E+03 0.  0.
         25    1    3    3    0    0  0.89304636458E+01  0.25636783690E+02 -0.16800609322E+03  0.20823795336E+03  0.12000000000E+03 0.  0.
         25    1    3    3    0    0 -0.89304636458E+01 -0.25636783690E+02 -0.50165414769E+03  0.51652094028E+03  0.12000000000E+03 0.  0.
<mgrwt>
<rscale>  0 0.27718336E+03</rscale>
<asrwt>0</asrwt>
<pdfrwt beam="1">  1        2 0.42383585E-02 0.27718336E+03</pdfrwt>
<pdfrwt beam="2">  1       -2 0.10726299E+00 0.27718336E+03</pdfrwt>
<totfact> 0.14250862E+03</totfact>
</mgrwt>
</event>
<event>
 5    1  0.1140254E+001  0.2743034E+03  0.7818608E-02  0.1098842E+00
          2   -1    0    0  501    0  0.00000000000E+00  0.00000000000E+00  0.15910880397E+04  0.15910880397E+04  0.00000000000E+00 0.  1.
         -2   -1    0    0    0  501 -0.00000000000E+00 -0.00000000000E+00 -0.11822466630E+02  0.11822466630E+02  0.00000000000E+00 0.  1.
         35    2    1    2    0    0  0.00000000000E+00  0.00000000000E+00  0.15792655731E+04  0.16029105063E+04  0.27430337405E+03 0.  0.
         25    1    3    3    0    0  0.53118377642E+02  0.37167776291E+02  0.70544085393E+03  0.71850525679E+03  0.12000000000E+03 0.  0.
         25    1    3    3    0    0 -0.53118377642E+02 -0.37167776291E+02  0.87382471914E+03  0.88440524954E+03  0.12000000000E+03 0.  0.
<mgrwt>
<rscale>  0 0.27430337E+03</rscale>
<asrwt>0</asrwt>
<pdfrwt beam="1">  1        2 0.24478261E+00 0.27430337E+03</pdfrwt>
<pdfrwt beam="2">  1       -2 0.18188423E-02 0.27430337E+03</pdfrwt>
<totfact> 0.10845404E+04</totfact>
</mgrwt>
</event>
<event>
 5    1  0.1140254E+001  0.2744879E+03  0.7818608E-02  0.1098738E+00
          4   -1    0    0  501    0  0.00000000000E+00  0.00000000000E+00  0.31499881435E+02  0.31499881435E+02  0.00000000000E+00 0. -1.
         -4   -1    0    0    0  501 -0.00000000000E+00 -0.00000000000E+00 -0.59796717444E+03  0.59796717444E+03  0.00000000000E+00 0. -1.
         35    2    1    2    0    0  0.00000000000E+00  0.00000000000E+00 -0.56646729300E+03  0.62946705587E+03  0.27448785107E+03 0.  0.
         25    1    3    3    0    0 -0.60905872545E+01  0.33160601051E+02 -0.41495388671E+03  0.43327064152E+03  0.12000000000E+03 0.  0.
         25    1    3    3    0    0  0.60905872545E+01 -0.33160601051E+02 -0.15151340630E+03  0.19619641435E+03  0.12000000000E+03 0.  0.
<mgrwt>
<rscale>  0 0.27448785E+03</rscale>
<asrwt>0</asrwt>
<pdfrwt beam="1">  1        4 0.48461358E-02 0.27448785E+03</pdfrwt>
<pdfrwt beam="2">  1       -4 0.91994947E-01 0.27448785E+03</pdfrwt>
<totfact> 0.48714883E+02</totfact>
</mgrwt>
</event>
<event>
 5    1  0.1140254E+001  0.2748738E+03  0.7818608E-02  0.1098522E+00
          1   -1    0    0  501    0  0.00000000000E+00  0.00000000000E+00  0.31389883922E+03  0.31389883922E+03  0.00000000000E+00 0. -1.
         -1   -1    0    0    0  501 -0.00000000000E+00 -0.00000000000E+00 -0.60175113792E+02  0.60175113792E+02  0.00000000000E+00 0. -1.
         35    2    1    2    0    0  0.00000000000E+00  0.00000000000E+00  0.25372372543E+03  0.37407395301E+03  0.27487377735E+03 0.  0.
         25    1    3    3    0    0  0.47404023781E+02  0.27012612049E+02  0.17978077682E+03  0.22293037118E+03  0.12000000000E+03 0.  0.
         25    1    3    3    0    0 -0.47404023781E+02 -0.27012612049E+02  0.73942948607E+02  0.15114358183E+03  0.12000000000E+03 0.  0.
<mgrwt>
<rscale>  0 0.27487378E+03</rscale>
<asrwt>0</asrwt>
<pdfrwt beam="1">  1        1 0.48292128E-01 0.27487378E+03</pdfrwt>
<pdfrwt beam="2">  1       -1 0.92577100E-02 0.27487378E+03</pdfrwt>
<totfact> 0.56465080E+03</totfact>
</mgrwt>
</event>
<event>
 5    1  0.1140254E+001  0.2756911E+03  0.7818608E-02  0.1098066E+00
         -2   -1    0    0    0  501 -0.00000000000E+00  0.00000000000E+00  0.87488356539E+02  0.87488356539E+02  0.00000000000E+00 0.  1.
          2   -1    0    0  501    0  0.00000000000E+00 -0.00000000000E+00 -0.21718771106E+03  0.21718771106E+03  0.00000000000E+00 0.  1.
         35    2    1    2    0    0  0.00000000000E+00  0.00000000000E+00 -0.12969935452E+03  0.30467606760E+03  0.27569110179E+03 0.  0.
         25    1    3    3    0    0 -0.23484331107E+02  0.52172579780E+02 -0.24578072657E+02  0.13519457661E+03  0.12000000000E+03 0.  0.
         25    1    3    3    0    0  0.23484331107E+02 -0.52172579780E+02 -0.10512128187E+03  0.16948149099E+03  0.12000000000E+03 0.  0.
<mgrwt>
<rscale>  0 0.27569110E+03</rscale>
<asrwt>0</asrwt>
<pdfrwt beam="1">  1        2 0.33413493E-01 0.27569110E+03</pdfrwt>
<pdfrwt beam="2">  1       -2 0.13459748E-01 0.27569110E+03</pdfrwt>
<totfact> 0.63291215E+03</totfact>
</mgrwt>
</event>
<event>
 5    1  0.1140254E+001  0.2743044E+03  0.7818608E-02  0.1098841E+00
         -2   -1    0    0    0  501 -0.00000000000E+00  0.00000000000E+00  0.23398790360E+03  0.23398790360E+03  0.00000000000E+00 0.  1.
          2   -1    0    0  501    0  0.00000000000E+00 -0.00000000000E+00 -0.80391865832E+02  0.80391865832E+02  0.00000000000E+00 0.  1.
         35    2    1    2    0    0  0.00000000000E+00  0.00000000000E+00  0.15359603777E+03  0.31437976943E+03  0.27430438679E+03 0.  0.
         25    1    3    3    0    0 -0.28057598810E+02  0.44051851329E+01  0.79930773104E+01  0.12357396082E+03  0.12000000000E+03 0.  0.
         25    1    3    3    0    0  0.28057598810E+02 -0.44051851329E+01  0.14560296046E+03  0.19080580861E+03  0.12000000000E+03 0.  0.
<mgrwt>
<rscale>  0 0.27430439E+03</rscale>
<asrwt>0</asrwt>
<pdfrwt beam="1">  1        2 0.12367979E-01 0.27430439E+03</pdfrwt>
<pdfrwt beam="2">  1       -2 0.35998139E-01 0.27430439E+03</pdfrwt>
<totfact> 0.35688640E+03</totfact>
</mgrwt>
</event>
<event>
 5    1  0.1140254E+001  0.2768506E+03  0.7818608E-02  0.1097422E+00
         -4   -1    0    0    0  501 -0.00000000000E+00  0.00000000000E+00  0.83915371210E+02  0.83915371210E+02  0.00000000000E+00 0.  1.
          4   -1    0    0  501    0  0.00000000000E+00 -0.00000000000E+00 -0.22834389457E+03  0.22834389457E+03  0.00000000000E+00 0.  1.
         35    2    1    2    0    0  0.00000000000E+00  0.00000000000E+00 -0.14442852336E+03  0.31225926578E+03  0.27685059275E+03 0.  0.
         25    1    3    3    0    0 -0.33214081118E+02  0.53182347034E+02 -0.39719333422E+02  0.14109983228E+03  0.12000000000E+03 0.  0.
         25    1    3    3    0    0  0.33214081118E+02 -0.53182347034E+02 -0.10470918994E+03  0.17115943351E+03  0.12000000000E+03 0.  0.
<mgrwt>
<rscale>  0 0.27685059E+03</rscale>
<asrwt>0</asrwt>
<pdfrwt beam="1">  1        4 0.35129830E-01 0.27685059E+03</pdfrwt>
<pdfrwt beam="2">  1       -4 0.12910057E-01 0.27685059E+03</pdfrwt>
<totfact> 0.72139218E+02</totfact>
</mgrwt>
</event>
<event>
 5    1  0.1140254E+001  0.2762860E+03  0.7818608E-02  0.1097735E+00
          1   -1    0    0  501    0  0.00000000000E+00  0.00000000000E+00  0.54301557497E+03  0.54301557497E+03  0.00000000000E+00 0. -1.
         -1   -1    0    0    0  501 -0.00000000000E+00 -0.00000000000E+00 -0.35143538514E+02  0.35143538514E+02  0.00000000000E+00 0. -1.
         35    2    1    2    0    0  0.00000000000E+00  0.00000000000E+00  0.50787203645E+03  0.57815911348E+03  0.27628600234E+03 0.  0.
         25    1    3    3    0    0  0.25423128061E+02 -0.45304874222E+02  0.34715993838E+03  0.37097020081E+03  0.12000000000E+03 0.  0.
         25    1    3    3    0    0 -0.25423128061E+02  0.45304874222E+02  0.16071209807E+03  0.20718891267E+03  0.12000000000E+03 0.  0.
<mgrwt>
<rscale>  0 0.27628600E+03</rscale>
<asrwt>0</asrwt>
<pdfrwt beam="1">  1        1 0.83540851E-01 0.27628600E+03</pdfrwt>
<pdfrwt beam="2">  1       -1 0.54066986E-02 0.27628600E+03</pdfrwt>
<totfact> 0.62906148E+03</totfact>
</mgrwt>
</event>
<event>
 5    1  0.1140254E+001  0.2747397E+03  0.7818608E-02  0.1098597E+00
         -2   -1    0    0    0  501 -0.00000000000E+00  0.00000000000E+00  0.88525751254E+01  0.88525751254E+01  0.00000000000E+00 0.  1.
          2   -1    0    0  501    0  0.00000000000E+00 -0.00000000000E+00 -0.21316369804E+04  0.21316369804E+04  0.00000000000E+00 0.  1.
         35    2    1    2    0    0  0.00000000000E+00  0.00000000000E+00 -0.21227844052E+04  0.21404895555E+04  0.27473970597E+03 0.  0.
         25    1    3    3    0    0  0.19542101341E+01  0.66190082441E+02 -0.98933915802E+03  0.99878772296E+03  0.12000000000E+03 0.  0.
         25    1    3    3    0    0 -0.19542101341E+01 -0.66190082441E+02 -0.11334452472E+04  0.11417018325E+04  0.12000000000E+03 0.  0.
<mgrwt>
<rscale>  0 0.27473971E+03</rscale>
<asrwt>0</asrwt>
<pdfrwt beam="1">  1        2 0.32794487E+00 0.27473971E+03</pdfrwt>
<pdfrwt beam="2">  1       -2 0.13619317E-02 0.27473971E+03</pdfrwt>
<totfact> 0.86022917E+03</totfact>
</mgrwt>
</event>
<event>
 5    1  0.1140254E+001  0.2745140E+03  0.7818608E-02  0.1098724E+00
         -2   -1    0    0    0  501 -0.00000000000E+00  0.00000000000E+00  0.11995157810E+02  0.11995157810E+02  0.00000000000E+00 0. -1.
          2   -1    0    0  501    0  0.00000000000E+00 -0.00000000000E+00 -0.15705903342E+04  0.15705903342E+04  0.00000000000E+00 0. -1.
         35    2    1    2    0    0  0.00000000000E+00  0.00000000000E+00 -0.15585951764E+04  0.15825854920E+04  0.27451396258E+03 0.  0.
         25    1    3    3    0    0 -0.26301049335E+02  0.44763395985E+02 -0.53854414483E+03  0.55418886920E+03  0.12000000000E+03 0.  0.
         25    1    3    3    0    0  0.26301049335E+02 -0.44763395985E+02 -0.10200510316E+04  0.10283966228E+04  0.12000000000E+03 0.  0.
<mgrwt>
<rscale>  0 0.27451396E+03</rscale>
<asrwt>0</asrwt>
<pdfrwt beam="1">  1        2 0.24162929E+00 0.27451396E+03</pdfrwt>
<pdfrwt beam="2">  1       -2 0.18454088E-02 0.27451396E+03</pdfrwt>
<totfact> 0.10886417E+04</totfact>
</mgrwt>
</event>
<event>
 5    1  0.1140254E+001  0.2755519E+03  0.7818608E-02  0.1098144E+00
          2   -1    0    0  501    0  0.00000000000E+00  0.00000000000E+00  0.26721263245E+02  0.26721263245E+02  0.00000000000E+00 0.  1.
         -2   -1    0    0    0  501 -0.00000000000E+00 -0.00000000000E+00 -0.71037838801E+03  0.71037838801E+03  0.00000000000E+00 0.  1.
         35    2    1    2    0    0  0.00000000000E+00  0.00000000000E+00 -0.68365712476E+03  0.73709965125E+03  0.27555186742E+03 0.  0.
         25    1    3    3    0    0 -0.37109719661E+01  0.58406204781E+02 -0.25083345911E+03  0.28415221322E+03  0.12000000000E+03 0.  0.
         25    1    3    3    0    0  0.37109719661E+01 -0.58406204781E+02 -0.43282366566E+03  0.45294743803E+03  0.12000000000E+03 0.  0.
<mgrwt>
<rscale>  0 0.27555187E+03</rscale>
<asrwt>0</asrwt>
<pdfrwt beam="1">  1        2 0.41109635E-02 0.27555187E+03</pdfrwt>
<pdfrwt beam="2">  1       -2 0.10928899E+00 0.27555187E+03</pdfrwt>
<totfact> 0.14199451E+03</totfact>
</mgrwt>
</event>
<event>
 5    1  0.1140254E+001  0.2796587E+03  0.7818608E-02  0.1095875E+00
         -1   -1    0    0    0  501 -0.00000000000E+00  0.00000000000E+00  0.22260355717E+03  0.22260355717E+03  0.00000000000E+00 0. -1.
          1   -1    0    0  501    0  0.00000000000E+00 -0.00000000000E+00 -0.87834413614E+02  0.87834413614E+02  0.00000000000E+00 0. -1.
         35    2    1    2    0    0  0.00000000000E+00  0.00000000000E+00  0.13476914356E+03  0.31043797079E+03  0.27965874142E+03 0.  0.
         25    1    3    3    0    0  0.50855968986E+02  0.43160290820E+02  0.96819222449E+02  0.16799732772E+03  0.12000000000E+03 0.  0.
         25    1    3    3    0    0 -0.50855968986E+02 -0.43160290820E+02  0.37949921110E+02  0.14244064307E+03  0.12000000000E+03 0.  0.
<mgrwt>
<rscale>  0 0.27965874E+03</rscale>
<asrwt>0</asrwt>
<pdfrwt beam="1">  1        1 0.13512987E-01 0.27965874E+03</pdfrwt>
<pdfrwt beam="2">  1       -1 0.34246701E-01 0.27965874E+03</pdfrwt>
<totfact> 0.34632862E+03</totfact>
</mgrwt>
</event>
<event>
 5    1  0.1140254E+001  0.2730569E+03  0.7818608E-02  0.1099543E+00
         -2   -1    0    0    0  501 -0.00000000000E+00  0.00000000000E+00  0.94050497357E+01  0.94050497357E+01  0.00000000000E+00 0. -1.
          2   -1    0    0  501    0  0.00000000000E+00 -0.00000000000E+00 -0.19819157837E+04  0.19819157837E+04  0.00000000000E+00 0. -1.
         35    2    1    2    0    0  0.00000000000E+00  0.00000000000E+00 -0.19725107339E+04  0.19913208334E+04  0.27305689164E+03 0.  0.
         25    1    3    3    0    0  0.30010048543E+02  0.37974655427E+02 -0.13039139306E+04  0.13103183643E+04  0.12000000000E+03 0.  0.
         25    1    3    3    0    0 -0.30010048543E+02 -0.37974655427E+02 -0.66859680333E+03  0.68100246908E+03  0.12000000000E+03 0.  0.
<mgrwt>
<rscale>  0 0.27305689E+03</rscale>
<asrwt>0</asrwt>
<pdfrwt beam="1">  1        2 0.30490966E+00 0.27305689E+03</pdfrwt>
<pdfrwt beam="2">  1       -2 0.14469329E-02 0.27305689E+03</pdfrwt>
<totfact> 0.94437156E+03</totfact>
</mgrwt>
</event>
<event>
 5    1  0.1140254E+001  0.2754667E+03  0.7818608E-02  0.1098191E+00
         -2   -1    0    0    0  501 -0.00000000000E+00  0.00000000000E+00  0.73484156626E+01  0.73484156626E+01  0.00000000000E+00 0.  1.
          2   -1    0    0  501    0  0.00000000000E+00 -0.00000000000E+00 -0.25815737994E+04  0.25815737994E+04  0.00000000000E+00 0.  1.
         35    2    1    2    0    0  0.00000000000E+00  0.00000000000E+00 -0.25742253838E+04  0.25889222151E+04  0.27546671190E+03 0.  0.
         25    1    3    3    0    0  0.20200637322E+02 -0.70708686401E+01 -0.68441668629E+03  0.69518649541E+03  0.12000000000E+03 0.  0.
         25    1    3    3    0    0 -0.20200637322E+02  0.70708686401E+01 -0.18898086975E+04  0.18937357197E+04  0.12000000000E+03 0.  0.
<mgrwt>
<rscale>  0 0.27546671E+03</rscale>
<asrwt>0</asrwt>
<pdfrwt beam="1">  1        2 0.39716436E+00 0.27546671E+03</pdfrwt>
<pdfrwt beam="2">  1       -2 0.11305279E-02 0.27546671E+03</pdfrwt>
<totfact> 0.64491462E+03</totfact>
</mgrwt>
</event>
<event>
 5    1  0.1140254E+001  0.2745245E+03  0.7818608E-02  0.1098718E+00
          1   -1    0    0  501    0  0.00000000000E+00  0.00000000000E+00  0.14148006882E+04  0.14148006882E+04  0.00000000000E+00 0.  1.
         -1   -1    0    0    0  501 -0.00000000000E+00 -0.00000000000E+00 -0.13317022105E+02  0.13317022105E+02  0.00000000000E+00 0.  1.
         35    2    1    2    0    0  0.00000000000E+00  0.00000000000E+00  0.14014836661E+04  0.14281177103E+04  0.27452454928E+03 0.  0.
         25    1    3    3    0    0  0.10147416170E+02 -0.50099374106E+02  0.47832243583E+03  0.49578752501E+03  0.12000000000E+03 0.  0.
         25    1    3    3    0    0 -0.10147416170E+02  0.50099374106E+02  0.92316123031E+03  0.93233018533E+03  0.12000000000E+03 0.  0.
<mgrwt>
<rscale>  0 0.27452455E+03</rscale>
<asrwt>0</asrwt>
<pdfrwt beam="1">  1        1 0.21766153E+00 0.27452455E+03</pdfrwt>
<pdfrwt beam="2">  1       -1 0.20487738E-02 0.27452455E+03</pdfrwt>
<totfact> 0.53990874E+03</totfact>
</mgrwt>
</event>
<event>
 5    1  0.1140254E+001  0.2752805E+03  0.7818608E-02  0.1098295E+00
          3   -1    0    0  501    0  0.00000000000E+00  0.00000000000E+00  0.55782927042E+03  0.55782927042E+03  0.00000000000E+00 0.  1.
         -3   -1    0    0    0  501 -0.00000000000E+00 -0.00000000000E+00 -0.33961715051E+02  0.33961715051E+02  0.00000000000E+00 0.  1.
         35    2    1    2    0    0  0.00000000000E+00  0.00000000000E+00  0.52386755537E+03  0.59179098548E+03  0.27528050225E+03 0.  0.
         25    1    3    3    0    0  0.48158245327E+02 -0.36846674406E+02  0.19859948473E+03  0.23983045958E+03  0.12000000000E+03 0.  0.
         25    1    3    3    0    0 -0.48158245327E+02  0.36846674406E+02  0.32526807065E+03  0.35196052590E+03  0.12000000000E+03 0.  0.
<mgrwt>
<rscale>  0 0.27528050E+03</rscale>
<asrwt>0</asrwt>
<pdfrwt beam="1">  1        3 0.85819881E-01 0.27528050E+03</pdfrwt>
<pdfrwt beam="2">  1       -3 0.52248797E-02 0.27528050E+03</pdfrwt>
<totfact> 0.69030365E+02</totfact>
</mgrwt>
</event>
<event>
 5    1  0.1140254E+001  0.2744809E+03  0.7818608E-02  0.1098742E+00
         -2   -1    0    0    0  501 -0.00000000000E+00  0.00000000000E+00  0.17860435434E+02  0.17860435434E+02  0.00000000000E+00 0.  1.
          2   -1    0    0  501    0  0.00000000000E+00 -0.00000000000E+00 -0.10545626364E+04  0.10545626364E+04  0.00000000000E+00 0.  1.
         35    2    1    2    0    0  0.00000000000E+00  0.00000000000E+00 -0.10367022010E+04  0.10724230719E+04  0.27448094928E+03 0.  0.
         25    1    3    3    0    0  0.59695944803E+02  0.27896703850E+02 -0.55605324224E+03  0.57265787353E+03  0.12000000000E+03 0.  0.
         25    1    3    3    0    0 -0.59695944803E+02 -0.27896703850E+02 -0.48064895875E+03  0.49976519833E+03  0.12000000000E+03 0.  0.
<mgrwt>
<rscale>  0 0.27448095E+03</rscale>
<asrwt>0</asrwt>
<pdfrwt beam="1">  1        2 0.16224036E+00 0.27448095E+03</pdfrwt>
<pdfrwt beam="2">  1       -2 0.27477601E-02 0.27448095E+03</pdfrwt>
<totfact> 0.11716476E+04</totfact>
</mgrwt>
</event>
<event>
 5    1  0.1140254E+001  0.2748135E+03  0.7818608E-02  0.1098556E+00
          2   -1    0    0  501    0  0.00000000000E+00  0.00000000000E+00  0.58113039640E+03  0.58113039640E+03  0.00000000000E+00 0. -1.
         -2   -1    0    0    0  501 -0.00000000000E+00 -0.00000000000E+00 -0.32489466917E+02  0.32489466917E+02  0.00000000000E+00 0. -1.
         35    2    1    2    0    0  0.00000000000E+00  0.00000000000E+00  0.54864092948E+03  0.61361986331E+03  0.27481351341E+03 0.  0.
         25    1    3    3    0    0  0.33040651830E+02  0.53340193600E+02  0.22225337534E+03  0.26025645770E+03  0.12000000000E+03 0.  0.
         25    1    3    3    0    0 -0.33040651830E+02 -0.53340193600E+02  0.32638755414E+03  0.35336340561E+03  0.12000000000E+03 0.  0.
<mgrwt>
<rscale>  0 0.27481351E+03</rscale>
<asrwt>0</asrwt>
<pdfrwt beam="1">  1        2 0.89404669E-01 0.27481351E+03</pdfrwt>
<pdfrwt beam="2">  1       -2 0.49983800E-02 0.27481351E+03</pdfrwt>
<totfact> 0.10210069E+04</totfact>
</mgrwt>
</event>
<event>
 5    1  0.1140254E+001  0.2738850E+03  0.7818608E-02  0.1099076E+00
          2   -1    0    0  501    0  0.00000000000E+00  0.00000000000E+00  0.37291720396E+04  0.37291720396E+04  0.00000000000E+00 0. -1.
         -2   -1    0    0    0  501 -0.00000000000E+00 -0.00000000000E+00 -0.50287974394E+01  0.50287974394E+01  0.00000000000E+00 0. -1.
         35    2    1    2    0    0  0.00000000000E+00  0.00000000000E+00  0.37241432421E+04  0.37342008370E+04  0.27388501824E+03 0.  0.
         25    1    3    3    0    0 -0.34544278841E+02  0.33118261541E+02  0.12427844287E+04  0.12494811974E+04  0.12000000000E+03 0.  0.
         25    1    3    3    0    0  0.34544278841E+02 -0.33118261541E+02  0.24813588135E+04  0.24847196396E+04  0.12000000000E+03 0.  0.
<mgrwt>
<rscale>  0 0.27388502E+03</rscale>
<asrwt>0</asrwt>
<pdfrwt beam="1">  1        2 0.57371657E+00 0.27388502E+03</pdfrwt>
<pdfrwt beam="2">  1       -2 0.77366413E-03 0.27388502E+03</pdfrwt>
<totfact> 0.21883310E+03</totfact>
</mgrwt>
</event>
<event>
 5    1  0.1140254E+001  0.2742682E+03  0.7818608E-02  0.1098861E+00
          2   -1    0    0  501    0  0.00000000000E+00  0.00000000000E+00  0.30838881854E+03  0.30838881854E+03  0.00000000000E+00 0. -1.
         -2   -1    0    0    0  501 -0.00000000000E+00 -0.00000000000E+00 -0.60980676794E+02  0.60980676794E+02  0.00000000000E+00 0. -1.
         35    2    1    2    0    0  0.00000000000E+00  0.00000000000E+00  0.24740814174E+03  0.36936949533E+03  0.27426818168E+03 0.  0.
         25    1    3    3    0    0 -0.37516984850E+02 -0.54756049405E+02  0.12383719829E+03  0.18477391801E+03  0.12000000000E+03 0.  0.
         25    1    3    3    0    0  0.37516984850E+02  0.54756049405E+02  0.12357094346E+03  0.18459557732E+03  0.12000000000E+03 0.  0.
<mgrwt>
<rscale>  0 0.27426818E+03</rscale>
<asrwt>0</asrwt>
<pdfrwt beam="1">  1        2 0.47444433E-01 0.27426818E+03</pdfrwt>
<pdfrwt beam="2">  1       -2 0.93816428E-02 0.27426818E+03</pdfrwt>
<totfact> 0.77371430E+03</totfact>
</mgrwt>
</event>
<event>
 5    1  0.1140254E+001  0.2743983E+03  0.7818608E-02  0.1098788E+00
         -2   -1    0    0    0  501 -0.00000000000E+00  0.00000000000E+00  0.15841355581E+02  0.15841355581E+02  0.00000000000E+00 0. -1.
          2   -1    0    0  501    0  0.00000000000E+00 -0.00000000000E+00 -0.11882569424E+04  0.11882569424E+04  0.00000000000E+00 0. -1.
         35    2    1    2    0    0  0.00000000000E+00  0.00000000000E+00 -0.11724155868E+04  0.12040982980E+04  0.27439825616E+03 0.  0.
         25    1    3    3    0    0  0.29899229348E+02  0.21480988899E+02 -0.82927295024E+03  0.83871867917E+03  0.12000000000E+03 0.  0.
         25    1    3    3    0    0 -0.29899229348E+02 -0.21480988899E+02 -0.34314263657E+03  0.36537961880E+03  0.12000000000E+03 0.  0.
<mgrwt>
<rscale>  0 0.27439826E+03</rscale>
<asrwt>0</asrwt>
<pdfrwt beam="1">  1        2 0.18280881E+00 0.27439826E+03</pdfrwt>
<pdfrwt beam="2">  1       -2 0.24371310E-02 0.27439826E+03</pdfrwt>
<totfact> 0.11694922E+04</totfact>
</mgrwt>
</event>
<event>
 5    1  0.1140254E+001  0.2710399E+03  0.7818608E-02  0.1100686E+00
          2   -1    0    0  501    0  0.00000000000E+00  0.00000000000E+00  0.62329933611E+03  0.62329933611E+03  0.00000000000E+00 0. -1.
         -2   -1    0    0    0  501 -0.00000000000E+00 -0.00000000000E+00 -0.29465220088E+02  0.29465220088E+02  0.00000000000E+00 0. -1.
         35    2    1    2    0    0  0.00000000000E+00  0.00000000000E+00  0.59383411602E+03  0.65276455620E+03  0.27103986511E+03 0.  0.
         25    1    3    3    0    0  0.19512829121E+02  0.32311074100E+02  0.41831654366E+03  0.43682203093E+03  0.12000000000E+03 0.  0.
         25    1    3    3    0    0 -0.19512829121E+02 -0.32311074100E+02  0.17551757237E+03  0.21594252527E+03  0.12000000000E+03 0.  0.
<mgrwt>
<rscale>  0 0.27103987E+03</rscale>
<asrwt>0</asrwt>
<pdfrwt beam="1">  1        2 0.95892196E-01 0.27103987E+03</pdfrwt>
<pdfrwt beam="2">  1       -2 0.45331113E-02 0.27103987E+03</pdfrwt>
<totfact> 0.10908402E+04</totfact>
</mgrwt>
</event>
<event>
 5    1  0.1140254E+001  0.2760516E+03  0.7818608E-02  0.1097865E+00
         -1   -1    0    0    0  501 -0.00000000000E+00  0.00000000000E+00  0.46930738014E+03  0.46930738014E+03  0.00000000000E+00 0.  1.
          1   -1    0    0  501    0  0.00000000000E+00 -0.00000000000E+00 -0.40594132486E+02  0.40594132486E+02  0.00000000000E+00 0.  1.
         35    2    1    2    0    0  0.00000000000E+00  0.00000000000E+00  0.42871324765E+03  0.50990151262E+03  0.27605163260E+03 0.  0.
         25    1    3    3    0    0  0.57637446646E+02 -0.24278834550E+02  0.26458986183E+03  0.29718568614E+03  0.12000000000E+03 0.  0.
         25    1    3    3    0    0 -0.57637446646E+02  0.24278834550E+02  0.16412338582E+03  0.21271582648E+03  0.12000000000E+03 0.  0.
<mgrwt>
<rscale>  0 0.27605163E+03</rscale>
<asrwt>0</asrwt>
<pdfrwt beam="1">  1        1 0.62452515E-02 0.27605163E+03</pdfrwt>
<pdfrwt beam="2">  1       -1 0.72201132E-01 0.27605163E+03</pdfrwt>
<totfact> 0.24570193E+03</totfact>
</mgrwt>
</event>
<event>
 5    1  0.1140254E+001  0.2749901E+03  0.7818608E-02  0.1098457E+00
          2   -1    0    0  501    0  0.00000000000E+00  0.00000000000E+00  0.53561512826E+03  0.53561512826E+03  0.00000000000E+00 0.  1.
         -2   -1    0    0    0  501 -0.00000000000E+00 -0.00000000000E+00 -0.35295652710E+02  0.35295652710E+02  0.00000000000E+00 0.  1.
         35    2    1    2    0    0  0.00000000000E+00  0.00000000000E+00  0.50031947555E+03  0.57091078097E+03  0.27499007657E+03 0.  0.
         25    1    3    3    0    0  0.55299773315E+02  0.15551333845E+02  0.17809205867E+03  0.22229865108E+03  0.12000000000E+03 0.  0.
         25    1    3    3    0    0 -0.55299773315E+02 -0.15551333845E+02  0.32222741688E+03  0.34861212989E+03  0.12000000000E+03 0.  0.
<mgrwt>
<rscale>  0 0.27499008E+03</rscale>
<asrwt>0</asrwt>
<pdfrwt beam="1">  1        2 0.82402321E-01 0.27499008E+03</pdfrwt>
<pdfrwt beam="2">  1       -2 0.54301008E-02 0.27499008E+03</pdfrwt>
<totfact> 0.98789776E+03</totfact>
</mgrwt>
</event>
<event>
 5    1  0.1140254E+001  0.2765844E+03  0.7818608E-02  0.1097569E+00
         -2   -1    0    0    0  501 -0.00000000000E+00  0.00000000000E+00  0.23315604527E+02  0.23315604527E+02  0.00000000000E+00 0.  1.
          2   -1    0    0  501    0  0.00000000000E+00 -0.00000000000E+00 -0.82025489276E+03  0.82025489276E+03  0.00000000000E+00 0.  1.
         35    2    1    2    0    0  0.00000000000E+00  0.00000000000E+00 -0.79693928823E+03  0.84357049729E+03  0.27658444418E+03 0.  0.
         25    1    3    3    0    0  0.12143215515E+02  0.63067373234E+02 -0.47316477900E+03  0.49235135760E+03  0.12000000000E+03 0.  0.
         25    1    3    3    0    0 -0.12143215515E+02 -0.63067373234E+02 -0.32377450923E+03  0.35121913968E+03  0.12000000000E+03 0.  0.
<mgrwt>
<rscale>  0 0.27658444E+03</rscale>
<asrwt>0</asrwt>
<pdfrwt beam="1">  1        2 0.12619308E+00 0.27658444E+03</pdfrwt>
<pdfrwt beam="2">  1       -2 0.35870157E-02 0.27658444E+03</pdfrwt>
<totfact> 0.11093358E+04</totfact>
</mgrwt>
</event>
<event>
 5    1  0.1140254E+001  0.2753676E+03  0.7818608E-02  0.1098246E+00
         -1   -1    0    0    0  501 -0.00000000000E+00  0.00000000000E+00  0.16574293100E+02  0.16574293100E+02  0.00000000000E+00 0.  1.
          1   -1    0    0  501    0  0.00000000000E+00 -0.00000000000E+00 -0.11437485424E+04  0.11437485424E+04  0.00000000000E+00 0.  1.
         35    2    1    2    0    0  0.00000000000E+00  0.00000000000E+00 -0.11271742493E+04  0.11603228355E+04  0.27536756218E+03 0.  0.
         25    1    3    3    0    0 -0.60034549162E+01  0.51780570515E+02 -0.38286038937E+03  0.40459775915E+03  0.12000000000E+03 0.  0.
         25    1    3    3    0    0  0.60034549162E+01 -0.51780570515E+02 -0.74431385996E+03  0.75572507639E+03  0.12000000000E+03 0.  0.
<mgrwt>
<rscale>  0 0.27536756E+03</rscale>
<asrwt>0</asrwt>
<pdfrwt beam="1">  1        1 0.17596135E+00 0.27536756E+03</pdfrwt>
<pdfrwt beam="2">  1       -1 0.25498907E-02 0.27536756E+03</pdfrwt>
<totfact> 0.60183107E+03</totfact>
</mgrwt>
</event>
<event>
 5    1  0.1140254E+001  0.2756551E+03  0.7818608E-02  0.1098086E+00
          2   -1    0    0  501    0  0.00000000000E+00  0.00000000000E+00  0.27584146488E+03  0.27584146488E+03  0.00000000000E+00 0. -1.
         -2   -1    0    0    0  501 -0.00000000000E+00 -0.00000000000E+00 -0.68867214975E+02  0.68867214975E+02  0.00000000000E+00 0. -1.
         35    2    1    2    0    0  0.00000000000E+00  0.00000000000E+00  0.20697424991E+03  0.34470867986E+03  0.27565509944E+03 0.  0.
         25    1    3    3    0    0 -0.50318211817E+02  0.48072264225E+01  0.15998738062E+03  0.20627892239E+03  0.12000000000E+03 0.  0.
         25    1    3    3    0    0  0.50318211817E+02 -0.48072264225E+01  0.46986869289E+02  0.13842975747E+03  0.12000000000E+03 0.  0.
<mgrwt>
<rscale>  0 0.27565510E+03</rscale>
<asrwt>0</asrwt>
<pdfrwt beam="1">  1        2 0.42437148E-01 0.27565510E+03</pdfrwt>
<pdfrwt beam="2">  1       -2 0.10594956E-01 0.27565510E+03</pdfrwt>
<totfact> 0.71916046E+03</totfact>
</mgrwt>
</event>
<event>
 5    1  0.1140254E+001  0.2752532E+03  0.7818608E-02  0.1098310E+00
         -1   -1    0    0    0  501 -0.00000000000E+00  0.00000000000E+00  0.43629720656E+02  0.43629720656E+02  0.00000000000E+00 0.  1.
          1   -1    0    0  501    0  0.00000000000E+00 -0.00000000000E+00 -0.43413260810E+03  0.43413260810E+03  0.00000000000E+00 0.  1.
         35    2    1    2    0    0  0.00000000000E+00  0.00000000000E+00 -0.39050288745E+03  0.47776232876E+03  0.27525322464E+03 0.  0.
         25    1    3    3    0    0 -0.55577272885E+02  0.30477525403E+02 -0.23496004276E+03  0.27133730763E+03  0.12000000000E+03 0.  0.
         25    1    3    3    0    0  0.55577272885E+02 -0.30477525403E+02 -0.15554284468E+03  0.20642502113E+03  0.12000000000E+03 0.  0.
<mgrwt>
<rscale>  0 0.27525322E+03</rscale>
<asrwt>0</asrwt>
<pdfrwt beam="1">  1        1 0.66789630E-01 0.27525322E+03</pdfrwt>
<pdfrwt beam="2">  1       -1 0.67122650E-02 0.27525322E+03</pdfrwt>
<totfact> 0.61015033E+03</totfact>
</mgrwt>
</event>
<event>
 5    1  0.1140254E+001  0.2761357E+03  0.7818608E-02  0.1097818E+00
          3   -1    0    0  501    0  0.00000000000E+00  0.00000000000E+00  0.52392032194E+03  0.52392032194E+03  0.00000000000E+00 0.  1.
         -3   -1    0    0    0  501 -0.00000000000E+00 -0.00000000000E+00 -0.36384795651E+02  0.36384795651E+02  0.00000000000E+00 0.  1.
         35    2    1    2    0    0  0.00000000000E+00  0.00000000000E+00  0.48753552629E+03  0.56030511759E+03  0.27613571918E+03 0.  0.
         25    1    3    3    0    0 -0.29241774139E+02  0.41510325561E+02  0.15112581544E+03  0.19954247812E+03  0.12000000000E+03 0.  0.
         25    1    3    3    0    0  0.29241774139E+02 -0.41510325561E+02  0.33640971085E+03  0.36076263947E+03  0.12000000000E+03 0.  0.
<mgrwt>
<rscale>  0 0.27613572E+03</rscale>
<asrwt>0</asrwt>
<pdfrwt beam="1">  1        3 0.80603121E-01 0.27613572E+03</pdfrwt>
<pdfrwt beam="2">  1       -3 0.55976612E-02 0.27613572E+03</pdfrwt>
<totfact> 0.71010528E+02</totfact>
</mgrwt>
</event>
<event>
 5    1  0.1140254E+001  0.2756546E+03  0.7818608E-02  0.1098086E+00
         -2   -1    0    0    0  501 -0.00000000000E+00  0.00000000000E+00  0.11567402816E+02  0.11567402816E+02  0.00000000000E+00 0. -1.
          2   -1    0    0  501    0  0.00000000000E+00 -0.00000000000E+00 -0.16422320037E+04  0.16422320037E+04  0.00000000000E+00 0. -1.
         35    2    1    2    0    0  0.00000000000E+00  0.00000000000E+00 -0.16306646009E+04  0.16537994065E+04  0.27565455994E+03 0.  0.
         25    1    3    3    0    0 -0.53175051958E+02  0.17637539012E+02 -0.10443928316E+04  0.10527559335E+04  0.12000000000E+03 0.  0.
         25    1    3    3    0    0  0.53175051958E+02 -0.17637539012E+02 -0.58627176934E+03  0.60104347302E+03  0.12000000000E+03 0.  0.
<mgrwt>
<rscale>  0 0.27565456E+03</rscale>
<asrwt>0</asrwt>
<pdfrwt beam="1">  1        2 0.25265119E+00 0.27565456E+03</pdfrwt>
<pdfrwt beam="2">  1       -2 0.17795997E-02 0.27565456E+03</pdfrwt>
<totfact> 0.10522486E+04</totfact>
</mgrwt>
</event>
<event>
 5    1  0.1140254E+001  0.2746667E+03  0.7818608E-02  0.1098638E+00
          1   -1    0    0  501    0  0.00000000000E+00  0.00000000000E+00  0.58673096106E+03  0.58673096106E+03  0.00000000000E+00 0.  1.
         -1   -1    0    0    0  501 -0.00000000000E+00 -0.00000000000E+00 -0.32144960931E+02  0.32144960931E+02  0.00000000000E+00 0.  1.
         35    2    1    2    0    0  0.00000000000E+00  0.00000000000E+00  0.55458600013E+03  0.61887592199E+03  0.27466666212E+03 0.  0.
         25    1    3    3    0    0 -0.83198917882E+01 -0.61545317300E+02  0.22194534064E+03  0.25983991401E+03  0.12000000000E+03 0.  0.
         25    1    3    3    0    0  0.83198917882E+01  0.61545317300E+02  0.33264065948E+03  0.35903600798E+03  0.12000000000E+03 0.  0.
<mgrwt>
<rscale>  0 0.27466666E+03</rscale>
<asrwt>0</asrwt>
<pdfrwt beam="1">  1        1 0.90266294E-01 0.27466666E+03</pdfrwt>
<pdfrwt beam="2">  1       -1 0.49453790E-02 0.27466666E+03</pdfrwt>
<totfact> 0.64679115E+03</totfact>
</mgrwt>
</event>
<event>
 5    1  0.1140254E+001  0.2757476E+03  0.7818608E-02  0.1098034E+00
         -2   -1    0    0    0  501 -0.00000000000E+00  0.00000000000E+00  0.18473534250E+02  0.18473534250E+02  0.00000000000E+00 0. -1.
          2   -1    0    0  501    0  0.00000000000E+00 -0.00000000000E+00 -0.10289956365E+04  0.10289956365E+04  0.00000000000E+00 0. -1.
         35    2    1    2    0    0  0.00000000000E+00  0.00000000000E+00 -0.10105221023E+04  0.10474691708E+04  0.27574761021E+03 0.  0.
         25    1    3    3    0    0 -0.52417065631E+02 -0.42472536211E+02 -0.53412106526E+03  0.55157662881E+03  0.12000000000E+03 0.  0.
         25    1    3    3    0    0  0.52417065631E+02  0.42472536211E+02 -0.47640103702E+03  0.49589254196E+03  0.12000000000E+03 0.  0.
<mgrwt>
<rscale>  0 0.27574761E+03</rscale>
<asrwt>0</asrwt>
<pdfrwt beam="1">  1        2 0.15830702E+00 0.27574761E+03</pdfrwt>
<pdfrwt beam="2">  1       -2 0.28420823E-02 0.27574761E+03</pdfrwt>
<totfact> 0.11546919E+04</totfact>
</mgrwt>
</event>
<event>
 5    1  0.1140254E+001  0.2749870E+03  0.7818608E-02  0.1098459E+00
          1   -1    0    0  501    0  0.00000000000E+00  0.00000000000E+00  0.50912762933E+03  0.50912762933E+03  0.00000000000E+00 0.  1.
         -1   -1    0    0    0  501 -0.00000000000E+00 -0.00000000000E+00 -0.37131078642E+02  0.37131078642E+02  0.00000000000E+00 0.  1.
         35    2    1    2    0    0  0.00000000000E+00  0.00000000000E+00  0.47199655068E+03  0.54625870797E+03  0.27498696728E+03 0.  0.
         25    1    3    3    0    0  0.41620059521E+02  0.33815643214E+02  0.31616810080E+03  0.34240034323E+03  0.12000000000E+03 0.  0.
         25    1    3    3    0    0 -0.41620059521E+02 -0.33815643214E+02  0.15582844988E+03  0.20385836474E+03  0.12000000000E+03 0.  0.
<mgrwt>
<rscale>  0 0.27498697E+03</rscale>
<asrwt>0</asrwt>
<pdfrwt beam="1">  1        1 0.78327323E-01 0.27498697E+03</pdfrwt>
<pdfrwt beam="2">  1       -1 0.57124740E-02 0.27498697E+03</pdfrwt>
<totfact> 0.63137800E+03</totfact>
</mgrwt>
</event>
<event>
 5    1  0.1140254E+001  0.2746207E+03  0.7818608E-02  0.1098664E+00
         -2   -1    0    0    0  501 -0.00000000000E+00  0.00000000000E+00  0.48562138661E+02  0.48562138661E+02  0.00000000000E+00 0. -1.
          2   -1    0    0  501    0  0.00000000000E+00 -0.00000000000E+00 -0.38824765442E+03  0.38824765442E+03  0.00000000000E+00 0. -1.
         35    2    1    2    0    0  0.00000000000E+00  0.00000000000E+00 -0.33968551576E+03  0.43680979308E+03  0.27462073067E+03 0.  0.
         25    1    3    3    0    0 -0.14006416691E+01  0.57605188092E+02 -0.22340151844E+03  0.26005491330E+03  0.12000000000E+03 0.  0.
         25    1    3    3    0    0  0.14006416691E+01 -0.57605188092E+02 -0.11628399732E+03  0.17675487978E+03  0.12000000000E+03 0.  0.
<mgrwt>
<rscale>  0 0.27462073E+03</rscale>
<asrwt>0</asrwt>
<pdfrwt beam="1">  1        2 0.59730409E-01 0.27462073E+03</pdfrwt>
<pdfrwt beam="2">  1       -2 0.74710982E-02 0.27462073E+03</pdfrwt>
<totfact> 0.86238790E+03</totfact>
</mgrwt>
</event>
<event>
 5    1  0.1140254E+001  0.2752757E+03  0.7818608E-02  0.1098298E+00
          1   -1    0    0  501    0  0.00000000000E+00  0.00000000000E+00  0.10900232335E+03  0.10900232335E+03  0.00000000000E+00 0. -1.
         -1   -1    0    0    0  501 -0.00000000000E+00 -0.00000000000E+00 -0.17379606759E+03  0.17379606759E+03  0.00000000000E+00 0. -1.
         35    2    1    2    0    0  0.00000000000E+00  0.00000000000E+00 -0.64793744241E+02  0.28279839094E+03  0.27527568114E+03 0.  0.
         25    1    3    3    0    0 -0.34156198037E+02  0.55709734371E+02 -0.15392972343E+02  0.13750332347E+03  0.12000000000E+03 0.  0.
         25    1    3    3    0    0  0.34156198037E+02 -0.55709734371E+02 -0.49400771898E+02  0.14529506747E+03  0.12000000000E+03 0.  0.
<mgrwt>
<rscale>  0 0.27527568E+03</rscale>
<asrwt>0</asrwt>
<pdfrwt beam="1">  1        1 0.16769588E-01 0.27527568E+03</pdfrwt>
<pdfrwt beam="2">  1       -1 0.26737856E-01 0.27527568E+03</pdfrwt>
<totfact> 0.39756351E+03</totfact>
</mgrwt>
</event>
<event>
 5    1  0.1140254E+001  0.2750943E+03  0.7818608E-02  0.1098399E+00
         -2   -1    0    0    0  501 -0.00000000000E+00  0.00000000000E+00  0.27373348851E+02  0.27373348851E+02  0.00000000000E+00 0. -1.
          2   -1    0    0  501    0  0.00000000000E+00 -0.00000000000E+00 -0.69115454835E+03  0.69115454835E+03  0.00000000000E+00 0. -1.
         35    2    1    2    0    0  0.00000000000E+00  0.00000000000E+00 -0.66378119950E+03  0.71852789720E+03  0.27509427156E+03 0.  0.
         25    1    3    3    0    0 -0.47837812692E+02 -0.40368613147E+02 -0.26785116574E+03  0.30010386242E+03  0.12000000000E+03 0.  0.
         25    1    3    3    0    0  0.47837812692E+02  0.40368613147E+02 -0.39593003376E+03  0.41842403478E+03  0.12000000000E+03 0.  0.
<mgrwt>
<rscale>  0 0.27509427E+03</rscale>
<asrwt>0</asrwt>
<pdfrwt beam="1">  1        2 0.10633147E+00 0.27509427E+03</pdfrwt>
<pdfrwt beam="2">  1       -2 0.42112843E-02 0.27509427E+03</pdfrwt>
<totfact> 0.10786745E+04</totfact>
</mgrwt>
</event>
<event>
 5    1  0.1140254E+001  0.2751070E+03  0.7818608E-02  0.1098392E+00
         -2   -1    0    0    0  501 -0.00000000000E+00  0.00000000000E+00  0.15492410507E+02  0.15492410507E+02  0.00000000000E+00 0. -1.
          2   -1    0    0  501    0  0.00000000000E+00 -0.00000000000E+00 -0.12213055254E+04  0.12213055254E+04  0.00000000000E+00 0. -1.
         35    2    1    2    0    0  0.00000000000E+00  0.00000000000E+00 -0.12058131149E+04  0.12367979359E+04  0.27510700866E+03 0.  0.
         25    1    3    3    0    0  0.12883045388E+02  0.51704562208E+02 -0.78726480494E+03  0.79813858929E+03  0.12000000000E+03 0.  0.
         25    1    3    3    0    0 -0.12883045388E+02 -0.51704562208E+02 -0.41854830993E+03  0.43865934660E+03  0.12000000000E+03 0.  0.
<mgrwt>
<rscale>  0 0.27510701E+03</rscale>
<asrwt>0</asrwt>
<pdfrwt beam="1">  1        2 0.18789315E+00 0.27510701E+03</pdfrwt>
<pdfrwt beam="2">  1       -2 0.23834479E-02 0.27510701E+03</pdfrwt>
<totfact> 0.11576422E+04</totfact>
</mgrwt>
</event>
<event>
 5    1  0.1140254E+001  0.2755814E+03  0.7818608E-02  0.1098127E+00
         -2   -1    0    0    0  501 -0.00000000000E+00  0.00000000000E+00  0.70755746528E+03  0.70755746528E+03  0.00000000000E+00 0. -1.
          2   -1    0    0  501    0  0.00000000000E+00 -0.00000000000E+00 -0.26833551828E+02  0.26833551828E+02  0.00000000000E+00 0. -1.
         35    2    1    2    0    0  0.00000000000E+00  0.00000000000E+00  0.68072391345E+03  0.73439101711E+03  0.27558142111E+03 0.  0.
         25    1    3    3    0    0 -0.64085498588E+02  0.20985987385E+02  0.35698642515E+03  0.38260511044E+03  0.12000000000E+03 0.  0.
         25    1    3    3    0    0  0.64085498588E+02 -0.20985987385E+02  0.32373748830E+03  0.35178590667E+03  0.12000000000E+03 0.  0.
<mgrwt>
<rscale>  0 0.27558142E+03</rscale>
<asrwt>0</asrwt>
<pdfrwt beam="1">  1        2 0.41282393E-02 0.27558142E+03</pdfrwt>
<pdfrwt beam="2">  1       -2 0.10885498E+00 0.27558142E+03</pdfrwt>
<totfact> 0.14253787E+03</totfact>
</mgrwt>
</event>
<event>
 5    1  0.1140254E+001  0.2746472E+03  0.7818608E-02  0.1098649E+00
         -1   -1    0    0    0  501 -0.00000000000E+00  0.00000000000E+00  0.50732595334E+02  0.50732595334E+02  0.00000000000E+00 0.  1.
          1   -1    0    0  501    0  0.00000000000E+00 -0.00000000000E+00 -0.37170916461E+03  0.37170916461E+03  0.00000000000E+00 0.  1.
         35    2    1    2    0    0  0.00000000000E+00  0.00000000000E+00 -0.32097656928E+03  0.42244175995E+03  0.27464719645E+03 0.  0.
         25    1    3    3    0    0 -0.63737170592E+02  0.60302608152E+01 -0.13134579842E+03  0.18907805193E+03  0.12000000000E+03 0.  0.
         25    1    3    3    0    0  0.63737170592E+02 -0.60302608152E+01 -0.18963077086E+03  0.23336370802E+03  0.12000000000E+03 0.  0.
<mgrwt>
<rscale>  0 0.27464720E+03</rscale>
<asrwt>0</asrwt>
<pdfrwt beam="1">  1        1 0.57186024E-01 0.27464720E+03</pdfrwt>
<pdfrwt beam="2">  1       -1 0.78050148E-02 0.27464720E+03</pdfrwt>
<totfact> 0.59206900E+03</totfact>
</mgrwt>
</event>
<event>
 5    1  0.1140254E+001  0.2750868E+03  0.7818608E-02  0.1098403E+00
          2   -1    0    0  501    0  0.00000000000E+00  0.00000000000E+00  0.16615342251E+04  0.16615342251E+04  0.00000000000E+00 0. -1.
         -2   -1    0    0    0  501 -0.00000000000E+00 -0.00000000000E+00 -0.11385971705E+02  0.11385971705E+02  0.00000000000E+00 0. -1.
         35    2    1    2    0    0  0.00000000000E+00  0.00000000000E+00  0.16501482534E+04  0.16729201968E+04  0.27508676212E+03 0.  0.
         25    1    3    3    0    0 -0.64908752715E+02 -0.95169659212E+01  0.91413389763E+03  0.92430757955E+03  0.12000000000E+03 0.  0.
         25    1    3    3    0    0  0.64908752715E+02  0.95169659212E+01  0.73601435577E+03  0.74861261726E+03  0.12000000000E+03 0.  0.
<mgrwt>
<rscale>  0 0.27508676E+03</rscale>
<asrwt>0</asrwt>
<pdfrwt beam="1">  1        2 0.25562046E+00 0.27508676E+03</pdfrwt>
<pdfrwt beam="2">  1       -2 0.17516893E-02 0.27508676E+03</pdfrwt>
<totfact> 0.10519258E+04</totfact>
</mgrwt>
</event>
<event>
 5    1  0.1140254E+001  0.2747205E+03  0.7818608E-02  0.1098608E+00
         -1   -1    0    0    0  501 -0.00000000000E+00  0.00000000000E+00  0.30439287317E+02  0.30439287317E+02  0.00000000000E+00 0.  1.
          1   -1    0    0  501    0  0.00000000000E+00 -0.00000000000E+00 -0.61985160585E+03  0.61985160585E+03  0.00000000000E+00 0.  1.
         35    2    1    2    0    0  0.00000000000E+00  0.00000000000E+00 -0.58941231854E+03  0.65029089317E+03  0.27472052071E+03 0.  0.
         25    1    3    3    0    0  0.16006006964E+02 -0.31605838584E+02 -0.42887541117E+03  0.44675411536E+03  0.12000000000E+03 0.  0.
         25    1    3    3    0    0 -0.16006006964E+02  0.31605838584E+02 -0.16053690737E+03  0.20353677780E+03  0.12000000000E+03 0.  0.
<mgrwt>
<rscale>  0 0.27472052E+03</rscale>
<asrwt>0</asrwt>
<pdfrwt beam="1">  1        1 0.95361782E-01 0.27472052E+03</pdfrwt>
<pdfrwt beam="2">  1       -1 0.46829675E-02 0.27472052E+03</pdfrwt>
<totfact> 0.65016443E+03</totfact>
</mgrwt>
</event>
<event>
 5    1  0.1140254E+001  0.2750908E+03  0.7818608E-02  0.1098401E+00
          2   -1    0    0  501    0  0.00000000000E+00  0.00000000000E+00  0.10534061289E+03  0.10534061289E+03  0.00000000000E+00 0.  1.
         -2   -1    0    0    0  501 -0.00000000000E+00 -0.00000000000E+00 -0.17959582718E+03  0.17959582718E+03  0.00000000000E+00 0.  1.
         35    2    1    2    0    0  0.00000000000E+00  0.00000000000E+00 -0.74255214292E+02  0.28493644007E+03  0.27509078144E+03 0.  0.
         25    1    3    3    0    0 -0.49865911103E+01 -0.16057154057E+01  0.32288061392E+02  0.12437830728E+03  0.12000000000E+03 0.  0.
         25    1    3    3    0    0  0.49865911103E+01  0.16057154057E+01 -0.10654327568E+03  0.16055813279E+03  0.12000000000E+03 0.  0.
<mgrwt>
<rscale>  0 0.27509078E+03</rscale>
<asrwt>0</asrwt>
<pdfrwt beam="1">  1        2 0.16206248E-01 0.27509078E+03</pdfrwt>
<pdfrwt beam="2">  1       -2 0.27630127E-01 0.27509078E+03</pdfrwt>
<totfact> 0.41968214E+03</totfact>
</mgrwt>
</event>
<event>
 5    1  0.1140254E+001  0.2739632E+03  0.7818608E-02  0.1099033E+00
         -3   -1    0    0    0  501 -0.00000000000E+00  0.00000000000E+00  0.22399352618E+02  0.22399352618E+02  0.00000000000E+00 0. -1.
          3   -1    0    0  501    0  0.00000000000E+00 -0.00000000000E+00 -0.83770097397E+03  0.83770097397E+03  0.00000000000E+00 0. -1.
         35    2    1    2    0    0  0.00000000000E+00  0.00000000000E+00 -0.81530162135E+03  0.86010032658E+03  0.27396320559E+03 0.  0.
         25    1    3    3    0    0 -0.39256765884E+01 -0.45360471346E+01 -0.61418841582E+03  0.62583016609E+03  0.12000000000E+03 0.  0.
         25    1    3    3    0    0  0.39256765884E+01  0.45360471346E+01 -0.20111320553E+03  0.23427016050E+03  0.12000000000E+03 0.  0.
<mgrwt>
<rscale>  0 0.27396321E+03</rscale>
<asrwt>0</asrwt>
<pdfrwt beam="1">  1        3 0.12887709E+00 0.27396321E+03</pdfrwt>
<pdfrwt beam="2">  1       -3 0.34460538E-02 0.27396321E+03</pdfrwt>
<totfact> 0.51944968E+02</totfact>
</mgrwt>
</event>
<event>
 5    1  0.1140254E+001  0.2742986E+03  0.7818608E-02  0.1098844E+00
         -2   -1    0    0    0  501 -0.00000000000E+00  0.00000000000E+00  0.22505361313E+02  0.22505361313E+02  0.00000000000E+00 0. -1.
          2   -1    0    0  501    0  0.00000000000E+00 -0.00000000000E+00 -0.83579769006E+03  0.83579769006E+03  0.00000000000E+00 0. -1.
         35    2    1    2    0    0  0.00000000000E+00  0.00000000000E+00 -0.81329232874E+03  0.85830305137E+03  0.27429858913E+03 0.  0.
         25    1    3    3    0    0  0.50342050800E+02 -0.13656658967E+02 -0.27804494213E+03  0.30729434791E+03  0.12000000000E+03 0.  0.
         25    1    3    3    0    0 -0.50342050800E+02  0.13656658967E+02 -0.53524738661E+03  0.55100870346E+03  0.12000000000E+03 0.  0.
<mgrwt>
<rscale>  0 0.27429859E+03</rscale>
<asrwt>0</asrwt>
<pdfrwt beam="1">  1        2 0.12858428E+00 0.27429859E+03</pdfrwt>
<pdfrwt beam="2">  1       -2 0.34623626E-02 0.27429859E+03</pdfrwt>
<totfact> 0.11413205E+04</totfact>
</mgrwt>
</event>
<event>
 5    1  0.1140254E+001  0.2745803E+03  0.7818608E-02  0.1098686E+00
         -2   -1    0    0    0  501 -0.00000000000E+00  0.00000000000E+00  0.37287942789E+02  0.37287942789E+02  0.00000000000E+00 0. -1.
          2   -1    0    0  501    0  0.00000000000E+00 -0.00000000000E+00 -0.50548728191E+03  0.50548728191E+03  0.00000000000E+00 0. -1.
         35    2    1    2    0    0  0.00000000000E+00  0.00000000000E+00 -0.46819933912E+03  0.54277522469E+03  0.27458026767E+03 0.  0.
         25    1    3    3    0    0 -0.13851647803E+02 -0.23394218594E+02 -0.11370593510E+03  0.16753565975E+03  0.12000000000E+03 0.  0.
         25    1    3    3    0    0  0.13851647803E+02  0.23394218594E+02 -0.35449340401E+03  0.37523956494E+03  0.12000000000E+03 0.  0.
<mgrwt>
<rscale>  0 0.27458027E+03</rscale>
<asrwt>0</asrwt>
<pdfrwt beam="1">  1        2 0.77767268E-01 0.27458027E+03</pdfrwt>
<pdfrwt beam="2">  1       -2 0.57366070E-02 0.27458027E+03</pdfrwt>
<totfact> 0.96956634E+03</totfact>
</mgrwt>
</event>
<event>
 5    1  0.1140254E+001  0.2775560E+03  0.7818608E-02  0.1097031E+00
          2   -1    0    0  501    0  0.00000000000E+00  0.00000000000E+00  0.69349866303E+03  0.69349866303E+03  0.00000000000E+00 0.  1.
         -2   -1    0    0    0  501 -0.00000000000E+00 -0.00000000000E+00 -0.27771262743E+02  0.27771262743E+02  0.00000000000E+00 0.  1.
         35    2    1    2    0    0  0.00000000000E+00  0.00000000000E+00  0.66572740029E+03  0.72126992578E+03  0.27755600216E+03 0.  0.
         25    1    3    3    0    0 -0.37318779037E+02 -0.50776332512E+02  0.41031933767E+03  0.43212600718E+03  0.12000000000E+03 0.  0.
         25    1    3    3    0    0  0.37318779037E+02  0.50776332512E+02  0.25540806262E+03  0.28914391860E+03  0.12000000000E+03 0.  0.
<mgrwt>
<rscale>  0 0.27755600E+03</rscale>
<asrwt>0</asrwt>
<pdfrwt beam="1">  1        2 0.10669209E+00 0.27755600E+03</pdfrwt>
<pdfrwt beam="2">  1       -2 0.42725025E-02 0.27755600E+03</pdfrwt>
<totfact> 0.10514746E+04</totfact>
</mgrwt>
</event>
<event>
 5    1  0.1140254E+001  0.2758383E+03  0.7818608E-02  0.1097984E+00
         -2   -1    0    0    0  501 -0.00000000000E+00  0.00000000000E+00  0.31496142866E+02  0.31496142866E+02  0.00000000000E+00 0.  1.
          2   -1    0    0  501    0  0.00000000000E+00 -0.00000000000E+00 -0.60393711484E+03  0.60393711484E+03  0.00000000000E+00 0.  1.
         35    2    1    2    0    0  0.00000000000E+00  0.00000000000E+00 -0.57244097198E+03  0.63543325771E+03  0.27583828343E+03 0.  0.
         25    1    3    3    0    0  0.23727934504E+02  0.46657138862E+02 -0.38615155563E+03  0.40774125054E+03  0.12000000000E+03 0.  0.
         25    1    3    3    0    0 -0.23727934504E+02 -0.46657138862E+02 -0.18628941635E+03  0.22769200716E+03  0.12000000000E+03 0.  0.
<mgrwt>
<rscale>  0 0.27583828E+03</rscale>
<asrwt>0</asrwt>
<pdfrwt beam="1">  1        2 0.92913394E-01 0.27583828E+03</pdfrwt>
<pdfrwt beam="2">  1       -2 0.48455609E-02 0.27583828E+03</pdfrwt>
<totfact> 0.10237829E+04</totfact>
</mgrwt>
</event>
<event>
 5    1  0.1140254E+001  0.2751243E+03  0.7818608E-02  0.1098382E+00
          2   -1    0    0  501    0  0.00000000000E+00  0.00000000000E+00  0.22554485872E+04  0.22554485872E+04  0.00000000000E+00 0. -1.
         -2   -1    0    0    0  501 -0.00000000000E+00 -0.00000000000E+00 -0.83900562922E+01  0.83900562922E+01  0.00000000000E+00 0. -1.
         35    2    1    2    0    0  0.00000000000E+00  0.00000000000E+00  0.22470585310E+04  0.22638386435E+04  0.27512426728E+03 0.  0.
         25    1    3    3    0    0 -0.33551008067E+02 -0.45462809368E+02  0.82335495177E+03  0.83396997175E+03  0.12000000000E+03 0.  0.
         25    1    3    3    0    0  0.33551008067E+02  0.45462809368E+02  0.14237035792E+04  0.14298686718E+04  0.12000000000E+03 0.  0.
<mgrwt>
<rscale>  0 0.27512427E+03</rscale>
<asrwt>0</asrwt>
<pdfrwt beam="1">  1        2 0.34699161E+00 0.27512427E+03</pdfrwt>
<pdfrwt beam="2">  1       -2 0.12907797E-02 0.27512427E+03</pdfrwt>
<totfact> 0.79945248E+03</totfact>
</mgrwt>
</event>
<event>
 5    1  0.1140254E+001  0.2752312E+03  0.7818608E-02  0.1098322E+00
          2   -1    0    0  501    0  0.00000000000E+00  0.00000000000E+00  0.13262230434E+04  0.13262230434E+04  0.00000000000E+00 0. -1.
         -2   -1    0    0    0  501 -0.00000000000E+00 -0.00000000000E+00 -0.14279685747E+02  0.14279685747E+02  0.00000000000E+00 0. -1.
         35    2    1    2    0    0  0.00000000000E+00  0.00000000000E+00  0.13119433577E+04  0.13405027292E+04  0.27523116314E+03 0.  0.
         25    1    3    3    0    0  0.24349247015E+02 -0.78149075015E+01  0.35243252335E+03  0.37317910194E+03  0.12000000000E+03 0.  0.
         25    1    3    3    0    0 -0.24349247015E+02  0.78149075015E+01  0.95951083433E+03  0.96732362723E+03  0.12000000000E+03 0.  0.
<mgrwt>
<rscale>  0 0.27523116E+03</rscale>
<asrwt>0</asrwt>
<pdfrwt beam="1">  1        2 0.20403422E+00 0.27523116E+03</pdfrwt>
<pdfrwt beam="2">  1       -2 0.21968758E-02 0.27523116E+03</pdfrwt>
<totfact> 0.11411997E+04</totfact>
</mgrwt>
</event>
<event>
 5    1  0.1140254E+001  0.2831675E+03  0.7818608E-02  0.1093971E+00
         -2   -1    0    0    0  501 -0.00000000000E+00  0.00000000000E+00  0.10849729424E+02  0.10849729424E+02  0.00000000000E+00 0. -1.
          2   -1    0    0  501    0  0.00000000000E+00 -0.00000000000E+00 -0.18475995832E+04  0.18475995832E+04  0.00000000000E+00 0. -1.
         35    2    1    2    0    0  0.00000000000E+00  0.00000000000E+00 -0.18367498538E+04  0.18584493126E+04  0.28316748092E+03 0.  0.
         25    1    3    3    0    0 -0.21382128654E+02  0.97025760516E+01 -0.44992492181E+03  0.46624432508E+03  0.12000000000E+03 0.  0.
         25    1    3    3    0    0  0.21382128654E+02 -0.97025760516E+01 -0.13868249320E+04  0.13922049876E+04  0.12000000000E+03 0.  0.
<mgrwt>
<rscale>  0 0.28316748E+03</rscale>
<asrwt>0</asrwt>
<pdfrwt beam="1">  1        2 0.28424599E+00 0.28316748E+03</pdfrwt>
<pdfrwt beam="2">  1       -2 0.16691897E-02 0.28316748E+03</pdfrwt>
<totfact> 0.90158174E+03</totfact>
</mgrwt>
</event>
<event>
 5    1  0.1140254E+001  0.2755740E+03  0.7818608E-02  0.1098131E+00
          4   -1    0    0  501    0  0.00000000000E+00  0.00000000000E+00  0.17692654618E+04  0.17692654618E+04  0.00000000000E+00 0. -1.
         -4   -1    0    0    0  501 -0.00000000000E+00 -0.00000000000E+00 -0.10730586278E+02  0.10730586278E+02  0.00000000000E+00 0. -1.
         35    2    1    2    0    0  0.00000000000E+00  0.00000000000E+00  0.17585348755E+04  0.17799960480E+04  0.27557398779E+03 0.  0.
         25    1    3    3    0    0  0.54595426303E+02 -0.36284777320E+01  0.62159113112E+03  0.63542848591E+03  0.12000000000E+03 0.  0.
         25    1    3    3    0    0 -0.54595426303E+02  0.36284777320E+01  0.11369437444E+04  0.11445675621E+04  0.12000000000E+03 0.  0.
<mgrwt>
<rscale>  0 0.27557399E+03</rscale>
<asrwt>0</asrwt>
<pdfrwt beam="1">  1        4 0.27219445E+00 0.27557399E+03</pdfrwt>
<pdfrwt beam="2">  1       -4 0.16508608E-02 0.27557399E+03</pdfrwt>
<totfact> 0.13520286E+02</totfact>
</mgrwt>
</event>
<event>
 5    1  0.1140254E+001  0.2762630E+03  0.7818608E-02  0.1097748E+00
          4   -1    0    0  501    0  0.00000000000E+00  0.00000000000E+00  0.10044285244E+03  0.10044285244E+03  0.00000000000E+00 0. -1.
         -4   -1    0    0    0  501 -0.00000000000E+00 -0.00000000000E+00 -0.18996187674E+03  0.18996187674E+03  0.00000000000E+00 0. -1.
         35    2    1    2    0    0  0.00000000000E+00  0.00000000000E+00 -0.89519024309E+02  0.29040472918E+03  0.27626301058E+03 0.  0.
         25    1    3    3    0    0  0.54166264407E+02 -0.14660033389E+02 -0.36230476128E+01  0.13252179916E+03  0.12000000000E+03 0.  0.
         25    1    3    3    0    0 -0.54166264407E+02  0.14660033389E+02 -0.85895976697E+02  0.15788293002E+03  0.12000000000E+03 0.  0.
<mgrwt>
<rscale>  0 0.27626301E+03</rscale>
<asrwt>0</asrwt>
<pdfrwt beam="1">  1        4 0.15452746E-01 0.27626301E+03</pdfrwt>
<pdfrwt beam="2">  1       -4 0.29224904E-01 0.27626301E+03</pdfrwt>
<totfact> 0.75005592E+02</totfact>
</mgrwt>
</event>
<event>
 5    1  0.1140254E+001  0.2692221E+03  0.7818608E-02  0.1101726E+00
         -2   -1    0    0    0  501 -0.00000000000E+00  0.00000000000E+00  0.10915994570E+02  0.10915994570E+02  0.00000000000E+00 0. -1.
          2   -1    0    0  501    0  0.00000000000E+00 -0.00000000000E+00 -0.16599620398E+04  0.16599620398E+04  0.00000000000E+00 0. -1.
         35    2    1    2    0    0  0.00000000000E+00  0.00000000000E+00 -0.16490460452E+04  0.16708780344E+04  0.26922211360E+03 0.  0.
         25    1    3    3    0    0 -0.47874511451E+02  0.28500532097E+02 -0.97854570864E+03  0.98744921544E+03  0.12000000000E+03 0.  0.
         25    1    3    3    0    0  0.47874511451E+02 -0.28500532097E+02 -0.67050033658E+03  0.68342881892E+03  0.12000000000E+03 0.  0.
<mgrwt>
<rscale>  0 0.26922211E+03</rscale>
<asrwt>0</asrwt>
<pdfrwt beam="1">  1        2 0.25537865E+00 0.26922211E+03</pdfrwt>
<pdfrwt beam="2">  1       -2 0.16793846E-02 0.26922211E+03</pdfrwt>
<totfact> 0.11206781E+04</totfact>
</mgrwt>
</event>
<event>
 5    1  0.1140254E+001  0.2750868E+03  0.7818608E-02  0.1098403E+00
          2   -1    0    0  501    0  0.00000000000E+00  0.00000000000E+00  0.14648408319E+03  0.14648408319E+03  0.00000000000E+00 0. -1.
         -2   -1    0    0    0  501 -0.00000000000E+00 -0.00000000000E+00 -0.12914842353E+03  0.12914842353E+03  0.00000000000E+00 0. -1.
         35    2    1    2    0    0  0.00000000000E+00  0.00000000000E+00  0.17335659660E+02  0.27563250672E+03  0.27508681115E+03 0.  0.
         25    1    3    3    0    0  0.56522575481E+01 -0.36471984739E+01  0.75680530661E+02  0.14203095717E+03  0.12000000000E+03 0.  0.
         25    1    3    3    0    0 -0.56522575481E+01  0.36471984739E+01 -0.58344871001E+02  0.13360154956E+03  0.12000000000E+03 0.  0.
<mgrwt>
<rscale>  0 0.27508681E+03</rscale>
<asrwt>0</asrwt>
<pdfrwt beam="1">  1        2 0.22536013E-01 0.27508681E+03</pdfrwt>
<pdfrwt beam="2">  1       -2 0.19868988E-01 0.27508681E+03</pdfrwt>
<totfact> 0.51102322E+03</totfact>
</mgrwt>
</event>
<event>
 5    1  0.1140254E+001  0.2782539E+03  0.7818608E-02  0.1096646E+00
          4   -1    0    0  501    0  0.00000000000E+00  0.00000000000E+00  0.57909102258E+03  0.57909102258E+03  0.00000000000E+00 0.  1.
         -4   -1    0    0    0  501 -0.00000000000E+00 -0.00000000000E+00 -0.33425340114E+02  0.33425340114E+02  0.00000000000E+00 0.  1.
         35    2    1    2    0    0  0.00000000000E+00  0.00000000000E+00  0.54566568247E+03  0.61251636270E+03  0.27825394435E+03 0.  0.
         25    1    3    3    0    0  0.65377281516E+01 -0.66927080547E+02  0.22695632063E+03  0.26538867247E+03  0.12000000000E+03 0.  0.
         25    1    3    3    0    0 -0.65377281516E+01  0.66927080547E+02  0.31870936184E+03  0.34712769023E+03  0.12000000000E+03 0.  0.
<mgrwt>
<rscale>  0 0.27825394E+03</rscale>
<asrwt>0</asrwt>
<pdfrwt beam="1">  1        4 0.89090919E-01 0.27825394E+03</pdfrwt>
<pdfrwt beam="2">  1       -4 0.51423604E-02 0.27825394E+03</pdfrwt>
<totfact> 0.47703734E+02</totfact>
</mgrwt>
</event>
<event>
 5    1  0.1140254E+001  0.2749804E+03  0.7818608E-02  0.1098463E+00
         -2   -1    0    0    0  501 -0.00000000000E+00  0.00000000000E+00  0.37723305754E+02  0.37723305754E+02  0.00000000000E+00 0.  1.
          2   -1    0    0  501    0  0.00000000000E+00 -0.00000000000E+00 -0.50111093145E+03  0.50111093145E+03  0.00000000000E+00 0.  1.
         35    2    1    2    0    0  0.00000000000E+00  0.00000000000E+00 -0.46338762570E+03  0.53883423721E+03  0.27498044210E+03 0.  0.
         25    1    3    3    0    0 -0.63422150897E+01  0.66723818240E+02 -0.23827192528E+03  0.27507417543E+03  0.12000000000E+03 0.  0.
         25    1    3    3    0    0  0.63422150897E+01 -0.66723818240E+02 -0.22511570042E+03  0.26376006178E+03  0.12000000000E+03 0.  0.
<mgrwt>
<rscale>  0 0.27498044E+03</rscale>
<asrwt>0</asrwt>
<pdfrwt beam="1">  1        2 0.77093987E-01 0.27498044E+03</pdfrwt>
<pdfrwt beam="2">  1       -2 0.58035857E-02 0.27498044E+03</pdfrwt>
<totfact> 0.96186562E+03</totfact>
</mgrwt>
</event>
<event>
 5    1  0.1140254E+001  0.2778401E+03  0.7818608E-02  0.1096875E+00
          1   -1    0    0  501    0  0.00000000000E+00  0.00000000000E+00  0.18086354383E+03  0.18086354383E+03  0.00000000000E+00 0. -1.
         -1   -1    0    0    0  501 -0.00000000000E+00 -0.00000000000E+00 -0.10670351545E+03  0.10670351545E+03  0.00000000000E+00 0. -1.
         35    2    1    2    0    0  0.00000000000E+00  0.00000000000E+00  0.74160028388E+02  0.28756705928E+03  0.27784006870E+03 0.  0.
         25    1    3    3    0    0  0.46202872735E+02 -0.51740333386E+02  0.46734404178E+02  0.14627327877E+03  0.12000000000E+03 0.  0.
         25    1    3    3    0    0 -0.46202872735E+02  0.51740333386E+02  0.27425624210E+02  0.14129378051E+03  0.12000000000E+03 0.  0.
<mgrwt>
<rscale>  0 0.27784007E+03</rscale>
<asrwt>0</asrwt>
<pdfrwt beam="1">  1        1 0.27825161E-01 0.27784007E+03</pdfrwt>
<pdfrwt beam="2">  1       -1 0.16415925E-01 0.27784007E+03</pdfrwt>
<totfact> 0.46080756E+03</totfact>
</mgrwt>
</event>
<event>
 5    1  0.1140254E+001  0.2753858E+03  0.7818608E-02  0.1098236E+00
          2   -1    0    0  501    0  0.00000000000E+00  0.00000000000E+00  0.11705758718E+04  0.11705758718E+04  0.00000000000E+00 0.  1.
         -2   -1    0    0    0  501 -0.00000000000E+00 -0.00000000000E+00 -0.16196590677E+02  0.16196590677E+02  0.00000000000E+00 0.  1.
         35    2    1    2    0    0  0.00000000000E+00  0.00000000000E+00  0.11543792812E+04  0.11867724625E+04  0.27538582572E+03 0.  0.
         25    1    3    3    0    0  0.61826080936E+02  0.27139211446E+02  0.57969200525E+03  0.59582029340E+03  0.12000000000E+03 0.  0.
         25    1    3    3    0    0 -0.61826080936E+02 -0.27139211446E+02  0.57468727592E+03  0.59095216912E+03  0.12000000000E+03 0.  0.
<mgrwt>
<rscale>  0 0.27538583E+03</rscale>
<asrwt>0</asrwt>
<pdfrwt beam="1">  1        2 0.18008853E+00 0.27538583E+03</pdfrwt>
<pdfrwt beam="2">  1       -2 0.24917841E-02 0.27538583E+03</pdfrwt>
<totfact> 0.11585191E+04</totfact>
</mgrwt>
</event>
<event>
 5    1  0.1140254E+001  0.2772766E+03  0.7818608E-02  0.1097186E+00
          2   -1    0    0  501    0  0.00000000000E+00  0.00000000000E+00  0.18092587067E+04  0.18092587067E+04  0.00000000000E+00 0.  1.
         -2   -1    0    0    0  501 -0.00000000000E+00 -0.00000000000E+00 -0.10623453705E+02  0.10623453705E+02  0.00000000000E+00 0.  1.
         35    2    1    2    0    0  0.00000000000E+00  0.00000000000E+00  0.17986352530E+04  0.18198821604E+04  0.27727658474E+03 0.  0.
         25    1    3    3    0    0 -0.17340934878E+02 -0.16016393781E+02  0.13278712980E+04  0.13334914386E+04  0.12000000000E+03 0.  0.
         25    1    3    3    0    0  0.17340934878E+02  0.16016393781E+02  0.47076395507E+03  0.48639072183E+03  0.12000000000E+03 0.  0.
<mgrwt>
<rscale>  0 0.27727658E+03</rscale>
<asrwt>0</asrwt>
<pdfrwt beam="1">  1        2 0.27834725E+00 0.27727658E+03</pdfrwt>
<pdfrwt beam="2">  1       -2 0.16343789E-02 0.27727658E+03</pdfrwt>
<totfact> 0.97376716E+03</totfact>
</mgrwt>
</event>
<event>
 5    1  0.1140254E+001  0.2759122E+03  0.7818608E-02  0.1097943E+00
         -2   -1    0    0    0  501 -0.00000000000E+00  0.00000000000E+00  0.19186221273E+02  0.19186221273E+02  0.00000000000E+00 0. -1.
          2   -1    0    0  501    0  0.00000000000E+00 -0.00000000000E+00 -0.99195619116E+03  0.99195619116E+03  0.00000000000E+00 0. -1.
         35    2    1    2    0    0  0.00000000000E+00  0.00000000000E+00 -0.97276996988E+03  0.10111424124E+04  0.27591223950E+03 0.  0.
         25    1    3    3    0    0  0.18375624677E+02  0.64957259360E+02 -0.45469372791E+03  0.47508261947E+03  0.12000000000E+03 0.  0.
         25    1    3    3    0    0 -0.18375624677E+02 -0.64957259360E+02 -0.51807624197E+03  0.53605979296E+03  0.12000000000E+03 0.  0.
<mgrwt>
<rscale>  0 0.27591224E+03</rscale>
<asrwt>0</asrwt>
<pdfrwt beam="1">  1        2 0.15260867E+00 0.27591224E+03</pdfrwt>
<pdfrwt beam="2">  1       -2 0.29517258E-02 0.27591224E+03</pdfrwt>
<totfact> 0.11497892E+04</totfact>
</mgrwt>
</event>
<event>
 5    1  0.1140254E+001  0.2755856E+03  0.7818608E-02  0.1098125E+00
         -1   -1    0    0    0  501 -0.00000000000E+00  0.00000000000E+00  0.24958480846E+02  0.24958480846E+02  0.00000000000E+00 0.  1.
          1   -1    0    0  501    0  0.00000000000E+00 -0.00000000000E+00 -0.76073740452E+03  0.76073740452E+03  0.00000000000E+00 0.  1.
         35    2    1    2    0    0  0.00000000000E+00  0.00000000000E+00 -0.73577892367E+03  0.78569588536E+03  0.27558555796E+03 0.  0.
         25    1    3    3    0    0 -0.20273735525E+02 -0.24028961548E+02 -0.53891258408E+03  0.55300559547E+03  0.12000000000E+03 0.  0.
         25    1    3    3    0    0  0.20273735525E+02  0.24028961548E+02 -0.19686633959E+03  0.23269028989E+03  0.12000000000E+03 0.  0.
<mgrwt>
<rscale>  0 0.27558556E+03</rscale>
<asrwt>0</asrwt>
<pdfrwt beam="1">  1        1 0.11703651E+00 0.27558556E+03</pdfrwt>
<pdfrwt beam="2">  1       -1 0.38397666E-02 0.27558556E+03</pdfrwt>
<totfact> 0.64929708E+03</totfact>
</mgrwt>
</event>
<event>
 5    1  0.1140254E+001  0.2737956E+03  0.7818608E-02  0.1099127E+00
          2   -1    0    0  501    0  0.00000000000E+00  0.00000000000E+00  0.23539780922E+03  0.23539780922E+03  0.00000000000E+00 0. -1.
         -2   -1    0    0    0  501 -0.00000000000E+00 -0.00000000000E+00 -0.79614215790E+02  0.79614215790E+02  0.00000000000E+00 0. -1.
         35    2    1    2    0    0  0.00000000000E+00  0.00000000000E+00  0.15578359343E+03  0.31501202501E+03  0.27379563167E+03 0.  0.
         25    1    3    3    0    0  0.36107838707E+02 -0.54239427863E+02  0.89124741184E+02  0.16306106538E+03  0.12000000000E+03 0.  0.
         25    1    3    3    0    0 -0.36107838707E+02  0.54239427863E+02  0.66658852250E+02  0.15195095964E+03  0.12000000000E+03 0.  0.
<mgrwt>
<rscale>  0 0.27379563E+03</rscale>
<asrwt>0</asrwt>
<pdfrwt beam="1">  1        2 0.36215047E-01 0.27379563E+03</pdfrwt>
<pdfrwt beam="2">  1       -2 0.12248341E-01 0.27379563E+03</pdfrwt>
<totfact> 0.67581488E+03</totfact>
</mgrwt>
</event>
<event>
 5    1  0.1140254E+001  0.2735438E+03  0.7818608E-02  0.1099268E+00
         -1   -1    0    0    0  501 -0.00000000000E+00  0.00000000000E+00  0.58066858420E+01  0.58066858420E+01  0.00000000000E+00 0. -1.
          1   -1    0    0  501    0  0.00000000000E+00 -0.00000000000E+00 -0.32215550423E+04  0.32215550423E+04  0.00000000000E+00 0. -1.
         35    2    1    2    0    0  0.00000000000E+00  0.00000000000E+00 -0.32157483565E+04  0.32273617282E+04  0.27354383966E+03 0.  0.
         25    1    3    3    0    0  0.23075903699E+02 -0.59799590759E+02 -0.14418276913E+04  0.14482318805E+04  0.12000000000E+03 0.  0.
         25    1    3    3    0    0 -0.23075903699E+02  0.59799590759E+02 -0.17739206652E+04  0.17791298476E+04  0.12000000000E+03 0.  0.
<mgrwt>
<rscale>  0 0.27354384E+03</rscale>
<asrwt>0</asrwt>
<pdfrwt beam="1">  1        1 0.49562381E+00 0.27354384E+03</pdfrwt>
<pdfrwt beam="2">  1       -1 0.89333637E-03 0.27354384E+03</pdfrwt>
<totfact> 0.11155312E+03</totfact>
</mgrwt>
</event>
<event>
 5    1  0.1140254E+001  0.2755955E+03  0.7818608E-02  0.1098119E+00
          2   -1    0    0  501    0  0.00000000000E+00  0.00000000000E+00  0.18889697179E+03  0.18889697179E+03  0.00000000000E+00 0.  1.
         -2   -1    0    0    0  501 -0.00000000000E+00 -0.00000000000E+00 -0.10052156397E+03  0.10052156397E+03  0.00000000000E+00 0.  1.
         35    2    1    2    0    0  0.00000000000E+00  0.00000000000E+00  0.88375407822E+02  0.28941853575E+03  0.27559549367E+03 0.  0.
         25    1    3    3    0    0 -0.33417462590E+02  0.51321099710E+02  0.13794103910E+02  0.13542842901E+03  0.12000000000E+03 0.  0.
         25    1    3    3    0    0  0.33417462590E+02 -0.51321099710E+02  0.74581303911E+02  0.15399010674E+03  0.12000000000E+03 0.  0.
<mgrwt>
<rscale>  0 0.27559549E+03</rscale>
<asrwt>0</asrwt>
<pdfrwt beam="1">  1        2 0.29061072E-01 0.27559549E+03</pdfrwt>
<pdfrwt beam="2">  1       -2 0.15464856E-01 0.27559549E+03</pdfrwt>
<totfact> 0.58673084E+03</totfact>
</mgrwt>
</event>
<event>
 5    1  0.1140254E+001  0.2749761E+03  0.7818608E-02  0.1098465E+00
         -2   -1    0    0    0  501 -0.00000000000E+00  0.00000000000E+00  0.83047536761E+02  0.83047536761E+02  0.00000000000E+00 0.  1.
          2   -1    0    0  501    0  0.00000000000E+00 -0.00000000000E+00 -0.22761619367E+03  0.22761619367E+03  0.00000000000E+00 0.  1.
         35    2    1    2    0    0  0.00000000000E+00  0.00000000000E+00 -0.14456865691E+03  0.31066373043E+03  0.27497610232E+03 0.  0.
         25    1    3    3    0    0 -0.64055417931E+01  0.35554278388E+02 -0.13617288147E+03  0.18506266864E+03  0.12000000000E+03 0.  0.
         25    1    3    3    0    0  0.64055417931E+01 -0.35554278388E+02 -0.83957754412E+01  0.12560106179E+03  0.12000000000E+03 0.  0.
<mgrwt>
<rscale>  0 0.27497610E+03</rscale>
<asrwt>0</asrwt>
<pdfrwt beam="1">  1        2 0.35017876E-01 0.27497610E+03</pdfrwt>
<pdfrwt beam="2">  1       -2 0.12776544E-01 0.27497610E+03</pdfrwt>
<totfact> 0.65465326E+03</totfact>
</mgrwt>
</event>
<event>
 5    1  0.1140254E+001  0.2744350E+03  0.7818608E-02  0.1098768E+00
          2   -1    0    0  501    0  0.00000000000E+00  0.00000000000E+00  0.24573557898E+03  0.24573557898E+03  0.00000000000E+00 0. -1.
         -2   -1    0    0    0  501 -0.00000000000E+00 -0.00000000000E+00 -0.76621530639E+02  0.76621530639E+02  0.00000000000E+00 0. -1.
         35    2    1    2    0    0  0.00000000000E+00  0.00000000000E+00  0.16911404834E+03  0.32235710962E+03  0.27443495546E+03 0.  0.
         25    1    3    3    0    0 -0.22805856768E+02 -0.61286402505E+02  0.99062809051E+02  0.16878853744E+03  0.12000000000E+03 0.  0.
         25    1    3    3    0    0  0.22805856768E+02  0.61286402505E+02  0.70051239293E+02  0.15356857218E+03  0.12000000000E+03 0.  0.
<mgrwt>
<rscale>  0 0.27443496E+03</rscale>
<asrwt>0</asrwt>
<pdfrwt beam="1">  1        2 0.37805473E-01 0.27443496E+03</pdfrwt>
<pdfrwt beam="2">  1       -2 0.11787928E-01 0.27443496E+03</pdfrwt>
<totfact> 0.68632224E+03</totfact>
</mgrwt>
</event>
<event>
 5    1  0.1140254E+001  0.2757956E+03  0.7818608E-02  0.1098008E+00
          1   -1    0    0  501    0  0.00000000000E+00  0.00000000000E+00  0.14680507124E+04  0.14680507124E+04  0.00000000000E+00 0. -1.
         -1   -1    0    0    0  501 -0.00000000000E+00 -0.00000000000E+00 -0.12953098804E+02  0.12953098804E+02  0.00000000000E+00 0. -1.
         35    2    1    2    0    0  0.00000000000E+00  0.00000000000E+00  0.14550976136E+04  0.14810038112E+04  0.27579561946E+03 0.  0.
         25    1    3    3    0    0  0.66945539274E+02  0.50927927102E+01  0.78339717738E+03  0.79537335842E+03  0.12000000000E+03 0.  0.
         25    1    3    3    0    0 -0.66945539274E+02 -0.50927927102E+01  0.67170043626E+03  0.68563045282E+03  0.12000000000E+03 0.  0.
<mgrwt>
<rscale>  0 0.27579562E+03</rscale>
<asrwt>0</asrwt>
<pdfrwt beam="1">  1        1 0.22585382E+00 0.27579562E+03</pdfrwt>
<pdfrwt beam="2">  1       -1 0.19927856E-02 0.27579562E+03</pdfrwt>
<totfact> 0.51805966E+03</totfact>
</mgrwt>
</event>
<event>
 5    1  0.1140254E+001  0.2749871E+03  0.7818608E-02  0.1098459E+00
         -2   -1    0    0    0  501 -0.00000000000E+00  0.00000000000E+00  0.64785919929E+01  0.64785919929E+01  0.00000000000E+00 0. -1.
          2   -1    0    0  501    0  0.00000000000E+00 -0.00000000000E+00 -0.29179904937E+04  0.29179904937E+04  0.00000000000E+00 0. -1.
         35    2    1    2    0    0  0.00000000000E+00  0.00000000000E+00 -0.29115119017E+04  0.29244690857E+04  0.27498705313E+03 0.  0.
         25    1    3    3    0    0 -0.18526529219E+02  0.59391372208E+02 -0.17235161423E+04  0.17288083931E+04  0.12000000000E+03 0.  0.
         25    1    3    3    0    0  0.18526529219E+02 -0.59391372208E+02 -0.11879957594E+04  0.11956606926E+04  0.12000000000E+03 0.  0.
<mgrwt>
<rscale>  0 0.27498705E+03</rscale>
<asrwt>0</asrwt>
<pdfrwt beam="1">  1        2 0.44892229E+00 0.27498705E+03</pdfrwt>
<pdfrwt beam="2">  1       -2 0.99670496E-03 0.27498705E+03</pdfrwt>
<totfact> 0.49884024E+03</totfact>
</mgrwt>
</event>
<event>
 5    1  0.1140254E+001  0.2746063E+03  0.7818608E-02  0.1098672E+00
         -2   -1    0    0    0  501 -0.00000000000E+00  0.00000000000E+00  0.12375442678E+02  0.12375442678E+02  0.00000000000E+00 0. -1.
          2   -1    0    0  501    0  0.00000000000E+00 -0.00000000000E+00 -0.15233525042E+04  0.15233525042E+04  0.00000000000E+00 0. -1.
         35    2    1    2    0    0  0.00000000000E+00  0.00000000000E+00 -0.15109770615E+04  0.15357279469E+04  0.27460634803E+03 0.  0.
         25    1    3    3    0    0 -0.43859093391E+02  0.60801728902E+01 -0.47633667156E+03  0.49321112442E+03  0.12000000000E+03 0.  0.
         25    1    3    3    0    0  0.43859093391E+02 -0.60801728902E+01 -0.10346403900E+04  0.10425168225E+04  0.12000000000E+03 0.  0.
<mgrwt>
<rscale>  0 0.27460635E+03</rscale>
<asrwt>0</asrwt>
<pdfrwt beam="1">  1        2 0.23436192E+00 0.27460635E+03</pdfrwt>
<pdfrwt beam="2">  1       -2 0.19039143E-02 0.27460635E+03</pdfrwt>
<totfact> 0.11018689E+04</totfact>
</mgrwt>
</event>
<event>
 5    1  0.1140254E+001  0.2761346E+03  0.7818608E-02  0.1097819E+00
          1   -1    0    0  501    0  0.00000000000E+00  0.00000000000E+00  0.58690227728E+03  0.58690227728E+03  0.00000000000E+00 0. -1.
         -1   -1    0    0    0  501 -0.00000000000E+00 -0.00000000000E+00 -0.32479985271E+02  0.32479985271E+02  0.00000000000E+00 0. -1.
         35    2    1    2    0    0  0.00000000000E+00  0.00000000000E+00  0.55442229201E+03  0.61938226255E+03  0.27613458546E+03 0.  0.
         25    1    3    3    0    0 -0.19141129612E+02 -0.52522303310E+02  0.36516602710E+03  0.38842142389E+03  0.12000000000E+03 0.  0.
         25    1    3    3    0    0  0.19141129612E+02  0.52522303310E+02  0.18925626491E+03  0.23096083866E+03  0.12000000000E+03 0.  0.
<mgrwt>
<rscale>  0 0.27613459E+03</rscale>
<asrwt>0</asrwt>
<pdfrwt beam="1">  1        1 0.90292650E-01 0.27613459E+03</pdfrwt>
<pdfrwt beam="2">  1       -1 0.49969213E-02 0.27613459E+03</pdfrwt>
<totfact> 0.63666585E+03</totfact>
</mgrwt>
</event>
<event>
 5    1  0.1140254E+001  0.2752219E+03  0.7818608E-02  0.1098328E+00
          1   -1    0    0  501    0  0.00000000000E+00  0.00000000000E+00  0.13715737714E+03  0.13715737714E+03  0.00000000000E+00 0. -1.
         -1   -1    0    0    0  501 -0.00000000000E+00 -0.00000000000E+00 -0.13806607292E+03  0.13806607292E+03  0.00000000000E+00 0. -1.
         35    2    1    2    0    0  0.00000000000E+00  0.00000000000E+00 -0.90869578343E+00  0.27522345006E+03  0.27522194995E+03 0.  0.
         25    1    3    3    0    0  0.10142177588E+02  0.66216287526E+02 -0.74772013878E+01  0.13763491214E+03  0.12000000000E+03 0.  0.
         25    1    3    3    0    0 -0.10142177588E+02 -0.66216287526E+02  0.65685056043E+01  0.13758853792E+03  0.12000000000E+03 0.  0.
<mgrwt>
<rscale>  0 0.27522195E+03</rscale>
<asrwt>0</asrwt>
<pdfrwt beam="1">  1        1 0.21101135E-01 0.27522195E+03</pdfrwt>
<pdfrwt beam="2">  1       -1 0.21240934E-01 0.27522195E+03</pdfrwt>
<totfact> 0.43225322E+03</totfact>
</mgrwt>
</event>
<event>
 5    1  0.1140254E+001  0.2755302E+03  0.7818608E-02  0.1098156E+00
         -1   -1    0    0    0  501 -0.00000000000E+00  0.00000000000E+00  0.11025422133E+04  0.11025422133E+04  0.00000000000E+00 0. -1.
          1   -1    0    0  501    0  0.00000000000E+00 -0.00000000000E+00 -0.17214050384E+02  0.17214050384E+02  0.00000000000E+00 0. -1.
         35    2    1    2    0    0  0.00000000000E+00  0.00000000000E+00  0.10853281630E+04  0.11197562637E+04  0.27553015959E+03 0.  0.
         25    1    3    3    0    0  0.25430079109E+02  0.62137757159E+02  0.57701092631E+03  0.59316894631E+03  0.12000000000E+03 0.  0.
         25    1    3    3    0    0 -0.25430079109E+02 -0.62137757159E+02  0.50831723664E+03  0.52658731741E+03  0.12000000000E+03 0.  0.
<mgrwt>
<rscale>  0 0.27553016E+03</rscale>
<asrwt>0</asrwt>
<pdfrwt beam="1">  1        1 0.26483163E-02 0.27553016E+03</pdfrwt>
<pdfrwt beam="2">  1       -1 0.16962182E+00 0.27553016E+03</pdfrwt>
<totfact> 0.11006450E+03</totfact>
</mgrwt>
</event>
<event>
 5    1  0.1140254E+001  0.2748597E+03  0.7818608E-02  0.1098530E+00
         -2   -1    0    0    0  501 -0.00000000000E+00  0.00000000000E+00  0.54306383756E+01  0.54306383756E+01  0.00000000000E+00 0. -1.
          2   -1    0    0  501    0  0.00000000000E+00 -0.00000000000E+00 -0.34778527605E+04  0.34778527605E+04  0.00000000000E+00 0. -1.
         35    2    1    2    0    0  0.00000000000E+00  0.00000000000E+00 -0.34724221221E+04  0.34832833989E+04  0.27485967813E+03 0.  0.
         25    1    3    3    0    0 -0.38785783392E+02 -0.43574129865E+02 -0.13189804473E+04  0.13257120585E+04  0.12000000000E+03 0.  0.
         25    1    3    3    0    0  0.38785783392E+02  0.43574129865E+02 -0.21534416748E+04  0.21575713403E+04  0.12000000000E+03 0.  0.
<mgrwt>
<rscale>  0 0.27485968E+03</rscale>
<asrwt>0</asrwt>
<pdfrwt beam="1">  1        2 0.53505553E+00 0.27485968E+03</pdfrwt>
<pdfrwt beam="2">  1       -2 0.83548086E-03 0.27485968E+03</pdfrwt>
<totfact> 0.29030603E+03</totfact>
</mgrwt>
</event>
<event>
 5    1  0.1140254E+001  0.2705927E+03  0.7818608E-02  0.1100941E+00
         -2   -1    0    0    0  501 -0.00000000000E+00  0.00000000000E+00  0.11176311015E+04  0.11176311015E+04  0.00000000000E+00 0. -1.
          2   -1    0    0  501    0  0.00000000000E+00 -0.00000000000E+00 -0.16378480667E+02  0.16378480667E+02  0.00000000000E+00 0. -1.
         35    2    1    2    0    0  0.00000000000E+00  0.00000000000E+00  0.11012526209E+04  0.11340095822E+04  0.27059267831E+03 0.  0.
         25    1    3    3    0    0 -0.57883376545E+01 -0.30367873398E+02  0.77822331881E+03  0.78802744021E+03  0.12000000000E+03 0.  0.
         25    1    3    3    0    0  0.57883376545E+01  0.30367873398E+02  0.32302930206E+03  0.34598214199E+03  0.12000000000E+03 0.  0.
<mgrwt>
<rscale>  0 0.27059268E+03</rscale>
<asrwt>0</asrwt>
<pdfrwt beam="1">  1        2 0.25197671E-02 0.27059268E+03</pdfrwt>
<pdfrwt beam="2">  1       -2 0.17194319E+00 0.27059268E+03</pdfrwt>
<totfact> 0.87816391E+02</totfact>
</mgrwt>
</event>
<event>
 5    1  0.1140254E+001  0.2780308E+03  0.7818608E-02  0.1096769E+00
         -2   -1    0    0    0  501 -0.00000000000E+00  0.00000000000E+00  0.12936627680E+03  0.12936627680E+03  0.00000000000E+00 0.  1.
          2   -1    0    0  501    0  0.00000000000E+00 -0.00000000000E+00 -0.14938419862E+03  0.14938419862E+03  0.00000000000E+00 0.  1.
         35    2    1    2    0    0  0.00000000000E+00  0.00000000000E+00 -0.20017921823E+02  0.27875047541E+03  0.27803077231E+03 0.  0.
         25    1    3    3    0    0 -0.61898742420E+02  0.31208153654E+02 -0.20986020188E+02  0.14016353381E+03  0.12000000000E+03 0.  0.
         25    1    3    3    0    0  0.61898742420E+02 -0.31208153654E+02  0.96809836495E+00  0.13858694160E+03  0.12000000000E+03 0.  0.
<mgrwt>
<rscale>  0 0.27803077E+03</rscale>
<asrwt>0</asrwt>
<pdfrwt beam="1">  1        2 0.22982184E-01 0.27803077E+03</pdfrwt>
<pdfrwt beam="2">  1       -2 0.19902504E-01 0.27803077E+03</pdfrwt>
<totfact> 0.49858489E+03</totfact>
</mgrwt>
</event>
<event>
 5    1  0.1140254E+001  0.2753750E+03  0.7818608E-02  0.1098242E+00
          1   -1    0    0  501    0  0.00000000000E+00  0.00000000000E+00  0.16789512605E+02  0.16789512605E+02  0.00000000000E+00 0.  1.
         -1   -1    0    0    0  501 -0.00000000000E+00 -0.00000000000E+00 -0.11291481650E+04  0.11291481650E+04  0.00000000000E+00 0.  1.
         35    2    1    2    0    0  0.00000000000E+00  0.00000000000E+00 -0.11123586524E+04  0.11459376776E+04  0.27537499777E+03 0.  0.
         25    1    3    3    0    0  0.25787378083E+02  0.44342900200E+02 -0.37352565639E+03  0.39566740787E+03  0.12000000000E+03 0.  0.
         25    1    3    3    0    0 -0.25787378083E+02 -0.44342900200E+02 -0.73883299604E+03  0.75027026977E+03  0.12000000000E+03 0.  0.
<mgrwt>
<rscale>  0 0.27537500E+03</rscale>
<asrwt>0</asrwt>
<pdfrwt beam="1">  1        1 0.25830021E-02 0.27537500E+03</pdfrwt>
<pdfrwt beam="2">  1       -1 0.17371509E+00 0.27537500E+03</pdfrwt>
<totfact> 0.10661526E+03</totfact>
</mgrwt>
</event>
<event>
 5    1  0.1140254E+001  0.2756772E+03  0.7818608E-02  0.1098074E+00
          2   -1    0    0  501    0  0.00000000000E+00  0.00000000000E+00  0.43544890051E+03  0.43544890051E+03  0.00000000000E+00 0.  1.
         -2   -1    0    0    0  501 -0.00000000000E+00 -0.00000000000E+00 -0.43631953171E+02  0.43631953171E+02  0.00000000000E+00 0.  1.
         35    2    1    2    0    0  0.00000000000E+00  0.00000000000E+00  0.39181694734E+03  0.47908085368E+03  0.27567724633E+03 0.  0.
         25    1    3    3    0    0 -0.14484931105E+01 -0.63905440423E+02  0.23528802405E+03  0.27174704729E+03  0.12000000000E+03 0.  0.
         25    1    3    3    0    0  0.14484931105E+01  0.63905440423E+02  0.15652892329E+03  0.20733380640E+03  0.12000000000E+03 0.  0.
<mgrwt>
<rscale>  0 0.27567725E+03</rscale>
<asrwt>0</asrwt>
<pdfrwt beam="1">  1        2 0.66992136E-01 0.27567725E+03</pdfrwt>
<pdfrwt beam="2">  1       -2 0.67126085E-02 0.27567725E+03</pdfrwt>
<totfact> 0.89847760E+03</totfact>
</mgrwt>
</event>
<event>
 5    1  0.1140254E+001  0.2750871E+03  0.7818608E-02  0.1098403E+00
          2   -1    0    0  501    0  0.00000000000E+00  0.00000000000E+00  0.69256597358E+02  0.69256597358E+02  0.00000000000E+00 0. -1.
         -2   -1    0    0    0  501 -0.00000000000E+00 -0.00000000000E+00 -0.27316146590E+03  0.27316146590E+03  0.00000000000E+00 0. -1.
         35    2    1    2    0    0  0.00000000000E+00  0.00000000000E+00 -0.20390486855E+03  0.34241806326E+03  0.27508714007E+03 0.  0.
         25    1    3    3    0    0 -0.35925097818E+02 -0.64852880414E+01 -0.31697082551E+02  0.12937301363E+03  0.12000000000E+03 0.  0.
         25    1    3    3    0    0  0.35925097818E+02  0.64852880414E+01 -0.17220778599E+03  0.21304504963E+03  0.12000000000E+03 0.  0.
<mgrwt>
<rscale>  0 0.27508714E+03</rscale>
<asrwt>0</asrwt>
<pdfrwt beam="1">  1        2 0.10654861E-01 0.27508714E+03</pdfrwt>
<pdfrwt beam="2">  1       -2 0.42024841E-01 0.27508714E+03</pdfrwt>
<totfact> 0.31918509E+03</totfact>
</mgrwt>
</event>
<event>
 5    1  0.1140254E+001  0.2743702E+03  0.7818608E-02  0.1098804E+00
         -2   -1    0    0    0  501 -0.00000000000E+00  0.00000000000E+00  0.11577318590E+03  0.11577318590E+03  0.00000000000E+00 0.  1.
          2   -1    0    0  501    0  0.00000000000E+00 -0.00000000000E+00 -0.16255706621E+03  0.16255706621E+03  0.00000000000E+00 0.  1.
         35    2    1    2    0    0  0.00000000000E+00  0.00000000000E+00 -0.46783880305E+02  0.27833025211E+03  0.27437018385E+03 0.  0.
         25    1    3    3    0    0  0.36658748984E+02 -0.53714211400E+02 -0.93843439322E+01  0.13681062201E+03  0.12000000000E+03 0.  0.
         25    1    3    3    0    0 -0.36658748984E+02  0.53714211400E+02 -0.37399536372E+02  0.14151963010E+03  0.12000000000E+03 0.  0.
<mgrwt>
<rscale>  0 0.27437018E+03</rscale>
<asrwt>0</asrwt>
<pdfrwt beam="1">  1        2 0.25008779E-01 0.27437018E+03</pdfrwt>
<pdfrwt beam="2">  1       -2 0.17811259E-01 0.27437018E+03</pdfrwt>
<totfact> 0.54722859E+03</totfact>
</mgrwt>
</event>
<event>
 5    1  0.1140254E+001  0.2748582E+03  0.7818608E-02  0.1098531E+00
         -2   -1    0    0    0  501 -0.00000000000E+00  0.00000000000E+00  0.21197601507E+03  0.21197601507E+03  0.00000000000E+00 0.  1.
          2   -1    0    0  501    0  0.00000000000E+00 -0.00000000000E+00 -0.89098530426E+02  0.89098530426E+02  0.00000000000E+00 0.  1.
         35    2    1    2    0    0  0.00000000000E+00  0.00000000000E+00  0.12287748464E+03  0.30107454550E+03  0.27485815562E+03 0.  0.
         25    1    3    3    0    0  0.14634352053E+02  0.58822133853E+02  0.92662760069E+02  0.16328072389E+03  0.12000000000E+03 0.  0.
         25    1    3    3    0    0 -0.14634352053E+02 -0.58822133853E+02  0.30214724575E+02  0.13779382160E+03  0.12000000000E+03 0.  0.
<mgrwt>
<rscale>  0 0.27485816E+03</rscale>
<asrwt>0</asrwt>
<pdfrwt beam="1">  1        2 0.13707466E-01 0.27485816E+03</pdfrwt>
<pdfrwt beam="2">  1       -2 0.32611695E-01 0.27485816E+03</pdfrwt>
<totfact> 0.37880079E+03</totfact>
</mgrwt>
</event>
<event>
 5    1  0.1140254E+001  0.2748620E+03  0.7818608E-02  0.1098529E+00
          2   -1    0    0  501    0  0.00000000000E+00  0.00000000000E+00  0.44741673174E+02  0.44741673174E+02  0.00000000000E+00 0.  1.
         -2   -1    0    0    0  501 -0.00000000000E+00 -0.00000000000E+00 -0.42214064874E+03  0.42214064874E+03  0.00000000000E+00 0.  1.
         35    2    1    2    0    0  0.00000000000E+00  0.00000000000E+00 -0.37739897557E+03  0.46688232192E+03  0.27486199402E+03 0.  0.
         25    1    3    3    0    0 -0.29739255153E+02  0.34688232098E+02 -0.10549235581E+03  0.16618162918E+03  0.12000000000E+03 0.  0.
         25    1    3    3    0    0  0.29739255153E+02 -0.34688232098E+02 -0.27190661976E+03  0.30070069274E+03  0.12000000000E+03 0.  0.
<mgrwt>
<rscale>  0 0.27486199E+03</rscale>
<asrwt>0</asrwt>
<pdfrwt beam="1">  1        2 0.68833346E-02 0.27486199E+03</pdfrwt>
<pdfrwt beam="2">  1       -2 0.64944713E-01 0.27486199E+03</pdfrwt>
<totfact> 0.23055236E+03</totfact>
</mgrwt>
</event>
<event>
 5    1  0.1140254E+001  0.2758071E+03  0.7818608E-02  0.1098001E+00
          1   -1    0    0  501    0  0.00000000000E+00  0.00000000000E+00  0.19592459946E+03  0.19592459946E+03  0.00000000000E+00 0. -1.
         -1   -1    0    0    0  501 -0.00000000000E+00 -0.00000000000E+00 -0.97064846185E+02  0.97064846185E+02  0.00000000000E+00 0. -1.
         35    2    1    2    0    0  0.00000000000E+00  0.00000000000E+00  0.98859753273E+02  0.29298944564E+03  0.27580711456E+03 0.  0.
         25    1    3    3    0    0 -0.26277302472E+02 -0.46825663524E+02  0.93668599250E+02  0.16142164005E+03  0.12000000000E+03 0.  0.
         25    1    3    3    0    0  0.26277302472E+02  0.46825663524E+02  0.51911540229E+01  0.13156780560E+03  0.12000000000E+03 0.  0.
<mgrwt>
<rscale>  0 0.27580711E+03</rscale>
<asrwt>0</asrwt>
<pdfrwt beam="1">  1        1 0.30142246E-01 0.27580711E+03</pdfrwt>
<pdfrwt beam="2">  1       -1 0.14933053E-01 0.27580711E+03</pdfrwt>
<totfact> 0.48415512E+03</totfact>
</mgrwt>
</event>
<event>
 5    1  0.1140254E+001  0.2751149E+03  0.7818608E-02  0.1098387E+00
         -1   -1    0    0    0  501 -0.00000000000E+00  0.00000000000E+00  0.75302713525E+02  0.75302713525E+02  0.00000000000E+00 0.  1.
          1   -1    0    0  501    0  0.00000000000E+00 -0.00000000000E+00 -0.25127980190E+03  0.25127980190E+03  0.00000000000E+00 0.  1.
         35    2    1    2    0    0  0.00000000000E+00  0.00000000000E+00 -0.17597708838E+03  0.32658251543E+03  0.27511489191E+03 0.  0.
         25    1    3    3    0    0  0.40742910847E+02  0.53372702918E+02 -0.83639768553E+02  0.16094794526E+03  0.12000000000E+03 0.  0.
         25    1    3    3    0    0 -0.40742910847E+02 -0.53372702918E+02 -0.92337319826E+02  0.16563457016E+03  0.12000000000E+03 0.  0.
<mgrwt>
<rscale>  0 0.27511489E+03</rscale>
<asrwt>0</asrwt>
<pdfrwt beam="1">  1        1 0.38658431E-01 0.27511489E+03</pdfrwt>
<pdfrwt beam="2">  1       -1 0.11585033E-01 0.27511489E+03</pdfrwt>
<totfact> 0.52764976E+03</totfact>
</mgrwt>
</event>
<event>
 5    1  0.1140254E+001  0.2750909E+03  0.7818608E-02  0.1098401E+00
         -2   -1    0    0    0  501 -0.00000000000E+00  0.00000000000E+00  0.53540843578E+02  0.53540843578E+02  0.00000000000E+00 0. -1.
          2   -1    0    0  501    0  0.00000000000E+00 -0.00000000000E+00 -0.35335185884E+03  0.35335185884E+03  0.00000000000E+00 0. -1.
         35    2    1    2    0    0  0.00000000000E+00  0.00000000000E+00 -0.29981101526E+03  0.40689270241E+03  0.27509094207E+03 0.  0.
         25    1    3    3    0    0  0.51156764959E+02  0.49140313364E+01 -0.85813409489E+02  0.15622132874E+03  0.12000000000E+03 0.  0.
         25    1    3    3    0    0 -0.51156764959E+02 -0.49140313364E+01 -0.21399760577E+03  0.25067137368E+03  0.12000000000E+03 0.  0.
<mgrwt>
<rscale>  0 0.27509094E+03</rscale>
<asrwt>0</asrwt>
<pdfrwt beam="1">  1        2 0.54361824E-01 0.27509094E+03</pdfrwt>
<pdfrwt beam="2">  1       -2 0.82370529E-02 0.27509094E+03</pdfrwt>
<totfact> 0.82006957E+03</totfact>
</mgrwt>
</event>
<event>
 5    1  0.1140254E+001  0.2750202E+03  0.7818608E-02  0.1098440E+00
          2   -1    0    0  501    0  0.00000000000E+00  0.00000000000E+00  0.97586293058E+03  0.97586293058E+03  0.00000000000E+00 0.  1.
         -2   -1    0    0    0  501 -0.00000000000E+00 -0.00000000000E+00 -0.19376726787E+02  0.19376726787E+02  0.00000000000E+00 0.  1.
         35    2    1    2    0    0  0.00000000000E+00  0.00000000000E+00  0.95648620379E+03  0.99523965736E+03  0.27502021299E+03 0.  0.
         25    1    3    3    0    0  0.15697647221E+01  0.60883512906E+02  0.58058270670E+03  0.59597445048E+03  0.12000000000E+03 0.  0.
         25    1    3    3    0    0 -0.15697647221E+01 -0.60883512906E+02  0.37590349709E+03  0.39926520689E+03  0.12000000000E+03 0.  0.
<mgrwt>
<rscale>  0 0.27502021E+03</rscale>
<asrwt>0</asrwt>
<pdfrwt beam="1">  1        2 0.15013272E+00 0.27502021E+03</pdfrwt>
<pdfrwt beam="2">  1       -2 0.29810357E-02 0.27502021E+03</pdfrwt>
<totfact> 0.11591103E+04</totfact>
</mgrwt>
</event>
<event>
 5    1  0.1140254E+001  0.2743416E+03  0.7818608E-02  0.1098820E+00
          2   -1    0    0  501    0  0.00000000000E+00  0.00000000000E+00  0.19957255807E+03  0.19957255807E+03  0.00000000000E+00 0. -1.
         -2   -1    0    0    0  501 -0.00000000000E+00 -0.00000000000E+00 -0.94280631568E+02  0.94280631568E+02  0.00000000000E+00 0. -1.
         35    2    1    2    0    0  0.00000000000E+00  0.00000000000E+00  0.10529192650E+03  0.29385318963E+03  0.27434158867E+03 0.  0.
         25    1    3    3    0    0  0.42082836083E+02 -0.11209115900E+02  0.10640748925E+03  0.16619014152E+03  0.12000000000E+03 0.  0.
         25    1    3    3    0    0 -0.42082836083E+02  0.11209115900E+02 -0.11155627496E+01  0.12766304811E+03  0.12000000000E+03 0.  0.
<mgrwt>
<rscale>  0 0.27434159E+03</rscale>
<asrwt>0</asrwt>
<pdfrwt beam="1">  1        2 0.30703470E-01 0.27434159E+03</pdfrwt>
<pdfrwt beam="2">  1       -2 0.14504713E-01 0.27434159E+03</pdfrwt>
<totfact> 0.61395341E+03</totfact>
</mgrwt>
</event>
<event>
 5    1  0.1140254E+001  0.2724095E+03  0.7818608E-02  0.1099908E+00
         -1   -1    0    0    0  501 -0.00000000000E+00  0.00000000000E+00  0.92522528169E+02  0.92522528169E+02  0.00000000000E+00 0.  1.
          1   -1    0    0  501    0  0.00000000000E+00 -0.00000000000E+00 -0.20051044824E+03  0.20051044824E+03  0.00000000000E+00 0.  1.
         35    2    1    2    0    0  0.00000000000E+00  0.00000000000E+00 -0.10798792007E+03  0.29303297640E+03  0.27240949760E+03 0.  0.
         25    1    3    3    0    0 -0.88152050118E+01  0.63060817890E+02 -0.64608038877E+02  0.15042796708E+03  0.12000000000E+03 0.  0.
         25    1    3    3    0    0  0.88152050118E+01 -0.63060817890E+02 -0.43379881190E+02  0.14260500932E+03  0.12000000000E+03 0.  0.
<mgrwt>
<rscale>  0 0.27240950E+03</rscale>
<asrwt>0</asrwt>
<pdfrwt beam="1">  1        1 0.30847761E-01 0.27240950E+03</pdfrwt>
<pdfrwt beam="2">  1       -1 0.14234235E-01 0.27240950E+03</pdfrwt>
<totfact> 0.50710154E+03</totfact>
</mgrwt>
</event>
<event>
 5    1  0.1140254E+001  0.2758059E+03  0.7818608E-02  0.1098002E+00
         -1   -1    0    0    0  501 -0.00000000000E+00  0.00000000000E+00  0.42026991478E+03  0.42026991478E+03  0.00000000000E+00 0. -1.
          1   -1    0    0  501    0  0.00000000000E+00 -0.00000000000E+00 -0.45250036432E+02  0.45250036432E+02  0.00000000000E+00 0. -1.
         35    2    1    2    0    0  0.00000000000E+00  0.00000000000E+00  0.37501987835E+03  0.46551995121E+03  0.27580593869E+03 0.  0.
         25    1    3    3    0    0 -0.35395493971E+02 -0.16708260050E+02  0.28126136808E+03  0.30828552370E+03  0.12000000000E+03 0.  0.
         25    1    3    3    0    0  0.35395493971E+02  0.16708260050E+02  0.93758510264E+02  0.15723442751E+03  0.12000000000E+03 0.  0.
<mgrwt>
<rscale>  0 0.27580594E+03</rscale>
<asrwt>0</asrwt>
<pdfrwt beam="1">  1        1 0.69615443E-02 0.27580594E+03</pdfrwt>
<pdfrwt beam="2">  1       -1 0.64656907E-01 0.27580594E+03</pdfrwt>
<totfact> 0.26359301E+03</totfact>
</mgrwt>
</event>
<event>
 5    1  0.1140254E+001  0.2750955E+03  0.7818608E-02  0.1098398E+00
         -1   -1    0    0    0  501 -0.00000000000E+00  0.00000000000E+00  0.50083474518E+02  0.50083474518E+02  0.00000000000E+00 0.  1.
          1   -1    0    0  501    0  0.00000000000E+00 -0.00000000000E+00 -0.37775699682E+03  0.37775699682E+03  0.00000000000E+00 0.  1.
         35    2    1    2    0    0  0.00000000000E+00  0.00000000000E+00 -0.32767352230E+03  0.42784047134E+03  0.27509549559E+03 0.  0.
         25    1    3    3    0    0  0.19281100690E+02  0.55199272216E+02 -0.11223964185E+03  0.17440314705E+03  0.12000000000E+03 0.  0.
         25    1    3    3    0    0 -0.19281100690E+02 -0.55199272216E+02 -0.21543388045E+03  0.25343732429E+03  0.12000000000E+03 0.  0.
<mgrwt>
<rscale>  0 0.27509550E+03</rscale>
<asrwt>0</asrwt>
<pdfrwt beam="1">  1        1 0.58116462E-01 0.27509550E+03</pdfrwt>
<pdfrwt beam="2">  1       -1 0.77051497E-02 0.27509550E+03</pdfrwt>
<totfact> 0.59155311E+03</totfact>
</mgrwt>
</event>
<event>
 5    1  0.1140254E+001  0.2741711E+03  0.7818608E-02  0.1098916E+00
          2   -1    0    0  501    0  0.00000000000E+00  0.00000000000E+00  0.21997860486E+04  0.21997860486E+04  0.00000000000E+00 0. -1.
         -2   -1    0    0    0  501 -0.00000000000E+00 -0.00000000000E+00 -0.85428546167E+01  0.85428546167E+01  0.00000000000E+00 0. -1.
         35    2    1    2    0    0  0.00000000000E+00  0.00000000000E+00  0.21912431940E+04  0.22083289032E+04  0.27417113197E+03 0.  0.
         25    1    3    3    0    0  0.39316133790E+02 -0.32191420446E+02  0.75290899162E+03  0.76410339326E+03  0.12000000000E+03 0.  0.
         25    1    3    3    0    0 -0.39316133790E+02  0.32191420446E+02  0.14383342024E+04  0.14442255100E+04  0.12000000000E+03 0.  0.
<mgrwt>
<rscale>  0 0.27417113E+03</rscale>
<asrwt>0</asrwt>
<pdfrwt beam="1">  1        2 0.33842817E+00 0.27417113E+03</pdfrwt>
<pdfrwt beam="2">  1       -2 0.13142871E-02 0.27417113E+03</pdfrwt>
<totfact> 0.83372647E+03</totfact>
</mgrwt>
</event>
<event>
 5    1  0.1140254E+001  0.2746862E+03  0.7818608E-02  0.1098627E+00
          2   -1    0    0  501    0  0.00000000000E+00  0.00000000000E+00  0.73670168130E+03  0.73670168130E+03  0.00000000000E+00 0.  1.
         -2   -1    0    0    0  501 -0.00000000000E+00 -0.00000000000E+00 -0.25604843984E+02  0.25604843984E+02  0.00000000000E+00 0.  1.
         35    2    1    2    0    0  0.00000000000E+00  0.00000000000E+00  0.71109683732E+03  0.76230652529E+03  0.27468623273E+03 0.  0.
         25    1    3    3    0    0 -0.48950854944E+02  0.41240762877E+02  0.30244539713E+03  0.33161755829E+03  0.12000000000E+03 0.  0.
         25    1    3    3    0    0  0.48950854944E+02 -0.41240762877E+02  0.40865144019E+03  0.43068896699E+03  0.12000000000E+03 0.  0.
<mgrwt>
<rscale>  0 0.27468623E+03</rscale>
<asrwt>0</asrwt>
<pdfrwt beam="1">  1        2 0.11333870E+00 0.27468623E+03</pdfrwt>
<pdfrwt beam="2">  1       -2 0.39392073E-02 0.27468623E+03</pdfrwt>
<totfact> 0.11032676E+04</totfact>
</mgrwt>
</event>
<event>
 5    1  0.1140254E+001  0.2757835E+03  0.7818608E-02  0.1098014E+00
         -1   -1    0    0    0  501 -0.00000000000E+00  0.00000000000E+00  0.65001907130E+02  0.65001907130E+02  0.00000000000E+00 0.  1.
          1   -1    0    0  501    0  0.00000000000E+00 -0.00000000000E+00 -0.29251659118E+03  0.29251659118E+03  0.00000000000E+00 0.  1.
         35    2    1    2    0    0  0.00000000000E+00  0.00000000000E+00 -0.22751468405E+03  0.35751849831E+03  0.27578351143E+03 0.  0.
         25    1    3    3    0    0 -0.21866364174E+02 -0.30801362121E+02 -0.40569329319E+02  0.13218446305E+03  0.12000000000E+03 0.  0.
         25    1    3    3    0    0  0.21866364174E+02  0.30801362121E+02 -0.18694535473E+03  0.22533403526E+03  0.12000000000E+03 0.  0.
<mgrwt>
<rscale>  0 0.27578351E+03</rscale>
<asrwt>0</asrwt>
<pdfrwt beam="1">  1        1 0.45002552E-01 0.27578351E+03</pdfrwt>
<pdfrwt beam="2">  1       -1 0.10000294E-01 0.27578351E+03</pdfrwt>
<totfact> 0.54789662E+03</totfact>
</mgrwt>
</event>
<event>
 5    1  0.1140254E+001  0.2749125E+03  0.7818608E-02  0.1098500E+00
          1   -1    0    0  501    0  0.00000000000E+00  0.00000000000E+00  0.17349655368E+03  0.17349655368E+03  0.00000000000E+00 0. -1.
         -1   -1    0    0    0  501 -0.00000000000E+00 -0.00000000000E+00 -0.10890259761E+03  0.10890259761E+03  0.00000000000E+00 0. -1.
         35    2    1    2    0    0  0.00000000000E+00  0.00000000000E+00  0.64593956067E+02  0.28239915130E+03  0.27491253426E+03 0.  0.
         25    1    3    3    0    0  0.32495281271E+01 -0.10904300384E+02  0.10016249134E+03  0.15672264633E+03  0.12000000000E+03 0.  0.
         25    1    3    3    0    0 -0.32495281271E+01  0.10904300384E+02 -0.35568535273E+02  0.12567650497E+03  0.12000000000E+03 0.  0.
<mgrwt>
<rscale>  0 0.27491253E+03</rscale>
<asrwt>0</asrwt>
<pdfrwt beam="1">  1        1 0.26691777E-01 0.27491253E+03</pdfrwt>
<pdfrwt beam="2">  1       -1 0.16754246E-01 0.27491253E+03</pdfrwt>
<totfact> 0.46999535E+03</totfact>
</mgrwt>
</event>
<event>
 5    1  0.1140254E+001  0.2747475E+03  0.7818608E-02  0.1098593E+00
          1   -1    0    0  501    0  0.00000000000E+00  0.00000000000E+00  0.13614449532E+03  0.13614449532E+03  0.00000000000E+00 0. -1.
         -1   -1    0    0    0  501 -0.00000000000E+00 -0.00000000000E+00 -0.13861414989E+03  0.13861414989E+03  0.00000000000E+00 0. -1.
         35    2    1    2    0    0  0.00000000000E+00  0.00000000000E+00 -0.24696545685E+01  0.27475864521E+03  0.27474754580E+03 0.  0.
         25    1    3    3    0    0  0.26725116595E+02  0.23828751385E+02  0.55243221020E+02  0.13687167245E+03  0.12000000000E+03 0.  0.
         25    1    3    3    0    0 -0.26725116595E+02 -0.23828751385E+02 -0.57712875588E+02  0.13788697276E+03  0.12000000000E+03 0.  0.
<mgrwt>
<rscale>  0 0.27474755E+03</rscale>
<asrwt>0</asrwt>
<pdfrwt beam="1">  1        1 0.20945307E-01 0.27474755E+03</pdfrwt>
<pdfrwt beam="2">  1       -1 0.21325254E-01 0.27474755E+03</pdfrwt>
<totfact> 0.43354789E+03</totfact>
</mgrwt>
</event>
<event>
 5    1  0.1140254E+001  0.2751331E+03  0.7818608E-02  0.1098377E+00
          1   -1    0    0  501    0  0.00000000000E+00  0.00000000000E+00  0.32544959942E+03  0.32544959942E+03  0.00000000000E+00 0.  1.
         -1   -1    0    0    0  501 -0.00000000000E+00 -0.00000000000E+00 -0.58148947436E+02  0.58148947436E+02  0.00000000000E+00 0.  1.
         35    2    1    2    0    0  0.00000000000E+00  0.00000000000E+00  0.26730065199E+03  0.38359854686E+03  0.27513307071E+03 0.  0.
         25    1    3    3    0    0  0.51395865723E+01 -0.64255767270E+02  0.10685598857E+03  0.17312833757E+03  0.12000000000E+03 0.  0.
         25    1    3    3    0    0 -0.51395865723E+01  0.64255767270E+02  0.16044466342E+03  0.21047020929E+03  0.12000000000E+03 0.  0.
<mgrwt>
<rscale>  0 0.27513307E+03</rscale>
<asrwt>0</asrwt>
<pdfrwt beam="1">  1        1 0.50069168E-01 0.27513307E+03</pdfrwt>
<pdfrwt beam="2">  1       -1 0.89459921E-02 0.27513307E+03</pdfrwt>
<totfact> 0.56868796E+03</totfact>
</mgrwt>
</event>
<event>
 5    1  0.1140254E+001  0.2748365E+03  0.7818608E-02  0.1098543E+00
          2   -1    0    0  501    0  0.00000000000E+00  0.00000000000E+00  0.10032805444E+03  0.10032805444E+03  0.00000000000E+00 0. -1.
         -2   -1    0    0    0  501 -0.00000000000E+00 -0.00000000000E+00 -0.18822023707E+03  0.18822023707E+03  0.00000000000E+00 0. -1.
         35    2    1    2    0    0  0.00000000000E+00  0.00000000000E+00 -0.87892182638E+02  0.28854829151E+03  0.27483646186E+03 0.  0.
         25    1    3    3    0    0  0.44584632210E+01  0.14752099629E+02 -0.11236054310E+03  0.16511327622E+03  0.12000000000E+03 0.  0.
         25    1    3    3    0    0 -0.44584632210E+01 -0.14752099629E+02  0.24468360458E+02  0.12343501530E+03  0.12000000000E+03 0.  0.
<mgrwt>
<rscale>  0 0.27483646E+03</rscale>
<asrwt>0</asrwt>
<pdfrwt beam="1">  1        2 0.15435086E-01 0.27483646E+03</pdfrwt>
<pdfrwt beam="2">  1       -2 0.28956959E-01 0.27483646E+03</pdfrwt>
<totfact> 0.40850974E+03</totfact>
</mgrwt>
</event>
<event>
 5    1  0.1140254E+001  0.2731059E+03  0.7818608E-02  0.1099515E+00
         -2   -1    0    0    0  501 -0.00000000000E+00  0.00000000000E+00  0.93326660417E+01  0.93326660417E+01  0.00000000000E+00 0. -1.
          2   -1    0    0  501    0  0.00000000000E+00 -0.00000000000E+00 -0.19980040230E+04  0.19980040230E+04  0.00000000000E+00 0. -1.
         35    2    1    2    0    0  0.00000000000E+00  0.00000000000E+00 -0.19886713570E+04  0.20073366890E+04  0.27310587175E+03 0.  0.
         25    1    3    3    0    0  0.64419407344E+02  0.61571514907E+01 -0.10507606287E+04  0.10595686242E+04  0.12000000000E+03 0.  0.
         25    1    3    3    0    0 -0.64419407344E+02 -0.61571514907E+01 -0.93791072825E+03  0.94776806484E+03  0.12000000000E+03 0.  0.
<mgrwt>
<rscale>  0 0.27310587E+03</rscale>
<asrwt>0</asrwt>
<pdfrwt beam="1">  1        2 0.30738508E+00 0.27310587E+03</pdfrwt>
<pdfrwt beam="2">  1       -2 0.14357955E-02 0.27310587E+03</pdfrwt>
<totfact> 0.93667286E+03</totfact>
</mgrwt>
</event>
<event>
 5    1  0.1140254E+001  0.2745389E+03  0.7818608E-02  0.1098710E+00
         -1   -1    0    0    0  501 -0.00000000000E+00  0.00000000000E+00  0.22571568254E+04  0.22571568254E+04  0.00000000000E+00 0.  1.
          1   -1    0    0  501    0  0.00000000000E+00 -0.00000000000E+00 -0.83480718185E+01  0.83480718185E+01  0.00000000000E+00 0.  1.
         35    2    1    2    0    0  0.00000000000E+00  0.00000000000E+00  0.22488087536E+04  0.22655048973E+04  0.27453893920E+03 0.  0.
         25    1    3    3    0    0  0.48528674759E+02  0.15632195112E+02  0.14787146480E+04  0.14844515513E+04  0.12000000000E+03 0.  0.
         25    1    3    3    0    0 -0.48528674759E+02 -0.15632195112E+02  0.77009410558E+03  0.78105334597E+03  0.12000000000E+03 0.  0.
<mgrwt>
<rscale>  0 0.27453894E+03</rscale>
<asrwt>0</asrwt>
<pdfrwt beam="1">  1        1 0.12843205E-02 0.27453894E+03</pdfrwt>
<pdfrwt beam="2">  1       -1 0.34725441E+00 0.27453894E+03</pdfrwt>
<totfact> 0.22046256E+02</totfact>
</mgrwt>
</event>
<event>
 5    1  0.1140254E+001  0.2741029E+03  0.7818608E-02  0.1098954E+00
         -1   -1    0    0    0  501 -0.00000000000E+00  0.00000000000E+00  0.16371793270E+03  0.16371793270E+03  0.00000000000E+00 0.  1.
          1   -1    0    0  501    0  0.00000000000E+00 -0.00000000000E+00 -0.11472841436E+03  0.11472841436E+03  0.00000000000E+00 0.  1.
         35    2    1    2    0    0  0.00000000000E+00  0.00000000000E+00  0.48989518335E+02  0.27844634706E+03  0.27410289178E+03 0.  0.
         25    1    3    3    0    0  0.21898633758E+02 -0.57560748755E+02  0.49176032366E+02  0.14356556731E+03  0.12000000000E+03 0.  0.
         25    1    3    3    0    0 -0.21898633758E+02  0.57560748755E+02 -0.18651403144E+00  0.13488077975E+03  0.12000000000E+03 0.  0.
<mgrwt>
<rscale>  0 0.27410289E+03</rscale>
<asrwt>0</asrwt>
<pdfrwt beam="1">  1        1 0.17650525E-01 0.27410289E+03</pdfrwt>
<pdfrwt beam="2">  1       -1 0.25187374E-01 0.27410289E+03</pdfrwt>
<totfact> 0.41092204E+03</totfact>
</mgrwt>
</event>
<event>
 5    1  0.1140254E+001  0.2748858E+03  0.7818608E-02  0.1098515E+00
         -1   -1    0    0    0  501 -0.00000000000E+00  0.00000000000E+00  0.88781120997E+01  0.88781120997E+01  0.00000000000E+00 0. -1.
          1   -1    0    0  501    0  0.00000000000E+00 -0.00000000000E+00 -0.21277663041E+04  0.21277663041E+04  0.00000000000E+00 0. -1.
         35    2    1    2    0    0  0.00000000000E+00  0.00000000000E+00 -0.21188881920E+04  0.21366444162E+04  0.27488577824E+03 0.  0.
         25    1    3    3    0    0 -0.16221823287E+02 -0.10715994390E+02 -0.56097698342E+03  0.57399752265E+03  0.12000000000E+03 0.  0.
         25    1    3    3    0    0  0.16221823287E+02  0.10715994390E+02 -0.15579112086E+04  0.15626468936E+04  0.12000000000E+03 0.  0.
<mgrwt>
<rscale>  0 0.27488578E+03</rscale>
<asrwt>0</asrwt>
<pdfrwt beam="1">  1        1 0.32734897E+00 0.27488578E+03</pdfrwt>
<pdfrwt beam="2">  1       -1 0.13658621E-02 0.27488578E+03</pdfrwt>
<totfact> 0.33329256E+03</totfact>
</mgrwt>
</event>
<event>
 5    1  0.1140254E+001  0.2747431E+03  0.7818608E-02  0.1098595E+00
          1   -1    0    0  501    0  0.00000000000E+00  0.00000000000E+00  0.80541907689E+03  0.80541907689E+03  0.00000000000E+00 0.  1.
         -1   -1    0    0    0  501 -0.00000000000E+00 -0.00000000000E+00 -0.23429961277E+02  0.23429961277E+02  0.00000000000E+00 0.  1.
         35    2    1    2    0    0  0.00000000000E+00  0.00000000000E+00  0.78198911561E+03  0.82884903817E+03  0.27474306385E+03 0.  0.
         25    1    3    3    0    0 -0.37225490591E+02  0.33418796554E+02  0.52484003114E+03  0.54070288643E+03  0.12000000000E+03 0.  0.
         25    1    3    3    0    0  0.37225490591E+02 -0.33418796554E+02  0.25714908447E+03  0.28814615173E+03  0.12000000000E+03 0.  0.
<mgrwt>
<rscale>  0 0.27474306E+03</rscale>
<asrwt>0</asrwt>
<pdfrwt beam="1">  1        1 0.12391061E+00 0.27474306E+03</pdfrwt>
<pdfrwt beam="2">  1       -1 0.36046100E-02 0.27474306E+03</pdfrwt>
<totfact> 0.65362002E+03</totfact>
</mgrwt>
</event>
<event>
 5    1  0.1140254E+001  0.2760874E+03  0.7818608E-02  0.1097845E+00
          1   -1    0    0  501    0  0.00000000000E+00  0.00000000000E+00  0.14575861248E+03  0.14575861248E+03  0.00000000000E+00 0. -1.
         -1   -1    0    0    0  501 -0.00000000000E+00 -0.00000000000E+00 -0.13073714516E+03  0.13073714516E+03  0.00000000000E+00 0. -1.
         35    2    1    2    0    0  0.00000000000E+00  0.00000000000E+00  0.15021467314E+02  0.27649575764E+03  0.27608741281E+03 0.  0.
         25    1    3    3    0    0  0.44755080214E+02  0.70847335731E+01 -0.43582899785E+02  0.13547206283E+03  0.12000000000E+03 0.  0.
         25    1    3    3    0    0 -0.44755080214E+02 -0.70847335731E+01  0.58604367099E+02  0.14102369481E+03  0.12000000000E+03 0.  0.
<mgrwt>
<rscale>  0 0.27608741E+03</rscale>
<asrwt>0</asrwt>
<pdfrwt beam="1">  1        1 0.22424402E-01 0.27608741E+03</pdfrwt>
<pdfrwt beam="2">  1       -1 0.20113407E-01 0.27608741E+03</pdfrwt>
<totfact> 0.43705947E+03</totfact>
</mgrwt>
</event>
<event>
 5    1  0.1140254E+001  0.2748371E+03  0.7818608E-02  0.1098543E+00
         -2   -1    0    0    0  501 -0.00000000000E+00  0.00000000000E+00  0.61401015655E+02  0.61401015655E+02  0.00000000000E+00 0. -1.
          2   -1    0    0  501    0  0.00000000000E+00 -0.00000000000E+00 -0.30754955474E+03  0.30754955474E+03  0.00000000000E+00 0. -1.
         35    2    1    2    0    0  0.00000000000E+00  0.00000000000E+00 -0.24614853908E+03  0.36895057039E+03  0.27483707919E+03 0.  0.
         25    1    3    3    0    0  0.41091624043E+02  0.36732931203E+02 -0.72026026895E+02  0.15041801206E+03  0.12000000000E+03 0.  0.
         25    1    3    3    0    0 -0.41091624043E+02 -0.36732931203E+02 -0.17412251219E+03  0.21853255833E+03  0.12000000000E+03 0.  0.
<mgrwt>
<rscale>  0 0.27483708E+03</rscale>
<asrwt>0</asrwt>
<pdfrwt beam="1">  1        2 0.47315315E-01 0.27483708E+03</pdfrwt>
<pdfrwt beam="2">  1       -2 0.94463103E-02 0.27483708E+03</pdfrwt>
<totfact> 0.76766103E+03</totfact>
</mgrwt>
</event>
<event>
 5    1  0.1140254E+001  0.2761430E+03  0.7818608E-02  0.1097814E+00
          2   -1    0    0  501    0  0.00000000000E+00  0.00000000000E+00  0.19643001296E+02  0.19643001296E+02  0.00000000000E+00 0. -1.
         -2   -1    0    0    0  501 -0.00000000000E+00 -0.00000000000E+00 -0.97051054303E+03  0.97051054303E+03  0.00000000000E+00 0. -1.
         35    2    1    2    0    0  0.00000000000E+00  0.00000000000E+00 -0.95086754173E+03  0.99015354432E+03  0.27614300537E+03 0.  0.
         25    1    3    3    0    0  0.51961130724E+02 -0.25219435654E+02 -0.34477805230E+03  0.36960503837E+03  0.12000000000E+03 0.  0.
         25    1    3    3    0    0 -0.51961130724E+02  0.25219435654E+02 -0.60608948943E+03  0.62054850595E+03  0.12000000000E+03 0.  0.
<mgrwt>
<rscale>  0 0.27614301E+03</rscale>
<asrwt>0</asrwt>
<pdfrwt beam="1">  1        2 0.30220012E-02 0.27614301E+03</pdfrwt>
<pdfrwt beam="2">  1       -2 0.14930926E+00 0.27614301E+03</pdfrwt>
<totfact> 0.99575755E+02</totfact>
</mgrwt>
</event>
<event>
 5    1  0.1140254E+001  0.2743519E+03  0.7818608E-02  0.1098814E+00
          2   -1    0    0  501    0  0.00000000000E+00  0.00000000000E+00  0.10814959711E+04  0.10814959711E+04  0.00000000000E+00 0. -1.
         -2   -1    0    0    0  501 -0.00000000000E+00 -0.00000000000E+00 -0.17399266590E+02  0.17399266590E+02  0.00000000000E+00 0. -1.
         35    2    1    2    0    0  0.00000000000E+00  0.00000000000E+00  0.10640967046E+04  0.10988952377E+04  0.27435186690E+03 0.  0.
         25    1    3    3    0    0 -0.27916704280E+02  0.51248419046E+02  0.65943678730E+03  0.67280206545E+03  0.12000000000E+03 0.  0.
         25    1    3    3    0    0  0.27916704280E+02 -0.51248419046E+02  0.40465991725E+03  0.42609317228E+03  0.12000000000E+03 0.  0.
<mgrwt>
<rscale>  0 0.27435187E+03</rscale>
<asrwt>0</asrwt>
<pdfrwt beam="1">  1        2 0.16638394E+00 0.27435187E+03</pdfrwt>
<pdfrwt beam="2">  1       -2 0.26768111E-02 0.27435187E+03</pdfrwt>
<totfact> 0.11738885E+04</totfact>
</mgrwt>
</event>
<event>
 5    1  0.1140254E+001  0.2743402E+03  0.7818608E-02  0.1098821E+00
          1   -1    0    0  501    0  0.00000000000E+00  0.00000000000E+00  0.20185825647E+03  0.20185825647E+03  0.00000000000E+00 0. -1.
         -1   -1    0    0    0  501 -0.00000000000E+00 -0.00000000000E+00 -0.93212143055E+02  0.93212143055E+02  0.00000000000E+00 0. -1.
         35    2    1    2    0    0  0.00000000000E+00  0.00000000000E+00  0.10864611341E+03  0.29507039952E+03  0.27434023167E+03 0.  0.
         25    1    3    3    0    0 -0.53522663004E+02 -0.19049587450E+02  0.91396139527E+02  0.16118565866E+03  0.12000000000E+03 0.  0.
         25    1    3    3    0    0  0.53522663004E+02  0.19049587450E+02  0.17249973887E+02  0.13388474086E+03  0.12000000000E+03 0.  0.
<mgrwt>
<rscale>  0 0.27434023E+03</rscale>
<asrwt>0</asrwt>
<pdfrwt beam="1">  1        1 0.31055116E-01 0.27434023E+03</pdfrwt>
<pdfrwt beam="2">  1       -1 0.14340330E-01 0.27434023E+03</pdfrwt>
<totfact> 0.49708409E+03</totfact>
</mgrwt>
</event>
<event>
 5    1  0.1140254E+001  0.2755646E+03  0.7818608E-02  0.1098136E+00
          2   -1    0    0  501    0  0.00000000000E+00  0.00000000000E+00  0.22964925311E+04  0.22964925311E+04  0.00000000000E+00 0.  1.
         -2   -1    0    0    0  501 -0.00000000000E+00 -0.00000000000E+00 -0.82665026726E+01  0.82665026726E+01  0.00000000000E+00 0.  1.
         35    2    1    2    0    0  0.00000000000E+00  0.00000000000E+00  0.22882260285E+04  0.23047590338E+04  0.27556459603E+03 0.  0.
         25    1    3    3    0    0  0.42640416795E+02 -0.49864043785E+02  0.12838990298E+04  0.12911627886E+04  0.12000000000E+03 0.  0.
         25    1    3    3    0    0 -0.42640416795E+02  0.49864043785E+02  0.10043269986E+04  0.10135962452E+04  0.12000000000E+03 0.  0.
<mgrwt>
<rscale>  0 0.27556460E+03</rscale>
<asrwt>0</asrwt>
<pdfrwt beam="1">  1        2 0.35330603E+00 0.27556460E+03</pdfrwt>
<pdfrwt beam="2">  1       -2 0.12717715E-02 0.27556460E+03</pdfrwt>
<totfact> 0.77664395E+03</totfact>
</mgrwt>
</event>
<event>
 5    1  0.1140254E+001  0.2750069E+03  0.7818608E-02  0.1098448E+00
         -2   -1    0    0    0  501 -0.00000000000E+00  0.00000000000E+00  0.36116324029E+03  0.36116324029E+03  0.00000000000E+00 0.  1.
          2   -1    0    0  501    0  0.00000000000E+00 -0.00000000000E+00 -0.52350839182E+02  0.52350839182E+02  0.00000000000E+00 0.  1.
         35    2    1    2    0    0  0.00000000000E+00  0.00000000000E+00  0.30881240111E+03  0.41351407948E+03  0.27500689963E+03 0.  0.
         25    1    3    3    0    0  0.16692185760E+02 -0.18165171561E+02  0.60520200189E+02  0.13664295501E+03  0.12000000000E+03 0.  0.
         25    1    3    3    0    0 -0.16692185760E+02  0.18165171561E+02  0.24829220092E+03  0.27687112446E+03  0.12000000000E+03 0.  0.
<mgrwt>
<rscale>  0 0.27500690E+03</rscale>
<asrwt>0</asrwt>
<pdfrwt beam="1">  1        2 0.80539755E-02 0.27500690E+03</pdfrwt>
<pdfrwt beam="2">  1       -2 0.55563574E-01 0.27500690E+03</pdfrwt>
<totfact> 0.26053005E+03</totfact>
</mgrwt>
</event>
<event>
 5    1  0.1140254E+001  0.2743729E+03  0.7818608E-02  0.1098803E+00
          2   -1    0    0  501    0  0.00000000000E+00  0.00000000000E+00  0.80394624174E+03  0.80394624174E+03  0.00000000000E+00 0. -1.
         -2   -1    0    0    0  501 -0.00000000000E+00 -0.00000000000E+00 -0.23409677973E+02  0.23409677973E+02  0.00000000000E+00 0. -1.
         35    2    1    2    0    0  0.00000000000E+00  0.00000000000E+00  0.78053656377E+03  0.82735591971E+03  0.27437290410E+03 0.  0.
         25    1    3    3    0    0 -0.66288953433E+02  0.23700884623E+00  0.40559703074E+03  0.42813926808E+03  0.12000000000E+03 0.  0.
         25    1    3    3    0    0  0.66288953433E+02 -0.23700884623E+00  0.37493953302E+03  0.39921665163E+03  0.12000000000E+03 0.  0.
<mgrwt>
<rscale>  0 0.27437290E+03</rscale>
<asrwt>0</asrwt>
<pdfrwt beam="1">  1        2 0.12368402E+00 0.27437290E+03</pdfrwt>
<pdfrwt beam="2">  1       -2 0.36014895E-02 0.27437290E+03</pdfrwt>
<totfact> 0.11310766E+04</totfact>
</mgrwt>
</event>
<event>
 5    1  0.1140254E+001  0.2746433E+03  0.7818608E-02  0.1098651E+00
         -1   -1    0    0    0  501 -0.00000000000E+00  0.00000000000E+00  0.94415893211E+01  0.94415893211E+01  0.00000000000E+00 0.  1.
          1   -1    0    0  501    0  0.00000000000E+00 -0.00000000000E+00 -0.19972518430E+04  0.19972518430E+04  0.00000000000E+00 0.  1.
         35    2    1    2    0    0  0.00000000000E+00  0.00000000000E+00 -0.19878102536E+04  0.20066934323E+04  0.27464327170E+03 0.  0.
         25    1    3    3    0    0  0.22164493553E+02  0.62493521751E+02 -0.93706103447E+03  0.94703753218E+03  0.12000000000E+03 0.  0.
         25    1    3    3    0    0 -0.22164493553E+02 -0.62493521751E+02 -0.10507492192E+04  0.10596559001E+04  0.12000000000E+03 0.  0.
<mgrwt>
<rscale>  0 0.27464327E+03</rscale>
<asrwt>0</asrwt>
<pdfrwt beam="1">  1        1 0.30726958E+00 0.27464327E+03</pdfrwt>
<pdfrwt beam="2">  1       -1 0.14525519E-02 0.27464327E+03</pdfrwt>
<totfact> 0.37052637E+03</totfact>
</mgrwt>
</event>
<event>
 5    1  0.1140254E+001  0.2758051E+03  0.7818608E-02  0.1098002E+00
          4   -1    0    0  501    0  0.00000000000E+00  0.00000000000E+00  0.25612627101E+03  0.25612627101E+03  0.00000000000E+00 0.  1.
         -4   -1    0    0    0  501 -0.00000000000E+00 -0.00000000000E+00 -0.74248999673E+02  0.74248999673E+02  0.00000000000E+00 0.  1.
         35    2    1    2    0    0  0.00000000000E+00  0.00000000000E+00  0.18187727133E+03  0.33037527068E+03  0.27580514435E+03 0.  0.
         25    1    3    3    0    0  0.20451170814E+02  0.38155922781E+02  0.15367475404E+03  0.19972494801E+03  0.12000000000E+03 0.  0.
         25    1    3    3    0    0 -0.20451170814E+02 -0.38155922781E+02  0.28202517298E+02  0.13065032267E+03  0.12000000000E+03 0.  0.
<mgrwt>
<rscale>  0 0.27580514E+03</rscale>
<asrwt>0</asrwt>
<pdfrwt beam="1">  1        4 0.39404041E-01 0.27580514E+03</pdfrwt>
<pdfrwt beam="2">  1       -4 0.11422923E-01 0.27580514E+03</pdfrwt>
<totfact> 0.71081033E+02</totfact>
</mgrwt>
</event>
<event>
 5    1  0.1140254E+001  0.2747606E+03  0.7818608E-02  0.1098586E+00
          1   -1    0    0  501    0  0.00000000000E+00  0.00000000000E+00  0.96044269642E+02  0.96044269642E+02  0.00000000000E+00 0.  1.
         -1   -1    0    0    0  501 -0.00000000000E+00 -0.00000000000E+00 -0.19650668706E+03  0.19650668706E+03  0.00000000000E+00 0.  1.
         35    2    1    2    0    0  0.00000000000E+00  0.00000000000E+00 -0.10046241741E+03  0.29255095670E+03  0.27476055931E+03 0.  0.
         25    1    3    3    0    0 -0.24456331166E+02 -0.57413355384E+02 -0.75850216557E+02  0.15507308233E+03  0.12000000000E+03 0.  0.
         25    1    3    3    0    0  0.24456331166E+02  0.57413355384E+02 -0.24612200857E+02  0.13747787437E+03  0.12000000000E+03 0.  0.
<mgrwt>
<rscale>  0 0.27476056E+03</rscale>
<asrwt>0</asrwt>
<pdfrwt beam="1">  1        1 0.14776042E-01 0.27476056E+03</pdfrwt>
<pdfrwt beam="2">  1       -1 0.30231798E-01 0.27476056E+03</pdfrwt>
<totfact> 0.38121494E+03</totfact>
</mgrwt>
</event>
<event>
 5    1  0.1140254E+001  0.2762823E+03  0.7818608E-02  0.1097737E+00
         -1   -1    0    0    0  501 -0.00000000000E+00  0.00000000000E+00  0.65653176560E+01  0.65653176560E+01  0.00000000000E+00 0. -1.
          1   -1    0    0  501    0  0.00000000000E+00 -0.00000000000E+00 -0.29066335318E+04  0.29066335318E+04  0.00000000000E+00 0. -1.
         35    2    1    2    0    0  0.00000000000E+00  0.00000000000E+00 -0.29000682142E+04  0.29131988495E+04  0.27628226469E+03 0.  0.
         25    1    3    3    0    0  0.30671531082E+02  0.43687252569E+02 -0.99851537864E+03  0.10071158227E+04  0.12000000000E+03 0.  0.
         25    1    3    3    0    0 -0.30671531082E+02 -0.43687252569E+02 -0.19015528355E+04  0.19060830268E+04  0.12000000000E+03 0.  0.
<mgrwt>
<rscale>  0 0.27628226E+03</rscale>
<asrwt>0</asrwt>
<pdfrwt beam="1">  1        1 0.44717344E+00 0.27628226E+03</pdfrwt>
<pdfrwt beam="2">  1       -1 0.10100510E-02 0.27628226E+03</pdfrwt>
<totfact> 0.15583020E+03</totfact>
</mgrwt>
</event>
<event>
 5    1  0.1140254E+001  0.2736774E+03  0.7818608E-02  0.1099193E+00
          2   -1    0    0  501    0  0.00000000000E+00  0.00000000000E+00  0.20394370133E+03  0.20394370133E+03  0.00000000000E+00 0.  1.
         -2   -1    0    0    0  501 -0.00000000000E+00 -0.00000000000E+00 -0.91813702934E+02  0.91813702934E+02  0.00000000000E+00 0.  1.
         35    2    1    2    0    0  0.00000000000E+00  0.00000000000E+00  0.11212999840E+03  0.29575740426E+03  0.27367737509E+03 0.  0.
         25    1    3    3    0    0  0.33185400245E+02  0.13929901005E+02  0.11554667213E+03  0.17042988697E+03  0.12000000000E+03 0.  0.
         25    1    3    3    0    0 -0.33185400245E+02 -0.13929901005E+02 -0.34166737387E+01  0.12532751729E+03  0.12000000000E+03 0.  0.
<mgrwt>
<rscale>  0 0.27367738E+03</rscale>
<asrwt>0</asrwt>
<pdfrwt beam="1">  1        2 0.31375954E-01 0.27367738E+03</pdfrwt>
<pdfrwt beam="2">  1       -2 0.14125185E-01 0.27367738E+03</pdfrwt>
<totfact> 0.62621883E+03</totfact>
</mgrwt>
</event>
<event>
 5    1  0.1140254E+001  0.2751351E+03  0.7818608E-02  0.1098376E+00
          2   -1    0    0  501    0  0.00000000000E+00  0.00000000000E+00  0.10389471867E+04  0.10389471867E+04  0.00000000000E+00 0. -1.
         -2   -1    0    0    0  501 -0.00000000000E+00 -0.00000000000E+00 -0.18215386898E+02  0.18215386898E+02  0.00000000000E+00 0. -1.
         35    2    1    2    0    0  0.00000000000E+00  0.00000000000E+00  0.10207317998E+04  0.10571625736E+04  0.27513505755E+03 0.  0.
         25    1    3    3    0    0  0.45728982326E+02  0.12736248199E+02  0.32724005141E+03  0.35176611987E+03  0.12000000000E+03 0.  0.
         25    1    3    3    0    0 -0.45728982326E+02 -0.12736248199E+02  0.69349174841E+03  0.70539645374E+03  0.12000000000E+03 0.  0.
<mgrwt>
<rscale>  0 0.27513506E+03</rscale>
<asrwt>0</asrwt>
<pdfrwt beam="1">  1        2 0.15983798E+00 0.27513506E+03</pdfrwt>
<pdfrwt beam="2">  1       -2 0.28023680E-02 0.27513506E+03</pdfrwt>
<totfact> 0.11628143E+04</totfact>
</mgrwt>
</event>
<event>
 5    1  0.1140254E+001  0.2749693E+03  0.7818608E-02  0.1098469E+00
          1   -1    0    0  501    0  0.00000000000E+00  0.00000000000E+00  0.29028058529E+02  0.29028058529E+02  0.00000000000E+00 0. -1.
         -1   -1    0    0    0  501 -0.00000000000E+00 -0.00000000000E+00 -0.65116390887E+03  0.65116390887E+03  0.00000000000E+00 0. -1.
         35    2    1    2    0    0  0.00000000000E+00  0.00000000000E+00 -0.62213585034E+03  0.68019196740E+03  0.27496926417E+03 0.  0.
         25    1    3    3    0    0 -0.60060916628E+02 -0.22871150280E+02 -0.26338121344E+03  0.29647945429E+03  0.12000000000E+03 0.  0.
         25    1    3    3    0    0  0.60060916628E+02  0.22871150280E+02 -0.35875463690E+03  0.38371251311E+03  0.12000000000E+03 0.  0.
<mgrwt>
<rscale>  0 0.27496926E+03</rscale>
<asrwt>0</asrwt>
<pdfrwt beam="1">  1        1 0.44658550E-02 0.27496926E+03</pdfrwt>
<pdfrwt beam="2">  1       -1 0.10017907E+00 0.27496926E+03</pdfrwt>
<totfact> 0.19544251E+03</totfact>
</mgrwt>
</event>
<event>
 5    1  0.1140254E+001  0.2758314E+03  0.7818608E-02  0.1097988E+00
         -3   -1    0    0    0  501 -0.00000000000E+00  0.00000000000E+00  0.10276280584E+04  0.10276280584E+04  0.00000000000E+00 0.  1.
          3   -1    0    0  501    0  0.00000000000E+00 -0.00000000000E+00 -0.18509366184E+02  0.18509366184E+02  0.00000000000E+00 0.  1.
         35    2    1    2    0    0  0.00000000000E+00  0.00000000000E+00  0.10091186922E+04  0.10461374246E+04  0.27583142703E+03 0.  0.
         25    1    3    3    0    0 -0.17472326458E+02 -0.65649777499E+02  0.51350920772E+03  0.53170187313E+03  0.12000000000E+03 0.  0.
         25    1    3    3    0    0  0.17472326458E+02  0.65649777499E+02  0.49560948451E+03  0.51443555147E+03  0.12000000000E+03 0.  0.
<mgrwt>
<rscale>  0 0.27583143E+03</rscale>
<asrwt>0</asrwt>
<pdfrwt beam="1">  1        3 0.28475956E-02 0.27583143E+03</pdfrwt>
<pdfrwt beam="2">  1       -3 0.15809658E+00 0.27583143E+03</pdfrwt>
<totfact> 0.41906130E+02</totfact>
</mgrwt>
</event>
<event>
 5    1  0.1140254E+001  0.2750923E+03  0.7818608E-02  0.1098400E+00
         -1   -1    0    0    0  501 -0.00000000000E+00  0.00000000000E+00  0.71265643871E+01  0.71265643871E+01  0.00000000000E+00 0. -1.
          1   -1    0    0  501    0  0.00000000000E+00 -0.00000000000E+00 -0.26547074131E+04  0.26547074131E+04  0.00000000000E+00 0. -1.
         35    2    1    2    0    0  0.00000000000E+00  0.00000000000E+00 -0.26475808487E+04  0.26618339775E+04  0.27509229948E+03 0.  0.
         25    1    3    3    0    0 -0.56073423233E+02  0.19645689381E+02 -0.10195280265E+04  0.10282838026E+04  0.12000000000E+03 0.  0.
         25    1    3    3    0    0  0.56073423233E+02 -0.19645689381E+02 -0.16280528222E+04  0.16335501749E+04  0.12000000000E+03 0.  0.
<mgrwt>
<rscale>  0 0.27509230E+03</rscale>
<asrwt>0</asrwt>
<pdfrwt beam="1">  1        1 0.40841723E+00 0.27509230E+03</pdfrwt>
<pdfrwt beam="2">  1       -1 0.10963926E-02 0.27509230E+03</pdfrwt>
<totfact> 0.20563530E+03</totfact>
</mgrwt>
</event>
<event>
 5    1  0.1140254E+001  0.2754149E+03  0.7818608E-02  0.1098220E+00
         -1   -1    0    0    0  501 -0.00000000000E+00  0.00000000000E+00  0.40870956737E+02  0.40870956737E+02  0.00000000000E+00 0.  1.
          1   -1    0    0  501    0  0.00000000000E+00 -0.00000000000E+00 -0.46398075216E+03  0.46398075216E+03  0.00000000000E+00 0.  1.
         35    2    1    2    0    0  0.00000000000E+00  0.00000000000E+00 -0.42310979542E+03  0.50485170890E+03  0.27541486705E+03 0.  0.
         25    1    3    3    0    0 -0.22907752837E+02  0.96369020409E+01 -0.96411615744E+02  0.15592573447E+03  0.12000000000E+03 0.  0.
         25    1    3    3    0    0  0.22907752837E+02 -0.96369020409E+01 -0.32669817968E+03  0.34892597442E+03  0.12000000000E+03 0.  0.
<mgrwt>
<rscale>  0 0.27541487E+03</rscale>
<asrwt>0</asrwt>
<pdfrwt beam="1">  1        1 0.71381658E-01 0.27541487E+03</pdfrwt>
<pdfrwt beam="2">  1       -1 0.62878391E-02 0.27541487E+03</pdfrwt>
<totfact> 0.61764903E+03</totfact>
</mgrwt>
</event>
<event>
 5    1  0.1140254E+001  0.2750116E+03  0.7818608E-02  0.1098445E+00
          2   -1    0    0  501    0  0.00000000000E+00  0.00000000000E+00  0.29235332256E+03  0.29235332256E+03  0.00000000000E+00 0.  1.
         -2   -1    0    0    0  501 -0.00000000000E+00 -0.00000000000E+00 -0.64674657604E+02  0.64674657604E+02  0.00000000000E+00 0.  1.
         35    2    1    2    0    0  0.00000000000E+00  0.00000000000E+00  0.22767866496E+03  0.35702798017E+03  0.27501164365E+03 0.  0.
         25    1    3    3    0    0 -0.56090854553E+02 -0.23388181312E+02  0.76784967061E+02  0.15488422178E+03  0.12000000000E+03 0.  0.
         25    1    3    3    0    0  0.56090854553E+02  0.23388181312E+02  0.15089369790E+03  0.20214375839E+03  0.12000000000E+03 0.  0.
<mgrwt>
<rscale>  0 0.27501164E+03</rscale>
<asrwt>0</asrwt>
<pdfrwt beam="1">  1        2 0.44977434E-01 0.27501164E+03</pdfrwt>
<pdfrwt beam="2">  1       -2 0.99499475E-02 0.27501164E+03</pdfrwt>
<totfact> 0.74658813E+03</totfact>
</mgrwt>
</event>
<event>
 5    1  0.1140254E+001  0.2750052E+03  0.7818608E-02  0.1098449E+00
         -1   -1    0    0    0  501 -0.00000000000E+00  0.00000000000E+00  0.24179358048E+02  0.24179358048E+02  0.00000000000E+00 0.  1.
          1   -1    0    0  501    0  0.00000000000E+00 -0.00000000000E+00 -0.78194634373E+03  0.78194634373E+03  0.00000000000E+00 0.  1.
         35    2    1    2    0    0  0.00000000000E+00  0.00000000000E+00 -0.75776698568E+03  0.80612570178E+03  0.27500516809E+03 0.  0.
         25    1    3    3    0    0  0.89248640498E+01 -0.57843023957E+02 -0.47528272357E+03  0.49367918322E+03  0.12000000000E+03 0.  0.
         25    1    3    3    0    0 -0.89248640498E+01  0.57843023957E+02 -0.28248426211E+03  0.31244651856E+03  0.12000000000E+03 0.  0.
<mgrwt>
<rscale>  0 0.27500517E+03</rscale>
<asrwt>0</asrwt>
<pdfrwt beam="1">  1        1 0.12029945E+00 0.27500517E+03</pdfrwt>
<pdfrwt beam="2">  1       -1 0.37199010E-02 0.27500517E+03</pdfrwt>
<totfact> 0.65278105E+03</totfact>
</mgrwt>
</event>
<event>
 5    1  0.1140254E+001  0.2732321E+03  0.7818608E-02  0.1099444E+00
          1   -1    0    0  501    0  0.00000000000E+00  0.00000000000E+00  0.29143716162E+03  0.29143716162E+03  0.00000000000E+00 0. -1.
         -1   -1    0    0    0  501 -0.00000000000E+00 -0.00000000000E+00 -0.64041076648E+02  0.64041076648E+02  0.00000000000E+00 0. -1.
         35    2    1    2    0    0  0.00000000000E+00  0.00000000000E+00  0.22739608497E+03  0.35547823826E+03  0.27323213285E+03 0.  0.
         25    1    3    3    0    0 -0.63390187738E+02  0.10048898747E+02  0.12934556108E+03  0.18774868958E+03  0.12000000000E+03 0.  0.
         25    1    3    3    0    0  0.63390187738E+02 -0.10048898747E+02  0.98050523890E+02  0.16772954869E+03  0.12000000000E+03 0.  0.
<mgrwt>
<rscale>  0 0.27323213E+03</rscale>
<asrwt>0</asrwt>
<pdfrwt beam="1">  1        1 0.44836486E-01 0.27323213E+03</pdfrwt>
<pdfrwt beam="2">  1       -1 0.98524735E-02 0.27323213E+03</pdfrwt>
<totfact> 0.56308521E+03</totfact>
</mgrwt>
</event>
<event>
 5    1  0.1140254E+001  0.2745616E+03  0.7818608E-02  0.1098697E+00
          3   -1    0    0  501    0  0.00000000000E+00  0.00000000000E+00  0.15590135310E+04  0.15590135310E+04  0.00000000000E+00 0. -1.
         -3   -1    0    0    0  501 -0.00000000000E+00 -0.00000000000E+00 -0.12088423134E+02  0.12088423134E+02  0.00000000000E+00 0. -1.
         35    2    1    2    0    0  0.00000000000E+00  0.00000000000E+00  0.15469251079E+04  0.15711019541E+04  0.27456157950E+03 0.  0.
         25    1    3    3    0    0  0.58692383384E+02 -0.30928792078E+02  0.73523521258E+03  0.74791189579E+03  0.12000000000E+03 0.  0.
         25    1    3    3    0    0 -0.58692383384E+02  0.30928792078E+02  0.81168989528E+03  0.82319005834E+03  0.12000000000E+03 0.  0.
<mgrwt>
<rscale>  0 0.27456158E+03</rscale>
<asrwt>0</asrwt>
<pdfrwt beam="1">  1        3 0.23984808E+00 0.27456158E+03</pdfrwt>
<pdfrwt beam="2">  1       -3 0.18597586E-02 0.27456158E+03</pdfrwt>
<totfact> 0.25407811E+02</totfact>
</mgrwt>
</event>
<event>
 5    1  0.1140254E+001  0.2750989E+03  0.7818608E-02  0.1098396E+00
          3   -1    0    0  501    0  0.00000000000E+00  0.00000000000E+00  0.38679982253E+03  0.38679982253E+03  0.00000000000E+00 0.  1.
         -3   -1    0    0    0  501 -0.00000000000E+00 -0.00000000000E+00 -0.48913795684E+02  0.48913795684E+02  0.00000000000E+00 0.  1.
         35    2    1    2    0    0  0.00000000000E+00  0.00000000000E+00  0.33788602684E+03  0.43571361821E+03  0.27509887306E+03 0.  0.
         25    1    3    3    0    0  0.63938935694E+02 -0.20064896564E+02  0.17748107951E+03  0.22447788567E+03  0.12000000000E+03 0.  0.
         25    1    3    3    0    0 -0.63938935694E+02  0.20064896564E+02  0.16040494733E+03  0.21123573254E+03  0.12000000000E+03 0.  0.
<mgrwt>
<rscale>  0 0.27509887E+03</rscale>
<asrwt>0</asrwt>
<pdfrwt beam="1">  1        3 0.59507663E-01 0.27509887E+03</pdfrwt>
<pdfrwt beam="2">  1       -3 0.75251996E-02 0.27509887E+03</pdfrwt>
<totfact> 0.83971648E+02</totfact>
</mgrwt>
</event>
<event>
 5    1  0.1140254E+001  0.2731035E+03  0.7818608E-02  0.1099516E+00
          1   -1    0    0  501    0  0.00000000000E+00  0.00000000000E+00  0.10090989663E+04  0.10090989663E+04  0.00000000000E+00 0. -1.
         -1   -1    0    0    0  501 -0.00000000000E+00 -0.00000000000E+00 -0.18478244277E+02  0.18478244277E+02  0.00000000000E+00 0. -1.
         35    2    1    2    0    0  0.00000000000E+00  0.00000000000E+00  0.99062072200E+03  0.10275772106E+04  0.27310347635E+03 0.  0.
         25    1    3    3    0    0  0.34409761051E+01  0.13045194103E+02  0.25543628831E+03  0.28254152755E+03  0.12000000000E+03 0.  0.
         25    1    3    3    0    0 -0.34409761051E+01 -0.13045194103E+02  0.73518443369E+03  0.74503568301E+03  0.12000000000E+03 0.  0.
<mgrwt>
<rscale>  0 0.27310348E+03</rscale>
<asrwt>0</asrwt>
<pdfrwt beam="1">  1        1 0.15524595E+00 0.27310348E+03</pdfrwt>
<pdfrwt beam="2">  1       -1 0.28428076E-02 0.27310348E+03</pdfrwt>
<totfact> 0.64243247E+03</totfact>
</mgrwt>
</event>
<event>
 5    1  0.1140254E+001  0.2756805E+03  0.7818608E-02  0.1098072E+00
          2   -1    0    0  501    0  0.00000000000E+00  0.00000000000E+00  0.21029907159E+04  0.21029907159E+04  0.00000000000E+00 0. -1.
         -2   -1    0    0    0  501 -0.00000000000E+00 -0.00000000000E+00 -0.90347183086E+01  0.90347183086E+01  0.00000000000E+00 0. -1.
         35    2    1    2    0    0  0.00000000000E+00  0.00000000000E+00  0.20939559975E+04  0.21120254342E+04  0.27568045795E+03 0.  0.
         25    1    3    3    0    0 -0.12932467049E+01 -0.17274319202E+02  0.54461224744E+03  0.55794495665E+03  0.12000000000E+03 0.  0.
         25    1    3    3    0    0  0.12932467049E+01  0.17274319202E+02  0.15493437501E+04  0.15540804775E+04  0.12000000000E+03 0.  0.
<mgrwt>
<rscale>  0 0.27568046E+03</rscale>
<asrwt>0</asrwt>
<pdfrwt beam="1">  1        2 0.32353664E+00 0.27568046E+03</pdfrwt>
<pdfrwt beam="2">  1       -2 0.13899583E-02 0.27568046E+03</pdfrwt>
<totfact> 0.86469294E+03</totfact>
</mgrwt>
</event>
<event>
 5    1  0.1140254E+001  0.2747289E+03  0.7818608E-02  0.1098603E+00
          3   -1    0    0  501    0  0.00000000000E+00  0.00000000000E+00  0.88794810152E+02  0.88794810152E+02  0.00000000000E+00 0. -1.
         -3   -1    0    0    0  501 -0.00000000000E+00 -0.00000000000E+00 -0.21250106017E+03  0.21250106017E+03  0.00000000000E+00 0. -1.
         35    2    1    2    0    0  0.00000000000E+00  0.00000000000E+00 -0.12370625002E+03  0.30129587033E+03  0.27472889397E+03 0.  0.
         25    1    3    3    0    0 -0.15648848307E+02 -0.44851004470E+02 -0.10267378531E+02  0.12946782657E+03  0.12000000000E+03 0.  0.
         25    1    3    3    0    0  0.15648848307E+02  0.44851004470E+02 -0.11343887149E+03  0.17182804375E+03  0.12000000000E+03 0.  0.
<mgrwt>
<rscale>  0 0.27472889E+03</rscale>
<asrwt>0</asrwt>
<pdfrwt beam="1">  1        3 0.13660740E-01 0.27472889E+03</pdfrwt>
<pdfrwt beam="2">  1       -3 0.32692470E-01 0.27472889E+03</pdfrwt>
<totfact> 0.10126875E+03</totfact>
</mgrwt>
</event>
<event>
 5    1  0.1140254E+001  0.2752277E+03  0.7818608E-02  0.1098324E+00
          2   -1    0    0  501    0  0.00000000000E+00  0.00000000000E+00  0.11748731888E+04  0.11748731888E+04  0.00000000000E+00 0. -1.
         -2   -1    0    0    0  501 -0.00000000000E+00 -0.00000000000E+00 -0.16118818231E+02  0.16118818231E+02  0.00000000000E+00 0. -1.
         35    2    1    2    0    0  0.00000000000E+00  0.00000000000E+00  0.11587543706E+04  0.11909920071E+04  0.27522766849E+03 0.  0.
         25    1    3    3    0    0 -0.23218209939E+02 -0.62230404032E+02  0.53083059302E+03  0.54826346490E+03  0.12000000000E+03 0.  0.
         25    1    3    3    0    0  0.23218209939E+02  0.62230404032E+02  0.62792377757E+03  0.64272854216E+03  0.12000000000E+03 0.  0.
<mgrwt>
<rscale>  0 0.27522767E+03</rscale>
<asrwt>0</asrwt>
<pdfrwt beam="1">  1        2 0.18074965E+00 0.27522767E+03</pdfrwt>
<pdfrwt beam="2">  1       -2 0.24798191E-02 0.27522767E+03</pdfrwt>
<totfact> 0.11601846E+04</totfact>
</mgrwt>
</event>
<event>
 5    1  0.1140254E+001  0.2706186E+03  0.7818608E-02  0.1100926E+00
          2   -1    0    0  501    0  0.00000000000E+00  0.00000000000E+00  0.10961468002E+04  0.10961468002E+04  0.00000000000E+00 0. -1.
         -2   -1    0    0    0  501 -0.00000000000E+00 -0.00000000000E+00 -0.16702694992E+02  0.16702694992E+02  0.00000000000E+00 0. -1.
         35    2    1    2    0    0  0.00000000000E+00  0.00000000000E+00  0.10794441052E+04  0.11128494952E+04  0.27061859263E+03 0.  0.
         25    1    3    3    0    0  0.79077687058E+01  0.49735034235E+02  0.38737471910E+03  0.40865055907E+03  0.12000000000E+03 0.  0.
         25    1    3    3    0    0 -0.79077687058E+01 -0.49735034235E+02  0.69206938612E+03  0.70419893613E+03  0.12000000000E+03 0.  0.
<mgrwt>
<rscale>  0 0.27061859E+03</rscale>
<asrwt>0</asrwt>
<pdfrwt beam="1">  1        2 0.16863791E+00 0.27061859E+03</pdfrwt>
<pdfrwt beam="2">  1       -2 0.25696462E-02 0.27061859E+03</pdfrwt>
<totfact> 0.12220685E+04</totfact>
</mgrwt>
</event>
<event>
 5    1  0.1140254E+001  0.2758008E+03  0.7818608E-02  0.1098005E+00
          1   -1    0    0  501    0  0.00000000000E+00  0.00000000000E+00  0.15304377773E+03  0.15304377773E+03  0.00000000000E+00 0. -1.
         -1   -1    0    0    0  501 -0.00000000000E+00 -0.00000000000E+00 -0.12425546731E+03  0.12425546731E+03  0.00000000000E+00 0. -1.
         35    2    1    2    0    0  0.00000000000E+00  0.00000000000E+00  0.28788310421E+02  0.27729924504E+03  0.27580084206E+03 0.  0.
         25    1    3    3    0    0 -0.10534876268E+02  0.85592978201E+01 -0.52542921020E+02  0.13170043184E+03  0.12000000000E+03 0.  0.
         25    1    3    3    0    0  0.10534876268E+02 -0.85592978201E+01  0.81331231441E+02  0.14559881320E+03  0.12000000000E+03 0.  0.
<mgrwt>
<rscale>  0 0.27580084E+03</rscale>
<asrwt>0</asrwt>
<pdfrwt beam="1">  1        1 0.23545197E-01 0.27580084E+03</pdfrwt>
<pdfrwt beam="2">  1       -1 0.19116226E-01 0.27580084E+03</pdfrwt>
<totfact> 0.44594990E+03</totfact>
</mgrwt>
</event>
<event>
 5    1  0.1140254E+001  0.2747286E+03  0.7818608E-02  0.1098603E+00
         -1   -1    0    0    0  501 -0.00000000000E+00  0.00000000000E+00  0.79794608280E+03  0.79794608280E+03  0.00000000000E+00 0.  1.
          1   -1    0    0  501    0  0.00000000000E+00 -0.00000000000E+00 -0.23646896990E+02  0.23646896990E+02  0.00000000000E+00 0.  1.
         35    2    1    2    0    0  0.00000000000E+00  0.00000000000E+00  0.77429918581E+03  0.82159297979E+03  0.27472858478E+03 0.  0.
         25    1    3    3    0    0 -0.64854974409E+02  0.10752400585E+02  0.42342882522E+03  0.44498736145E+03  0.12000000000E+03 0.  0.
         25    1    3    3    0    0  0.64854974409E+02 -0.10752400585E+02  0.35087036060E+03  0.37660561835E+03  0.12000000000E+03 0.  0.
<mgrwt>
<rscale>  0 0.27472858E+03</rscale>
<asrwt>0</asrwt>
<pdfrwt beam="1">  1        1 0.36379848E-02 0.27472858E+03</pdfrwt>
<pdfrwt beam="2">  1       -1 0.12276091E+00 0.27472858E+03</pdfrwt>
<totfact> 0.16255847E+03</totfact>
</mgrwt>
</event>
<event>
 5    1  0.1140254E+001  0.2768148E+03  0.7818608E-02  0.1097441E+00
         -2   -1    0    0    0  501 -0.00000000000E+00  0.00000000000E+00  0.14120901073E+02  0.14120901073E+02  0.00000000000E+00 0. -1.
          2   -1    0    0  501    0  0.00000000000E+00 -0.00000000000E+00 -0.13566137197E+04  0.13566137197E+04  0.00000000000E+00 0. -1.
         35    2    1    2    0    0  0.00000000000E+00  0.00000000000E+00 -0.13424928186E+04  0.13707346207E+04  0.27681479823E+03 0.  0.
         25    1    3    3    0    0  0.15771103265E+02 -0.14605221177E+02 -0.34673959741E+03  0.36754644413E+03  0.12000000000E+03 0.  0.
         25    1    3    3    0    0 -0.15771103265E+02  0.14605221177E+02 -0.99575322118E+03  0.10031881766E+04  0.12000000000E+03 0.  0.
<mgrwt>
<rscale>  0 0.27681480E+03</rscale>
<asrwt>0</asrwt>
<pdfrwt beam="1">  1        2 0.20870982E+00 0.27681480E+03</pdfrwt>
<pdfrwt beam="2">  1       -2 0.21724461E-02 0.27681480E+03</pdfrwt>
<totfact> 0.11165974E+04</totfact>
</mgrwt>
</event>
<event>
 5    1  0.1140254E+001  0.2747292E+03  0.7818608E-02  0.1098603E+00
         -1   -1    0    0    0  501 -0.00000000000E+00  0.00000000000E+00  0.58493190681E+02  0.58493190681E+02  0.00000000000E+00 0. -1.
          1   -1    0    0  501    0  0.00000000000E+00 -0.00000000000E+00 -0.32258516564E+03  0.32258516564E+03  0.00000000000E+00 0. -1.
         35    2    1    2    0    0  0.00000000000E+00  0.00000000000E+00 -0.26409197496E+03  0.38107835632E+03  0.27472921654E+03 0.  0.
         25    1    3    3    0    0  0.16816625153E+02  0.27716196444E+02 -0.21314182981E+03  0.24673959156E+03  0.12000000000E+03 0.  0.
         25    1    3    3    0    0 -0.16816625153E+02 -0.27716196444E+02 -0.50950145143E+02  0.13433876476E+03  0.12000000000E+03 0.  0.
<mgrwt>
<rscale>  0 0.27472922E+03</rscale>
<asrwt>0</asrwt>
<pdfrwt beam="1">  1        1 0.49628487E-01 0.27472922E+03</pdfrwt>
<pdfrwt beam="2">  1       -1 0.89989525E-02 0.27472922E+03</pdfrwt>
<totfact> 0.56984879E+03</totfact>
</mgrwt>
</event>
<event>
 5    1  0.1140254E+001  0.2775961E+03  0.7818608E-02  0.1097009E+00
          1   -1    0    0  501    0  0.00000000000E+00  0.00000000000E+00  0.28459703552E+03  0.28459703552E+03  0.00000000000E+00 0.  1.
         -1   -1    0    0    0  501 -0.00000000000E+00 -0.00000000000E+00 -0.67691850221E+02  0.67691850221E+02  0.00000000000E+00 0.  1.
         35    2    1    2    0    0  0.00000000000E+00  0.00000000000E+00  0.21690518530E+03  0.35228888574E+03  0.27759610878E+03 0.  0.
         25    1    3    3    0    0 -0.27303904027E+02 -0.63801106645E+02  0.99585841548E+02  0.17068516110E+03  0.12000000000E+03 0.  0.
         25    1    3    3    0    0  0.27303904027E+02  0.63801106645E+02  0.11731934375E+03  0.18160372464E+03  0.12000000000E+03 0.  0.
<mgrwt>
<rscale>  0 0.27759611E+03</rscale>
<asrwt>0</asrwt>
<pdfrwt beam="1">  1        1 0.43784159E-01 0.27759611E+03</pdfrwt>
<pdfrwt beam="2">  1       -1 0.10414131E-01 0.27759611E+03</pdfrwt>
<totfact> 0.53274131E+03</totfact>
</mgrwt>
</event>
<event>
 5    1  0.1140254E+001  0.2742319E+03  0.7818608E-02  0.1098882E+00
         -1   -1    0    0    0  501 -0.00000000000E+00  0.00000000000E+00  0.14902645434E+02  0.14902645434E+02  0.00000000000E+00 0.  1.
          1   -1    0    0  501    0  0.00000000000E+00 -0.00000000000E+00 -0.12615734434E+04  0.12615734434E+04  0.00000000000E+00 0.  1.
         35    2    1    2    0    0  0.00000000000E+00  0.00000000000E+00 -0.12466707980E+04  0.12764760888E+04  0.27423188520E+03 0.  0.
         25    1    3    3    0    0 -0.64941898935E+02  0.12386880275E+02 -0.64878647690E+03  0.66309484815E+03  0.12000000000E+03 0.  0.
         25    1    3    3    0    0  0.64941898935E+02 -0.12386880275E+02 -0.59788432107E+03  0.61338124068E+03  0.12000000000E+03 0.  0.
<mgrwt>
<rscale>  0 0.27423189E+03</rscale>
<asrwt>0</asrwt>
<pdfrwt beam="1">  1        1 0.19408811E+00 0.27423189E+03</pdfrwt>
<pdfrwt beam="2">  1       -1 0.22927160E-02 0.27423189E+03</pdfrwt>
<totfact> 0.58184385E+03</totfact>
</mgrwt>
</event>
<event>
 5    1  0.1140254E+001  0.2753097E+03  0.7818608E-02  0.1098279E+00
         -1   -1    0    0    0  501 -0.00000000000E+00  0.00000000000E+00  0.16583618459E+02  0.16583618459E+02  0.00000000000E+00 0.  1.
          1   -1    0    0  501    0  0.00000000000E+00 -0.00000000000E+00 -0.11426252757E+04  0.11426252757E+04  0.00000000000E+00 0.  1.
         35    2    1    2    0    0  0.00000000000E+00  0.00000000000E+00 -0.11260416572E+04  0.11592088941E+04  0.27530972822E+03 0.  0.
         25    1    3    3    0    0  0.42847192860E+02 -0.38418969220E+01 -0.34430571949E+03  0.36714720560E+03  0.12000000000E+03 0.  0.
         25    1    3    3    0    0 -0.42847192860E+02  0.38418969220E+01 -0.78173593770E+03  0.79206168851E+03  0.12000000000E+03 0.  0.
<mgrwt>
<rscale>  0 0.27530973E+03</rscale>
<asrwt>0</asrwt>
<pdfrwt beam="1">  1        1 0.17578851E+00 0.27530973E+03</pdfrwt>
<pdfrwt beam="2">  1       -1 0.25513258E-02 0.27530973E+03</pdfrwt>
<totfact> 0.60243843E+03</totfact>
</mgrwt>
</event>
<event>
 5    1  0.1140254E+001  0.2749762E+03  0.7818608E-02  0.1098465E+00
         -1   -1    0    0    0  501 -0.00000000000E+00  0.00000000000E+00  0.36578529948E+03  0.36578529948E+03  0.00000000000E+00 0.  1.
          1   -1    0    0  501    0  0.00000000000E+00 -0.00000000000E+00 -0.51677787152E+02  0.51677787152E+02  0.00000000000E+00 0.  1.
         35    2    1    2    0    0  0.00000000000E+00  0.00000000000E+00  0.31410751233E+03  0.41746308663E+03  0.27497617970E+03 0.  0.
         25    1    3    3    0    0 -0.16362764982E+02 -0.58039683291E+02  0.11236072099E+03  0.17510361657E+03  0.12000000000E+03 0.  0.
         25    1    3    3    0    0  0.16362764982E+02  0.58039683291E+02  0.20174679133E+03  0.24235947006E+03  0.12000000000E+03 0.  0.
<mgrwt>
<rscale>  0 0.27497618E+03</rscale>
<asrwt>0</asrwt>
<pdfrwt beam="1">  1        1 0.79504290E-02 0.27497618E+03</pdfrwt>
<pdfrwt beam="2">  1       -1 0.56274660E-01 0.27497618E+03</pdfrwt>
<totfact> 0.28734538E+03</totfact>
</mgrwt>
</event>
<event>
 5    1  0.1140254E+001  0.2745537E+03  0.7818608E-02  0.1098701E+00
         -1   -1    0    0    0  501 -0.00000000000E+00  0.00000000000E+00  0.31284145326E+02  0.31284145326E+02  0.00000000000E+00 0. -1.
          1   -1    0    0  501    0  0.00000000000E+00 -0.00000000000E+00 -0.60237955460E+03  0.60237955460E+03  0.00000000000E+00 0. -1.
         35    2    1    2    0    0  0.00000000000E+00  0.00000000000E+00 -0.57109540928E+03  0.63366369993E+03  0.27455367073E+03 0.  0.
         25    1    3    3    0    0 -0.60692870971E+02  0.26276098231E+02 -0.26611793282E+03  0.29932058414E+03  0.12000000000E+03 0.  0.
         25    1    3    3    0    0  0.60692870971E+02 -0.26276098231E+02 -0.30497747646E+03  0.33434311578E+03  0.12000000000E+03 0.  0.
<mgrwt>
<rscale>  0 0.27455367E+03</rscale>
<asrwt>0</asrwt>
<pdfrwt beam="1">  1        1 0.92673768E-01 0.27455367E+03</pdfrwt>
<pdfrwt beam="2">  1       -1 0.48129459E-02 0.27455367E+03</pdfrwt>
<totfact> 0.64948654E+03</totfact>
</mgrwt>
</event>
<event>
 5    1  0.1140254E+001  0.2820847E+03  0.7818608E-02  0.1094556E+00
          1   -1    0    0  501    0  0.00000000000E+00  0.00000000000E+00  0.12035760230E+03  0.12035760230E+03  0.00000000000E+00 0. -1.
         -1   -1    0    0    0  501 -0.00000000000E+00 -0.00000000000E+00 -0.16528201848E+03  0.16528201848E+03  0.00000000000E+00 0. -1.
         35    2    1    2    0    0  0.00000000000E+00  0.00000000000E+00 -0.44924416187E+02  0.28563962078E+03  0.28208472095E+03 0.  0.
         25    1    3    3    0    0  0.32652272979E+02  0.35675081385E+02 -0.79331027177E+02  0.15176394248E+03  0.12000000000E+03 0.  0.
         25    1    3    3    0    0 -0.32652272979E+02 -0.35675081385E+02  0.34406610991E+02  0.13387567831E+03  0.12000000000E+03 0.  0.
<mgrwt>
<rscale>  0 0.28208472E+03</rscale>
<asrwt>0</asrwt>
<pdfrwt beam="1">  1        1 0.18516554E-01 0.28208472E+03</pdfrwt>
<pdfrwt beam="2">  1       -1 0.25428003E-01 0.28208472E+03</pdfrwt>
<totfact> 0.38040923E+03</totfact>
</mgrwt>
</event>
<event>
 5    1  0.1140254E+001  0.2747796E+03  0.7818608E-02  0.1098575E+00
         -2   -1    0    0    0  501 -0.00000000000E+00  0.00000000000E+00  0.22490253154E+02  0.22490253154E+02  0.00000000000E+00 0.  1.
          2   -1    0    0  501    0  0.00000000000E+00 -0.00000000000E+00 -0.83929486622E+03  0.83929486622E+03  0.00000000000E+00 0.  1.
         35    2    1    2    0    0  0.00000000000E+00  0.00000000000E+00 -0.81680461307E+03  0.86178511938E+03  0.27477957721E+03 0.  0.
         25    1    3    3    0    0  0.61871531333E+02 -0.16235939069E+02 -0.46988150627E+03  0.48916287885E+03  0.12000000000E+03 0.  0.
         25    1    3    3    0    0 -0.61871531333E+02  0.16235939069E+02 -0.34692310680E+03  0.37262224053E+03  0.12000000000E+03 0.  0.
<mgrwt>
<rscale>  0 0.27477958E+03</rscale>
<asrwt>0</asrwt>
<pdfrwt beam="1">  1        2 0.12912230E+00 0.27477958E+03</pdfrwt>
<pdfrwt beam="2">  1       -2 0.34600387E-02 0.27477958E+03</pdfrwt>
<totfact> 0.11363666E+04</totfact>
</mgrwt>
</event>
<event>
 5    1  0.1140254E+001  0.2827732E+03  0.7818608E-02  0.1094184E+00
          2   -1    0    0  501    0  0.00000000000E+00  0.00000000000E+00  0.26310637049E+03  0.26310637049E+03  0.00000000000E+00 0.  1.
         -2   -1    0    0    0  501 -0.00000000000E+00 -0.00000000000E+00 -0.75977507196E+02  0.75977507196E+02  0.00000000000E+00 0.  1.
         35    2    1    2    0    0  0.00000000000E+00  0.00000000000E+00  0.18712886329E+03  0.33908387768E+03  0.28277316815E+03 0.  0.
         25    1    3    3    0    0 -0.61625558334E+02  0.33346996080E+02  0.12484409917E+03  0.18680412384E+03  0.12000000000E+03 0.  0.
         25    1    3    3    0    0  0.61625558334E+02 -0.33346996080E+02  0.62284764123E+02  0.15227975384E+03  0.12000000000E+03 0.  0.
<mgrwt>
<rscale>  0 0.28277317E+03</rscale>
<asrwt>0</asrwt>
<pdfrwt beam="1">  1        2 0.40477903E-01 0.28277317E+03</pdfrwt>
<pdfrwt beam="2">  1       -2 0.11688847E-01 0.28277317E+03</pdfrwt>
<totfact> 0.64695174E+03</totfact>
</mgrwt>
</event>
<event>
 5    1  0.1140254E+001  0.2749779E+03  0.7818608E-02  0.1098464E+00
          2   -1    0    0  501    0  0.00000000000E+00  0.00000000000E+00  0.15999045984E+03  0.15999045984E+03  0.00000000000E+00 0. -1.
         -2   -1    0    0    0  501 -0.00000000000E+00 -0.00000000000E+00 -0.11815215219E+03  0.11815215219E+03  0.00000000000E+00 0. -1.
         35    2    1    2    0    0  0.00000000000E+00  0.00000000000E+00  0.41838307652E+02  0.27814261202E+03  0.27497794209E+03 0.  0.
         25    1    3    3    0    0 -0.38462254917E+02  0.54926797596E+02  0.18258479624E+02  0.13867108648E+03  0.12000000000E+03 0.  0.
         25    1    3    3    0    0  0.38462254917E+02 -0.54926797596E+02  0.23579828027E+02  0.13947152554E+03  0.12000000000E+03 0.  0.
<mgrwt>
<rscale>  0 0.27497794E+03</rscale>
<asrwt>0</asrwt>
<pdfrwt beam="1">  1        2 0.24613917E-01 0.27497794E+03</pdfrwt>
<pdfrwt beam="2">  1       -2 0.18177254E-01 0.27497794E+03</pdfrwt>
<totfact> 0.53830787E+03</totfact>
</mgrwt>
</event>
<event>
 5    1  0.1140254E+001  0.2750678E+03  0.7818608E-02  0.1098414E+00
          2   -1    0    0  501    0  0.00000000000E+00  0.00000000000E+00  0.78661441784E+03  0.78661441784E+03  0.00000000000E+00 0. -1.
         -2   -1    0    0    0  501 -0.00000000000E+00 -0.00000000000E+00 -0.24046812849E+02  0.24046812849E+02  0.00000000000E+00 0. -1.
         35    2    1    2    0    0  0.00000000000E+00  0.00000000000E+00  0.76256760499E+03  0.81066123069E+03  0.27506777121E+03 0.  0.
         25    1    3    3    0    0 -0.54155801583E+02 -0.56031335673E+01  0.49736206913E+03  0.51452237441E+03  0.12000000000E+03 0.  0.
         25    1    3    3    0    0  0.54155801583E+02  0.56031335673E+01  0.26520553586E+03  0.29613885628E+03  0.12000000000E+03 0.  0.
<mgrwt>
<rscale>  0 0.27506777E+03</rscale>
<asrwt>0</asrwt>
<pdfrwt beam="1">  1        2 0.12101758E+00 0.27506777E+03</pdfrwt>
<pdfrwt beam="2">  1       -2 0.36995103E-02 0.27506777E+03</pdfrwt>
<totfact> 0.11170507E+04</totfact>
</mgrwt>
</event>
<event>
 5    1  0.1140254E+001  0.2765447E+03  0.7818608E-02  0.1097591E+00
         -2   -1    0    0    0  501 -0.00000000000E+00  0.00000000000E+00  0.61587446009E+01  0.61587446009E+01  0.00000000000E+00 0.  1.
          2   -1    0    0  501    0  0.00000000000E+00 -0.00000000000E+00 -0.31044066037E+04  0.31044066037E+04  0.00000000000E+00 0.  1.
         35    2    1    2    0    0  0.00000000000E+00  0.00000000000E+00 -0.30982478591E+04  0.31105653483E+04  0.27654473352E+03 0.  0.
         25    1    3    3    0    0  0.21578272750E+02 -0.17717735309E+02 -0.22551259144E+04  0.22584889705E+04  0.12000000000E+03 0.  0.
         25    1    3    3    0    0 -0.21578272750E+02  0.17717735309E+02 -0.84312194463E+03  0.85207637775E+03  0.12000000000E+03 0.  0.
<mgrwt>
<rscale>  0 0.27654473E+03</rscale>
<asrwt>0</asrwt>
<pdfrwt beam="1">  1        2 0.47759975E+00 0.27654473E+03</pdfrwt>
<pdfrwt beam="2">  1       -2 0.94750168E-03 0.27654473E+03</pdfrwt>
<totfact> 0.41596314E+03</totfact>
</mgrwt>
</event>
<event>
 5    1  0.1140254E+001  0.2751549E+03  0.7818608E-02  0.1098365E+00
         -4   -1    0    0    0  501 -0.00000000000E+00  0.00000000000E+00  0.23762230127E+03  0.23762230127E+03  0.00000000000E+00 0.  1.
          4   -1    0    0  501    0  0.00000000000E+00 -0.00000000000E+00 -0.79653970271E+02  0.79653970271E+02  0.00000000000E+00 0.  1.
         35    2    1    2    0    0  0.00000000000E+00  0.00000000000E+00  0.15796833100E+03  0.31727627154E+03  0.27515493614E+03 0.  0.
         25    1    3    3    0    0  0.49238473966E+02 -0.43998613463E+02  0.93896618288E+02  0.16606288035E+03  0.12000000000E+03 0.  0.
         25    1    3    3    0    0 -0.49238473966E+02  0.43998613463E+02  0.64071712713E+02  0.15121339119E+03  0.12000000000E+03 0.  0.
<mgrwt>
<rscale>  0 0.27515494E+03</rscale>
<asrwt>0</asrwt>
<pdfrwt beam="1">  1        4 0.12254457E-01 0.27515494E+03</pdfrwt>
<pdfrwt beam="2">  1       -4 0.36557277E-01 0.27515494E+03</pdfrwt>
<totfact> 0.72980249E+02</totfact>
</mgrwt>
</event>
<event>
 5    1  0.1140254E+001  0.2766009E+03  0.7818608E-02  0.1097560E+00
         -1   -1    0    0    0  501 -0.00000000000E+00  0.00000000000E+00  0.29758797891E+02  0.29758797891E+02  0.00000000000E+00 0.  1.
          1   -1    0    0  501    0  0.00000000000E+00 -0.00000000000E+00 -0.64273460684E+03  0.64273460684E+03  0.00000000000E+00 0.  1.
         35    2    1    2    0    0  0.00000000000E+00  0.00000000000E+00 -0.61297580895E+03  0.67249340473E+03  0.27660086235E+03 0.  0.
         25    1    3    3    0    0 -0.46335067706E+02 -0.50048301803E+02 -0.32757680033E+03  0.35546917043E+03  0.12000000000E+03 0.  0.
         25    1    3    3    0    0  0.46335067706E+02  0.50048301803E+02 -0.28539900862E+03  0.31702423430E+03  0.12000000000E+03 0.  0.
<mgrwt>
<rscale>  0 0.27660086E+03</rscale>
<asrwt>0</asrwt>
<pdfrwt beam="1">  1        1 0.98882244E-01 0.27660086E+03</pdfrwt>
<pdfrwt beam="2">  1       -1 0.45782768E-02 0.27660086E+03</pdfrwt>
<totfact> 0.63912215E+03</totfact>
</mgrwt>
</event>
<event>
 5    1  0.1140254E+001  0.2754299E+03  0.7818608E-02  0.1098212E+00
         -1   -1    0    0    0  501 -0.00000000000E+00  0.00000000000E+00  0.90137247713E+02  0.90137247713E+02  0.00000000000E+00 0. -1.
          1   -1    0    0  501    0  0.00000000000E+00 -0.00000000000E+00 -0.21040592390E+03  0.21040592390E+03  0.00000000000E+00 0. -1.
         35    2    1    2    0    0  0.00000000000E+00  0.00000000000E+00 -0.12026867619E+03  0.30054317162E+03  0.27542992490E+03 0.  0.
         25    1    3    3    0    0 -0.25236569213E+02  0.60776135145E+02 -0.76854233451E+02  0.15696240387E+03  0.12000000000E+03 0.  0.
         25    1    3    3    0    0  0.25236569213E+02 -0.60776135145E+02 -0.43414442740E+02  0.14358076775E+03  0.12000000000E+03 0.  0.
<mgrwt>
<rscale>  0 0.27542992E+03</rscale>
<asrwt>0</asrwt>
<pdfrwt beam="1">  1        1 0.32370142E-01 0.27542992E+03</pdfrwt>
<pdfrwt beam="2">  1       -1 0.13867269E-01 0.27542992E+03</pdfrwt>
<totfact> 0.49751984E+03</totfact>
</mgrwt>
</event>
<event>
 5    1  0.1140254E+001  0.2769071E+03  0.7818608E-02  0.1097390E+00
          2   -1    0    0  501    0  0.00000000000E+00  0.00000000000E+00  0.33056623660E+04  0.33056623660E+04  0.00000000000E+00 0.  1.
         -2   -1    0    0    0  501 -0.00000000000E+00 -0.00000000000E+00 -0.57989538852E+01  0.57989538852E+01  0.00000000000E+00 0.  1.
         35    2    1    2    0    0  0.00000000000E+00  0.00000000000E+00  0.32998634121E+04  0.33114613199E+04  0.27690708637E+03 0.  0.
         25    1    3    3    0    0 -0.36957187201E+02 -0.18801800610E+02  0.98948383782E+03  0.99759591353E+03  0.12000000000E+03 0.  0.
         25    1    3    3    0    0  0.36957187201E+02  0.18801800610E+02  0.23103795743E+04  0.23138654063E+04  0.12000000000E+03 0.  0.
<mgrwt>
<rscale>  0 0.27690709E+03</rscale>
<asrwt>0</asrwt>
<pdfrwt beam="1">  1        2 0.50856194E+00 0.27690709E+03</pdfrwt>
<pdfrwt beam="2">  1       -2 0.89214939E-03 0.27690709E+03</pdfrwt>
<totfact> 0.34082140E+03</totfact>
</mgrwt>
</event>
<event>
 5    1  0.1140254E+001  0.2750965E+03  0.7818608E-02  0.1098398E+00
         -1   -1    0    0    0  501 -0.00000000000E+00  0.00000000000E+00  0.34766870645E+03  0.34766870645E+03  0.00000000000E+00 0. -1.
          1   -1    0    0  501    0  0.00000000000E+00 -0.00000000000E+00 -0.54418242729E+02  0.54418242729E+02  0.00000000000E+00 0. -1.
         35    2    1    2    0    0  0.00000000000E+00  0.00000000000E+00  0.29325046372E+03  0.40208694917E+03  0.27509649257E+03 0.  0.
         25    1    3    3    0    0 -0.46702816358E+02 -0.42681135487E+02  0.11340145704E+03  0.17681267726E+03  0.12000000000E+03 0.  0.
         25    1    3    3    0    0  0.46702816358E+02  0.42681135487E+02  0.17984900668E+03  0.22527427191E+03  0.12000000000E+03 0.  0.
<mgrwt>
<rscale>  0 0.27509649E+03</rscale>
<asrwt>0</asrwt>
<pdfrwt beam="1">  1        1 0.83720376E-02 0.27509649E+03</pdfrwt>
<pdfrwt beam="2">  1       -1 0.53487492E-01 0.27509649E+03</pdfrwt>
<totfact> 0.29478428E+03</totfact>
</mgrwt>
</event>
<event>
 5    1  0.1140254E+001  0.2753479E+03  0.7818608E-02  0.1098257E+00
         -2   -1    0    0    0  501 -0.00000000000E+00  0.00000000000E+00  0.36551478132E+02  0.36551478132E+02  0.00000000000E+00 0. -1.
          2   -1    0    0  501    0  0.00000000000E+00 -0.00000000000E+00 -0.51855956214E+03  0.51855956214E+03  0.00000000000E+00 0. -1.
         35    2    1    2    0    0  0.00000000000E+00  0.00000000000E+00 -0.48200808401E+03  0.55511104027E+03  0.27534791443E+03 0.  0.
         25    1    3    3    0    0  0.11716158417E+02  0.55881678078E+02 -0.31352775142E+03  0.34052853218E+03  0.12000000000E+03 0.  0.
         25    1    3    3    0    0 -0.11716158417E+02 -0.55881678078E+02 -0.16848033258E+03  0.21458250809E+03  0.12000000000E+03 0.  0.
<mgrwt>
<rscale>  0 0.27534791E+03</rscale>
<asrwt>0</asrwt>
<pdfrwt beam="1">  1        2 0.79778389E-01 0.27534791E+03</pdfrwt>
<pdfrwt beam="2">  1       -2 0.56233047E-02 0.27534791E+03</pdfrwt>
<totfact> 0.97144395E+03</totfact>
</mgrwt>
</event>
<event>
 5    1  0.1140254E+001  0.2750745E+03  0.7818608E-02  0.1098410E+00
          3   -1    0    0  501    0  0.00000000000E+00  0.00000000000E+00  0.54686490754E+02  0.54686490754E+02  0.00000000000E+00 0.  1.
         -3   -1    0    0    0  501 -0.00000000000E+00 -0.00000000000E+00 -0.34590798573E+03  0.34590798573E+03  0.00000000000E+00 0.  1.
         35    2    1    2    0    0  0.00000000000E+00  0.00000000000E+00 -0.29122149497E+03  0.40059447648E+03  0.27507449074E+03 0.  0.
         25    1    3    3    0    0  0.43235465277E+02 -0.23749933492E+02 -0.21207876543E+03  0.24861771366E+03  0.12000000000E+03 0.  0.
         25    1    3    3    0    0 -0.43235465277E+02  0.23749933492E+02 -0.79142729542E+02  0.15197676282E+03  0.12000000000E+03 0.  0.
<mgrwt>
<rscale>  0 0.27507449E+03</rscale>
<asrwt>0</asrwt>
<pdfrwt beam="1">  1        3 0.84133063E-02 0.27507449E+03</pdfrwt>
<pdfrwt beam="2">  1       -3 0.53216613E-01 0.27507449E+03</pdfrwt>
<totfact> 0.87919601E+02</totfact>
</mgrwt>
</event>
<event>
 5    1  0.1140254E+001  0.2865436E+03  0.7818608E-02  0.1092168E+00
         -2   -1    0    0    0  501 -0.00000000000E+00  0.00000000000E+00  0.19611900286E+03  0.19611900286E+03  0.00000000000E+00 0.  1.
          2   -1    0    0  501    0  0.00000000000E+00 -0.00000000000E+00 -0.10466505088E+03  0.10466505088E+03  0.00000000000E+00 0.  1.
         35    2    1    2    0    0  0.00000000000E+00  0.00000000000E+00  0.91453951983E+02  0.30078405374E+03  0.28654357723E+03 0.  0.
         25    1    3    3    0    0 -0.17717668760E+02 -0.20524233791E+02 -0.31350022248E+02  0.12695662194E+03  0.12000000000E+03 0.  0.
         25    1    3    3    0    0  0.17717668760E+02  0.20524233791E+02  0.12280397423E+03  0.17382743180E+03  0.12000000000E+03 0.  0.
<mgrwt>
<rscale>  0 0.28654358E+03</rscale>
<asrwt>0</asrwt>
<pdfrwt beam="1">  1        2 0.16102316E-01 0.28654358E+03</pdfrwt>
<pdfrwt beam="2">  1       -2 0.30172154E-01 0.28654358E+03</pdfrwt>
<totfact> 0.36117252E+03</totfact>
</mgrwt>
</event>
<event>
 5    1  0.1140254E+001  0.2734109E+03  0.7818608E-02  0.1099343E+00
         -2   -1    0    0    0  501 -0.00000000000E+00  0.00000000000E+00  0.16466890494E+03  0.16466890494E+03  0.00000000000E+00 0.  1.
          2   -1    0    0  501    0  0.00000000000E+00 -0.00000000000E+00 -0.11349064253E+03  0.11349064253E+03  0.00000000000E+00 0.  1.
         35    2    1    2    0    0  0.00000000000E+00  0.00000000000E+00  0.51178262414E+02  0.27815954747E+03  0.27341089830E+03 0.  0.
         25    1    3    3    0    0  0.20737238953E+01  0.12196859672E+02  0.91012440177E+02  0.15111693480E+03  0.12000000000E+03 0.  0.
         25    1    3    3    0    0 -0.20737238953E+01 -0.12196859672E+02 -0.39834177762E+02  0.12704261267E+03  0.12000000000E+03 0.  0.
<mgrwt>
<rscale>  0 0.27341090E+03</rscale>
<asrwt>0</asrwt>
<pdfrwt beam="1">  1        2 0.17460099E-01 0.27341090E+03</pdfrwt>
<pdfrwt beam="2">  1       -2 0.25333678E-01 0.27341090E+03</pdfrwt>
<totfact> 0.44879942E+03</totfact>
</mgrwt>
</event>
<event>
 5    1  0.1140254E+001  0.2756423E+03  0.7818608E-02  0.1098093E+00
         -2   -1    0    0    0  501 -0.00000000000E+00  0.00000000000E+00  0.16964846990E+02  0.16964846990E+02  0.00000000000E+00 0. -1.
          2   -1    0    0  501    0  0.00000000000E+00 -0.00000000000E+00 -0.11196488291E+04  0.11196488291E+04  0.00000000000E+00 0. -1.
         35    2    1    2    0    0  0.00000000000E+00  0.00000000000E+00 -0.11026839821E+04  0.11366136761E+04  0.27564231220E+03 0.  0.
         25    1    3    3    0    0 -0.47131611017E+02 -0.16180944096E+02 -0.36186418110E+03  0.38448523674E+03  0.12000000000E+03 0.  0.
         25    1    3    3    0    0  0.47131611017E+02  0.16180944096E+02 -0.74081980097E+03  0.75212843931E+03  0.12000000000E+03 0.  0.
<mgrwt>
<rscale>  0 0.27564231E+03</rscale>
<asrwt>0</asrwt>
<pdfrwt beam="1">  1        2 0.17225370E+00 0.27564231E+03</pdfrwt>
<pdfrwt beam="2">  1       -2 0.26099760E-02 0.27564231E+03</pdfrwt>
<totfact> 0.11575957E+04</totfact>
</mgrwt>
</event>
<event>
 5    1  0.1140254E+001  0.2750029E+03  0.7818608E-02  0.1098450E+00
          2   -1    0    0  501    0  0.00000000000E+00  0.00000000000E+00  0.11730492492E+04  0.11730492492E+04  0.00000000000E+00 0. -1.
         -2   -1    0    0    0  501 -0.00000000000E+00 -0.00000000000E+00 -0.16117525333E+02  0.16117525333E+02  0.00000000000E+00 0. -1.
         35    2    1    2    0    0  0.00000000000E+00  0.00000000000E+00  0.11569317239E+04  0.11891667745E+04  0.27500291628E+03 0.  0.
         25    1    3    3    0    0  0.52615087558E+02 -0.30082260949E+02  0.70329675764E+03  0.71603045966E+03  0.12000000000E+03 0.  0.
         25    1    3    3    0    0 -0.52615087558E+02  0.30082260949E+02  0.45363496622E+03  0.47313631486E+03  0.12000000000E+03 0.  0.
<mgrwt>
<rscale>  0 0.27500292E+03</rscale>
<asrwt>0</asrwt>
<pdfrwt beam="1">  1        2 0.18046905E+00 0.27500292E+03</pdfrwt>
<pdfrwt beam="2">  1       -2 0.24796202E-02 0.27500292E+03</pdfrwt>
<totfact> 0.11630900E+04</totfact>
</mgrwt>
</event>
<event>
 5    1  0.1140254E+001  0.2753901E+03  0.7818608E-02  0.1098234E+00
         -1   -1    0    0    0  501 -0.00000000000E+00  0.00000000000E+00  0.26928907726E+02  0.26928907726E+02  0.00000000000E+00 0.  1.
          1   -1    0    0  501    0  0.00000000000E+00 -0.00000000000E+00 -0.70407325106E+03  0.70407325106E+03  0.00000000000E+00 0.  1.
         35    2    1    2    0    0  0.00000000000E+00  0.00000000000E+00 -0.67714434334E+03  0.73100215879E+03  0.27539007688E+03 0.  0.
         25    1    3    3    0    0 -0.15505183844E+01 -0.29042526085E+02 -0.17680353912E+03  0.21565102335E+03  0.12000000000E+03 0.  0.
         25    1    3    3    0    0  0.15505183844E+01  0.29042526085E+02 -0.50034080422E+03  0.51535113544E+03  0.12000000000E+03 0.  0.
<mgrwt>
<rscale>  0 0.27539008E+03</rscale>
<asrwt>0</asrwt>
<pdfrwt beam="1">  1        1 0.10831896E+00 0.27539008E+03</pdfrwt>
<pdfrwt beam="2">  1       -1 0.41429089E-02 0.27539008E+03</pdfrwt>
<totfact> 0.65050098E+03</totfact>
</mgrwt>
</event>
<event>
 5    1  0.1140254E+001  0.2752701E+03  0.7818608E-02  0.1098301E+00
         -2   -1    0    0    0  501 -0.00000000000E+00  0.00000000000E+00  0.68254491386E+01  0.68254491386E+01  0.00000000000E+00 0.  1.
          2   -1    0    0  501    0  0.00000000000E+00 -0.00000000000E+00 -0.27754074914E+04  0.27754074914E+04  0.00000000000E+00 0.  1.
         35    2    1    2    0    0  0.00000000000E+00  0.00000000000E+00 -0.27685820423E+04  0.27822329406E+04  0.27527006863E+03 0.  0.
         25    1    3    3    0    0  0.56699889976E+02  0.22548274741E+02 -0.16737373351E+04  0.16791426292E+04  0.12000000000E+03 0.  0.
         25    1    3    3    0    0 -0.56699889976E+02 -0.22548274741E+02 -0.10948447072E+04  0.11030903114E+04  0.12000000000E+03 0.  0.
<mgrwt>
<rscale>  0 0.27527007E+03</rscale>
<asrwt>0</asrwt>
<pdfrwt beam="1">  1        2 0.42698565E+00 0.27527007E+03</pdfrwt>
<pdfrwt beam="2">  1       -2 0.10500694E-02 0.27527007E+03</pdfrwt>
<totfact> 0.55883120E+03</totfact>
</mgrwt>
</event>
<event>
 5    1  0.1140254E+001  0.2740883E+03  0.7818608E-02  0.1098962E+00
         -1   -1    0    0    0  501 -0.00000000000E+00  0.00000000000E+00  0.10014864234E+03  0.10014864234E+03  0.00000000000E+00 0. -1.
          1   -1    0    0  501    0  0.00000000000E+00 -0.00000000000E+00 -0.18753217575E+03  0.18753217575E+03  0.00000000000E+00 0. -1.
         35    2    1    2    0    0  0.00000000000E+00  0.00000000000E+00 -0.87383533416E+02  0.28768081809E+03  0.27408825437E+03 0.  0.
         25    1    3    3    0    0 -0.21035860304E+02 -0.38468095033E+02 -0.95737039748E+02  0.15964924846E+03  0.12000000000E+03 0.  0.
         25    1    3    3    0    0  0.21035860304E+02  0.38468095033E+02  0.83535063327E+01  0.12803156963E+03  0.12000000000E+03 0.  0.
<mgrwt>
<rscale>  0 0.27408825E+03</rscale>
<asrwt>0</asrwt>
<pdfrwt beam="1">  1        1 0.28851104E-01 0.27408825E+03</pdfrwt>
<pdfrwt beam="2">  1       -1 0.15407483E-01 0.27408825E+03</pdfrwt>
<totfact> 0.48678025E+03</totfact>
</mgrwt>
</event>
<event>
 5    1  0.1140254E+001  0.2753589E+03  0.7818608E-02  0.1098251E+00
          1   -1    0    0  501    0  0.00000000000E+00  0.00000000000E+00  0.65908590912E+03  0.65908590912E+03  0.00000000000E+00 0.  1.
         -1   -1    0    0    0  501 -0.00000000000E+00 -0.00000000000E+00 -0.28760495167E+02  0.28760495167E+02  0.00000000000E+00 0.  1.
         35    2    1    2    0    0  0.00000000000E+00  0.00000000000E+00  0.63032541395E+03  0.68784640429E+03  0.27535894468E+03 0.  0.
         25    1    3    3    0    0 -0.31625496027E+01 -0.58035512585E+02  0.40088138107E+03  0.42247367270E+03  0.12000000000E+03 0.  0.
         25    1    3    3    0    0  0.31625496027E+01  0.58035512585E+02  0.22944403288E+03  0.26537273158E+03  0.12000000000E+03 0.  0.
<mgrwt>
<rscale>  0 0.27535894E+03</rscale>
<asrwt>0</asrwt>
<pdfrwt beam="1">  1        1 0.10139782E+00 0.27535894E+03</pdfrwt>
<pdfrwt beam="2">  1       -1 0.44246921E-02 0.27535894E+03</pdfrwt>
<totfact> 0.64881112E+03</totfact>
</mgrwt>
</event>
<event>
 5    1  0.1140254E+001  0.2750112E+03  0.7818608E-02  0.1098445E+00
         -2   -1    0    0    0  501 -0.00000000000E+00  0.00000000000E+00  0.21991032067E+02  0.21991032067E+02  0.00000000000E+00 0. -1.
          2   -1    0    0  501    0  0.00000000000E+00 -0.00000000000E+00 -0.85979569423E+03  0.85979569423E+03  0.00000000000E+00 0. -1.
         35    2    1    2    0    0  0.00000000000E+00  0.00000000000E+00 -0.83780466216E+03  0.88178672630E+03  0.27501123383E+03 0.  0.
         25    1    3    3    0    0  0.38839609482E+02  0.51406293993E+02 -0.35834763231E+03  0.38335903265E+03  0.12000000000E+03 0.  0.
         25    1    3    3    0    0 -0.38839609482E+02 -0.51406293993E+02 -0.47945702985E+03  0.49842769365E+03  0.12000000000E+03 0.  0.
<mgrwt>
<rscale>  0 0.27501123E+03</rscale>
<asrwt>0</asrwt>
<pdfrwt beam="1">  1        2 0.13227626E+00 0.27501123E+03</pdfrwt>
<pdfrwt beam="2">  1       -2 0.33832358E-02 0.27501123E+03</pdfrwt>
<totfact> 0.11387598E+04</totfact>
</mgrwt>
</event>
<event>
 5    1  0.1140254E+001  0.2751921E+03  0.7818608E-02  0.1098344E+00
         -1   -1    0    0    0  501 -0.00000000000E+00  0.00000000000E+00  0.83301729801E+02  0.83301729801E+02  0.00000000000E+00 0.  1.
          1   -1    0    0  501    0  0.00000000000E+00 -0.00000000000E+00 -0.22727821331E+03  0.22727821331E+03  0.00000000000E+00 0.  1.
         35    2    1    2    0    0  0.00000000000E+00  0.00000000000E+00 -0.14397648351E+03  0.31057994312E+03  0.27519206613E+03 0.  0.
         25    1    3    3    0    0  0.65542106675E+02 -0.12383364208E+02 -0.61672079746E+02  0.15050767714E+03  0.12000000000E+03 0.  0.
         25    1    3    3    0    0 -0.65542106675E+02  0.12383364208E+02 -0.82304403768E+02  0.16007226598E+03  0.12000000000E+03 0.  0.
<mgrwt>
<rscale>  0 0.27519207E+03</rscale>
<asrwt>0</asrwt>
<pdfrwt beam="1">  1        1 0.34965878E-01 0.27519207E+03</pdfrwt>
<pdfrwt beam="2">  1       -1 0.12815651E-01 0.27519207E+03</pdfrwt>
<totfact> 0.51115581E+03</totfact>
</mgrwt>
</event>
<event>
 5    1  0.1140254E+001  0.2753261E+03  0.7818608E-02  0.1098269E+00
         -2   -1    0    0    0  501 -0.00000000000E+00  0.00000000000E+00  0.36015054544E+03  0.36015054544E+03  0.00000000000E+00 0. -1.
          2   -1    0    0  501    0  0.00000000000E+00 -0.00000000000E+00 -0.52619993820E+02  0.52619993820E+02  0.00000000000E+00 0. -1.
         35    2    1    2    0    0  0.00000000000E+00  0.00000000000E+00  0.30753055162E+03  0.41277053926E+03  0.27532613007E+03 0.  0.
         25    1    3    3    0    0 -0.31004894490E+02 -0.92496957297E+01  0.65017113586E+02  0.14026434120E+03  0.12000000000E+03 0.  0.
         25    1    3    3    0    0  0.31004894490E+02  0.92496957297E+01  0.24251343803E+03  0.27250619805E+03  0.12000000000E+03 0.  0.
<mgrwt>
<rscale>  0 0.27532613E+03</rscale>
<asrwt>0</asrwt>
<pdfrwt beam="1">  1        2 0.80953839E-02 0.27532613E+03</pdfrwt>
<pdfrwt beam="2">  1       -2 0.55407775E-01 0.27532613E+03</pdfrwt>
<totfact> 0.26033320E+03</totfact>
</mgrwt>
</event>
<event>
 5    1  0.1140254E+001  0.2750604E+03  0.7818608E-02  0.1098418E+00
         -1   -1    0    0    0  501 -0.00000000000E+00  0.00000000000E+00  0.23118101797E+02  0.23118101797E+02  0.00000000000E+00 0.  1.
          1   -1    0    0  501    0  0.00000000000E+00 -0.00000000000E+00 -0.81817085791E+03  0.81817085791E+03  0.00000000000E+00 0.  1.
         35    2    1    2    0    0  0.00000000000E+00  0.00000000000E+00 -0.79505275611E+03  0.84128895970E+03  0.27506040922E+03 0.  0.
         25    1    3    3    0    0 -0.58168658289E+02 -0.30064085570E+02 -0.44361992623E+03  0.46420478347E+03  0.12000000000E+03 0.  0.
         25    1    3    3    0    0  0.58168658289E+02  0.30064085570E+02 -0.35143282988E+03  0.37708417624E+03  0.12000000000E+03 0.  0.
<mgrwt>
<rscale>  0 0.27506041E+03</rscale>
<asrwt>0</asrwt>
<pdfrwt beam="1">  1        1 0.12587243E+00 0.27506041E+03</pdfrwt>
<pdfrwt beam="2">  1       -1 0.35566313E-02 0.27506041E+03</pdfrwt>
<totfact> 0.65071465E+03</totfact>
</mgrwt>
</event>
<event>
 5    1  0.1140254E+001  0.2763643E+03  0.7818608E-02  0.1097691E+00
          4   -1    0    0  501    0  0.00000000000E+00  0.00000000000E+00  0.62759530856E+02  0.62759530856E+02  0.00000000000E+00 0. -1.
         -4   -1    0    0    0  501 -0.00000000000E+00 -0.00000000000E+00 -0.30424545998E+03  0.30424545998E+03  0.00000000000E+00 0. -1.
         35    2    1    2    0    0  0.00000000000E+00  0.00000000000E+00 -0.24148592913E+03  0.36700499084E+03  0.27636426928E+03 0.  0.
         25    1    3    3    0    0 -0.15583860165E+02 -0.32541013856E+02 -0.19809144764E+03  0.23439709023E+03  0.12000000000E+03 0.  0.
         25    1    3    3    0    0  0.15583860165E+02  0.32541013856E+02 -0.43394481488E+02  0.13260790061E+03  0.12000000000E+03 0.  0.
<mgrwt>
<rscale>  0 0.27636427E+03</rscale>
<asrwt>0</asrwt>
<pdfrwt beam="1">  1        4 0.96553123E-02 0.27636427E+03</pdfrwt>
<pdfrwt beam="2">  1       -4 0.46806995E-01 0.27636427E+03</pdfrwt>
<totfact> 0.67035024E+02</totfact>
</mgrwt>
</event>
<event>
 5    1  0.1140254E+001  0.2803500E+03  0.7818608E-02  0.1095498E+00
          2   -1    0    0  501    0  0.00000000000E+00  0.00000000000E+00  0.31280172147E+04  0.31280172147E+04  0.00000000000E+00 0.  1.
         -2   -1    0    0    0  501 -0.00000000000E+00 -0.00000000000E+00 -0.62816242399E+01  0.62816242399E+01  0.00000000000E+00 0.  1.
         35    2    1    2    0    0  0.00000000000E+00  0.00000000000E+00  0.31217355904E+04  0.31342988389E+04  0.28034998668E+03 0.  0.
         25    1    3    3    0    0 -0.57106388260E+02 -0.29697410717E+02  0.11890688164E+04  0.11968407270E+04  0.12000000000E+03 0.  0.
         25    1    3    3    0    0  0.57106388260E+02  0.29697410717E+02  0.19326667740E+04  0.19374581119E+04  0.12000000000E+03 0.  0.
<mgrwt>
<rscale>  0 0.28034999E+03</rscale>
<asrwt>0</asrwt>
<pdfrwt beam="1">  1        2 0.48123217E+00 0.28034999E+03</pdfrwt>
<pdfrwt beam="2">  1       -2 0.96640623E-03 0.28034999E+03</pdfrwt>
<totfact> 0.39093795E+03</totfact>
</mgrwt>
</event>
<event>
 5    1  0.1140254E+001  0.2771014E+03  0.7818608E-02  0.1097283E+00
         -2   -1    0    0    0  501 -0.00000000000E+00  0.00000000000E+00  0.20487874241E+02  0.20487874241E+02  0.00000000000E+00 0. -1.
          2   -1    0    0  501    0  0.00000000000E+00 -0.00000000000E+00 -0.93695904745E+03  0.93695904745E+03  0.00000000000E+00 0. -1.
         35    2    1    2    0    0  0.00000000000E+00  0.00000000000E+00 -0.91647117321E+03  0.95744692169E+03  0.27710141922E+03 0.  0.
         25    1    3    3    0    0 -0.56936877355E+02  0.63607488374E+01 -0.59268022423E+03  0.60741428640E+03  0.12000000000E+03 0.  0.
         25    1    3    3    0    0  0.56936877355E+02 -0.63607488374E+01 -0.32379094898E+03  0.35003263530E+03  0.12000000000E+03 0.  0.
<mgrwt>
<rscale>  0 0.27710142E+03</rscale>
<asrwt>0</asrwt>
<pdfrwt beam="1">  1        2 0.14414749E+00 0.27710142E+03</pdfrwt>
<pdfrwt beam="2">  1       -2 0.31519819E-02 0.27710142E+03</pdfrwt>
<totfact> 0.11285383E+04</totfact>
</mgrwt>
</event>
<event>
 5    1  0.1140254E+001  0.2744580E+03  0.7818608E-02  0.1098755E+00
         -2   -1    0    0    0  501 -0.00000000000E+00  0.00000000000E+00  0.14324651989E+02  0.14324651989E+02  0.00000000000E+00 0. -1.
          2   -1    0    0  501    0  0.00000000000E+00 -0.00000000000E+00 -0.13146430393E+04  0.13146430393E+04  0.00000000000E+00 0. -1.
         35    2    1    2    0    0  0.00000000000E+00  0.00000000000E+00 -0.13003183873E+04  0.13289676913E+04  0.27445804071E+03 0.  0.
         25    1    3    3    0    0  0.34684520165E+02  0.44949757495E+02 -0.81847588286E+03  0.82917203731E+03  0.12000000000E+03 0.  0.
         25    1    3    3    0    0 -0.34684520165E+02 -0.44949757495E+02 -0.48184250446E+03  0.49979565399E+03  0.12000000000E+03 0.  0.
<mgrwt>
<rscale>  0 0.27445804E+03</rscale>
<asrwt>0</asrwt>
<pdfrwt beam="1">  1        2 0.20225280E+00 0.27445804E+03</pdfrwt>
<pdfrwt beam="2">  1       -2 0.22037923E-02 0.27445804E+03</pdfrwt>
<totfact> 0.11526617E+04</totfact>
</mgrwt>
</event>
<event>
 5    1  0.1140254E+001  0.2726777E+03  0.7818608E-02  0.1099757E+00
         -2   -1    0    0    0  501 -0.00000000000E+00  0.00000000000E+00  0.93960214193E+02  0.93960214193E+02  0.00000000000E+00 0. -1.
          2   -1    0    0  501    0  0.00000000000E+00 -0.00000000000E+00 -0.19783143535E+03  0.19783143535E+03  0.00000000000E+00 0. -1.
         35    2    1    2    0    0  0.00000000000E+00  0.00000000000E+00 -0.10387122115E+03  0.29179164954E+03  0.27267771482E+03 0.  0.
         25    1    3    3    0    0 -0.36723631009E+02  0.35899081347E+02 -0.97934108684E+01  0.13089415576E+03  0.12000000000E+03 0.  0.
         25    1    3    3    0    0  0.36723631009E+02 -0.35899081347E+02 -0.94077810284E+02  0.16089749378E+03  0.12000000000E+03 0.  0.
<mgrwt>
<rscale>  0 0.27267771E+03</rscale>
<asrwt>0</asrwt>
<pdfrwt beam="1">  1        2 0.30435605E-01 0.27267771E+03</pdfrwt>
<pdfrwt beam="2">  1       -2 0.14455418E-01 0.27267771E+03</pdfrwt>
<totfact> 0.62321926E+03</totfact>
</mgrwt>
</event>
<event>
 5    1  0.1140254E+001  0.2707682E+03  0.7818608E-02  0.1100841E+00
         -2   -1    0    0    0  501 -0.00000000000E+00  0.00000000000E+00  0.29382188632E+02  0.29382188632E+02  0.00000000000E+00 0.  1.
          2   -1    0    0  501    0  0.00000000000E+00 -0.00000000000E+00 -0.62380816519E+03  0.62380816519E+03  0.00000000000E+00 0.  1.
         35    2    1    2    0    0  0.00000000000E+00  0.00000000000E+00 -0.59442597655E+03  0.65319035382E+03  0.27076816046E+03 0.  0.
         25    1    3    3    0    0 -0.18837593387E+02 -0.59368184536E+02 -0.28025546483E+03  0.31116323984E+03  0.12000000000E+03 0.  0.
         25    1    3    3    0    0  0.18837593387E+02  0.59368184536E+02 -0.31417051173E+03  0.34202711398E+03  0.12000000000E+03 0.  0.
<mgrwt>
<rscale>  0 0.27076816E+03</rscale>
<asrwt>0</asrwt>
<pdfrwt beam="1">  1        2 0.95970478E-01 0.27076816E+03</pdfrwt>
<pdfrwt beam="2">  1       -2 0.45203371E-02 0.27076816E+03</pdfrwt>
<totfact> 0.10944146E+04</totfact>
</mgrwt>
</event>
<event>
 5    1  0.1140254E+001  0.2753039E+03  0.7818608E-02  0.1098282E+00
         -2   -1    0    0    0  501 -0.00000000000E+00  0.00000000000E+00  0.39782879014E+02  0.39782879014E+02  0.00000000000E+00 0. -1.
          2   -1    0    0  501    0  0.00000000000E+00 -0.00000000000E+00 -0.47628672258E+03  0.47628672258E+03  0.00000000000E+00 0. -1.
         35    2    1    2    0    0  0.00000000000E+00  0.00000000000E+00 -0.43650384357E+03  0.51606960160E+03  0.27530388345E+03 0.  0.
         25    1    3    3    0    0  0.36202547639E+02  0.26512466874E+02 -0.12387975033E+03  0.17821259186E+03  0.12000000000E+03 0.  0.
         25    1    3    3    0    0 -0.36202547639E+02 -0.26512466874E+02 -0.31262409324E+03  0.33785700974E+03  0.12000000000E+03 0.  0.
<mgrwt>
<rscale>  0 0.27530388E+03</rscale>
<asrwt>0</asrwt>
<pdfrwt beam="1">  1        2 0.73274878E-01 0.27530388E+03</pdfrwt>
<pdfrwt beam="2">  1       -2 0.61204431E-02 0.27530388E+03</pdfrwt>
<totfact> 0.93825920E+03</totfact>
</mgrwt>
</event>
<event>
 5    1  0.1140254E+001  0.2745758E+03  0.7818608E-02  0.1098689E+00
          2   -1    0    0  501    0  0.00000000000E+00  0.00000000000E+00  0.72675874510E+03  0.72675874510E+03  0.00000000000E+00 0.  1.
         -2   -1    0    0    0  501 -0.00000000000E+00 -0.00000000000E+00 -0.25934284916E+02  0.25934284916E+02  0.00000000000E+00 0.  1.
         35    2    1    2    0    0  0.00000000000E+00  0.00000000000E+00  0.70082446019E+03  0.75269303002E+03  0.27457580637E+03 0.  0.
         25    1    3    3    0    0  0.58088366897E+02  0.32254875520E+02  0.36623901890E+03  0.39108266943E+03  0.12000000000E+03 0.  0.
         25    1    3    3    0    0 -0.58088366897E+02 -0.32254875520E+02  0.33458544129E+03  0.36161036059E+03  0.12000000000E+03 0.  0.
<mgrwt>
<rscale>  0 0.27457581E+03</rscale>
<asrwt>0</asrwt>
<pdfrwt beam="1">  1        2 0.11180902E+00 0.27457581E+03</pdfrwt>
<pdfrwt beam="2">  1       -2 0.39898905E-02 0.27457581E+03</pdfrwt>
<totfact> 0.11005091E+04</totfact>
</mgrwt>
</event>
<event>
 5    1  0.1140254E+001  0.2749959E+03  0.7818608E-02  0.1098454E+00
         -2   -1    0    0    0  501 -0.00000000000E+00  0.00000000000E+00  0.92174112870E+01  0.92174112870E+01  0.00000000000E+00 0. -1.
          2   -1    0    0  501    0  0.00000000000E+00 -0.00000000000E+00 -0.20510836673E+04  0.20510836673E+04  0.00000000000E+00 0. -1.
         35    2    1    2    0    0  0.00000000000E+00  0.00000000000E+00 -0.20418662561E+04  0.20603010786E+04  0.27499586721E+03 0.  0.
         25    1    3    3    0    0 -0.51124756508E+02 -0.43025968575E+02 -0.97313187101E+03  0.98277699051E+03  0.12000000000E+03 0.  0.
         25    1    3    3    0    0  0.51124756508E+02  0.43025968575E+02 -0.10687343850E+04  0.10775240881E+04  0.12000000000E+03 0.  0.
<mgrwt>
<rscale>  0 0.27499587E+03</rscale>
<asrwt>0</asrwt>
<pdfrwt beam="1">  1        2 0.31555151E+00 0.27499587E+03</pdfrwt>
<pdfrwt beam="2">  1       -2 0.14180625E-02 0.27499587E+03</pdfrwt>
<totfact> 0.89444057E+03</totfact>
</mgrwt>
</event>
<event>
 5    1  0.1140254E+001  0.2760443E+03  0.7818608E-02  0.1097869E+00
         -2   -1    0    0    0  501 -0.00000000000E+00  0.00000000000E+00  0.72170906787E+01  0.72170906787E+01  0.00000000000E+00 0.  1.
          2   -1    0    0  501    0  0.00000000000E+00 -0.00000000000E+00 -0.26395830048E+04  0.26395830048E+04  0.00000000000E+00 0.  1.
         35    2    1    2    0    0  0.00000000000E+00  0.00000000000E+00 -0.26323659141E+04  0.26468000955E+04  0.27604427109E+03 0.  0.
         25    1    3    3    0    0 -0.23979700158E+02 -0.15295644842E+02 -0.19104364510E+04  0.19144128123E+04  0.12000000000E+03 0.  0.
         25    1    3    3    0    0  0.23979700158E+02  0.15295644842E+02 -0.72192946317E+03  0.73238728318E+03  0.12000000000E+03 0.  0.
<mgrwt>
<rscale>  0 0.27604427E+03</rscale>
<asrwt>0</asrwt>
<pdfrwt beam="1">  1        2 0.40608926E+00 0.27604427E+03</pdfrwt>
<pdfrwt beam="2">  1       -2 0.11103228E-02 0.27604427E+03</pdfrwt>
<totfact> 0.61465619E+03</totfact>
</mgrwt>
</event>
<event>
 5    1  0.1140254E+001  0.2746926E+03  0.7818608E-02  0.1098624E+00
         -1   -1    0    0    0  501 -0.00000000000E+00  0.00000000000E+00  0.19078620899E+03  0.19078620899E+03  0.00000000000E+00 0.  1.
          1   -1    0    0  501    0  0.00000000000E+00 -0.00000000000E+00 -0.98875084304E+02  0.98875084304E+02  0.00000000000E+00 0.  1.
         35    2    1    2    0    0  0.00000000000E+00  0.00000000000E+00  0.91911124682E+02  0.28966129329E+03  0.27469257360E+03 0.  0.
         25    1    3    3    0    0 -0.47855914237E+02  0.21245689581E+02  0.21917725682E+01  0.13094415497E+03  0.12000000000E+03 0.  0.
         25    1    3    3    0    0  0.47855914237E+02 -0.21245689581E+02  0.89719352114E+02  0.15871713832E+03  0.12000000000E+03 0.  0.
<mgrwt>
<rscale>  0 0.27469257E+03</rscale>
<asrwt>0</asrwt>
<pdfrwt beam="1">  1        1 0.15211551E-01 0.27469257E+03</pdfrwt>
<pdfrwt beam="2">  1       -1 0.29351724E-01 0.27469257E+03</pdfrwt>
<totfact> 0.38585101E+03</totfact>
</mgrwt>
</event>
<event>
 5    1  0.1140254E+001  0.2750882E+03  0.7818608E-02  0.1098402E+00
         -2   -1    0    0    0  501 -0.00000000000E+00  0.00000000000E+00  0.87939404514E+02  0.87939404514E+02  0.00000000000E+00 0.  1.
          2   -1    0    0  501    0  0.00000000000E+00 -0.00000000000E+00 -0.21512979531E+03  0.21512979531E+03  0.00000000000E+00 0.  1.
         35    2    1    2    0    0  0.00000000000E+00  0.00000000000E+00 -0.12719039080E+03  0.30306919983E+03  0.27508824833E+03 0.  0.
         25    1    3    3    0    0 -0.23070311407E+02  0.28860402227E+02 -0.17298877885E+01  0.12557131279E+03  0.12000000000E+03 0.  0.
         25    1    3    3    0    0  0.23070311407E+02 -0.28860402227E+02 -0.12546050301E+03  0.17749788703E+03  0.12000000000E+03 0.  0.
<mgrwt>
<rscale>  0 0.27508825E+03</rscale>
<asrwt>0</asrwt>
<pdfrwt beam="1">  1        2 0.33096891E-01 0.27508825E+03</pdfrwt>
<pdfrwt beam="2">  1       -2 0.13529139E-01 0.27508825E+03</pdfrwt>
<totfact> 0.63410807E+03</totfact>
</mgrwt>
</event>
<event>
 5    1  0.1140254E+001  0.2749450E+03  0.7818608E-02  0.1098482E+00
          2   -1    0    0  501    0  0.00000000000E+00  0.00000000000E+00  0.79362383993E+02  0.79362383993E+02  0.00000000000E+00 0.  1.
         -2   -1    0    0    0  501 -0.00000000000E+00 -0.00000000000E+00 -0.23813161697E+03  0.23813161697E+03  0.00000000000E+00 0.  1.
         35    2    1    2    0    0  0.00000000000E+00  0.00000000000E+00 -0.15876923298E+03  0.31749400096E+03  0.27494503325E+03 0.  0.
         25    1    3    3    0    0 -0.62548250062E+02 -0.18230558429E+02 -0.97790401984E+02  0.16795118209E+03  0.12000000000E+03 0.  0.
         25    1    3    3    0    0  0.62548250062E+02  0.18230558429E+02 -0.60978830994E+02  0.14954281887E+03  0.12000000000E+03 0.  0.
<mgrwt>
<rscale>  0 0.27494503E+03</rscale>
<asrwt>0</asrwt>
<pdfrwt beam="1">  1        2 0.12209598E-01 0.27494503E+03</pdfrwt>
<pdfrwt beam="2">  1       -2 0.36635633E-01 0.27494503E+03</pdfrwt>
<totfact> 0.35079372E+03</totfact>
</mgrwt>
</event>
<event>
 5    1  0.1140254E+001  0.2744376E+03  0.7818608E-02  0.1098766E+00
          2   -1    0    0  501    0  0.00000000000E+00  0.00000000000E+00  0.51996550541E+03  0.51996550541E+03  0.00000000000E+00 0.  1.
         -2   -1    0    0    0  501 -0.00000000000E+00 -0.00000000000E+00 -0.36212018079E+02  0.36212018079E+02  0.00000000000E+00 0.  1.
         35    2    1    2    0    0  0.00000000000E+00  0.00000000000E+00  0.48375348733E+03  0.55617752349E+03  0.27443760881E+03 0.  0.
         25    1    3    3    0    0 -0.51163707069E+02  0.17072204296E+02  0.32088367600E+03  0.34680761036E+03  0.12000000000E+03 0.  0.
         25    1    3    3    0    0  0.51163707069E+02 -0.17072204296E+02  0.16286981133E+03  0.20936991313E+03  0.12000000000E+03 0.  0.
<mgrwt>
<rscale>  0 0.27443761E+03</rscale>
<asrwt>0</asrwt>
<pdfrwt beam="1">  1        2 0.79994688E-01 0.27443761E+03</pdfrwt>
<pdfrwt beam="2">  1       -2 0.55710801E-02 0.27443761E+03</pdfrwt>
<totfact> 0.98227041E+03</totfact>
</mgrwt>
</event>
<event>
 5    1  0.1140254E+001  0.2755443E+03  0.7818608E-02  0.1098148E+00
          2   -1    0    0  501    0  0.00000000000E+00  0.00000000000E+00  0.95316093266E+02  0.95316093266E+02  0.00000000000E+00 0. -1.
         -2   -1    0    0    0  501 -0.00000000000E+00 -0.00000000000E+00 -0.19913920586E+03  0.19913920586E+03  0.00000000000E+00 0. -1.
         35    2    1    2    0    0  0.00000000000E+00  0.00000000000E+00 -0.10382311260E+03  0.29445529913E+03  0.27554434212E+03 0.  0.
         25    1    3    3    0    0  0.15635415103E+02  0.65675212278E+02 -0.57088785924E+02  0.14905310863E+03  0.12000000000E+03 0.  0.
         25    1    3    3    0    0 -0.15635415103E+02 -0.65675212278E+02 -0.46734326674E+02  0.14540219050E+03  0.12000000000E+03 0.  0.
<mgrwt>
<rscale>  0 0.27554434E+03</rscale>
<asrwt>0</asrwt>
<pdfrwt beam="1">  1        2 0.14664015E-01 0.27554434E+03</pdfrwt>
<pdfrwt beam="2">  1       -2 0.30636800E-01 0.27554434E+03</pdfrwt>
<totfact> 0.39190881E+03</totfact>
</mgrwt>
</event>
<event>
 5    1  0.1140254E+001  0.2756824E+03  0.7818608E-02  0.1098071E+00
         -2   -1    0    0    0  501 -0.00000000000E+00  0.00000000000E+00  0.96728505879E+01  0.96728505879E+01  0.00000000000E+00 0. -1.
          2   -1    0    0  501    0  0.00000000000E+00 -0.00000000000E+00 -0.19642809506E+04  0.19642809506E+04  0.00000000000E+00 0. -1.
         35    2    1    2    0    0  0.00000000000E+00  0.00000000000E+00 -0.19546081000E+04  0.19739538012E+04  0.27568239804E+03 0.  0.
         25    1    3    3    0    0  0.60587859354E+02 -0.17783461441E+02 -0.11545915030E+04  0.11625268509E+04  0.12000000000E+03 0.  0.
         25    1    3    3    0    0 -0.60587859354E+02  0.17783461441E+02 -0.80001659702E+03  0.81142695032E+03  0.12000000000E+03 0.  0.
<mgrwt>
<rscale>  0 0.27568240E+03</rscale>
<asrwt>0</asrwt>
<pdfrwt beam="1">  1        2 0.30219710E+00 0.27568240E+03</pdfrwt>
<pdfrwt beam="2">  1       -2 0.14881307E-02 0.27568240E+03</pdfrwt>
<totfact> 0.92602973E+03</totfact>
</mgrwt>
</event>
<event>
 5    1  0.1140254E+001  0.2754862E+03  0.7818608E-02  0.1098180E+00
          2   -1    0    0  501    0  0.00000000000E+00  0.00000000000E+00  0.11615874127E+04  0.11615874127E+04  0.00000000000E+00 0.  1.
         -2   -1    0    0    0  501 -0.00000000000E+00 -0.00000000000E+00 -0.16333826398E+02  0.16333826398E+02  0.00000000000E+00 0.  1.
         35    2    1    2    0    0  0.00000000000E+00  0.00000000000E+00  0.11452535863E+04  0.11779212390E+04  0.27548624027E+03 0.  0.
         25    1    3    3    0    0  0.27635621381E+02  0.17286282689E+01  0.30882576348E+03  0.33247566515E+03  0.12000000000E+03 0.  0.
         25    1    3    3    0    0 -0.27635621381E+02 -0.17286282689E+01  0.83642782277E+03  0.84544557390E+03  0.12000000000E+03 0.  0.
<mgrwt>
<rscale>  0 0.27548624E+03</rscale>
<asrwt>0</asrwt>
<pdfrwt beam="1">  1        2 0.17870569E+00 0.27548624E+03</pdfrwt>
<pdfrwt beam="2">  1       -2 0.25128973E-02 0.27548624E+03</pdfrwt>
<totfact> 0.11578320E+04</totfact>
</mgrwt>
</event>
<event>
 5    1  0.1140254E+001  0.2748684E+03  0.7818608E-02  0.1098525E+00
          2   -1    0    0  501    0  0.00000000000E+00  0.00000000000E+00  0.21330086549E+04  0.21330086549E+04  0.00000000000E+00 0.  1.
         -2   -1    0    0    0  501 -0.00000000000E+00 -0.00000000000E+00 -0.88551692896E+01  0.88551692896E+01  0.00000000000E+00 0.  1.
         35    2    1    2    0    0  0.00000000000E+00  0.00000000000E+00  0.21241534856E+04  0.21418638242E+04  0.27486835202E+03 0.  0.
         25    1    3    3    0    0 -0.68498419587E+01 -0.51224499813E+02  0.13942605065E+04  0.14003689620E+04  0.12000000000E+03 0.  0.
         25    1    3    3    0    0  0.68498419587E+01  0.51224499813E+02  0.72989297913E+03  0.74149486222E+03  0.12000000000E+03 0.  0.
<mgrwt>
<rscale>  0 0.27486835E+03</rscale>
<asrwt>0</asrwt>
<pdfrwt beam="1">  1        2 0.32815477E+00 0.27486835E+03</pdfrwt>
<pdfrwt beam="2">  1       -2 0.13623354E-02 0.27486835E+03</pdfrwt>
<totfact> 0.85843014E+03</totfact>
</mgrwt>
</event>
<event>
 5    1  0.1140254E+001  0.2766819E+03  0.7818608E-02  0.1097515E+00
         -4   -1    0    0    0  501 -0.00000000000E+00  0.00000000000E+00  0.23855798053E+04  0.23855798053E+04  0.00000000000E+00 0.  1.
          4   -1    0    0  501    0  0.00000000000E+00 -0.00000000000E+00 -0.80224586909E+01  0.80224586909E+01  0.00000000000E+00 0.  1.
         35    2    1    2    0    0  0.00000000000E+00  0.00000000000E+00  0.23775573466E+04  0.23936022640E+04  0.27668187828E+03 0.  0.
         25    1    3    3    0    0  0.38108335526E+02 -0.53003210634E+02  0.99990914376E+03  0.10091976424E+04  0.12000000000E+03 0.  0.
         25    1    3    3    0    0 -0.38108335526E+02  0.53003210634E+02  0.13776482029E+04  0.13844046216E+04  0.12000000000E+03 0.  0.
<mgrwt>
<rscale>  0 0.27668188E+03</rscale>
<asrwt>0</asrwt>
<pdfrwt beam="1">  1        4 0.12342263E-02 0.27668188E+03</pdfrwt>
<pdfrwt beam="2">  1       -4 0.36701171E+00 0.27668188E+03</pdfrwt>
<totfact> 0.56296729E+01</totfact>
</mgrwt>
</event>
<event>
 5    1  0.1140254E+001  0.2755381E+03  0.7818608E-02  0.1098151E+00
          2   -1    0    0  501    0  0.00000000000E+00  0.00000000000E+00  0.75117783278E+02  0.75117783278E+02  0.00000000000E+00 0. -1.
         -2   -1    0    0    0  501 -0.00000000000E+00 -0.00000000000E+00 -0.25267392987E+03  0.25267392987E+03  0.00000000000E+00 0. -1.
         35    2    1    2    0    0  0.00000000000E+00  0.00000000000E+00 -0.17755614659E+03  0.32779171315E+03  0.27553805911E+03 0.  0.
         25    1    3    3    0    0 -0.52535367172E+01 -0.48981257413E+02 -0.14398493709E+03  0.19379996216E+03  0.12000000000E+03 0.  0.
         25    1    3    3    0    0  0.52535367172E+01  0.48981257413E+02 -0.33571209509E+02  0.13399175099E+03  0.12000000000E+03 0.  0.
<mgrwt>
<rscale>  0 0.27553806E+03</rscale>
<asrwt>0</asrwt>
<pdfrwt beam="1">  1        2 0.11556582E-01 0.27553806E+03</pdfrwt>
<pdfrwt beam="2">  1       -2 0.38872913E-01 0.27553806E+03</pdfrwt>
<totfact> 0.33537633E+03</totfact>
</mgrwt>
</event>
<event>
 5    1  0.1140254E+001  0.2736286E+03  0.7818608E-02  0.1099221E+00
          2   -1    0    0  501    0  0.00000000000E+00  0.00000000000E+00  0.87912213900E+03  0.87912213900E+03  0.00000000000E+00 0. -1.
         -2   -1    0    0    0  501 -0.00000000000E+00 -0.00000000000E+00 -0.21291864554E+02  0.21291864554E+02  0.00000000000E+00 0. -1.
         35    2    1    2    0    0  0.00000000000E+00  0.00000000000E+00  0.85783027445E+03  0.90041400356E+03  0.27362857679E+03 0.  0.
         25    1    3    3    0    0 -0.44450360922E+02  0.47124363100E+02  0.46520323724E+03  0.48477891056E+03  0.12000000000E+03 0.  0.
         25    1    3    3    0    0  0.44450360922E+02 -0.47124363100E+02  0.39262703721E+03  0.41563509299E+03  0.12000000000E+03 0.  0.
<mgrwt>
<rscale>  0 0.27362858E+03</rscale>
<asrwt>0</asrwt>
<pdfrwt beam="1">  1        2 0.13524953E+00 0.27362858E+03</pdfrwt>
<pdfrwt beam="2">  1       -2 0.32756722E-02 0.27362858E+03</pdfrwt>
<totfact> 0.11603605E+04</totfact>
</mgrwt>
</event>
<event>
 5    1  0.1140254E+001  0.2754672E+03  0.7818608E-02  0.1098191E+00
          4   -1    0    0  501    0  0.00000000000E+00  0.00000000000E+00  0.56628999498E+02  0.56628999498E+02  0.00000000000E+00 0. -1.
         -4   -1    0    0    0  501 -0.00000000000E+00 -0.00000000000E+00 -0.33499705731E+03  0.33499705731E+03  0.00000000000E+00 0. -1.
         35    2    1    2    0    0  0.00000000000E+00  0.00000000000E+00 -0.27836805782E+03  0.39162605681E+03  0.27546722629E+03 0.  0.
         25    1    3    3    0    0  0.64228726305E+02 -0.60692848663E+01 -0.16791400773E+03  0.21623431618E+03  0.12000000000E+03 0.  0.
         25    1    3    3    0    0 -0.64228726305E+02  0.60692848663E+01 -0.11045405008E+03  0.17539174063E+03  0.12000000000E+03 0.  0.
<mgrwt>
<rscale>  0 0.27546723E+03</rscale>
<asrwt>0</asrwt>
<pdfrwt beam="1">  1        4 0.87121538E-02 0.27546723E+03</pdfrwt>
<pdfrwt beam="2">  1       -4 0.51538009E-01 0.27546723E+03</pdfrwt>
<totfact> 0.65418658E+02</totfact>
</mgrwt>
</event>
<event>
 5    1  0.1140254E+001  0.2761955E+03  0.7818608E-02  0.1097785E+00
         -2   -1    0    0    0  501 -0.00000000000E+00  0.00000000000E+00  0.82043157523E+01  0.82043157523E+01  0.00000000000E+00 0. -1.
          2   -1    0    0  501    0  0.00000000000E+00 -0.00000000000E+00 -0.23245061597E+04  0.23245061597E+04  0.00000000000E+00 0. -1.
         35    2    1    2    0    0  0.00000000000E+00  0.00000000000E+00 -0.23163018440E+04  0.23327104755E+04  0.27619545617E+03 0.  0.
         25    1    3    3    0    0 -0.57092389138E+02 -0.34003942206E+02 -0.12930665042E+04  0.13003218038E+04  0.12000000000E+03 0.  0.
         25    1    3    3    0    0  0.57092389138E+02  0.34003942206E+02 -0.10232353397E+04  0.10323886717E+04  0.12000000000E+03 0.  0.
<mgrwt>
<rscale>  0 0.27619546E+03</rscale>
<asrwt>0</asrwt>
<pdfrwt beam="1">  1        2 0.35761662E+00 0.27619546E+03</pdfrwt>
<pdfrwt beam="2">  1       -2 0.12622014E-02 0.27619546E+03</pdfrwt>
<totfact> 0.75850849E+03</totfact>
</mgrwt>
</event>
<event>
 5    1  0.1140254E+001  0.2742456E+03  0.7818608E-02  0.1098874E+00
         -2   -1    0    0    0  501 -0.00000000000E+00  0.00000000000E+00  0.28774862222E+02  0.28774862222E+02  0.00000000000E+00 0. -1.
          2   -1    0    0  501    0  0.00000000000E+00 -0.00000000000E+00 -0.65344075972E+03  0.65344075972E+03  0.00000000000E+00 0. -1.
         35    2    1    2    0    0  0.00000000000E+00  0.00000000000E+00 -0.62466589750E+03  0.68221562194E+03  0.27424564049E+03 0.  0.
         25    1    3    3    0    0 -0.21073915578E+02  0.24060096464E+02 -0.45694985105E+03  0.47352525226E+03  0.12000000000E+03 0.  0.
         25    1    3    3    0    0  0.21073915578E+02 -0.24060096464E+02 -0.16771604645E+03  0.20869036968E+03  0.12000000000E+03 0.  0.
<mgrwt>
<rscale>  0 0.27424564E+03</rscale>
<asrwt>0</asrwt>
<pdfrwt beam="1">  1        2 0.10052934E+00 0.27424564E+03</pdfrwt>
<pdfrwt beam="2">  1       -2 0.44269023E-02 0.27424564E+03</pdfrwt>
<totfact> 0.10698250E+04</totfact>
</mgrwt>
</event>
<event>
 5    1  0.1140254E+001  0.2788488E+03  0.7818608E-02  0.1096319E+00
          2   -1    0    0  501    0  0.00000000000E+00  0.00000000000E+00  0.27813039695E+04  0.27813039695E+04  0.00000000000E+00 0. -1.
         -2   -1    0    0    0  501 -0.00000000000E+00 -0.00000000000E+00 -0.69892283361E+01  0.69892283361E+01  0.00000000000E+00 0. -1.
         35    2    1    2    0    0  0.00000000000E+00  0.00000000000E+00  0.27743147412E+04  0.27882931979E+04  0.27884883730E+03 0.  0.
         25    1    3    3    0    0 -0.52496621978E+02  0.24563961185E+02  0.97732205557E+03  0.98636589753E+03  0.12000000000E+03 0.  0.
         25    1    3    3    0    0  0.52496621978E+02 -0.24563961185E+02  0.17969926856E+04  0.18019273004E+04  0.12000000000E+03 0.  0.
<mgrwt>
<rscale>  0 0.27884884E+03</rscale>
<asrwt>0</asrwt>
<pdfrwt beam="1">  1        2 0.42789204E+00 0.27884884E+03</pdfrwt>
<pdfrwt beam="2">  1       -2 0.10752681E-02 0.27884884E+03</pdfrwt>
<totfact> 0.53562230E+03</totfact>
</mgrwt>
</event>
<event>
 5    1  0.1140254E+001  0.2745765E+03  0.7818608E-02  0.1098689E+00
         -2   -1    0    0    0  501 -0.00000000000E+00  0.00000000000E+00  0.14274778734E+02  0.14274778734E+02  0.00000000000E+00 0. -1.
          2   -1    0    0  501    0  0.00000000000E+00 -0.00000000000E+00 -0.13203751154E+04  0.13203751154E+04  0.00000000000E+00 0. -1.
         35    2    1    2    0    0  0.00000000000E+00  0.00000000000E+00 -0.13061003367E+04  0.13346498941E+04  0.27457649294E+03 0.  0.
         25    1    3    3    0    0  0.27338658837E+01  0.64050879773E+02 -0.56367651708E+03  0.57986309171E+03  0.12000000000E+03 0.  0.
         25    1    3    3    0    0 -0.27338658837E+01 -0.64050879773E+02 -0.74242381958E+03  0.75478680242E+03  0.12000000000E+03 0.  0.
<mgrwt>
<rscale>  0 0.27457649E+03</rscale>
<asrwt>0</asrwt>
<pdfrwt beam="1">  1        2 0.20313454E+00 0.27457649E+03</pdfrwt>
<pdfrwt beam="2">  1       -2 0.21961208E-02 0.27457649E+03</pdfrwt>
<totfact> 0.11502131E+04</totfact>
</mgrwt>
</event>
<event>
 5    1  0.1140254E+001  0.2728888E+03  0.7818608E-02  0.1099638E+00
          1   -1    0    0  501    0  0.00000000000E+00  0.00000000000E+00  0.41321603595E+03  0.41321603595E+03  0.00000000000E+00 0.  1.
         -1   -1    0    0    0  501 -0.00000000000E+00 -0.00000000000E+00 -0.45054102087E+02  0.45054102087E+02  0.00000000000E+00 0.  1.
         35    2    1    2    0    0  0.00000000000E+00  0.00000000000E+00  0.36816193387E+03  0.45827013804E+03  0.27288882328E+03 0.  0.
         25    1    3    3    0    0 -0.42052184876E+02 -0.42289822656E+02  0.22723227836E+03  0.26380167491E+03  0.12000000000E+03 0.  0.
         25    1    3    3    0    0  0.42052184876E+02  0.42289822656E+02  0.14092965550E+03  0.19446846313E+03  0.12000000000E+03 0.  0.
<mgrwt>
<rscale>  0 0.27288882E+03</rscale>
<asrwt>0</asrwt>
<pdfrwt beam="1">  1        1 0.63571695E-01 0.27288882E+03</pdfrwt>
<pdfrwt beam="2">  1       -1 0.69314006E-02 0.27288882E+03</pdfrwt>
<totfact> 0.61925374E+03</totfact>
</mgrwt>
</event>
<event>
 5    1  0.1140254E+001  0.2749110E+03  0.7818608E-02  0.1098501E+00
         -2   -1    0    0    0  501 -0.00000000000E+00  0.00000000000E+00  0.61645014897E+02  0.61645014897E+02  0.00000000000E+00 0. -1.
          2   -1    0    0  501    0  0.00000000000E+00 -0.00000000000E+00 -0.30649707672E+03  0.30649707672E+03  0.00000000000E+00 0. -1.
         35    2    1    2    0    0  0.00000000000E+00  0.00000000000E+00 -0.24485206183E+03  0.36814209162E+03  0.27491101732E+03 0.  0.
         25    1    3    3    0    0  0.63890271067E+02 -0.20291314622E+02 -0.12317483705E+03  0.18456907831E+03  0.12000000000E+03 0.  0.
         25    1    3    3    0    0 -0.63890271067E+02  0.20291314622E+02 -0.12167722478E+03  0.18357301331E+03  0.12000000000E+03 0.  0.
<mgrwt>
<rscale>  0 0.27491102E+03</rscale>
<asrwt>0</asrwt>
<pdfrwt beam="1">  1        2 0.47153396E-01 0.27491102E+03</pdfrwt>
<pdfrwt beam="2">  1       -2 0.94838485E-02 0.27491102E+03</pdfrwt>
<totfact> 0.76568414E+03</totfact>
</mgrwt>
</event>
<event>
 5    1  0.1140254E+001  0.2781411E+03  0.7818608E-02  0.1096709E+00
          1   -1    0    0  501    0  0.00000000000E+00  0.00000000000E+00  0.26394774157E+02  0.26394774157E+02  0.00000000000E+00 0.  1.
         -1   -1    0    0    0  501 -0.00000000000E+00 -0.00000000000E+00 -0.73274420184E+03  0.73274420184E+03  0.00000000000E+00 0.  1.
         35    2    1    2    0    0  0.00000000000E+00  0.00000000000E+00 -0.70634942769E+03  0.75913897600E+03  0.27814109889E+03 0.  0.
         25    1    3    3    0    0 -0.38114786848E+02  0.57757502770E+02 -0.38681880419E+03  0.41087401156E+03  0.12000000000E+03 0.  0.
         25    1    3    3    0    0  0.38114786848E+02 -0.57757502770E+02 -0.31953062350E+03  0.34826496444E+03  0.12000000000E+03 0.  0.
<mgrwt>
<rscale>  0 0.27814110E+03</rscale>
<asrwt>0</asrwt>
<pdfrwt beam="1">  1        1 0.40607350E-02 0.27814110E+03</pdfrwt>
<pdfrwt beam="2">  1       -1 0.11272986E+00 0.27814110E+03</pdfrwt>
<totfact> 0.17056145E+03</totfact>
</mgrwt>
</event>
<event>
 5    1  0.1140254E+001  0.2741333E+03  0.7818608E-02  0.1098937E+00
          2   -1    0    0  501    0  0.00000000000E+00  0.00000000000E+00  0.12553848864E+04  0.12553848864E+04  0.00000000000E+00 0. -1.
         -2   -1    0    0    0  501 -0.00000000000E+00 -0.00000000000E+00 -0.14965344755E+02  0.14965344755E+02  0.00000000000E+00 0. -1.
         35    2    1    2    0    0  0.00000000000E+00  0.00000000000E+00  0.12404195417E+04  0.12703502312E+04  0.27413330791E+03 0.  0.
         25    1    3    3    0    0 -0.55796088812E+02  0.25667316238E+02  0.73515435830E+03  0.74741149655E+03  0.12000000000E+03 0.  0.
         25    1    3    3    0    0  0.55796088812E+02 -0.25667316238E+02  0.50526518338E+03  0.52293873464E+03  0.12000000000E+03 0.  0.
<mgrwt>
<rscale>  0 0.27413331E+03</rscale>
<asrwt>0</asrwt>
<pdfrwt beam="1">  1        2 0.19313605E+00 0.27413331E+03</pdfrwt>
<pdfrwt beam="2">  1       -2 0.23023617E-02 0.27413331E+03</pdfrwt>
<totfact> 0.11656769E+04</totfact>
</mgrwt>
</event>
<event>
 5    1  0.1140254E+001  0.2748538E+03  0.7818608E-02  0.1098533E+00
         -2   -1    0    0    0  501 -0.00000000000E+00  0.00000000000E+00  0.18909386027E+02  0.18909386027E+02  0.00000000000E+00 0. -1.
          2   -1    0    0  501    0  0.00000000000E+00 -0.00000000000E+00 -0.99877109098E+03  0.99877109098E+03  0.00000000000E+00 0. -1.
         35    2    1    2    0    0  0.00000000000E+00  0.00000000000E+00 -0.97986170495E+03  0.10176804770E+04  0.27485376557E+03 0.  0.
         25    1    3    3    0    0  0.26061083468E+02  0.14532674721E+02 -0.71195778986E+03  0.72261626971E+03  0.12000000000E+03 0.  0.
         25    1    3    3    0    0 -0.26061083468E+02 -0.14532674721E+02 -0.26790391509E+03  0.29506420729E+03  0.12000000000E+03 0.  0.
<mgrwt>
<rscale>  0 0.27485377E+03</rscale>
<asrwt>0</asrwt>
<pdfrwt beam="1">  1        2 0.15365709E+00 0.27485377E+03</pdfrwt>
<pdfrwt beam="2">  1       -2 0.29091363E-02 0.27485377E+03</pdfrwt>
<totfact> 0.11635070E+04</totfact>
</mgrwt>
</event>
<event>
 5    1  0.1140254E+001  0.2751544E+03  0.7818608E-02  0.1098365E+00
         -1   -1    0    0    0  501 -0.00000000000E+00  0.00000000000E+00  0.59260193757E+02  0.59260193757E+02  0.00000000000E+00 0.  1.
          1   -1    0    0  501    0  0.00000000000E+00 -0.00000000000E+00 -0.31939618990E+03  0.31939618990E+03  0.00000000000E+00 0.  1.
         35    2    1    2    0    0  0.00000000000E+00  0.00000000000E+00 -0.26013599614E+03  0.37865638366E+03  0.27515435740E+03 0.  0.
         25    1    3    3    0    0 -0.43628773805E+02  0.28658526665E+02 -0.71638722425E+02  0.14918742442E+03  0.12000000000E+03 0.  0.
         25    1    3    3    0    0  0.43628773805E+02 -0.28658526665E+02 -0.18849727372E+03  0.22946895924E+03  0.12000000000E+03 0.  0.
<mgrwt>
<rscale>  0 0.27515436E+03</rscale>
<asrwt>0</asrwt>
<pdfrwt beam="1">  1        1 0.49137875E-01 0.27515436E+03</pdfrwt>
<pdfrwt beam="2">  1       -1 0.91169529E-02 0.27515436E+03</pdfrwt>
<totfact> 0.56562224E+03</totfact>
</mgrwt>
</event>
<event>
 5    1  0.1140254E+001  0.2764360E+03  0.7818608E-02  0.1097652E+00
         -3   -1    0    0    0  501 -0.00000000000E+00  0.00000000000E+00  0.11391566450E+03  0.11391566450E+03  0.00000000000E+00 0.  1.
          3   -1    0    0  501    0  0.00000000000E+00 -0.00000000000E+00 -0.16770486809E+03  0.16770486809E+03  0.00000000000E+00 0.  1.
         35    2    1    2    0    0  0.00000000000E+00  0.00000000000E+00 -0.53789203588E+02  0.28162053259E+03  0.27643597081E+03 0.  0.
         25    1    3    3    0    0  0.65803670767E+02  0.19333124304E+02 -0.27469731462E+02  0.14092011541E+03  0.12000000000E+03 0.  0.
         25    1    3    3    0    0 -0.65803670767E+02 -0.19333124304E+02 -0.26319472127E+02  0.14070041718E+03  0.12000000000E+03 0.  0.
<mgrwt>
<rscale>  0 0.27643597E+03</rscale>
<asrwt>0</asrwt>
<pdfrwt beam="1">  1        3 0.25800749E-01 0.27643597E+03</pdfrwt>
<pdfrwt beam="2">  1       -3 0.17525487E-01 0.27643597E+03</pdfrwt>
<totfact> 0.10224061E+03</totfact>
</mgrwt>
</event>
<event>
 5    1  0.1140254E+001  0.2741505E+03  0.7818608E-02  0.1098927E+00
          2   -1    0    0  501    0  0.00000000000E+00  0.00000000000E+00  0.87450934069E+03  0.87450934069E+03  0.00000000000E+00 0.  1.
         -2   -1    0    0    0  501 -0.00000000000E+00 -0.00000000000E+00 -0.21485908131E+02  0.21485908131E+02  0.00000000000E+00 0.  1.
         35    2    1    2    0    0  0.00000000000E+00  0.00000000000E+00  0.85302343256E+03  0.89599524882E+03  0.27415052328E+03 0.  0.
         25    1    3    3    0    0 -0.15784299373E+02 -0.64343569709E+02  0.42447518192E+03  0.44605876198E+03  0.12000000000E+03 0.  0.
         25    1    3    3    0    0  0.15784299373E+02  0.64343569709E+02  0.42854825064E+03  0.44993648684E+03  0.12000000000E+03 0.  0.
<mgrwt>
<rscale>  0 0.27415052E+03</rscale>
<asrwt>0</asrwt>
<pdfrwt beam="1">  1        2 0.13453987E+00 0.27415052E+03</pdfrwt>
<pdfrwt beam="2">  1       -2 0.33055250E-02 0.27415052E+03</pdfrwt>
<totfact> 0.11528191E+04</totfact>
</mgrwt>
</event>
<event>
 5    1  0.1140254E+001  0.2743059E+03  0.7818608E-02  0.1098840E+00
         -4   -1    0    0    0  501 -0.00000000000E+00  0.00000000000E+00  0.18201916592E+03  0.18201916592E+03  0.00000000000E+00 0.  1.
          4   -1    0    0  501    0  0.00000000000E+00 -0.00000000000E+00 -0.10334590816E+03  0.10334590816E+03  0.00000000000E+00 0.  1.
         35    2    1    2    0    0  0.00000000000E+00  0.00000000000E+00  0.78673257768E+02  0.28536507408E+03  0.27430593143E+03 0.  0.
         25    1    3    3    0    0 -0.36356679235E+02  0.52728811691E+02  0.57617819398E+02  0.14772253998E+03  0.12000000000E+03 0.  0.
         25    1    3    3    0    0  0.36356679235E+02 -0.52728811691E+02  0.21055438370E+02  0.13764253410E+03  0.12000000000E+03 0.  0.
<mgrwt>
<rscale>  0 0.27430593E+03</rscale>
<asrwt>0</asrwt>
<pdfrwt beam="1">  1        4 0.15899371E-01 0.27430593E+03</pdfrwt>
<pdfrwt beam="2">  1       -4 0.28002949E-01 0.27430593E+03</pdfrwt>
<totfact> 0.77255844E+02</totfact>
</mgrwt>
</event>
<event>
 5    1  0.1140254E+001  0.2714222E+03  0.7818608E-02  0.1100468E+00
         -1   -1    0    0    0  501 -0.00000000000E+00  0.00000000000E+00  0.56941479436E+02  0.56941479436E+02  0.00000000000E+00 0.  1.
          1   -1    0    0  501    0  0.00000000000E+00 -0.00000000000E+00 -0.32344622327E+03  0.32344622327E+03  0.00000000000E+00 0.  1.
         35    2    1    2    0    0  0.00000000000E+00  0.00000000000E+00 -0.26650474383E+03  0.38038770271E+03  0.27142222806E+03 0.  0.
         25    1    3    3    0    0  0.82251241685E+01  0.53391265122E+02 -0.17971723634E+03  0.22274776070E+03  0.12000000000E+03 0.  0.
         25    1    3    3    0    0 -0.82251241685E+01 -0.53391265122E+02 -0.86787507492E+02  0.15763994201E+03  0.12000000000E+03 0.  0.
<mgrwt>
<rscale>  0 0.27142223E+03</rscale>
<asrwt>0</asrwt>
<pdfrwt beam="1">  1        1 0.49760956E-01 0.27142223E+03</pdfrwt>
<pdfrwt beam="2">  1       -1 0.87602278E-02 0.27142223E+03</pdfrwt>
<totfact> 0.59163149E+03</totfact>
</mgrwt>
</event>
<event>
 5    1  0.1140254E+001  0.2636112E+03  0.7818608E-02  0.1104993E+00
          2   -1    0    0  501    0  0.00000000000E+00  0.00000000000E+00  0.45424097157E+03  0.45424097157E+03  0.00000000000E+00 0.  1.
         -2   -1    0    0    0  501 -0.00000000000E+00 -0.00000000000E+00 -0.38245602086E+02  0.38245602086E+02  0.00000000000E+00 0.  1.
         35    2    1    2    0    0  0.00000000000E+00  0.00000000000E+00  0.41599536948E+03  0.49248657366E+03  0.26361122472E+03 0.  0.
         25    1    3    3    0    0  0.24945717719E+02  0.57250023599E+01  0.29793809977E+03  0.32221448723E+03  0.12000000000E+03 0.  0.
         25    1    3    3    0    0 -0.24945717719E+02 -0.57250023599E+01  0.11805726971E+03  0.17027208643E+03  0.12000000000E+03 0.  0.
<mgrwt>
<rscale>  0 0.26361122E+03</rscale>
<asrwt>0</asrwt>
<pdfrwt beam="1">  1        2 0.69883223E-01 0.26361122E+03</pdfrwt>
<pdfrwt beam="2">  1       -2 0.58839391E-02 0.26361122E+03</pdfrwt>
<totfact> 0.10484850E+04</totfact>
</mgrwt>
</event>
<event>
 5    1  0.1140254E+001  0.2749676E+03  0.7818608E-02  0.1098470E+00
         -2   -1    0    0    0  501 -0.00000000000E+00  0.00000000000E+00  0.20498729509E+02  0.20498729509E+02  0.00000000000E+00 0.  1.
          2   -1    0    0  501    0  0.00000000000E+00 -0.00000000000E+00 -0.92209575930E+03  0.92209575930E+03  0.00000000000E+00 0.  1.
         35    2    1    2    0    0  0.00000000000E+00  0.00000000000E+00 -0.90159702979E+03  0.94259448881E+03  0.27496757301E+03 0.  0.
         25    1    3    3    0    0  0.58710618875E+02 -0.51895658969E+01 -0.34089192139E+03  0.36617095793E+03  0.12000000000E+03 0.  0.
         25    1    3    3    0    0 -0.58710618875E+02  0.51895658969E+01 -0.56070510841E+03  0.57642353088E+03  0.12000000000E+03 0.  0.
<mgrwt>
<rscale>  0 0.27496757E+03</rscale>
<asrwt>0</asrwt>
<pdfrwt beam="1">  1        2 0.14186091E+00 0.27496757E+03</pdfrwt>
<pdfrwt beam="2">  1       -2 0.31536502E-02 0.27496757E+03</pdfrwt>
<totfact> 0.11521406E+04</totfact>
</mgrwt>
</event>
<event>
 5    1  0.1140254E+001  0.2752971E+03  0.7818608E-02  0.1098286E+00
          2   -1    0    0  501    0  0.00000000000E+00  0.00000000000E+00  0.39624210437E+03  0.39624210437E+03  0.00000000000E+00 0. -1.
         -2   -1    0    0    0  501 -0.00000000000E+00 -0.00000000000E+00 -0.47817033213E+02  0.47817033213E+02  0.00000000000E+00 0. -1.
         35    2    1    2    0    0  0.00000000000E+00  0.00000000000E+00  0.34842507115E+03  0.44405913758E+03  0.27529708945E+03 0.  0.
         25    1    3    3    0    0 -0.22566285443E+02 -0.67385846443E+01  0.27613275593E+03  0.30199990837E+03  0.12000000000E+03 0.  0.
         25    1    3    3    0    0  0.22566285443E+02  0.67385846443E+01  0.72292315226E+02  0.14205922921E+03  0.12000000000E+03 0.  0.
<mgrwt>
<rscale>  0 0.27529709E+03</rscale>
<asrwt>0</asrwt>
<pdfrwt beam="1">  1        2 0.60960322E-01 0.27529709E+03</pdfrwt>
<pdfrwt beam="2">  1       -2 0.73564669E-02 0.27529709E+03</pdfrwt>
<totfact> 0.86412299E+03</totfact>
</mgrwt>
</event>
<event>
 5    1  0.1140254E+001  0.2748547E+03  0.7818608E-02  0.1098533E+00
         -2   -1    0    0    0  501 -0.00000000000E+00  0.00000000000E+00  0.10552548539E+02  0.10552548539E+02  0.00000000000E+00 0.  1.
          2   -1    0    0  501    0  0.00000000000E+00 -0.00000000000E+00 -0.17897366541E+04  0.17897366541E+04  0.00000000000E+00 0.  1.
         35    2    1    2    0    0  0.00000000000E+00  0.00000000000E+00 -0.17791841056E+04  0.18002892027E+04  0.27485474648E+03 0.  0.
         25    1    3    3    0    0 -0.23971152966E+02 -0.42655795585E+02 -0.11891876514E+04  0.11962279896E+04  0.12000000000E+03 0.  0.
         25    1    3    3    0    0  0.23971152966E+02  0.42655795585E+02 -0.58999645425E+03  0.60406121304E+03  0.12000000000E+03 0.  0.
<mgrwt>
<rscale>  0 0.27485475E+03</rscale>
<asrwt>0</asrwt>
<pdfrwt beam="1">  1        2 0.27534383E+00 0.27485475E+03</pdfrwt>
<pdfrwt beam="2">  1       -2 0.16234706E-02 0.27485475E+03</pdfrwt>
<totfact> 0.10067359E+04</totfact>
</mgrwt>
</event>
<event>
 5    1  0.1140254E+001  0.2750554E+03  0.7818608E-02  0.1098421E+00
          1   -1    0    0  501    0  0.00000000000E+00  0.00000000000E+00  0.28377834755E+03  0.28377834755E+03  0.00000000000E+00 0. -1.
         -1   -1    0    0    0  501 -0.00000000000E+00 -0.00000000000E+00 -0.66650134250E+02  0.66650134250E+02  0.00000000000E+00 0. -1.
         35    2    1    2    0    0  0.00000000000E+00  0.00000000000E+00  0.21712821330E+03  0.35042848180E+03  0.27505537596E+03 0.  0.
         25    1    3    3    0    0 -0.66304219475E+02  0.38183561122E+00  0.12237246607E+03  0.18377000781E+03  0.12000000000E+03 0.  0.
         25    1    3    3    0    0  0.66304219475E+02 -0.38183561122E+00  0.94755747226E+02  0.16665847398E+03  0.12000000000E+03 0.  0.
<mgrwt>
<rscale>  0 0.27505538E+03</rscale>
<asrwt>0</asrwt>
<pdfrwt beam="1">  1        1 0.43658207E-01 0.27505538E+03</pdfrwt>
<pdfrwt beam="2">  1       -1 0.10253867E-01 0.27505538E+03</pdfrwt>
<totfact> 0.54750469E+03</totfact>
</mgrwt>
</event>
<event>
 5    1  0.1140254E+001  0.2747898E+03  0.7818608E-02  0.1098569E+00
         -2   -1    0    0    0  501 -0.00000000000E+00  0.00000000000E+00  0.91223278623E+01  0.91223278623E+01  0.00000000000E+00 0.  1.
          2   -1    0    0  501    0  0.00000000000E+00 -0.00000000000E+00 -0.20693576294E+04  0.20693576294E+04  0.00000000000E+00 0.  1.
         35    2    1    2    0    0  0.00000000000E+00  0.00000000000E+00 -0.20602353015E+04  0.20784799573E+04  0.27478980155E+03 0.  0.
         25    1    3    3    0    0 -0.64402695444E+02 -0.61802087420E+01 -0.90098615637E+03  0.91124198549E+03  0.12000000000E+03 0.  0.
         25    1    3    3    0    0  0.64402695444E+02  0.61802087420E+01 -0.11592491452E+04  0.11672379718E+04  0.12000000000E+03 0.  0.
<mgrwt>
<rscale>  0 0.27478980E+03</rscale>
<asrwt>0</asrwt>
<pdfrwt beam="1">  1        2 0.31836271E+00 0.27478980E+03</pdfrwt>
<pdfrwt beam="2">  1       -2 0.14034350E-02 0.27478980E+03</pdfrwt>
<totfact> 0.88815985E+03</totfact>
</mgrwt>
</event>
<event>
 5    1  0.1140254E+001  0.2750866E+03  0.7818608E-02  0.1098403E+00
          2   -1    0    0  501    0  0.00000000000E+00  0.00000000000E+00  0.12982655777E+04  0.12982655777E+04  0.00000000000E+00 0.  1.
         -2   -1    0    0    0  501 -0.00000000000E+00 -0.00000000000E+00 -0.14571876600E+02  0.14571876600E+02  0.00000000000E+00 0.  1.
         35    2    1    2    0    0  0.00000000000E+00  0.00000000000E+00  0.12836937011E+04  0.13128374543E+04  0.27508664666E+03 0.  0.
         25    1    3    3    0    0  0.11557087103E+02  0.33885806218E+02  0.91334651832E+03  0.92189135838E+03  0.12000000000E+03 0.  0.
         25    1    3    3    0    0 -0.11557087103E+02 -0.33885806218E+02  0.37034718282E+03  0.39094609596E+03  0.12000000000E+03 0.  0.
<mgrwt>
<rscale>  0 0.27508665E+03</rscale>
<asrwt>0</asrwt>
<pdfrwt beam="1">  1        2 0.19973308E+00 0.27508665E+03</pdfrwt>
<pdfrwt beam="2">  1       -2 0.22418282E-02 0.27508665E+03</pdfrwt>
<totfact> 0.11476809E+04</totfact>
</mgrwt>
</event>
<event>
 5    1  0.1140254E+001  0.2745496E+03  0.7818608E-02  0.1098704E+00
         -1   -1    0    0    0  501 -0.00000000000E+00  0.00000000000E+00  0.37486176703E+02  0.37486176703E+02  0.00000000000E+00 0. -1.
          1   -1    0    0  501    0  0.00000000000E+00 -0.00000000000E+00 -0.50270172872E+03  0.50270172872E+03  0.00000000000E+00 0. -1.
         35    2    1    2    0    0  0.00000000000E+00  0.00000000000E+00 -0.46521555202E+03  0.54018790542E+03  0.27454956443E+03 0.  0.
         25    1    3    3    0    0 -0.78364408698E+01  0.66160701702E+02 -0.22790309602E+03  0.26604223242E+03  0.12000000000E+03 0.  0.
         25    1    3    3    0    0  0.78364408698E+01 -0.66160701702E+02 -0.23731245600E+03  0.27414567301E+03  0.12000000000E+03 0.  0.
<mgrwt>
<rscale>  0 0.27454956E+03</rscale>
<asrwt>0</asrwt>
<pdfrwt beam="1">  1        1 0.77338726E-01 0.27454956E+03</pdfrwt>
<pdfrwt beam="2">  1       -1 0.57671042E-02 0.27454956E+03</pdfrwt>
<totfact> 0.63298175E+03</totfact>
</mgrwt>
</event>
<event>
 5    1  0.1140254E+001  0.2761751E+03  0.7818608E-02  0.1097797E+00
         -2   -1    0    0    0  501 -0.00000000000E+00  0.00000000000E+00  0.66557806312E+02  0.66557806312E+02  0.00000000000E+00 0. -1.
          2   -1    0    0  501    0  0.00000000000E+00 -0.00000000000E+00 -0.28649045027E+03  0.28649045027E+03  0.00000000000E+00 0. -1.
         35    2    1    2    0    0  0.00000000000E+00  0.00000000000E+00 -0.21993264396E+03  0.35304825658E+03  0.27617513211E+03 0.  0.
         25    1    3    3    0    0 -0.33356415423E+02 -0.59308554156E+02 -0.10208388637E+03  0.17161373751E+03  0.12000000000E+03 0.  0.
         25    1    3    3    0    0  0.33356415423E+02  0.59308554156E+02 -0.11784875759E+03  0.18143451907E+03  0.12000000000E+03 0.  0.
<mgrwt>
<rscale>  0 0.27617513E+03</rscale>
<asrwt>0</asrwt>
<pdfrwt beam="1">  1        2 0.44075454E-01 0.27617513E+03</pdfrwt>
<pdfrwt beam="2">  1       -2 0.10239662E-01 0.27617513E+03</pdfrwt>
<totfact> 0.72909636E+03</totfact>
</mgrwt>
</event>
<event>
 5    1  0.1140254E+001  0.2743191E+03  0.7818608E-02  0.1098833E+00
         -1   -1    0    0    0  501 -0.00000000000E+00  0.00000000000E+00  0.11988556430E+02  0.11988556430E+02  0.00000000000E+00 0. -1.
          1   -1    0    0  501    0  0.00000000000E+00 -0.00000000000E+00 -0.15692244388E+04  0.15692244388E+04  0.00000000000E+00 0. -1.
         35    2    1    2    0    0  0.00000000000E+00  0.00000000000E+00 -0.15572358824E+04  0.15812129953E+04  0.27431905319E+03 0.  0.
         25    1    3    3    0    0  0.28089042703E+02 -0.40138072846E+02 -0.10372136967E+04  0.10452809727E+04  0.12000000000E+03 0.  0.
         25    1    3    3    0    0 -0.28089042703E+02  0.40138072846E+02 -0.52002218568E+03  0.53593202256E+03  0.12000000000E+03 0.  0.
<mgrwt>
<rscale>  0 0.27431905E+03</rscale>
<asrwt>0</asrwt>
<pdfrwt beam="1">  1        1 0.24141913E+00 0.27431905E+03</pdfrwt>
<pdfrwt beam="2">  1       -1 0.18443934E-02 0.27431905E+03</pdfrwt>
<totfact> 0.49718273E+03</totfact>
</mgrwt>
</event>
<event>
 5    1  0.1140254E+001  0.2753257E+03  0.7818608E-02  0.1098270E+00
          1   -1    0    0  501    0  0.00000000000E+00  0.00000000000E+00  0.19257309146E+03  0.19257309146E+03  0.00000000000E+00 0. -1.
         -1   -1    0    0    0  501 -0.00000000000E+00 -0.00000000000E+00 -0.98409734757E+02  0.98409734757E+02  0.00000000000E+00 0. -1.
         35    2    1    2    0    0  0.00000000000E+00  0.00000000000E+00  0.94163356708E+02  0.29098282622E+03  0.27532574781E+03 0.  0.
         25    1    3    3    0    0 -0.43606971967E+02 -0.40698241369E+02  0.80388131808E+02  0.15626953187E+03  0.12000000000E+03 0.  0.
         25    1    3    3    0    0  0.43606971967E+02  0.40698241369E+02  0.13775224899E+02  0.13471329435E+03  0.12000000000E+03 0.  0.
<mgrwt>
<rscale>  0 0.27532575E+03</rscale>
<asrwt>0</asrwt>
<pdfrwt beam="1">  1        1 0.29626629E-01 0.27532575E+03</pdfrwt>
<pdfrwt beam="2">  1       -1 0.15139959E-01 0.27532575E+03</pdfrwt>
<totfact> 0.48409747E+03</totfact>
</mgrwt>
</event>
<event>
 5    1  0.1140254E+001  0.2745985E+03  0.7818608E-02  0.1098676E+00
         -1   -1    0    0    0  501 -0.00000000000E+00  0.00000000000E+00  0.49167869849E+03  0.49167869849E+03  0.00000000000E+00 0.  1.
          1   -1    0    0  501    0  0.00000000000E+00 -0.00000000000E+00 -0.38340247029E+02  0.38340247029E+02  0.00000000000E+00 0.  1.
         35    2    1    2    0    0  0.00000000000E+00  0.00000000000E+00  0.45333845146E+03  0.53001894551E+03  0.27459849059E+03 0.  0.
         25    1    3    3    0    0 -0.56069743917E+02  0.10507558662E+02  0.29344432200E+03  0.32212388159E+03  0.12000000000E+03 0.  0.
         25    1    3    3    0    0  0.56069743917E+02 -0.10507558662E+02  0.15989412945E+03  0.20789506393E+03  0.12000000000E+03 0.  0.
<mgrwt>
<rscale>  0 0.27459849E+03</rscale>
<asrwt>0</asrwt>
<pdfrwt beam="1">  1        1 0.58984999E-02 0.27459849E+03</pdfrwt>
<pdfrwt beam="2">  1       -1 0.75642872E-01 0.27459849E+03</pdfrwt>
<totfact> 0.24181654E+03</totfact>
</mgrwt>
</event>
<event>
 5    1  0.1140254E+001  0.2743297E+03  0.7818608E-02  0.1098827E+00
         -2   -1    0    0    0  501 -0.00000000000E+00  0.00000000000E+00  0.46715521145E+03  0.46715521145E+03  0.00000000000E+00 0. -1.
          2   -1    0    0  501    0  0.00000000000E+00 -0.00000000000E+00 -0.40273978403E+02  0.40273978403E+02  0.00000000000E+00 0. -1.
         35    2    1    2    0    0  0.00000000000E+00  0.00000000000E+00  0.42688123305E+03  0.50742918986E+03  0.27432972057E+03 0.  0.
         25    1    3    3    0    0 -0.17914811426E+01  0.18557257386E+02  0.95484828034E+02  0.15448279383E+03  0.12000000000E+03 0.  0.
         25    1    3    3    0    0  0.17914811426E+01 -0.18557257386E+02  0.33139640502E+03  0.35294639602E+03  0.12000000000E+03 0.  0.
<mgrwt>
<rscale>  0 0.27432972E+03</rscale>
<asrwt>0</asrwt>
<pdfrwt beam="1">  1        2 0.61959970E-02 0.27432972E+03</pdfrwt>
<pdfrwt beam="2">  1       -2 0.71870029E-01 0.27432972E+03</pdfrwt>
<totfact> 0.21289815E+03</totfact>
</mgrwt>
</event>
<event>
 5    1  0.1140254E+001  0.2751664E+03  0.7818608E-02  0.1098359E+00
         -2   -1    0    0    0  501 -0.00000000000E+00  0.00000000000E+00  0.85165112167E+01  0.85165112167E+01  0.00000000000E+00 0. -1.
          2   -1    0    0  501    0  0.00000000000E+00 -0.00000000000E+00 -0.22226393844E+04  0.22226393844E+04  0.00000000000E+00 0. -1.
         35    2    1    2    0    0  0.00000000000E+00  0.00000000000E+00 -0.22141228732E+04  0.22311558956E+04  0.27516637329E+03 0.  0.
         25    1    3    3    0    0  0.63781285366E+02 -0.14125651154E+02 -0.97592924622E+03  0.98544684281E+03  0.12000000000E+03 0.  0.
         25    1    3    3    0    0 -0.63781285366E+02  0.14125651154E+02 -0.12381936270E+04  0.12457090528E+04  0.12000000000E+03 0.  0.
<mgrwt>
<rscale>  0 0.27516637E+03</rscale>
<asrwt>0</asrwt>
<pdfrwt beam="1">  1        2 0.34194507E+00 0.27516637E+03</pdfrwt>
<pdfrwt beam="2">  1       -2 0.13102304E-02 0.27516637E+03</pdfrwt>
<totfact> 0.81436388E+03</totfact>
</mgrwt>
</event>
<event>
 5    1  0.1140254E+001  0.2741838E+03  0.7818608E-02  0.1098909E+00
         -4   -1    0    0    0  501 -0.00000000000E+00  0.00000000000E+00  0.42353866688E+03  0.42353866688E+03  0.00000000000E+00 0.  1.
          4   -1    0    0  501    0  0.00000000000E+00 -0.00000000000E+00 -0.44374200145E+02  0.44374200145E+02  0.00000000000E+00 0.  1.
         35    2    1    2    0    0  0.00000000000E+00  0.00000000000E+00  0.37916446674E+03  0.46791286703E+03  0.27418380385E+03 0.  0.
         25    1    3    3    0    0 -0.89032066251E+01 -0.62498398173E+02  0.22409003188E+03  0.26191918457E+03  0.12000000000E+03 0.  0.
         25    1    3    3    0    0  0.89032066251E+01  0.62498398173E+02  0.15507443486E+03  0.20599368245E+03  0.12000000000E+03 0.  0.
<mgrwt>
<rscale>  0 0.27418380E+03</rscale>
<asrwt>0</asrwt>
<pdfrwt beam="1">  1        4 0.68268003E-02 0.27418380E+03</pdfrwt>
<pdfrwt beam="2">  1       -4 0.65159792E-01 0.27418380E+03</pdfrwt>
<totfact> 0.59863034E+02</totfact>
</mgrwt>
</event>
<event>
 5    1  0.1140254E+001  0.2751983E+03  0.7818608E-02  0.1098341E+00
          2   -1    0    0  501    0  0.00000000000E+00  0.00000000000E+00  0.22083798690E+03  0.22083798690E+03  0.00000000000E+00 0. -1.
         -2   -1    0    0    0  501 -0.00000000000E+00 -0.00000000000E+00 -0.85734903710E+02  0.85734903710E+02  0.00000000000E+00 0. -1.
         35    2    1    2    0    0  0.00000000000E+00  0.00000000000E+00  0.13510308319E+03  0.30657289061E+03  0.27519828155E+03 0.  0.
         25    1    3    3    0    0  0.57039682227E+02 -0.29024050147E+02  0.90855410632E+02  0.16355618752E+03  0.12000000000E+03 0.  0.
         25    1    3    3    0    0 -0.57039682227E+02  0.29024050147E+02  0.44247672557E+02  0.14301670309E+03  0.12000000000E+03 0.  0.
<mgrwt>
<rscale>  0 0.27519828E+03</rscale>
<asrwt>0</asrwt>
<pdfrwt beam="1">  1        2 0.33975075E-01 0.27519828E+03</pdfrwt>
<pdfrwt beam="2">  1       -2 0.13189985E-01 0.27519828E+03</pdfrwt>
<totfact> 0.64236970E+03</totfact>
</mgrwt>
</event>
<event>
 5    1  0.1140254E+001  0.2744910E+03  0.7818608E-02  0.1098736E+00
         -2   -1    0    0    0  501 -0.00000000000E+00  0.00000000000E+00  0.12334335964E+02  0.12334335964E+02  0.00000000000E+00 0.  1.
          2   -1    0    0  501    0  0.00000000000E+00 -0.00000000000E+00 -0.15271457468E+04  0.15271457468E+04  0.00000000000E+00 0.  1.
         35    2    1    2    0    0  0.00000000000E+00  0.00000000000E+00 -0.15148114108E+04  0.15394800828E+04  0.27449101047E+03 0.  0.
         25    1    3    3    0    0 -0.30472320921E+02  0.13160918399E+02 -0.43353997586E+03  0.45106394534E+03  0.12000000000E+03 0.  0.
         25    1    3    3    0    0  0.30472320921E+02 -0.13160918399E+02 -0.10812714350E+04  0.10884161374E+04  0.12000000000E+03 0.  0.
<mgrwt>
<rscale>  0 0.27449101E+03</rscale>
<asrwt>0</asrwt>
<pdfrwt beam="1">  1        2 0.23494552E+00 0.27449101E+03</pdfrwt>
<pdfrwt beam="2">  1       -2 0.18975900E-02 0.27449101E+03</pdfrwt>
<totfact> 0.11021103E+04</totfact>
</mgrwt>
</event>
<event>
 5    1  0.1140254E+001  0.2746694E+03  0.7818608E-02  0.1098637E+00
         -1   -1    0    0    0  501 -0.00000000000E+00  0.00000000000E+00  0.92175643744E+01  0.92175643744E+01  0.00000000000E+00 0.  1.
          1   -1    0    0  501    0  0.00000000000E+00 -0.00000000000E+00 -0.20461822508E+04  0.20461822508E+04  0.00000000000E+00 0.  1.
         35    2    1    2    0    0  0.00000000000E+00  0.00000000000E+00 -0.20369646865E+04  0.20553998152E+04  0.27466937666E+03 0.  0.
         25    1    3    3    0    0 -0.20753902726E+02 -0.72627136780E+01 -0.14904179119E+04  0.14954026292E+04  0.12000000000E+03 0.  0.
         25    1    3    3    0    0  0.20753902726E+02  0.72627136780E+01 -0.54654677460E+03  0.55999718599E+03  0.12000000000E+03 0.  0.
<mgrwt>
<rscale>  0 0.27466938E+03</rscale>
<asrwt>0</asrwt>
<pdfrwt beam="1">  1        1 0.31479723E+00 0.27466938E+03</pdfrwt>
<pdfrwt beam="2">  1       -1 0.14180870E-02 0.27466938E+03</pdfrwt>
<totfact> 0.35662068E+03</totfact>
</mgrwt>
</event>
<event>
 5    1  0.1140254E+001  0.2750186E+03  0.7818608E-02  0.1098441E+00
         -2   -1    0    0    0  501 -0.00000000000E+00  0.00000000000E+00  0.10940955166E+03  0.10940955166E+03  0.00000000000E+00 0. -1.
          2   -1    0    0  501    0  0.00000000000E+00 -0.00000000000E+00 -0.17282595199E+03  0.17282595199E+03  0.00000000000E+00 0. -1.
         35    2    1    2    0    0  0.00000000000E+00  0.00000000000E+00 -0.63416400331E+02  0.28223550365E+03  0.27501861699E+03 0.  0.
         25    1    3    3    0    0  0.32203797116E+02  0.58345833762E+02 -0.40138950545E+02  0.14301208416E+03  0.12000000000E+03 0.  0.
         25    1    3    3    0    0 -0.32203797116E+02 -0.58345833762E+02 -0.23277449786E+02  0.13922341949E+03  0.12000000000E+03 0.  0.
<mgrwt>
<rscale>  0 0.27501862E+03</rscale>
<asrwt>0</asrwt>
<pdfrwt beam="1">  1        2 0.26588608E-01 0.27501862E+03</pdfrwt>
<pdfrwt beam="2">  1       -2 0.16832239E-01 0.27501862E+03</pdfrwt>
<totfact> 0.56207954E+03</totfact>
</mgrwt>
</event>
<event>
 5    1  0.1140254E+001  0.2756770E+03  0.7818608E-02  0.1098074E+00
         -1   -1    0    0    0  501 -0.00000000000E+00  0.00000000000E+00  0.22704721515E+02  0.22704721515E+02  0.00000000000E+00 0.  1.
          1   -1    0    0  501    0  0.00000000000E+00 -0.00000000000E+00 -0.83680624779E+03  0.83680624779E+03  0.00000000000E+00 0.  1.
         35    2    1    2    0    0  0.00000000000E+00  0.00000000000E+00 -0.81410152627E+03  0.85951096930E+03  0.27567700534E+03 0.  0.
         25    1    3    3    0    0  0.32561096775E+02  0.20572706607E+01 -0.59242326427E+03  0.60533443768E+03  0.12000000000E+03 0.  0.
         25    1    3    3    0    0 -0.32561096775E+02 -0.20572706607E+01 -0.22167826200E+03  0.25417653162E+03  0.12000000000E+03 0.  0.
<mgrwt>
<rscale>  0 0.27567701E+03</rscale>
<asrwt>0</asrwt>
<pdfrwt beam="1">  1        1 0.12873940E+00 0.27567701E+03</pdfrwt>
<pdfrwt beam="2">  1       -1 0.34930346E-02 0.27567701E+03</pdfrwt>
<totfact> 0.64525947E+03</totfact>
</mgrwt>
</event>
<event>
 5    1  0.1140254E+001  0.2753216E+03  0.7818608E-02  0.1098272E+00
         -2   -1    0    0    0  501 -0.00000000000E+00  0.00000000000E+00  0.29467331980E+02  0.29467331980E+02  0.00000000000E+00 0. -1.
          2   -1    0    0  501    0  0.00000000000E+00 -0.00000000000E+00 -0.64310191515E+03  0.64310191515E+03  0.00000000000E+00 0. -1.
         35    2    1    2    0    0  0.00000000000E+00  0.00000000000E+00 -0.61363458317E+03  0.67256924713E+03  0.27532161289E+03 0.  0.
         25    1    3    3    0    0 -0.58529668516E+02  0.14062958740E+02 -0.38119428379E+03  0.40414424516E+03  0.12000000000E+03 0.  0.
         25    1    3    3    0    0  0.58529668516E+02 -0.14062958740E+02 -0.23244029939E+03  0.26842500197E+03  0.12000000000E+03 0.  0.
<mgrwt>
<rscale>  0 0.27532161E+03</rscale>
<asrwt>0</asrwt>
<pdfrwt beam="1">  1        2 0.98938757E-01 0.27532161E+03</pdfrwt>
<pdfrwt beam="2">  1       -2 0.45334356E-02 0.27532161E+03</pdfrwt>
<totfact> 0.10519022E+04</totfact>
</mgrwt>
</event>
<event>
 5    1  0.1140254E+001  0.2751945E+03  0.7818608E-02  0.1098343E+00
         -1   -1    0    0    0  501 -0.00000000000E+00  0.00000000000E+00  0.66170471423E+03  0.66170471423E+03  0.00000000000E+00 0.  1.
          1   -1    0    0  501    0  0.00000000000E+00 -0.00000000000E+00 -0.28612454960E+02  0.28612454960E+02  0.00000000000E+00 0.  1.
         35    2    1    2    0    0  0.00000000000E+00  0.00000000000E+00  0.63309225927E+03  0.69031716919E+03  0.27519445004E+03 0.  0.
         25    1    3    3    0    0  0.16302001981E+02 -0.48685845098E+02  0.20729281921E+03  0.24496199640E+03  0.12000000000E+03 0.  0.
         25    1    3    3    0    0 -0.16302001981E+02  0.48685845098E+02  0.42579944006E+03  0.44535517279E+03  0.12000000000E+03 0.  0.
<mgrwt>
<rscale>  0 0.27519445E+03</rscale>
<asrwt>0</asrwt>
<pdfrwt beam="1">  1        1 0.44019166E-02 0.27519445E+03</pdfrwt>
<pdfrwt beam="2">  1       -1 0.10180071E+00 0.27519445E+03</pdfrwt>
<totfact> 0.19236389E+03</totfact>
</mgrwt>
</event>
<event>
 5    1  0.1140254E+001  0.2749616E+03  0.7818608E-02  0.1098473E+00
         -2   -1    0    0    0  501 -0.00000000000E+00  0.00000000000E+00  0.10046966703E+03  0.10046966703E+03  0.00000000000E+00 0. -1.
          2   -1    0    0  501    0  0.00000000000E+00 -0.00000000000E+00 -0.18812614049E+03  0.18812614049E+03  0.00000000000E+00 0. -1.
         35    2    1    2    0    0  0.00000000000E+00  0.00000000000E+00 -0.87656473466E+02  0.28859580752E+03  0.27496160237E+03 0.  0.
         25    1    3    3    0    0  0.23825767244E+02  0.13097250993E+02  0.20546257320E+02  0.12474515565E+03  0.12000000000E+03 0.  0.
         25    1    3    3    0    0 -0.23825767244E+02 -0.13097250993E+02 -0.10820273079E+03  0.16385065187E+03  0.12000000000E+03 0.  0.
<mgrwt>
<rscale>  0 0.27496160E+03</rscale>
<asrwt>0</asrwt>
<pdfrwt beam="1">  1        2 0.28942483E-01 0.27496160E+03</pdfrwt>
<pdfrwt beam="2">  1       -2 0.15456872E-01 0.27496160E+03</pdfrwt>
<totfact> 0.58983304E+03</totfact>
</mgrwt>
</event>
<event>
 5    1  0.1140254E+001  0.2753567E+03  0.7818608E-02  0.1098252E+00
         -2   -1    0    0    0  501 -0.00000000000E+00  0.00000000000E+00  0.13107073549E+02  0.13107073549E+02  0.00000000000E+00 0.  1.
          2   -1    0    0  501    0  0.00000000000E+00 -0.00000000000E+00 -0.14461909206E+04  0.14461909206E+04  0.00000000000E+00 0.  1.
         35    2    1    2    0    0  0.00000000000E+00  0.00000000000E+00 -0.14330838470E+04  0.14592979941E+04  0.27535671964E+03 0.  0.
         25    1    3    3    0    0 -0.63699838355E+02  0.35719467995E+01 -0.59984066452E+03  0.61504410494E+03  0.12000000000E+03 0.  0.
         25    1    3    3    0    0  0.63699838355E+02 -0.35719467995E+01 -0.83324318253E+03  0.84425388921E+03  0.12000000000E+03 0.  0.
<mgrwt>
<rscale>  0 0.27535672E+03</rscale>
<asrwt>0</asrwt>
<pdfrwt beam="1">  1        2 0.22249076E+00 0.27535672E+03</pdfrwt>
<pdfrwt beam="2">  1       -2 0.20164742E-02 0.27535672E+03</pdfrwt>
<totfact> 0.11139366E+04</totfact>
</mgrwt>
</event>
<event>
 5    1  0.1140254E+001  0.2749072E+03  0.7818608E-02  0.1098503E+00
         -2   -1    0    0    0  501 -0.00000000000E+00  0.00000000000E+00  0.15716802274E+02  0.15716802274E+02  0.00000000000E+00 0. -1.
          2   -1    0    0  501    0  0.00000000000E+00 -0.00000000000E+00 -0.12021205244E+04  0.12021205244E+04  0.00000000000E+00 0. -1.
         35    2    1    2    0    0  0.00000000000E+00  0.00000000000E+00 -0.11864037222E+04  0.12178373267E+04  0.27490718865E+03 0.  0.
         25    1    3    3    0    0  0.22255925518E+02 -0.63207666941E+02 -0.58558637753E+03  0.60149974308E+03  0.12000000000E+03 0.  0.
         25    1    3    3    0    0 -0.22255925518E+02  0.63207666941E+02 -0.60081734464E+03  0.61633758364E+03  0.12000000000E+03 0.  0.
<mgrwt>
<rscale>  0 0.27490719E+03</rscale>
<asrwt>0</asrwt>
<pdfrwt beam="1">  1        2 0.18494170E+00 0.27490719E+03</pdfrwt>
<pdfrwt beam="2">  1       -2 0.24179686E-02 0.27490719E+03</pdfrwt>
<totfact> 0.11619827E+04</totfact>
</mgrwt>
</event>
<event>
 5    1  0.1140254E+001  0.2738573E+03  0.7818608E-02  0.1099092E+00
          3   -1    0    0  501    0  0.00000000000E+00  0.00000000000E+00  0.98266816588E+03  0.98266816588E+03  0.00000000000E+00 0. -1.
         -3   -1    0    0    0  501 -0.00000000000E+00 -0.00000000000E+00 -0.19080149877E+02  0.19080149877E+02  0.00000000000E+00 0. -1.
         35    2    1    2    0    0  0.00000000000E+00  0.00000000000E+00  0.96358801600E+03  0.10017483158E+04  0.27385730506E+03 0.  0.
         25    1    3    3    0    0  0.29064448195E+02  0.37263076422E+02  0.65006539423E+03  0.66273546442E+03  0.12000000000E+03 0.  0.
         25    1    3    3    0    0 -0.29064448195E+02 -0.37263076422E+02  0.31352262177E+03  0.33901285134E+03  0.12000000000E+03 0.  0.
<mgrwt>
<rscale>  0 0.27385731E+03</rscale>
<asrwt>0</asrwt>
<pdfrwt beam="1">  1        3 0.15117968E+00 0.27385731E+03</pdfrwt>
<pdfrwt beam="2">  1       -3 0.29354084E-02 0.27385731E+03</pdfrwt>
<totfact> 0.44962156E+02</totfact>
</mgrwt>
</event>
<event>
 5    1  0.1140254E+001  0.2745091E+03  0.7818608E-02  0.1098726E+00
         -1   -1    0    0    0  501 -0.00000000000E+00  0.00000000000E+00  0.14373405111E+02  0.14373405111E+02  0.00000000000E+00 0. -1.
          1   -1    0    0  501    0  0.00000000000E+00 -0.00000000000E+00 -0.13106714115E+04  0.13106714115E+04  0.00000000000E+00 0. -1.
         35    2    1    2    0    0  0.00000000000E+00  0.00000000000E+00 -0.12962980064E+04  0.13250448166E+04  0.27450909759E+03 0.  0.
         25    1    3    3    0    0 -0.52585111578E+02  0.26011853924E+02 -0.49573616570E+03  0.51341616306E+03  0.12000000000E+03 0.  0.
         25    1    3    3    0    0  0.52585111578E+02 -0.26011853924E+02 -0.80056184067E+03  0.81162865354E+03  0.12000000000E+03 0.  0.
<mgrwt>
<rscale>  0 0.27450910E+03</rscale>
<asrwt>0</asrwt>
<pdfrwt beam="1">  1        1 0.20164169E+00 0.27450910E+03</pdfrwt>
<pdfrwt beam="2">  1       -1 0.22112938E-02 0.27450910E+03</pdfrwt>
<totfact> 0.56775968E+03</totfact>
</mgrwt>
</event>
<event>
 5    1  0.1140254E+001  0.2747782E+03  0.7818608E-02  0.1098576E+00
         -1   -1    0    0    0  501 -0.00000000000E+00  0.00000000000E+00  0.36248027658E+03  0.36248027658E+03  0.00000000000E+00 0. -1.
          1   -1    0    0  501    0  0.00000000000E+00 -0.00000000000E+00 -0.52073911429E+02  0.52073911429E+02  0.00000000000E+00 0. -1.
         35    2    1    2    0    0  0.00000000000E+00  0.00000000000E+00  0.31040636515E+03  0.41455418801E+03  0.27477820741E+03 0.  0.
         25    1    3    3    0    0  0.60845149329E+02  0.10777217913E+02  0.11651823525E+03  0.17831090760E+03  0.12000000000E+03 0.  0.
         25    1    3    3    0    0 -0.60845149329E+02 -0.10777217913E+02  0.19388812990E+03  0.23624328041E+03  0.12000000000E+03 0.  0.
<mgrwt>
<rscale>  0 0.27477821E+03</rscale>
<asrwt>0</asrwt>
<pdfrwt beam="1">  1        1 0.80113712E-02 0.27477821E+03</pdfrwt>
<pdfrwt beam="2">  1       -1 0.55766195E-01 0.27477821E+03</pdfrwt>
<totfact> 0.28930050E+03</totfact>
</mgrwt>
</event>
<event>
 5    1  0.1140254E+001  0.2765833E+03  0.7818608E-02  0.1097570E+00
         -1   -1    0    0    0  501 -0.00000000000E+00  0.00000000000E+00  0.66221476596E+03  0.66221476596E+03  0.00000000000E+00 0. -1.
          1   -1    0    0  501    0  0.00000000000E+00 -0.00000000000E+00 -0.28879730232E+02  0.28879730232E+02  0.00000000000E+00 0. -1.
         35    2    1    2    0    0  0.00000000000E+00  0.00000000000E+00  0.63333503573E+03  0.69109449619E+03  0.27658332413E+03 0.  0.
         25    1    3    3    0    0 -0.74116292905E+01  0.59588384988E+02  0.23308751023E+03  0.26895258932E+03  0.12000000000E+03 0.  0.
         25    1    3    3    0    0  0.74116292905E+01 -0.59588384988E+02  0.40024752550E+03  0.42214190688E+03  0.12000000000E+03 0.  0.
<mgrwt>
<rscale>  0 0.27658332E+03</rscale>
<asrwt>0</asrwt>
<pdfrwt beam="1">  1        1 0.44430359E-02 0.27658332E+03</pdfrwt>
<pdfrwt beam="2">  1       -1 0.10187918E+00 0.27658332E+03</pdfrwt>
<totfact> 0.18958136E+03</totfact>
</mgrwt>
</event>
<event>
 5    1  0.1140254E+001  0.2744349E+03  0.7818608E-02  0.1098768E+00
          2   -1    0    0  501    0  0.00000000000E+00  0.00000000000E+00  0.44959545713E+03  0.44959545713E+03  0.00000000000E+00 0. -1.
         -2   -1    0    0    0  501 -0.00000000000E+00 -0.00000000000E+00 -0.41879049274E+02  0.41879049274E+02  0.00000000000E+00 0. -1.
         35    2    1    2    0    0  0.00000000000E+00  0.00000000000E+00  0.40771640786E+03  0.49147450640E+03  0.27443491252E+03 0.  0.
         25    1    3    3    0    0 -0.23647975271E+02  0.55567956043E+02  0.15379074731E+03  0.20420239575E+03  0.12000000000E+03 0.  0.
         25    1    3    3    0    0  0.23647975271E+02 -0.55567956043E+02  0.25392566055E+03  0.28727211065E+03  0.12000000000E+03 0.  0.
<mgrwt>
<rscale>  0 0.27443491E+03</rscale>
<asrwt>0</asrwt>
<pdfrwt beam="1">  1        2 0.69168529E-01 0.27443491E+03</pdfrwt>
<pdfrwt beam="2">  1       -2 0.64429310E-02 0.27443491E+03</pdfrwt>
<totfact> 0.92394754E+03</totfact>
</mgrwt>
</event>
<event>
 5    1  0.1140254E+001  0.2744726E+03  0.7818608E-02  0.1098747E+00
          1   -1    0    0  501    0  0.00000000000E+00  0.00000000000E+00  0.56431643354E+03  0.56431643354E+03  0.00000000000E+00 0. -1.
         -1   -1    0    0    0  501 -0.00000000000E+00 -0.00000000000E+00 -0.33374547863E+02  0.33374547863E+02  0.00000000000E+00 0. -1.
         35    2    1    2    0    0  0.00000000000E+00  0.00000000000E+00  0.53094188568E+03  0.59769098141E+03  0.27447262757E+03 0.  0.
         25    1    3    3    0    0  0.25031792841E+02 -0.20402165862E+01  0.13118089338E+03  0.17955272185E+03  0.12000000000E+03 0.  0.
         25    1    3    3    0    0 -0.25031792841E+02  0.20402165862E+01  0.39976099230E+03  0.41813825956E+03  0.12000000000E+03 0.  0.
<mgrwt>
<rscale>  0 0.27447263E+03</rscale>
<asrwt>0</asrwt>
<pdfrwt beam="1">  1        1 0.86817906E-01 0.27447263E+03</pdfrwt>
<pdfrwt beam="2">  1       -1 0.51345462E-02 0.27447263E+03</pdfrwt>
<totfact> 0.64498957E+03</totfact>
</mgrwt>
</event>
<event>
 5    1  0.1140254E+001  0.2746303E+03  0.7818608E-02  0.1098658E+00
         -2   -1    0    0    0  501 -0.00000000000E+00  0.00000000000E+00  0.32124699179E+03  0.32124699179E+03  0.00000000000E+00 0. -1.
          2   -1    0    0  501    0  0.00000000000E+00 -0.00000000000E+00 -0.58694558802E+02  0.58694558802E+02  0.00000000000E+00 0. -1.
         35    2    1    2    0    0  0.00000000000E+00  0.00000000000E+00  0.26255243299E+03  0.37994155059E+03  0.27463030022E+03 0.  0.
         25    1    3    3    0    0 -0.50553953602E+02  0.25258338998E+02  0.82133688077E+02  0.15601162979E+03  0.12000000000E+03 0.  0.
         25    1    3    3    0    0  0.50553953602E+02 -0.25258338998E+02  0.18041874491E+03  0.22392992080E+03  0.12000000000E+03 0.  0.
<mgrwt>
<rscale>  0 0.27463030E+03</rscale>
<asrwt>0</asrwt>
<pdfrwt beam="1">  1        2 0.90299323E-02 0.27463030E+03</pdfrwt>
<pdfrwt beam="2">  1       -2 0.49422613E-01 0.27463030E+03</pdfrwt>
<totfact> 0.28546445E+03</totfact>
</mgrwt>
</event>
<event>
 5    1  0.1140254E+001  0.2747803E+03  0.7818608E-02  0.1098574E+00
         -3   -1    0    0    0  501 -0.00000000000E+00  0.00000000000E+00  0.13218487696E+03  0.13218487696E+03  0.00000000000E+00 0.  1.
          3   -1    0    0  501    0  0.00000000000E+00 -0.00000000000E+00 -0.14280035419E+03  0.14280035419E+03  0.00000000000E+00 0.  1.
         35    2    1    2    0    0  0.00000000000E+00  0.00000000000E+00 -0.10615477231E+02  0.27498523115E+03  0.27478025583E+03 0.  0.
         25    1    3    3    0    0  0.13092609935E+02  0.54142099477E+02 -0.42392957292E+02  0.13892424626E+03  0.12000000000E+03 0.  0.
         25    1    3    3    0    0 -0.13092609935E+02 -0.54142099477E+02  0.31777480061E+02  0.13606098489E+03  0.12000000000E+03 0.  0.
<mgrwt>
<rscale>  0 0.27478026E+03</rscale>
<asrwt>0</asrwt>
<pdfrwt beam="1">  1        3 0.21969285E-01 0.27478026E+03</pdfrwt>
<pdfrwt beam="2">  1       -3 0.20336135E-01 0.27478026E+03</pdfrwt>
<totfact> 0.10515057E+03</totfact>
</mgrwt>
</event>
<event>
 5    1  0.1140254E+001  0.2750516E+03  0.7818608E-02  0.1098423E+00
         -1   -1    0    0    0  501 -0.00000000000E+00  0.00000000000E+00  0.54737524447E+02  0.54737524447E+02  0.00000000000E+00 0.  1.
          1   -1    0    0  501    0  0.00000000000E+00 -0.00000000000E+00 -0.34552784628E+03  0.34552784628E+03  0.00000000000E+00 0.  1.
         35    2    1    2    0    0  0.00000000000E+00  0.00000000000E+00 -0.29079032184E+03  0.40026537073E+03  0.27505155105E+03 0.  0.
         25    1    3    3    0    0  0.42515748884E+02  0.20116537647E+02 -0.75588108290E+02  0.14941829240E+03  0.12000000000E+03 0.  0.
         25    1    3    3    0    0 -0.42515748884E+02 -0.20116537647E+02 -0.21520221355E+03  0.25084707833E+03  0.12000000000E+03 0.  0.
<mgrwt>
<rscale>  0 0.27505155E+03</rscale>
<asrwt>0</asrwt>
<pdfrwt beam="1">  1        1 0.53158130E-01 0.27505155E+03</pdfrwt>
<pdfrwt beam="2">  1       -1 0.84211576E-02 0.27505155E+03</pdfrwt>
<totfact> 0.57844283E+03</totfact>
</mgrwt>
</event>
<event>
 5    1  0.1140254E+001  0.2758989E+03  0.7818608E-02  0.1097950E+00
         -1   -1    0    0    0  501 -0.00000000000E+00  0.00000000000E+00  0.23420576064E+02  0.23420576064E+02  0.00000000000E+00 0. -1.
          1   -1    0    0  501    0  0.00000000000E+00 -0.00000000000E+00 -0.81253530958E+03  0.81253530958E+03  0.00000000000E+00 0. -1.
         35    2    1    2    0    0  0.00000000000E+00  0.00000000000E+00 -0.78911473352E+03  0.83595588565E+03  0.27589885845E+03 0.  0.
         25    1    3    3    0    0 -0.67302277714E+02  0.33152649478E+01 -0.36589964063E+03  0.39092599630E+03  0.12000000000E+03 0.  0.
         25    1    3    3    0    0  0.67302277714E+02 -0.33152649478E+01 -0.42321509289E+03  0.44502988935E+03  0.12000000000E+03 0.  0.
<mgrwt>
<rscale>  0 0.27589886E+03</rscale>
<asrwt>0</asrwt>
<pdfrwt beam="1">  1        1 0.12500543E+00 0.27589886E+03</pdfrwt>
<pdfrwt beam="2">  1       -1 0.36031655E-02 0.27589886E+03</pdfrwt>
<totfact> 0.64523251E+03</totfact>
</mgrwt>
</event>
<event>
 5    1  0.1140254E+001  0.2732540E+03  0.7818608E-02  0.1099432E+00
         -2   -1    0    0    0  501 -0.00000000000E+00  0.00000000000E+00  0.68767783635E+02  0.68767783635E+02  0.00000000000E+00 0.  1.
          2   -1    0    0  501    0  0.00000000000E+00 -0.00000000000E+00 -0.27144888363E+03  0.27144888363E+03  0.00000000000E+00 0.  1.
         35    2    1    2    0    0  0.00000000000E+00  0.00000000000E+00 -0.20268109999E+03  0.34021666726E+03  0.27325400709E+03 0.  0.
         25    1    3    3    0    0  0.50752464269E+02  0.41123059435E+02 -0.10151419099E+03  0.17021177873E+03  0.12000000000E+03 0.  0.
         25    1    3    3    0    0 -0.50752464269E+02 -0.41123059435E+02 -0.10116690900E+03  0.17000488853E+03  0.12000000000E+03 0.  0.
<mgrwt>
<rscale>  0 0.27325401E+03</rscale>
<asrwt>0</asrwt>
<pdfrwt beam="1">  1        2 0.41761367E-01 0.27325401E+03</pdfrwt>
<pdfrwt beam="2">  1       -2 0.10579659E-01 0.27325401E+03</pdfrwt>
<totfact> 0.73313679E+03</totfact>
</mgrwt>
</event>
<event>
 5    1  0.1140254E+001  0.2728893E+03  0.7818608E-02  0.1099637E+00
         -3   -1    0    0    0  501 -0.00000000000E+00  0.00000000000E+00  0.78155963598E+02  0.78155963598E+02  0.00000000000E+00 0.  1.
          3   -1    0    0  501    0  0.00000000000E+00 -0.00000000000E+00 -0.23820497630E+03  0.23820497630E+03  0.00000000000E+00 0.  1.
         35    2    1    2    0    0  0.00000000000E+00  0.00000000000E+00 -0.16004901270E+03  0.31636093990E+03  0.27288927760E+03 0.  0.
         25    1    3    3    0    0 -0.37747575641E+02  0.52556766928E+02 -0.86379153650E+02  0.16139532646E+03  0.12000000000E+03 0.  0.
         25    1    3    3    0    0  0.37747575641E+02 -0.52556766928E+02 -0.73669859053E+02  0.15496561344E+03  0.12000000000E+03 0.  0.
<mgrwt>
<rscale>  0 0.27288928E+03</rscale>
<asrwt>0</asrwt>
<pdfrwt beam="1">  1        3 0.36646919E-01 0.27288928E+03</pdfrwt>
<pdfrwt beam="2">  1       -3 0.12023995E-01 0.27288928E+03</pdfrwt>
<totfact> 0.10119972E+03</totfact>
</mgrwt>
</event>
<event>
 5    1  0.1140254E+001  0.2755430E+03  0.7818608E-02  0.1098148E+00
          1   -1    0    0  501    0  0.00000000000E+00  0.00000000000E+00  0.10931188239E+03  0.10931188239E+03  0.00000000000E+00 0. -1.
         -1   -1    0    0    0  501 -0.00000000000E+00 -0.00000000000E+00 -0.17364065953E+03  0.17364065953E+03  0.00000000000E+00 0. -1.
         35    2    1    2    0    0  0.00000000000E+00  0.00000000000E+00 -0.64328777140E+02  0.28295254192E+03  0.27554300828E+03 0.  0.
         25    1    3    3    0    0  0.55797670926E+02  0.34470033442E+02 -0.49329874756E+02  0.14537881493E+03  0.12000000000E+03 0.  0.
         25    1    3    3    0    0 -0.55797670926E+02 -0.34470033442E+02 -0.14998902384E+02  0.13757372699E+03  0.12000000000E+03 0.  0.
<mgrwt>
<rscale>  0 0.27554301E+03</rscale>
<asrwt>0</asrwt>
<pdfrwt beam="1">  1        1 0.16817213E-01 0.27554301E+03</pdfrwt>
<pdfrwt beam="2">  1       -1 0.26713947E-01 0.27554301E+03</pdfrwt>
<totfact> 0.39670296E+03</totfact>
</mgrwt>
</event>
<event>
 5    1  0.1140254E+001  0.2750318E+03  0.7818608E-02  0.1098434E+00
         -1   -1    0    0    0  501 -0.00000000000E+00  0.00000000000E+00  0.15503003042E+02  0.15503003042E+02  0.00000000000E+00 0.  1.
          1   -1    0    0  501    0  0.00000000000E+00 -0.00000000000E+00 -0.12198036049E+04  0.12198036049E+04  0.00000000000E+00 0.  1.
         35    2    1    2    0    0  0.00000000000E+00  0.00000000000E+00 -0.12043006018E+04  0.12353066079E+04  0.27503177268E+03 0.  0.
         25    1    3    3    0    0  0.16943215886E+02 -0.55917222559E+02 -0.75090055853E+03  0.76266995295E+03  0.12000000000E+03 0.  0.
         25    1    3    3    0    0 -0.16943215886E+02  0.55917222559E+02 -0.45340004330E+03  0.47263665495E+03  0.12000000000E+03 0.  0.
<mgrwt>
<rscale>  0 0.27503177E+03</rscale>
<asrwt>0</asrwt>
<pdfrwt beam="1">  1        1 0.18766210E+00 0.27503177E+03</pdfrwt>
<pdfrwt beam="2">  1       -1 0.23850773E-02 0.27503177E+03</pdfrwt>
<totfact> 0.58694428E+03</totfact>
</mgrwt>
</event>
<event>
 5    1  0.1140254E+001  0.2753615E+03  0.7818608E-02  0.1098250E+00
          2   -1    0    0  501    0  0.00000000000E+00  0.00000000000E+00  0.14199301395E+04  0.14199301395E+04  0.00000000000E+00 0. -1.
         -2   -1    0    0    0  501 -0.00000000000E+00 -0.00000000000E+00 -0.13349942437E+02  0.13349942437E+02  0.00000000000E+00 0. -1.
         35    2    1    2    0    0  0.00000000000E+00  0.00000000000E+00  0.14065801971E+04  0.14332800819E+04  0.27536147607E+03 0.  0.
         25    1    3    3    0    0  0.64240370554E+02 -0.37333846286E+01  0.59722605088E+03  0.61255180942E+03  0.12000000000E+03 0.  0.
         25    1    3    3    0    0 -0.64240370554E+02  0.37333846286E+01  0.80935414619E+03  0.82072827253E+03  0.12000000000E+03 0.  0.
<mgrwt>
<rscale>  0 0.27536148E+03</rscale>
<asrwt>0</asrwt>
<pdfrwt beam="1">  1        2 0.21845067E+00 0.27536148E+03</pdfrwt>
<pdfrwt beam="2">  1       -2 0.20538384E-02 0.27536148E+03</pdfrwt>
<totfact> 0.11202367E+04</totfact>
</mgrwt>
</event>
<event>
 5    1  0.1140254E+001  0.2751886E+03  0.7818608E-02  0.1098346E+00
         -2   -1    0    0    0  501 -0.00000000000E+00  0.00000000000E+00  0.31189134785E+02  0.31189134785E+02  0.00000000000E+00 0.  1.
          2   -1    0    0  501    0  0.00000000000E+00 -0.00000000000E+00 -0.60701238354E+03  0.60701238354E+03  0.00000000000E+00 0.  1.
         35    2    1    2    0    0  0.00000000000E+00  0.00000000000E+00 -0.57582324876E+03  0.63820151833E+03  0.27518859749E+03 0.  0.
         25    1    3    3    0    0 -0.43319758368E+02 -0.39973180726E+02 -0.36333669292E+03  0.38715372795E+03  0.12000000000E+03 0.  0.
         25    1    3    3    0    0  0.43319758368E+02  0.39973180726E+02 -0.21248655584E+03  0.25104779038E+03  0.12000000000E+03 0.  0.
<mgrwt>
<rscale>  0 0.27518860E+03</rscale>
<asrwt>0</asrwt>
<pdfrwt beam="1">  1        2 0.93386521E-01 0.27518860E+03</pdfrwt>
<pdfrwt beam="2">  1       -2 0.47983284E-02 0.27518860E+03</pdfrwt>
<totfact> 0.10328920E+04</totfact>
</mgrwt>
</event>
<event>
 5    1  0.1140254E+001  0.2756450E+03  0.7818608E-02  0.1098092E+00
         -1   -1    0    0    0  501 -0.00000000000E+00  0.00000000000E+00  0.14891083274E+02  0.14891083274E+02  0.00000000000E+00 0.  1.
          1   -1    0    0  501    0  0.00000000000E+00 -0.00000000000E+00 -0.12755986139E+04  0.12755986139E+04  0.00000000000E+00 0.  1.
         35    2    1    2    0    0  0.00000000000E+00  0.00000000000E+00 -0.12607075306E+04  0.12904896972E+04  0.27564502668E+03 0.  0.
         25    1    3    3    0    0 -0.75070709022E+01  0.19035486364E+02 -0.93290732675E+03  0.94081602142E+03  0.12000000000E+03 0.  0.
         25    1    3    3    0    0  0.75070709022E+01 -0.19035486364E+02 -0.32780020386E+03  0.34967367574E+03  0.12000000000E+03 0.  0.
<mgrwt>
<rscale>  0 0.27564503E+03</rscale>
<asrwt>0</asrwt>
<pdfrwt beam="1">  1        1 0.19624599E+00 0.27564503E+03</pdfrwt>
<pdfrwt beam="2">  1       -1 0.22909353E-02 0.27564503E+03</pdfrwt>
<totfact> 0.56974314E+03</totfact>
</mgrwt>
</event>
<event>
 5    1  0.1140254E+001  0.2745408E+03  0.7818608E-02  0.1098709E+00
         -2   -1    0    0    0  501 -0.00000000000E+00  0.00000000000E+00  0.16212580294E+03  0.16212580294E+03  0.00000000000E+00 0. -1.
          2   -1    0    0  501    0  0.00000000000E+00 -0.00000000000E+00 -0.11622554207E+03  0.11622554207E+03  0.00000000000E+00 0. -1.
         35    2    1    2    0    0  0.00000000000E+00  0.00000000000E+00  0.45900260866E+02  0.27835134501E+03  0.27454077534E+03 0.  0.
         25    1    3    3    0    0 -0.32521045470E+02  0.38477856289E+02  0.67202185714E+02  0.14647285615E+03  0.12000000000E+03 0.  0.
         25    1    3    3    0    0  0.32521045470E+02 -0.38477856289E+02 -0.21301924848E+02  0.13187848887E+03  0.12000000000E+03 0.  0.
<mgrwt>
<rscale>  0 0.27454078E+03</rscale>
<asrwt>0</asrwt>
<pdfrwt beam="1">  1        2 0.17880853E-01 0.27454078E+03</pdfrwt>
<pdfrwt beam="2">  1       -2 0.24942431E-01 0.27454078E+03</pdfrwt>
<totfact> 0.44877268E+03</totfact>
</mgrwt>
</event>
<event>
 5    1  0.1140254E+001  0.2742600E+03  0.7818608E-02  0.1098866E+00
         -1   -1    0    0    0  501 -0.00000000000E+00  0.00000000000E+00  0.16241140220E+02  0.16241140220E+02  0.00000000000E+00 0. -1.
          1   -1    0    0  501    0  0.00000000000E+00 -0.00000000000E+00 -0.11578394538E+04  0.11578394538E+04  0.00000000000E+00 0. -1.
         35    2    1    2    0    0  0.00000000000E+00  0.00000000000E+00 -0.11415983136E+04  0.11740805940E+04  0.27425997098E+03 0.  0.
         25    1    3    3    0    0  0.37831613706E+02  0.36211198022E+02 -0.39626889908E+03  0.41733861819E+03  0.12000000000E+03 0.  0.
         25    1    3    3    0    0 -0.37831613706E+02 -0.36211198022E+02 -0.74532941450E+03  0.75674197582E+03  0.12000000000E+03 0.  0.
<mgrwt>
<rscale>  0 0.27425997E+03</rscale>
<asrwt>0</asrwt>
<pdfrwt beam="1">  1        1 0.17812918E+00 0.27425997E+03</pdfrwt>
<pdfrwt beam="2">  1       -1 0.24986365E-02 0.27425997E+03</pdfrwt>
<totfact> 0.60590769E+03</totfact>
</mgrwt>
</event>
<event>
 5    1  0.1140254E+001  0.2763373E+03  0.7818608E-02  0.1097706E+00
         -2   -1    0    0    0  501 -0.00000000000E+00  0.00000000000E+00  0.10615005730E+02  0.10615005730E+02  0.00000000000E+00 0.  1.
          2   -1    0    0  501    0  0.00000000000E+00 -0.00000000000E+00 -0.17984519931E+04  0.17984519931E+04  0.00000000000E+00 0.  1.
         35    2    1    2    0    0  0.00000000000E+00  0.00000000000E+00 -0.17878369873E+04  0.18090669988E+04  0.27633731714E+03 0.  0.
         25    1    3    3    0    0 -0.59666888699E+02  0.31487761996E+02 -0.81674604516E+03  0.82826669560E+03  0.12000000000E+03 0.  0.
         25    1    3    3    0    0  0.59666888699E+02 -0.31487761996E+02 -0.97109094216E+03  0.98080030318E+03  0.12000000000E+03 0.  0.
<mgrwt>
<rscale>  0 0.27633732E+03</rscale>
<asrwt>0</asrwt>
<pdfrwt beam="1">  1        2 0.27668477E+00 0.27633732E+03</pdfrwt>
<pdfrwt beam="2">  1       -2 0.16330787E-02 0.27633732E+03</pdfrwt>
<totfact> 0.98768100E+03</totfact>
</mgrwt>
</event>
<event>
 5    1  0.1140254E+001  0.2751108E+03  0.7818608E-02  0.1098390E+00
         -1   -1    0    0    0  501 -0.00000000000E+00  0.00000000000E+00  0.31713442511E+02  0.31713442511E+02  0.00000000000E+00 0.  1.
          1   -1    0    0  501    0  0.00000000000E+00 -0.00000000000E+00 -0.59663938201E+03  0.59663938201E+03  0.00000000000E+00 0.  1.
         35    2    1    2    0    0  0.00000000000E+00  0.00000000000E+00 -0.56492593950E+03  0.62835282452E+03  0.27511080488E+03 0.  0.
         25    1    3    3    0    0 -0.57677824473E+02  0.33796224386E+02 -0.26590239781E+03  0.29928748951E+03  0.12000000000E+03 0.  0.
         25    1    3    3    0    0  0.57677824473E+02 -0.33796224386E+02 -0.29902354169E+03  0.32906533501E+03  0.12000000000E+03 0.  0.
<mgrwt>
<rscale>  0 0.27511080E+03</rscale>
<asrwt>0</asrwt>
<pdfrwt beam="1">  1        1 0.91790672E-01 0.27511080E+03</pdfrwt>
<pdfrwt beam="2">  1       -1 0.48789913E-02 0.27511080E+03</pdfrwt>
<totfact> 0.64492808E+03</totfact>
</mgrwt>
</event>
<event>
 5    1  0.1140254E+001  0.2749916E+03  0.7818608E-02  0.1098456E+00
          2   -1    0    0  501    0  0.00000000000E+00  0.00000000000E+00  0.67535485759E+03  0.67535485759E+03  0.00000000000E+00 0. -1.
         -2   -1    0    0    0  501 -0.00000000000E+00 -0.00000000000E+00 -0.27992829826E+02  0.27992829826E+02  0.00000000000E+00 0. -1.
         35    2    1    2    0    0  0.00000000000E+00  0.00000000000E+00  0.64736202776E+03  0.70334768741E+03  0.27499158969E+03 0.  0.
         25    1    3    3    0    0  0.53206324775E+02 -0.33713897420E+02  0.26438007217E+03  0.29709318813E+03  0.12000000000E+03 0.  0.
         25    1    3    3    0    0 -0.53206324775E+02  0.33713897420E+02  0.38298195559E+03  0.40625449928E+03  0.12000000000E+03 0.  0.
<mgrwt>
<rscale>  0 0.27499159E+03</rscale>
<asrwt>0</asrwt>
<pdfrwt beam="1">  1        2 0.10390074E+00 0.27499159E+03</pdfrwt>
<pdfrwt beam="2">  1       -2 0.43065897E-02 0.27499159E+03</pdfrwt>
<totfact> 0.10723081E+04</totfact>
</mgrwt>
</event>
<event>
 5    1  0.1140254E+001  0.2783933E+03  0.7818608E-02  0.1096570E+00
         -2   -1    0    0    0  501 -0.00000000000E+00  0.00000000000E+00  0.19413211767E+02  0.19413211767E+02  0.00000000000E+00 0. -1.
          2   -1    0    0  501    0  0.00000000000E+00 -0.00000000000E+00 -0.99806841409E+03  0.99806841409E+03  0.00000000000E+00 0. -1.
         35    2    1    2    0    0  0.00000000000E+00  0.00000000000E+00 -0.97865520232E+03  0.10174816259E+04  0.27839334389E+03 0.  0.
         25    1    3    3    0    0 -0.67351701544E+00  0.60629532490E+02 -0.35758515282E+03  0.38202556898E+03  0.12000000000E+03 0.  0.
         25    1    3    3    0    0  0.67351701544E+00 -0.60629532490E+02 -0.62107004950E+03  0.63545605688E+03  0.12000000000E+03 0.  0.
<mgrwt>
<rscale>  0 0.27839334E+03</rscale>
<asrwt>0</asrwt>
<pdfrwt beam="1">  1        2 0.15354906E+00 0.27839334E+03</pdfrwt>
<pdfrwt beam="2">  1       -2 0.29866465E-02 0.27839334E+03</pdfrwt>
<totfact> 0.11204263E+04</totfact>
</mgrwt>
</event>
<event>
 5    1  0.1140254E+001  0.2743486E+03  0.7818608E-02  0.1098816E+00
         -4   -1    0    0    0  501 -0.00000000000E+00  0.00000000000E+00  0.39294904451E+03  0.39294904451E+03  0.00000000000E+00 0. -1.
          4   -1    0    0  501    0  0.00000000000E+00 -0.00000000000E+00 -0.47886095099E+02  0.47886095099E+02  0.00000000000E+00 0. -1.
         35    2    1    2    0    0  0.00000000000E+00  0.00000000000E+00  0.34506294941E+03  0.44083513961E+03  0.27434864909E+03 0.  0.
         25    1    3    3    0    0 -0.34081649017E+01 -0.52423474950E+02  0.23793923235E+03  0.27161537992E+03  0.12000000000E+03 0.  0.
         25    1    3    3    0    0  0.34081649017E+01  0.52423474950E+02  0.10712371705E+03  0.16921975969E+03  0.12000000000E+03 0.  0.
<mgrwt>
<rscale>  0 0.27434865E+03</rscale>
<asrwt>0</asrwt>
<pdfrwt beam="1">  1        4 0.73670918E-02 0.27434865E+03</pdfrwt>
<pdfrwt beam="2">  1       -4 0.60453697E-01 0.27434865E+03</pdfrwt>
<totfact> 0.61942185E+02</totfact>
</mgrwt>
</event>
<event>
 5    1  0.1140254E+001  0.2690343E+03  0.7818608E-02  0.1101834E+00
          2   -1    0    0  501    0  0.00000000000E+00  0.00000000000E+00  0.74505846256E+03  0.74505846256E+03  0.00000000000E+00 0. -1.
         -2   -1    0    0    0  501 -0.00000000000E+00 -0.00000000000E+00 -0.24286498400E+02  0.24286498400E+02  0.00000000000E+00 0. -1.
         35    2    1    2    0    0  0.00000000000E+00  0.00000000000E+00  0.72077196416E+03  0.76934496096E+03  0.26903428152E+03 0.  0.
         25    1    3    3    0    0  0.19804773710E+02 -0.50147090276E+02  0.44065527470E+03  0.45987392930E+03  0.12000000000E+03 0.  0.
         25    1    3    3    0    0 -0.19804773710E+02  0.50147090276E+02  0.28011668946E+03  0.30947103166E+03  0.12000000000E+03 0.  0.
<mgrwt>
<rscale>  0 0.26903428E+03</rscale>
<asrwt>0</asrwt>
<pdfrwt beam="1">  1        2 0.11462436E+00 0.26903428E+03</pdfrwt>
<pdfrwt beam="2">  1       -2 0.37363849E-02 0.26903428E+03</pdfrwt>
<totfact> 0.11769451E+04</totfact>
</mgrwt>
</event>
<event>
 5    1  0.1140254E+001  0.2622865E+03  0.7818608E-02  0.1105777E+00
          4   -1    0    0  501    0  0.00000000000E+00  0.00000000000E+00  0.16618768044E+02  0.16618768044E+02  0.00000000000E+00 0.  1.
         -4   -1    0    0    0  501 -0.00000000000E+00 -0.00000000000E+00 -0.10348876330E+04  0.10348876330E+04  0.00000000000E+00 0.  1.
         35    2    1    2    0    0  0.00000000000E+00  0.00000000000E+00 -0.10182688649E+04  0.10515064010E+04  0.26228654197E+03 0.  0.
         25    1    3    3    0    0 -0.43003462297E+02  0.89089550663E+01 -0.62737544803E+03  0.64025668294E+03  0.12000000000E+03 0.  0.
         25    1    3    3    0    0  0.43003462297E+02 -0.89089550663E+01 -0.39089341692E+03  0.41124971810E+03  0.12000000000E+03 0.  0.
<mgrwt>
<rscale>  0 0.26228654E+03</rscale>
<asrwt>0</asrwt>
<pdfrwt beam="1">  1        4 0.25567323E-02 0.26228654E+03</pdfrwt>
<pdfrwt beam="2">  1       -4 0.15921356E+00 0.26228654E+03</pdfrwt>
<totfact> 0.34936829E+02</totfact>
</mgrwt>
</event>
<event>
 5    1  0.1140254E+001  0.2767373E+03  0.7818608E-02  0.1097484E+00
         -1   -1    0    0    0  501 -0.00000000000E+00  0.00000000000E+00  0.20840703825E+03  0.20840703825E+03  0.00000000000E+00 0.  1.
          1   -1    0    0  501    0  0.00000000000E+00 -0.00000000000E+00 -0.91867769792E+02  0.91867769792E+02  0.00000000000E+00 0.  1.
         35    2    1    2    0    0  0.00000000000E+00  0.00000000000E+00  0.11653926846E+03  0.30027480804E+03  0.27673734705E+03 0.  0.
         25    1    3    3    0    0 -0.14922496475E+02 -0.33009902862E+02 -0.53107492835E+01  0.12546130338E+03  0.12000000000E+03 0.  0.
         25    1    3    3    0    0  0.14922496475E+02  0.33009902862E+02  0.12185001774E+03  0.17481350466E+03  0.12000000000E+03 0.  0.
<mgrwt>
<rscale>  0 0.27673735E+03</rscale>
<asrwt>0</asrwt>
<pdfrwt beam="1">  1        1 0.14133503E-01 0.27673735E+03</pdfrwt>
<pdfrwt beam="2">  1       -1 0.32062621E-01 0.27673735E+03</pdfrwt>
<totfact> 0.36559416E+03</totfact>
</mgrwt>
</event>
<event>
 5    1  0.1140254E+001  0.2670080E+03  0.7818608E-02  0.1103004E+00
         -1   -1    0    0    0  501 -0.00000000000E+00  0.00000000000E+00  0.10698682172E+02  0.10698682172E+02  0.00000000000E+00 0. -1.
          1   -1    0    0  501    0  0.00000000000E+00 -0.00000000000E+00 -0.16659360400E+04  0.16659360400E+04  0.00000000000E+00 0. -1.
         35    2    1    2    0    0  0.00000000000E+00  0.00000000000E+00 -0.16552373578E+04  0.16766347222E+04  0.26700801644E+03 0.  0.
         25    1    3    3    0    0  0.54927281569E+02  0.18203709247E+02 -0.77326012814E+03  0.78465253907E+03  0.12000000000E+03 0.  0.
         25    1    3    3    0    0 -0.54927281569E+02 -0.18203709247E+02 -0.88197722970E+03  0.89198218312E+03  0.12000000000E+03 0.  0.
<mgrwt>
<rscale>  0 0.26700802E+03</rscale>
<asrwt>0</asrwt>
<pdfrwt beam="1">  1        1 0.25629767E+00 0.26700802E+03</pdfrwt>
<pdfrwt beam="2">  1       -1 0.16459523E-02 0.26700802E+03</pdfrwt>
<totfact> 0.50713259E+03</totfact>
</mgrwt>
</event>
<event>
 5    1  0.1140254E+001  0.2758437E+03  0.7818608E-02  0.1097981E+00
         -1   -1    0    0    0  501 -0.00000000000E+00  0.00000000000E+00  0.59021942254E+03  0.59021942254E+03  0.00000000000E+00 0.  1.
          1   -1    0    0  501    0  0.00000000000E+00 -0.00000000000E+00 -0.32229432262E+02  0.32229432262E+02  0.00000000000E+00 0.  1.
         35    2    1    2    0    0  0.00000000000E+00  0.00000000000E+00  0.55798999027E+03  0.62244885480E+03  0.27584370139E+03 0.  0.
         25    1    3    3    0    0  0.22875057451E+02  0.41204322530E+02  0.38957341061E+03  0.41035168661E+03  0.12000000000E+03 0.  0.
         25    1    3    3    0    0 -0.22875057451E+02 -0.41204322530E+02  0.16841657967E+03  0.21209716819E+03  0.12000000000E+03 0.  0.
<mgrwt>
<rscale>  0 0.27584370E+03</rscale>
<asrwt>0</asrwt>
<pdfrwt beam="1">  1        1 0.49583746E-02 0.27584370E+03</pdfrwt>
<pdfrwt beam="2">  1       -1 0.90802980E-01 0.27584370E+03</pdfrwt>
<totfact> 0.20962767E+03</totfact>
</mgrwt>
</event>
<event>
 5    1  0.1140254E+001  0.2767514E+03  0.7818608E-02  0.1097477E+00
         -1   -1    0    0    0  501 -0.00000000000E+00  0.00000000000E+00  0.78408897594E+01  0.78408897594E+01  0.00000000000E+00 0. -1.
          1   -1    0    0  501    0  0.00000000000E+00 -0.00000000000E+00 -0.24420489927E+04  0.24420489927E+04  0.00000000000E+00 0. -1.
         35    2    1    2    0    0  0.00000000000E+00  0.00000000000E+00 -0.24342081030E+04  0.24498898825E+04  0.27675141871E+03 0.  0.
         25    1    3    3    0    0  0.35272848412E+02 -0.24686837041E+02 -0.74086750839E+03  0.75175679495E+03  0.12000000000E+03 0.  0.
         25    1    3    3    0    0 -0.35272848412E+02  0.24686837041E+02 -0.16933405946E+04  0.16981330876E+04  0.12000000000E+03 0.  0.
<mgrwt>
<rscale>  0 0.27675142E+03</rscale>
<asrwt>0</asrwt>
<pdfrwt beam="1">  1        1 0.37569948E+00 0.27675142E+03</pdfrwt>
<pdfrwt beam="2">  1       -1 0.12062919E-02 0.27675142E+03</pdfrwt>
<totfact> 0.24827431E+03</totfact>
</mgrwt>
</event>
<event>
 5    1  0.1140254E+001  0.2743999E+03  0.7818608E-02  0.1098788E+00
         -1   -1    0    0    0  501 -0.00000000000E+00  0.00000000000E+00  0.38570066515E+02  0.38570066515E+02  0.00000000000E+00 0. -1.
          1   -1    0    0  501    0  0.00000000000E+00 -0.00000000000E+00 -0.48804219959E+03  0.48804219959E+03  0.00000000000E+00 0. -1.
         35    2    1    2    0    0  0.00000000000E+00  0.00000000000E+00 -0.44947213308E+03  0.52661226611E+03  0.27439985496E+03 0.  0.
         25    1    3    3    0    0 -0.12590322082E+01 -0.54709045070E+02 -0.15218449749E+03  0.20138218901E+03  0.12000000000E+03 0.  0.
         25    1    3    3    0    0  0.12590322082E+01  0.54709045070E+02 -0.29728763558E+03  0.32523007709E+03  0.12000000000E+03 0.  0.
<mgrwt>
<rscale>  0 0.27439985E+03</rscale>
<asrwt>0</asrwt>
<pdfrwt beam="1">  1        1 0.75083416E-01 0.27439985E+03</pdfrwt>
<pdfrwt beam="2">  1       -1 0.59338563E-02 0.27439985E+03</pdfrwt>
<totfact> 0.63063248E+03</totfact>
</mgrwt>
</event>
<event>
 5    1  0.1140254E+001  0.2743296E+03  0.7818608E-02  0.1098827E+00
         -1   -1    0    0    0  501 -0.00000000000E+00  0.00000000000E+00  0.41808876457E+02  0.41808876457E+02  0.00000000000E+00 0. -1.
          1   -1    0    0  501    0  0.00000000000E+00 -0.00000000000E+00 -0.45000459222E+03  0.45000459222E+03  0.00000000000E+00 0. -1.
         35    2    1    2    0    0  0.00000000000E+00  0.00000000000E+00 -0.40819571576E+03  0.49181346868E+03  0.27432962947E+03 0.  0.
         25    1    3    3    0    0  0.27330572362E+02  0.54655939034E+02 -0.15734936208E+03  0.20710638234E+03  0.12000000000E+03 0.  0.
         25    1    3    3    0    0 -0.27330572362E+02 -0.54655939034E+02 -0.25084635368E+03  0.28470708634E+03  0.12000000000E+03 0.  0.
<mgrwt>
<rscale>  0 0.27432963E+03</rscale>
<asrwt>0</asrwt>
<pdfrwt beam="1">  1        1 0.69231471E-01 0.27432963E+03</pdfrwt>
<pdfrwt beam="2">  1       -1 0.64321353E-02 0.27432963E+03</pdfrwt>
<totfact> 0.62108179E+03</totfact>
</mgrwt>
</event>
<event>
 5    1  0.1140254E+001  0.2745740E+03  0.7818608E-02  0.1098690E+00
         -2   -1    0    0    0  501 -0.00000000000E+00  0.00000000000E+00  0.32039746632E+02  0.32039746632E+02  0.00000000000E+00 0.  1.
          2   -1    0    0  501    0  0.00000000000E+00 -0.00000000000E+00 -0.58826061890E+03  0.58826061890E+03  0.00000000000E+00 0.  1.
         35    2    1    2    0    0  0.00000000000E+00  0.00000000000E+00 -0.55622087227E+03  0.62030036554E+03  0.27457400593E+03 0.  0.
         25    1    3    3    0    0 -0.50419045515E+02  0.27234034312E+02 -0.20103615506E+03  0.24103798128E+03  0.12000000000E+03 0.  0.
         25    1    3    3    0    0  0.50419045515E+02 -0.27234034312E+02 -0.35518471721E+03  0.37926238426E+03  0.12000000000E+03 0.  0.
<mgrwt>
<rscale>  0 0.27457401E+03</rscale>
<asrwt>0</asrwt>
<pdfrwt beam="1">  1        2 0.90501640E-01 0.27457401E+03</pdfrwt>
<pdfrwt beam="2">  1       -2 0.49291915E-02 0.27457401E+03</pdfrwt>
<totfact> 0.10282461E+04</totfact>
</mgrwt>
</event>
<event>
 5    1  0.1140254E+001  0.2762218E+03  0.7818608E-02  0.1097771E+00
         -2   -1    0    0    0  501 -0.00000000000E+00  0.00000000000E+00  0.17966029063E+02  0.17966029063E+02  0.00000000000E+00 0. -1.
          2   -1    0    0  501    0  0.00000000000E+00 -0.00000000000E+00 -0.10617047486E+04  0.10617047486E+04  0.00000000000E+00 0. -1.
         35    2    1    2    0    0  0.00000000000E+00  0.00000000000E+00 -0.10437387196E+04  0.10796707777E+04  0.27622178314E+03 0.  0.
         25    1    3    3    0    0  0.35298312209E+02  0.52427073746E+02 -0.41993897263E+03  0.44129730300E+03  0.12000000000E+03 0.  0.
         25    1    3    3    0    0 -0.35298312209E+02 -0.52427073746E+02 -0.62379974693E+03  0.63837347468E+03  0.12000000000E+03 0.  0.
<mgrwt>
<rscale>  0 0.27622178E+03</rscale>
<asrwt>0</asrwt>
<pdfrwt beam="1">  1        2 0.16333915E+00 0.27622178E+03</pdfrwt>
<pdfrwt beam="2">  1       -2 0.27640052E-02 0.27622178E+03</pdfrwt>
<totfact> 0.11503137E+04</totfact>
</mgrwt>
</event>
<event>
 5    1  0.1140254E+001  0.2753096E+03  0.7818608E-02  0.1098279E+00
         -1   -1    0    0    0  501 -0.00000000000E+00  0.00000000000E+00  0.10601930489E+03  0.10601930489E+03  0.00000000000E+00 0. -1.
          1   -1    0    0  501    0  0.00000000000E+00 -0.00000000000E+00 -0.17873010143E+03  0.17873010143E+03  0.00000000000E+00 0. -1.
         35    2    1    2    0    0  0.00000000000E+00  0.00000000000E+00 -0.72710796538E+02  0.28474940633E+03  0.27530957933E+03 0.  0.
         25    1    3    3    0    0  0.35292310955E+02 -0.56552372450E+02 -0.25750890043E+02  0.13966684066E+03  0.12000000000E+03 0.  0.
         25    1    3    3    0    0 -0.35292310955E+02  0.56552372450E+02 -0.46959906495E+02  0.14508256567E+03  0.12000000000E+03 0.  0.
<mgrwt>
<rscale>  0 0.27530958E+03</rscale>
<asrwt>0</asrwt>
<pdfrwt beam="1">  1        1 0.27496938E-01 0.27530958E+03</pdfrwt>
<pdfrwt beam="2">  1       -1 0.16310662E-01 0.27530958E+03</pdfrwt>
<totfact> 0.47247898E+03</totfact>
</mgrwt>
</event>
<event>
 5    1  0.1140254E+001  0.2719518E+03  0.7818608E-02  0.1100168E+00
         -1   -1    0    0    0  501 -0.00000000000E+00  0.00000000000E+00  0.25156308832E+02  0.25156308832E+02  0.00000000000E+00 0. -1.
          1   -1    0    0  501    0  0.00000000000E+00 -0.00000000000E+00 -0.73498240734E+03  0.73498240734E+03  0.00000000000E+00 0. -1.
         35    2    1    2    0    0  0.00000000000E+00  0.00000000000E+00 -0.70982609851E+03  0.76013871617E+03  0.27195179297E+03 0.  0.
         25    1    3    3    0    0  0.17417142154E+02 -0.61325019572E+02 -0.34084562001E+03  0.36693303415E+03  0.12000000000E+03 0.  0.
         25    1    3    3    0    0 -0.17417142154E+02  0.61325019572E+02 -0.36898047850E+03  0.39320568203E+03  0.12000000000E+03 0.  0.
<mgrwt>
<rscale>  0 0.27195179E+03</rscale>
<asrwt>0</asrwt>
<pdfrwt beam="1">  1        1 0.11307422E+00 0.27195179E+03</pdfrwt>
<pdfrwt beam="2">  1       -1 0.38702013E-02 0.27195179E+03</pdfrwt>
<totfact> 0.67541563E+03</totfact>
</mgrwt>
</event>
<event>
 5    1  0.1140254E+001  0.2756853E+03  0.7818608E-02  0.1098069E+00
          1   -1    0    0  501    0  0.00000000000E+00  0.00000000000E+00  0.17510280659E+02  0.17510280659E+02  0.00000000000E+00 0. -1.
         -1   -1    0    0    0  501 -0.00000000000E+00 -0.00000000000E+00 -0.10851106766E+04  0.10851106766E+04  0.00000000000E+00 0. -1.
         35    2    1    2    0    0  0.00000000000E+00  0.00000000000E+00 -0.10676003959E+04  0.11026209573E+04  0.27568527341E+03 0.  0.
         25    1    3    3    0    0 -0.57300650272E+02  0.62372324741E+01 -0.39080109936E+03  0.41285320254E+03  0.12000000000E+03 0.  0.
         25    1    3    3    0    0  0.57300650272E+02 -0.62372324741E+01 -0.67679929658E+03  0.68976775471E+03  0.12000000000E+03 0.  0.
<mgrwt>
<rscale>  0 0.27568527E+03</rscale>
<asrwt>0</asrwt>
<pdfrwt beam="1">  1        1 0.26938895E-02 0.27568527E+03</pdfrwt>
<pdfrwt beam="2">  1       -1 0.16694010E+00 0.27568527E+03</pdfrwt>
<totfact> 0.11232203E+03</totfact>
</mgrwt>
</event>
<event>
 5    1  0.1140254E+001  0.2756452E+03  0.7818608E-02  0.1098091E+00
          2   -1    0    0  501    0  0.00000000000E+00  0.00000000000E+00  0.77975124426E+02  0.77975124426E+02  0.00000000000E+00 0.  1.
         -2   -1    0    0    0  501 -0.00000000000E+00 -0.00000000000E+00 -0.24360425945E+03  0.24360425945E+03  0.00000000000E+00 0.  1.
         35    2    1    2    0    0  0.00000000000E+00  0.00000000000E+00 -0.16562913502E+03  0.32157938388E+03  0.27564522446E+03 0.  0.
         25    1    3    3    0    0 -0.13194078536E+02  0.52506863819E+02 -0.13040468029E+03  0.18530093119E+03  0.12000000000E+03 0.  0.
         25    1    3    3    0    0  0.13194078536E+02 -0.52506863819E+02 -0.35224454731E+02  0.13627845269E+03  0.12000000000E+03 0.  0.
<mgrwt>
<rscale>  0 0.27564522E+03</rscale>
<asrwt>0</asrwt>
<pdfrwt beam="1">  1        2 0.11996173E-01 0.27564522E+03</pdfrwt>
<pdfrwt beam="2">  1       -2 0.37477578E-01 0.27564522E+03</pdfrwt>
<totfact> 0.34341288E+03</totfact>
</mgrwt>
</event>
<event>
 5    1  0.1140254E+001  0.2756174E+03  0.7818608E-02  0.1098107E+00
          4   -1    0    0  501    0  0.00000000000E+00  0.00000000000E+00  0.57968315499E+02  0.57968315499E+02  0.00000000000E+00 0.  1.
         -4   -1    0    0    0  501 -0.00000000000E+00 -0.00000000000E+00 -0.32761415784E+03  0.32761415784E+03  0.00000000000E+00 0.  1.
         35    2    1    2    0    0  0.00000000000E+00  0.00000000000E+00 -0.26964584234E+03  0.38558247334E+03  0.27561742226E+03 0.  0.
         25    1    3    3    0    0  0.30767296807E+02 -0.57194504464E+02 -0.10778959390E+03  0.17388626871E+03  0.12000000000E+03 0.  0.
         25    1    3    3    0    0 -0.30767296807E+02  0.57194504464E+02 -0.16185624844E+03  0.21169620463E+03  0.12000000000E+03 0.  0.
<mgrwt>
<rscale>  0 0.27561742E+03</rscale>
<asrwt>0</asrwt>
<pdfrwt beam="1">  1        4 0.89182025E-02 0.27561742E+03</pdfrwt>
<pdfrwt beam="2">  1       -4 0.50402178E-01 0.27561742E+03</pdfrwt>
<totfact> 0.65859938E+02</totfact>
</mgrwt>
</event>
<event>
 5    1  0.1140254E+001  0.2754629E+03  0.7818608E-02  0.1098193E+00
          2   -1    0    0  501    0  0.00000000000E+00  0.00000000000E+00  0.82223165090E+03  0.82223165090E+03  0.00000000000E+00 0.  1.
         -2   -1    0    0    0  501 -0.00000000000E+00 -0.00000000000E+00 -0.23071301743E+02  0.23071301743E+02  0.00000000000E+00 0.  1.
         35    2    1    2    0    0  0.00000000000E+00  0.00000000000E+00  0.79916034916E+03  0.84530295265E+03  0.27546291599E+03 0.  0.
         25    1    3    3    0    0  0.35503195950E+02  0.52556263418E+02  0.47137094676E+03  0.49052340127E+03  0.12000000000E+03 0.  0.
         25    1    3    3    0    0 -0.35503195950E+02 -0.52556263418E+02  0.32778940240E+03  0.35477955138E+03  0.12000000000E+03 0.  0.
<mgrwt>
<rscale>  0 0.27546292E+03</rscale>
<asrwt>0</asrwt>
<pdfrwt beam="1">  1        2 0.12649715E+00 0.27546292E+03</pdfrwt>
<pdfrwt beam="2">  1       -2 0.35494317E-02 0.27546292E+03</pdfrwt>
<totfact> 0.11233319E+04</totfact>
</mgrwt>
</event>
<event>
 5    1  0.1140254E+001  0.2745615E+03  0.7818608E-02  0.1098697E+00
         -2   -1    0    0    0  501 -0.00000000000E+00  0.00000000000E+00  0.13588093187E+02  0.13588093187E+02  0.00000000000E+00 0.  1.
          2   -1    0    0  501    0  0.00000000000E+00 -0.00000000000E+00 -0.13869502062E+04  0.13869502062E+04  0.00000000000E+00 0.  1.
         35    2    1    2    0    0  0.00000000000E+00  0.00000000000E+00 -0.13733621130E+04  0.14005382994E+04  0.27456153152E+03 0.  0.
         25    1    3    3    0    0 -0.65537378410E+02 -0.27597545651E+01 -0.74773225288E+03  0.76013570250E+03  0.12000000000E+03 0.  0.
         25    1    3    3    0    0  0.65537378410E+02  0.27597545651E+01 -0.62562986015E+03  0.64040259691E+03  0.12000000000E+03 0.  0.
<mgrwt>
<rscale>  0 0.27456153E+03</rscale>
<asrwt>0</asrwt>
<pdfrwt beam="1">  1        2 0.21337690E+00 0.27456153E+03</pdfrwt>
<pdfrwt beam="2">  1       -2 0.20904764E-02 0.27456153E+03</pdfrwt>
<totfact> 0.11372915E+04</totfact>
</mgrwt>
</event>
<event>
 5    1  0.1140254E+001  0.2747869E+03  0.7818608E-02  0.1098571E+00
         -2   -1    0    0    0  501 -0.00000000000E+00  0.00000000000E+00  0.18980637263E+03  0.18980637263E+03  0.00000000000E+00 0.  1.
          2   -1    0    0  501    0  0.00000000000E+00 -0.00000000000E+00 -0.99453769261E+02  0.99453769261E+02  0.00000000000E+00 0.  1.
         35    2    1    2    0    0  0.00000000000E+00  0.00000000000E+00  0.90352603371E+02  0.28926014189E+03  0.27478689334E+03 0.  0.
         25    1    3    3    0    0 -0.63487066891E+02  0.56973529924E+01  0.66592182268E+02  0.15131948398E+03  0.12000000000E+03 0.  0.
         25    1    3    3    0    0  0.63487066891E+02 -0.56973529924E+01  0.23760421102E+02  0.13794065791E+03  0.12000000000E+03 0.  0.
<mgrwt>
<rscale>  0 0.27478689E+03</rscale>
<asrwt>0</asrwt>
<pdfrwt beam="1">  1        2 0.15300580E-01 0.27478689E+03</pdfrwt>
<pdfrwt beam="2">  1       -2 0.29200980E-01 0.27478689E+03</pdfrwt>
<totfact> 0.40654377E+03</totfact>
</mgrwt>
</event>
<event>
 5    1  0.1140254E+001  0.2755573E+03  0.7818608E-02  0.1098141E+00
         -1   -1    0    0    0  501 -0.00000000000E+00  0.00000000000E+00  0.79908505130E+02  0.79908505130E+02  0.00000000000E+00 0. -1.
          1   -1    0    0  501    0  0.00000000000E+00 -0.00000000000E+00 -0.23755859127E+03  0.23755859127E+03  0.00000000000E+00 0. -1.
         35    2    1    2    0    0  0.00000000000E+00  0.00000000000E+00 -0.15765008614E+03  0.31746709640E+03  0.27555726743E+03 0.  0.
         25    1    3    3    0    0 -0.39570486573E+02  0.52787900241E+02 -0.96318859595E+02  0.16742075299E+03  0.12000000000E+03 0.  0.
         25    1    3    3    0    0  0.39570486573E+02 -0.52787900241E+02 -0.61331226543E+02  0.15004634340E+03  0.12000000000E+03 0.  0.
<mgrwt>
<rscale>  0 0.27555727E+03</rscale>
<asrwt>0</asrwt>
<pdfrwt beam="1">  1        1 0.36547475E-01 0.27555727E+03</pdfrwt>
<pdfrwt beam="2">  1       -1 0.12293616E-01 0.27555727E+03</pdfrwt>
<totfact> 0.51609492E+03</totfact>
</mgrwt>
</event>
<event>
 5    1  0.1140254E+001  0.2750196E+03  0.7818608E-02  0.1098441E+00
         -2   -1    0    0    0  501 -0.00000000000E+00  0.00000000000E+00  0.47766923472E+01  0.47766923472E+01  0.00000000000E+00 0.  1.
          2   -1    0    0  501    0  0.00000000000E+00 -0.00000000000E+00 -0.39585859226E+04  0.39585859226E+04  0.00000000000E+00 0.  1.
         35    2    1    2    0    0  0.00000000000E+00  0.00000000000E+00 -0.39538092302E+04  0.39633626149E+04  0.27501961444E+03 0.  0.
         25    1    3    3    0    0  0.46877527637E+02 -0.38442609148E+02 -0.15608199863E+04  0.15665996191E+04  0.12000000000E+03 0.  0.
         25    1    3    3    0    0 -0.46877527637E+02  0.38442609148E+02 -0.23929892439E+04  0.23967629959E+04  0.12000000000E+03 0.  0.
<mgrwt>
<rscale>  0 0.27501961E+03</rscale>
<asrwt>0</asrwt>
<pdfrwt beam="1">  1        2 0.60901091E+00 0.27501961E+03</pdfrwt>
<pdfrwt beam="2">  1       -2 0.73487853E-03 0.27501961E+03</pdfrwt>
<totfact> 0.16028802E+03</totfact>
</mgrwt>
</event>
<event>
 5    1  0.1140254E+001  0.2749494E+03  0.7818608E-02  0.1098480E+00
         -2   -1    0    0    0  501 -0.00000000000E+00  0.00000000000E+00  0.15388377418E+02  0.15388377418E+02  0.00000000000E+00 0.  1.
          2   -1    0    0  501    0  0.00000000000E+00 -0.00000000000E+00 -0.12281535909E+04  0.12281535909E+04  0.00000000000E+00 0.  1.
         35    2    1    2    0    0  0.00000000000E+00  0.00000000000E+00 -0.12127652135E+04  0.12435419684E+04  0.27494938432E+03 0.  0.
         25    1    3    3    0    0 -0.36310715183E+02 -0.21698712599E+02 -0.37093653721E+03  0.39215203277E+03  0.12000000000E+03 0.  0.
         25    1    3    3    0    0  0.36310715183E+02  0.21698712599E+02 -0.84182867631E+03  0.85138993559E+03  0.12000000000E+03 0.  0.
<mgrwt>
<rscale>  0 0.27494938E+03</rscale>
<asrwt>0</asrwt>
<pdfrwt beam="1">  1        2 0.18894675E+00 0.27494938E+03</pdfrwt>
<pdfrwt beam="2">  1       -2 0.23674422E-02 0.27494938E+03</pdfrwt>
<totfact> 0.11588505E+04</totfact>
</mgrwt>
</event>
<event>
 5    1  0.1140254E+001  0.2755279E+03  0.7818608E-02  0.1098157E+00
          1   -1    0    0  501    0  0.00000000000E+00  0.00000000000E+00  0.58187831745E+03  0.58187831745E+03  0.00000000000E+00 0.  1.
         -1   -1    0    0    0  501 -0.00000000000E+00 -0.00000000000E+00 -0.32616619616E+02  0.32616619616E+02  0.00000000000E+00 0.  1.
         35    2    1    2    0    0  0.00000000000E+00  0.00000000000E+00  0.54926169783E+03  0.61449493706E+03  0.27552788420E+03 0.  0.
         25    1    3    3    0    0 -0.73110939401E+01 -0.23719179227E+02  0.41502748056E+03  0.43273994637E+03  0.12000000000E+03 0.  0.
         25    1    3    3    0    0  0.73110939401E+01  0.23719179227E+02  0.13423421727E+03  0.18175499070E+03  0.12000000000E+03 0.  0.
<mgrwt>
<rscale>  0 0.27552788E+03</rscale>
<asrwt>0</asrwt>
<pdfrwt beam="1">  1        1 0.89519733E-01 0.27552788E+03</pdfrwt>
<pdfrwt beam="2">  1       -1 0.50179419E-02 0.27552788E+03</pdfrwt>
<totfact> 0.64017743E+03</totfact>
</mgrwt>
</event>
<event>
 5    1  0.1140254E+001  0.2747977E+03  0.7818608E-02  0.1098565E+00
         -1   -1    0    0    0  501 -0.00000000000E+00  0.00000000000E+00  0.13753874661E+04  0.13753874661E+04  0.00000000000E+00 0.  1.
          1   -1    0    0  501    0  0.00000000000E+00 -0.00000000000E+00 -0.13725909845E+02  0.13725909845E+02  0.00000000000E+00 0.  1.
         35    2    1    2    0    0  0.00000000000E+00  0.00000000000E+00  0.13616615562E+04  0.13891133759E+04  0.27479770276E+03 0.  0.
         25    1    3    3    0    0 -0.64683928848E+02 -0.98290069530E+01  0.60973162147E+03  0.62486260110E+03  0.12000000000E+03 0.  0.
         25    1    3    3    0    0  0.64683928848E+02  0.98290069530E+01  0.75192993474E+03  0.76425077480E+03  0.12000000000E+03 0.  0.
<mgrwt>
<rscale>  0 0.27479770E+03</rscale>
<asrwt>0</asrwt>
<pdfrwt beam="1">  1        1 0.21116795E-02 0.27479770E+03</pdfrwt>
<pdfrwt beam="2">  1       -1 0.21159796E+00 0.27479770E+03</pdfrwt>
<totfact> 0.78357087E+02</totfact>
</mgrwt>
</event>
<event>
 5    1  0.1140254E+001  0.2748586E+03  0.7818608E-02  0.1098531E+00
          2   -1    0    0  501    0  0.00000000000E+00  0.00000000000E+00  0.16722668809E+04  0.16722668809E+04  0.00000000000E+00 0. -1.
         -2   -1    0    0    0  501 -0.00000000000E+00 -0.00000000000E+00 -0.11294138039E+02  0.11294138039E+02  0.00000000000E+00 0. -1.
         35    2    1    2    0    0  0.00000000000E+00  0.00000000000E+00  0.16609727428E+04  0.16835610189E+04  0.27485860358E+03 0.  0.
         25    1    3    3    0    0 -0.40732901706E+02  0.51883214100E+02  0.90185883985E+03  0.91219537611E+03  0.12000000000E+03 0.  0.
         25    1    3    3    0    0  0.40732901706E+02 -0.51883214100E+02  0.75911390300E+03  0.77136564281E+03  0.12000000000E+03 0.  0.
<mgrwt>
<rscale>  0 0.27485860E+03</rscale>
<asrwt>0</asrwt>
<pdfrwt beam="1">  1        2 0.25727163E+00 0.27485860E+03</pdfrwt>
<pdfrwt beam="2">  1       -2 0.17375610E-02 0.27485860E+03</pdfrwt>
<totfact> 0.10506938E+04</totfact>
</mgrwt>
</event>
<event>
 5    1  0.1140254E+001  0.2752246E+03  0.7818608E-02  0.1098326E+00
          3   -1    0    0  501    0  0.00000000000E+00  0.00000000000E+00  0.66408473160E+01  0.66408473160E+01  0.00000000000E+00 0. -1.
         -3   -1    0    0    0  501 -0.00000000000E+00 -0.00000000000E+00 -0.28516165830E+04  0.28516165830E+04  0.00000000000E+00 0. -1.
         35    2    1    2    0    0  0.00000000000E+00  0.00000000000E+00 -0.28449757357E+04  0.28582574304E+04  0.27522463794E+03 0.  0.
         25    1    3    3    0    0 -0.56798425454E+02 -0.35594783950E+02 -0.14914540287E+04  0.14977744054E+04  0.12000000000E+03 0.  0.
         25    1    3    3    0    0  0.56798425454E+02  0.35594783950E+02 -0.13535217071E+04  0.13604830250E+04  0.12000000000E+03 0.  0.
<mgrwt>
<rscale>  0 0.27522464E+03</rscale>
<asrwt>0</asrwt>
<pdfrwt beam="1">  1        3 0.10216706E-02 0.27522464E+03</pdfrwt>
<pdfrwt beam="2">  1       -3 0.43870947E+00 0.27522464E+03</pdfrwt>
<totfact> 0.53561539E+01</totfact>
</mgrwt>
</event>
<event>
 5    1  0.1140254E+001  0.2760443E+03  0.7818608E-02  0.1097869E+00
          2   -1    0    0  501    0  0.00000000000E+00  0.00000000000E+00  0.12063732581E+04  0.12063732581E+04  0.00000000000E+00 0.  1.
         -2   -1    0    0    0  501 -0.00000000000E+00 -0.00000000000E+00 -0.15791226078E+02  0.15791226078E+02  0.00000000000E+00 0.  1.
         35    2    1    2    0    0  0.00000000000E+00  0.00000000000E+00  0.11905820320E+04  0.12221644842E+04  0.27604429249E+03 0.  0.
         25    1    3    3    0    0  0.58526122872E+01 -0.18298042530E+02  0.88497574533E+03  0.89328110987E+03  0.12000000000E+03 0.  0.
         25    1    3    3    0    0 -0.58526122872E+01  0.18298042530E+02  0.30560628672E+03  0.32888337434E+03  0.12000000000E+03 0.  0.
<mgrwt>
<rscale>  0 0.27604429E+03</rscale>
<asrwt>0</asrwt>
<pdfrwt beam="1">  1        2 0.18559581E+00 0.27604429E+03</pdfrwt>
<pdfrwt beam="2">  1       -2 0.24294203E-02 0.27604429E+03</pdfrwt>
<totfact> 0.11476279E+04</totfact>
</mgrwt>
</event>
<event>
 5    1  0.1140254E+001  0.2751138E+03  0.7818608E-02  0.1098388E+00
         -2   -1    0    0    0  501 -0.00000000000E+00  0.00000000000E+00  0.70137297729E+02  0.70137297729E+02  0.00000000000E+00 0. -1.
          2   -1    0    0  501    0  0.00000000000E+00 -0.00000000000E+00 -0.26978377614E+03  0.26978377614E+03  0.00000000000E+00 0. -1.
         35    2    1    2    0    0  0.00000000000E+00  0.00000000000E+00 -0.19964647841E+03  0.33992107387E+03  0.27511383120E+03 0.  0.
         25    1    3    3    0    0 -0.55677128052E+02  0.36047231679E+02 -0.11350176231E+03  0.17799436943E+03  0.12000000000E+03 0.  0.
         25    1    3    3    0    0  0.55677128052E+02 -0.36047231679E+02 -0.86144716102E+02  0.16192670444E+03  0.12000000000E+03 0.  0.
<mgrwt>
<rscale>  0 0.27511383E+03</rscale>
<asrwt>0</asrwt>
<pdfrwt beam="1">  1        2 0.41505196E-01 0.27511383E+03</pdfrwt>
<pdfrwt beam="2">  1       -2 0.10790354E-01 0.27511383E+03</pdfrwt>
<totfact> 0.71529886E+03</totfact>
</mgrwt>
</event>
<event>
 5    1  0.1140254E+001  0.2777440E+03  0.7818608E-02  0.1096928E+00
          2   -1    0    0  501    0  0.00000000000E+00  0.00000000000E+00  0.10290768201E+03  0.10290768201E+03  0.00000000000E+00 0.  1.
         -2   -1    0    0    0  501 -0.00000000000E+00 -0.00000000000E+00 -0.18740519173E+03  0.18740519173E+03  0.00000000000E+00 0.  1.
         35    2    1    2    0    0  0.00000000000E+00  0.00000000000E+00 -0.84497509722E+02  0.29031287375E+03  0.27774401076E+03 0.  0.
         25    1    3    3    0    0 -0.81381476270E+01  0.69399935565E+02 -0.40483119416E+02  0.14464253683E+03  0.12000000000E+03 0.  0.
         25    1    3    3    0    0  0.81381476270E+01 -0.69399935565E+02 -0.44014390306E+02  0.14567033692E+03  0.12000000000E+03 0.  0.
<mgrwt>
<rscale>  0 0.27774401E+03</rscale>
<asrwt>0</asrwt>
<pdfrwt beam="1">  1        2 0.15831951E-01 0.27774401E+03</pdfrwt>
<pdfrwt beam="2">  1       -2 0.28831568E-01 0.27774401E+03</pdfrwt>
<totfact> 0.39971042E+03</totfact>
</mgrwt>
</event>
<event>
 5    1  0.1140254E+001  0.2746247E+03  0.7818608E-02  0.1098662E+00
          2   -1    0    0  501    0  0.00000000000E+00  0.00000000000E+00  0.82028382823E+03  0.82028382823E+03  0.00000000000E+00 0. -1.
         -2   -1    0    0    0  501 -0.00000000000E+00 -0.00000000000E+00 -0.22985558619E+02  0.22985558619E+02  0.00000000000E+00 0. -1.
         35    2    1    2    0    0  0.00000000000E+00  0.00000000000E+00  0.79729826961E+03  0.84326938685E+03  0.27462470404E+03 0.  0.
         25    1    3    3    0    0 -0.11380894556E+02  0.55363730217E+02  0.50764613035E+03  0.52468968071E+03  0.12000000000E+03 0.  0.
         25    1    3    3    0    0  0.11380894556E+02 -0.55363730217E+02  0.28965213926E+03  0.31857970614E+03  0.12000000000E+03 0.  0.
<mgrwt>
<rscale>  0 0.27462470E+03</rscale>
<asrwt>0</asrwt>
<pdfrwt beam="1">  1        2 0.12619749E+00 0.27462470E+03</pdfrwt>
<pdfrwt beam="2">  1       -2 0.35362404E-02 0.27462470E+03</pdfrwt>
<totfact> 0.11329429E+04</totfact>
</mgrwt>
</event>
<event>
 5    1  0.1140254E+001  0.2752406E+03  0.7818608E-02  0.1098317E+00
          1   -1    0    0  501    0  0.00000000000E+00  0.00000000000E+00  0.67744842768E+02  0.67744842768E+02  0.00000000000E+00 0.  1.
         -1   -1    0    0    0  501 -0.00000000000E+00 -0.00000000000E+00 -0.27956886223E+03  0.27956886223E+03  0.00000000000E+00 0.  1.
         35    2    1    2    0    0  0.00000000000E+00  0.00000000000E+00 -0.21182401946E+03  0.34731370500E+03  0.27524061193E+03 0.  0.
         25    1    3    3    0    0  0.22090467439E+02  0.52682729629E+02 -0.60839058060E+02  0.14616719789E+03  0.12000000000E+03 0.  0.
         25    1    3    3    0    0 -0.22090467439E+02 -0.52682729629E+02 -0.15098496140E+03  0.20114650711E+03  0.12000000000E+03 0.  0.
<mgrwt>
<rscale>  0 0.27524061E+03</rscale>
<asrwt>0</asrwt>
<pdfrwt beam="1">  1        1 0.10422283E-01 0.27524061E+03</pdfrwt>
<pdfrwt beam="2">  1       -1 0.43010595E-01 0.27524061E+03</pdfrwt>
<totfact> 0.32725924E+03</totfact>
</mgrwt>
</event>
<event>
 5    1  0.1140254E+001  0.2744721E+03  0.7818608E-02  0.1098747E+00
         -2   -1    0    0    0  501 -0.00000000000E+00  0.00000000000E+00  0.11146705765E+02  0.11146705765E+02  0.00000000000E+00 0.  1.
          2   -1    0    0  501    0  0.00000000000E+00 -0.00000000000E+00 -0.16896234088E+04  0.16896234088E+04  0.00000000000E+00 0.  1.
         35    2    1    2    0    0  0.00000000000E+00  0.00000000000E+00 -0.16784767030E+04  0.17007701145E+04  0.27447211145E+03 0.  0.
         25    1    3    3    0    0 -0.56506594112E+02 -0.35034567544E+02 -0.81662414213E+03  0.82806727119E+03  0.12000000000E+03 0.  0.
         25    1    3    3    0    0  0.56506594112E+02  0.35034567544E+02 -0.86185256086E+03  0.87270284333E+03  0.12000000000E+03 0.  0.
<mgrwt>
<rscale>  0 0.27447211E+03</rscale>
<asrwt>0</asrwt>
<pdfrwt beam="1">  1        2 0.25994211E+00 0.27447211E+03</pdfrwt>
<pdfrwt beam="2">  1       -2 0.17148775E-02 0.27447211E+03</pdfrwt>
<totfact> 0.10487829E+04</totfact>
</mgrwt>
</event>
<event>
 5    1  0.1140254E+001  0.2748799E+03  0.7818608E-02  0.1098519E+00
          2   -1    0    0  501    0  0.00000000000E+00  0.00000000000E+00  0.18087495463E+04  0.18087495463E+04  0.00000000000E+00 0. -1.
         -2   -1    0    0    0  501 -0.00000000000E+00 -0.00000000000E+00 -0.10443537392E+02  0.10443537392E+02  0.00000000000E+00 0. -1.
         35    2    1    2    0    0  0.00000000000E+00  0.00000000000E+00  0.17983060089E+04  0.18191930837E+04  0.27487992666E+03 0.  0.
         25    1    3    3    0    0 -0.61147937902E+01 -0.33970325430E+02  0.12792421288E+04  0.12853216710E+04  0.12000000000E+03 0.  0.
         25    1    3    3    0    0  0.61147937902E+01  0.33970325430E+02  0.51906388010E+03  0.53387141274E+03  0.12000000000E+03 0.  0.
<mgrwt>
<rscale>  0 0.27487993E+03</rscale>
<asrwt>0</asrwt>
<pdfrwt beam="1">  1        2 0.27826891E+00 0.27487993E+03</pdfrwt>
<pdfrwt beam="2">  1       -2 0.16066995E-02 0.27487993E+03</pdfrwt>
<totfact> 0.99893900E+03</totfact>
</mgrwt>
</event>
<event>
 5    1  0.1140254E+001  0.2748941E+03  0.7818608E-02  0.1098511E+00
         -1   -1    0    0    0  501 -0.00000000000E+00  0.00000000000E+00  0.33687527862E+02  0.33687527862E+02  0.00000000000E+00 0.  1.
          1   -1    0    0  501    0  0.00000000000E+00 -0.00000000000E+00 -0.56079172142E+03  0.56079172142E+03  0.00000000000E+00 0.  1.
         35    2    1    2    0    0  0.00000000000E+00  0.00000000000E+00 -0.52710419356E+03  0.59447924928E+03  0.27489406498E+03 0.  0.
         25    1    3    3    0    0 -0.51016420941E+01  0.26222729149E+02 -0.13062792921E+03  0.17938036171E+03  0.12000000000E+03 0.  0.
         25    1    3    3    0    0  0.51016420941E+01 -0.26222729149E+02 -0.39647626435E+03  0.41509888758E+03  0.12000000000E+03 0.  0.
<mgrwt>
<rscale>  0 0.27489406E+03</rscale>
<asrwt>0</asrwt>
<pdfrwt beam="1">  1        1 0.86275643E-01 0.27489406E+03</pdfrwt>
<pdfrwt beam="2">  1       -1 0.51826970E-02 0.27489406E+03</pdfrwt>
<totfact> 0.64151588E+03</totfact>
</mgrwt>
</event>
<event>
 5    1  0.1140254E+001  0.2751701E+03  0.7818608E-02  0.1098357E+00
          2   -1    0    0  501    0  0.00000000000E+00  0.00000000000E+00  0.83911873497E+03  0.83911873497E+03  0.00000000000E+00 0.  1.
         -2   -1    0    0    0  501 -0.00000000000E+00 -0.00000000000E+00 -0.22558966807E+02  0.22558966807E+02  0.00000000000E+00 0.  1.
         35    2    1    2    0    0  0.00000000000E+00  0.00000000000E+00  0.81655976817E+03  0.86167770178E+03  0.27517014147E+03 0.  0.
         25    1    3    3    0    0 -0.50152674777E+02  0.14427016481E+02  0.27519487977E+03  0.30472225295E+03  0.12000000000E+03 0.  0.
         25    1    3    3    0    0  0.50152674777E+02 -0.14427016481E+02  0.54136488839E+03  0.55695544882E+03  0.12000000000E+03 0.  0.
<mgrwt>
<rscale>  0 0.27517014E+03</rscale>
<asrwt>0</asrwt>
<pdfrwt beam="1">  1        2 0.12909517E+00 0.27517014E+03</pdfrwt>
<pdfrwt beam="2">  1       -2 0.34706109E-02 0.27517014E+03</pdfrwt>
<totfact> 0.11315565E+04</totfact>
</mgrwt>
</event>
<event>
 5    1  0.1140254E+001  0.2751982E+03  0.7818608E-02  0.1098341E+00
         -2   -1    0    0    0  501 -0.00000000000E+00  0.00000000000E+00  0.26489682181E+02  0.26489682181E+02  0.00000000000E+00 0.  1.
          2   -1    0    0  501    0  0.00000000000E+00 -0.00000000000E+00 -0.71475057592E+03  0.71475057592E+03  0.00000000000E+00 0.  1.
         35    2    1    2    0    0  0.00000000000E+00  0.00000000000E+00 -0.68826089374E+03  0.74124025810E+03  0.27519822379E+03 0.  0.
         25    1    3    3    0    0 -0.55714005087E+02  0.22689043533E+02 -0.42559078183E+03  0.44625817263E+03  0.12000000000E+03 0.  0.
         25    1    3    3    0    0  0.55714005087E+02 -0.22689043533E+02 -0.26267011191E+03  0.29498208547E+03  0.12000000000E+03 0.  0.
<mgrwt>
<rscale>  0 0.27519822E+03</rscale>
<asrwt>0</asrwt>
<pdfrwt beam="1">  1        2 0.10996161E+00 0.27519822E+03</pdfrwt>
<pdfrwt beam="2">  1       -2 0.40753363E-02 0.27519822E+03</pdfrwt>
<totfact> 0.10880474E+04</totfact>
</mgrwt>
</event>
<event>
 5    1  0.1140254E+001  0.2744111E+03  0.7818608E-02  0.1098781E+00
         -2   -1    0    0    0  501 -0.00000000000E+00  0.00000000000E+00  0.50246690762E+03  0.50246690762E+03  0.00000000000E+00 0. -1.
          2   -1    0    0  501    0  0.00000000000E+00 -0.00000000000E+00 -0.37465884475E+02  0.37465884475E+02  0.00000000000E+00 0. -1.
         35    2    1    2    0    0  0.00000000000E+00  0.00000000000E+00  0.46500102314E+03  0.53993279209E+03  0.27441113034E+03 0.  0.
         25    1    3    3    0    0 -0.86089410619E+01  0.42923232658E+02  0.33105474252E+03  0.35484328980E+03  0.12000000000E+03 0.  0.
         25    1    3    3    0    0  0.86089410619E+01 -0.42923232658E+02  0.13394628062E+03  0.18508950230E+03  0.12000000000E+03 0.  0.
<mgrwt>
<rscale>  0 0.27441113E+03</rscale>
<asrwt>0</asrwt>
<pdfrwt beam="1">  1        2 0.57639826E-02 0.27441113E+03</pdfrwt>
<pdfrwt beam="2">  1       -2 0.77302596E-01 0.27441113E+03</pdfrwt>
<totfact> 0.19970835E+03</totfact>
</mgrwt>
</event>
<event>
 5    1  0.1140254E+001  0.2746342E+03  0.7818608E-02  0.1098656E+00
          2   -1    0    0  501    0  0.00000000000E+00  0.00000000000E+00  0.86017150642E+03  0.86017150642E+03  0.00000000000E+00 0. -1.
         -2   -1    0    0    0  501 -0.00000000000E+00 -0.00000000000E+00 -0.21921185764E+02  0.21921185764E+02  0.00000000000E+00 0. -1.
         35    2    1    2    0    0  0.00000000000E+00  0.00000000000E+00  0.83825032066E+03  0.88209269219E+03  0.27463415214E+03 0.  0.
         25    1    3    3    0    0 -0.54616683382E+02 -0.35631469290E+02  0.46493202182E+03  0.48457648377E+03  0.12000000000E+03 0.  0.
         25    1    3    3    0    0  0.54616683382E+02  0.35631469290E+02  0.37331829884E+03  0.39751620842E+03  0.12000000000E+03 0.  0.
<mgrwt>
<rscale>  0 0.27463415E+03</rscale>
<asrwt>0</asrwt>
<pdfrwt beam="1">  1        2 0.13233405E+00 0.27463415E+03</pdfrwt>
<pdfrwt beam="2">  1       -2 0.33724908E-02 0.27463415E+03</pdfrwt>
<totfact> 0.11434772E+04</totfact>
</mgrwt>
</event>
<event>
 5    1  0.1140254E+001  0.2750415E+03  0.7818608E-02  0.1098428E+00
          2   -1    0    0  501    0  0.00000000000E+00  0.00000000000E+00  0.96263340925E+03  0.96263340925E+03  0.00000000000E+00 0.  1.
         -2   -1    0    0    0  501 -0.00000000000E+00 -0.00000000000E+00 -0.19646067870E+02  0.19646067870E+02  0.00000000000E+00 0.  1.
         35    2    1    2    0    0  0.00000000000E+00  0.00000000000E+00  0.94298734139E+03  0.98227947712E+03  0.27504153353E+03 0.  0.
         25    1    3    3    0    0  0.27219544411E+02  0.58612842445E+02  0.40606880431E+03  0.42833193055E+03  0.12000000000E+03 0.  0.
         25    1    3    3    0    0 -0.27219544411E+02 -0.58612842445E+02  0.53691853708E+03  0.55394754658E+03  0.12000000000E+03 0.  0.
<mgrwt>
<rscale>  0 0.27504153E+03</rscale>
<asrwt>0</asrwt>
<pdfrwt beam="1">  1        2 0.14809741E+00 0.27504153E+03</pdfrwt>
<pdfrwt beam="2">  1       -2 0.30224727E-02 0.27504153E+03</pdfrwt>
<totfact> 0.11572562E+04</totfact>
</mgrwt>
</event>
<event>
 5    1  0.1140254E+001  0.2747921E+03  0.7818608E-02  0.1098568E+00
         -1   -1    0    0    0  501 -0.00000000000E+00  0.00000000000E+00  0.64699120389E+02  0.64699120389E+02  0.00000000000E+00 0. -1.
          1   -1    0    0  501    0  0.00000000000E+00 -0.00000000000E+00 -0.29177646849E+03  0.29177646849E+03  0.00000000000E+00 0. -1.
         35    2    1    2    0    0  0.00000000000E+00  0.00000000000E+00 -0.22707734811E+03  0.35647558888E+03  0.27479214590E+03 0.  0.
         25    1    3    3    0    0 -0.59472072434E+02  0.53380305789E+01 -0.74356860645E+02  0.15327871573E+03  0.12000000000E+03 0.  0.
         25    1    3    3    0    0  0.59472072434E+02 -0.53380305789E+01 -0.15272048746E+03  0.20319687316E+03  0.12000000000E+03 0.  0.
<mgrwt>
<rscale>  0 0.27479215E+03</rscale>
<asrwt>0</asrwt>
<pdfrwt beam="1">  1        1 0.44888688E-01 0.27479215E+03</pdfrwt>
<pdfrwt beam="2">  1       -1 0.99537108E-02 0.27479215E+03</pdfrwt>
<totfact> 0.55355860E+03</totfact>
</mgrwt>
</event>
<event>
 5    1  0.1140254E+001  0.2758455E+03  0.7818608E-02  0.1097980E+00
          1   -1    0    0  501    0  0.00000000000E+00  0.00000000000E+00  0.91893873123E+03  0.91893873123E+03  0.00000000000E+00 0.  1.
         -1   -1    0    0    0  501 -0.00000000000E+00 -0.00000000000E+00 -0.20700710467E+02  0.20700710467E+02  0.00000000000E+00 0.  1.
         35    2    1    2    0    0  0.00000000000E+00  0.00000000000E+00  0.89823802076E+03  0.93963944169E+03  0.27584549742E+03 0.  0.
         25    1    3    3    0    0 -0.27551532054E+02  0.59187357264E+02  0.51379164072E+03  0.53164281266E+03  0.12000000000E+03 0.  0.
         25    1    3    3    0    0  0.27551532054E+02 -0.59187357264E+02  0.38444638004E+03  0.40799662903E+03  0.12000000000E+03 0.  0.
<mgrwt>
<rscale>  0 0.27584550E+03</rscale>
<asrwt>0</asrwt>
<pdfrwt beam="1">  1        1 0.14137516E+00 0.27584550E+03</pdfrwt>
<pdfrwt beam="2">  1       -1 0.31847254E-02 0.27584550E+03</pdfrwt>
<totfact> 0.63643114E+03</totfact>
</mgrwt>
</event>
<event>
 4    1  0.1140254E+001  0.3035231E+03  0.7818608E-02  0.1083493E+00
          1   -1    0    0  501    0  0.00000000000E+00  0.00000000000E+00  0.14230701944E+03  0.14230701944E+03  0.00000000000E+00 0. -1.
         -1   -1    0    0    0  501 -0.00000000000E+00 -0.00000000000E+00 -0.16184417152E+03  0.16184417152E+03  0.00000000000E+00 0. -1.
         25    1    1    2    0    0 -0.28530700152E+02 -0.87306761065E+02 -0.23764953718E+02  0.15297465282E+03  0.12000000000E+03 0.  0.
         25    1    1    2    0    0  0.28530700152E+02  0.87306761065E+02  0.42278016385E+01  0.15117653814E+03  0.12000000000E+03 0.  0.
<mgrwt>
<rscale>  0 0.30352306E+03</rscale>
<asrwt>0</asrwt>
<pdfrwt beam="1">  1        1 0.21893388E-01 0.30352306E+03</pdfrwt>
<pdfrwt beam="2">  1       -1 0.24899103E-01 0.30352306E+03</pdfrwt>
<totfact> 0.31792897E+03</totfact>
</mgrwt>
</event>
<event>
 5    1  0.1140254E+001  0.2761863E+03  0.7818608E-02  0.1097790E+00
         -2   -1    0    0    0  501 -0.00000000000E+00  0.00000000000E+00  0.44701583762E+02  0.44701583762E+02  0.00000000000E+00 0. -1.
          2   -1    0    0  501    0  0.00000000000E+00 -0.00000000000E+00 -0.42660050226E+03  0.42660050226E+03  0.00000000000E+00 0. -1.
         35    2    1    2    0    0  0.00000000000E+00  0.00000000000E+00 -0.38189891850E+03  0.47130208602E+03  0.27618630006E+03 0.  0.
         25    1    3    3    0    0  0.43442987481E+02 -0.18453005069E+02 -0.27527559369E+03  0.30398101756E+03  0.12000000000E+03 0.  0.
         25    1    3    3    0    0 -0.43442987481E+02  0.18453005069E+02 -0.10662332481E+03  0.16732106846E+03  0.12000000000E+03 0.  0.
<mgrwt>
<rscale>  0 0.27618630E+03</rscale>
<asrwt>0</asrwt>
<pdfrwt beam="1">  1        2 0.65630849E-01 0.27618630E+03</pdfrwt>
<pdfrwt beam="2">  1       -2 0.68771665E-02 0.27618630E+03</pdfrwt>
<totfact> 0.88520704E+03</totfact>
</mgrwt>
</event>
<event>
 5    1  0.1140254E+001  0.2739391E+03  0.7818608E-02  0.1099046E+00
         -2   -1    0    0    0  501 -0.00000000000E+00  0.00000000000E+00  0.10937055035E+03  0.10937055035E+03  0.00000000000E+00 0.  1.
          2   -1    0    0  501    0  0.00000000000E+00 -0.00000000000E+00 -0.17153297163E+03  0.17153297163E+03  0.00000000000E+00 0.  1.
         35    2    1    2    0    0  0.00000000000E+00  0.00000000000E+00 -0.62162421282E+02  0.28090352199E+03  0.27393908455E+03 0.  0.
         25    1    3    3    0    0  0.50435081145E+02 -0.20928441965E+02 -0.69159617466E+02  0.14887830527E+03  0.12000000000E+03 0.  0.
         25    1    3    3    0    0 -0.50435081145E+02  0.20928441965E+02  0.69971961842E+01  0.13202521671E+03  0.12000000000E+03 0.  0.
<mgrwt>
<rscale>  0 0.27393908E+03</rscale>
<asrwt>0</asrwt>
<pdfrwt beam="1">  1        2 0.26389688E-01 0.27393908E+03</pdfrwt>
<pdfrwt beam="2">  1       -2 0.16826239E-01 0.27393908E+03</pdfrwt>
<totfact> 0.56704689E+03</totfact>
</mgrwt>
</event>
<event>
 5    1  0.1140254E+001  0.2751472E+03  0.7818608E-02  0.1098369E+00
          1   -1    0    0  501    0  0.00000000000E+00  0.00000000000E+00  0.59853950621E+03  0.59853950621E+03  0.00000000000E+00 0. -1.
         -1   -1    0    0    0  501 -0.00000000000E+00 -0.00000000000E+00 -0.31621136920E+02  0.31621136920E+02  0.00000000000E+00 0. -1.
         35    2    1    2    0    0  0.00000000000E+00  0.00000000000E+00  0.56691836929E+03  0.63016064313E+03  0.27514723097E+03 0.  0.
         25    1    3    3    0    0  0.14912936252E+02  0.65072513246E+02  0.30257599194E+03  0.33227858575E+03  0.12000000000E+03 0.  0.
         25    1    3    3    0    0 -0.14912936252E+02 -0.65072513246E+02  0.26434237736E+03  0.29788205739E+03  0.12000000000E+03 0.  0.
<mgrwt>
<rscale>  0 0.27514723E+03</rscale>
<asrwt>0</asrwt>
<pdfrwt beam="1">  1        1 0.92082993E-01 0.27514723E+03</pdfrwt>
<pdfrwt beam="2">  1       -1 0.48647907E-02 0.27514723E+03</pdfrwt>
<totfact> 0.64489965E+03</totfact>
</mgrwt>
</event>
<event>
 5    1  0.1140254E+001  0.2757356E+03  0.7818608E-02  0.1098041E+00
         -1   -1    0    0    0  501 -0.00000000000E+00  0.00000000000E+00  0.78227834103E+02  0.78227834103E+02  0.00000000000E+00 0.  1.
          1   -1    0    0  501    0  0.00000000000E+00 -0.00000000000E+00 -0.24297647629E+03  0.24297647629E+03  0.00000000000E+00 0.  1.
         35    2    1    2    0    0  0.00000000000E+00  0.00000000000E+00 -0.16474864219E+03  0.32120431040E+03  0.27573555069E+03 0.  0.
         25    1    3    3    0    0  0.58460014419E+02  0.29097217761E+01 -0.12241509570E+03  0.18113943641E+03  0.12000000000E+03 0.  0.
         25    1    3    3    0    0 -0.58460014419E+02 -0.29097217761E+01 -0.42333546486E+02  0.14006487399E+03  0.12000000000E+03 0.  0.
<mgrwt>
<rscale>  0 0.27573555E+03</rscale>
<asrwt>0</asrwt>
<pdfrwt beam="1">  1        1 0.37380996E-01 0.27573555E+03</pdfrwt>
<pdfrwt beam="2">  1       -1 0.12035052E-01 0.27573555E+03</pdfrwt>
<totfact> 0.51864830E+03</totfact>
</mgrwt>
</event>
<event>
 5    1  0.1140254E+001  0.2743844E+03  0.7818608E-02  0.1098796E+00
          1   -1    0    0  501    0  0.00000000000E+00  0.00000000000E+00  0.60346549896E+03  0.60346549896E+03  0.00000000000E+00 0.  1.
         -1   -1    0    0    0  501 -0.00000000000E+00 -0.00000000000E+00 -0.31189348935E+02  0.31189348935E+02  0.00000000000E+00 0.  1.
         35    2    1    2    0    0  0.00000000000E+00  0.00000000000E+00  0.57227615002E+03  0.63465484789E+03  0.27438437286E+03 0.  0.
         25    1    3    3    0    0  0.66064910974E+02  0.46778546480E+01  0.27240702447E+03  0.30494596532E+03  0.12000000000E+03 0.  0.
         25    1    3    3    0    0 -0.66064910974E+02 -0.46778546480E+01  0.29986912555E+03  0.32970888257E+03  0.12000000000E+03 0.  0.
<mgrwt>
<rscale>  0 0.27438437E+03</rscale>
<asrwt>0</asrwt>
<pdfrwt beam="1">  1        1 0.92840837E-01 0.27438437E+03</pdfrwt>
<pdfrwt beam="2">  1       -1 0.47983618E-02 0.27438437E+03</pdfrwt>
<totfact> 0.65079823E+03</totfact>
</mgrwt>
</event>
<event>
 5    1  0.1140254E+001  0.2748384E+03  0.7818608E-02  0.1098542E+00
         -2   -1    0    0    0  501 -0.00000000000E+00  0.00000000000E+00  0.37652437392E+02  0.37652437392E+02  0.00000000000E+00 0. -1.
          2   -1    0    0  501    0  0.00000000000E+00 -0.00000000000E+00 -0.50153550058E+03  0.50153550058E+03  0.00000000000E+00 0. -1.
         35    2    1    2    0    0  0.00000000000E+00  0.00000000000E+00 -0.46388306319E+03  0.53918793797E+03  0.27483838186E+03 0.  0.
         25    1    3    3    0    0  0.15969580634E+02 -0.25009469470E+02 -0.34970945982E+03  0.37091401612E+03  0.12000000000E+03 0.  0.
         25    1    3    3    0    0 -0.15969580634E+02  0.25009469470E+02 -0.11417360337E+03  0.16827392185E+03  0.12000000000E+03 0.  0.
<mgrwt>
<rscale>  0 0.27483838E+03</rscale>
<asrwt>0</asrwt>
<pdfrwt beam="1">  1        2 0.77159308E-01 0.27483838E+03</pdfrwt>
<pdfrwt beam="2">  1       -2 0.57926827E-02 0.27483838E+03</pdfrwt>
<totfact> 0.96370594E+03</totfact>
</mgrwt>
</event>
<event>
 5    1  0.1140254E+001  0.2733245E+03  0.7818608E-02  0.1099392E+00
          2   -1    0    0  501    0  0.00000000000E+00  0.00000000000E+00  0.18957444612E+04  0.18957444612E+04  0.00000000000E+00 0. -1.
         -2   -1    0    0    0  501 -0.00000000000E+00 -0.00000000000E+00 -0.98518413744E+01  0.98518413744E+01  0.00000000000E+00 0. -1.
         35    2    1    2    0    0  0.00000000000E+00  0.00000000000E+00  0.18858926198E+04  0.19055963026E+04  0.27332452300E+03 0.  0.
         25    1    3    3    0    0  0.60623622402E+02  0.15987393182E+02  0.81330735469E+03  0.82449965041E+03  0.12000000000E+03 0.  0.
         25    1    3    3    0    0 -0.60623622402E+02 -0.15987393182E+02  0.10725852651E+04  0.10810966521E+04  0.12000000000E+03 0.  0.
<mgrwt>
<rscale>  0 0.27332452E+03</rscale>
<asrwt>0</asrwt>
<pdfrwt beam="1">  1        2 0.29165270E+00 0.27332452E+03</pdfrwt>
<pdfrwt beam="2">  1       -2 0.15156694E-02 0.27332452E+03</pdfrwt>
<totfact> 0.97932916E+03</totfact>
</mgrwt>
</event>
<event>
 5    1  0.1140254E+001  0.2753516E+03  0.7818608E-02  0.1098255E+00
          2   -1    0    0  501    0  0.00000000000E+00  0.00000000000E+00  0.29078122087E+03  0.29078122087E+03  0.00000000000E+00 0.  1.
         -2   -1    0    0    0  501 -0.00000000000E+00 -0.00000000000E+00 -0.65185164529E+02  0.65185164529E+02  0.00000000000E+00 0.  1.
         35    2    1    2    0    0  0.00000000000E+00  0.00000000000E+00  0.22559605634E+03  0.35596638539E+03  0.27535156963E+03 0.  0.
         25    1    3    3    0    0  0.46495457014E+02  0.44039228355E+02  0.85272622783E+02  0.16053878458E+03  0.12000000000E+03 0.  0.
         25    1    3    3    0    0 -0.46495457014E+02 -0.44039228355E+02  0.14032343355E+03  0.19542760082E+03  0.12000000000E+03 0.  0.
<mgrwt>
<rscale>  0 0.27535157E+03</rscale>
<asrwt>0</asrwt>
<pdfrwt beam="1">  1        2 0.44735572E-01 0.27535157E+03</pdfrwt>
<pdfrwt beam="2">  1       -2 0.10028487E-01 0.27535157E+03</pdfrwt>
<totfact> 0.74163967E+03</totfact>
</mgrwt>
</event>
<event>
 5    1  0.1140254E+001  0.2748119E+03  0.7818608E-02  0.1098557E+00
         -1   -1    0    0    0  501 -0.00000000000E+00  0.00000000000E+00  0.78342146263E+02  0.78342146263E+02  0.00000000000E+00 0.  1.
          1   -1    0    0  501    0  0.00000000000E+00 -0.00000000000E+00 -0.24099924653E+03  0.24099924653E+03  0.00000000000E+00 0.  1.
         35    2    1    2    0    0  0.00000000000E+00  0.00000000000E+00 -0.16265710027E+03  0.31934139279E+03  0.27481192275E+03 0.  0.
         25    1    3    3    0    0 -0.28109023395E+02  0.43859555221E+02 -0.13017030617E+03  0.18454833076E+03  0.12000000000E+03 0.  0.
         25    1    3    3    0    0  0.28109023395E+02 -0.43859555221E+02 -0.32486794102E+02  0.13479306203E+03  0.12000000000E+03 0.  0.
<mgrwt>
<rscale>  0 0.27481192E+03</rscale>
<asrwt>0</asrwt>
<pdfrwt beam="1">  1        1 0.37076807E-01 0.27481192E+03</pdfrwt>
<pdfrwt beam="2">  1       -1 0.12052638E-01 0.27481192E+03</pdfrwt>
<totfact> 0.52274655E+03</totfact>
</mgrwt>
</event>
<event>
 5    1  0.1140254E+001  0.2741332E+03  0.7818608E-02  0.1098937E+00
         -2   -1    0    0    0  501 -0.00000000000E+00  0.00000000000E+00  0.94635541791E+01  0.94635541791E+01  0.00000000000E+00 0. -1.
          2   -1    0    0  501    0  0.00000000000E+00 -0.00000000000E+00 -0.19852213135E+04  0.19852213135E+04  0.00000000000E+00 0. -1.
         35    2    1    2    0    0  0.00000000000E+00  0.00000000000E+00 -0.19757577593E+04  0.19946848677E+04  0.27413317536E+03 0.  0.
         25    1    3    3    0    0  0.39753403563E+02 -0.45432579209E+02 -0.11861903337E+04  0.11937721558E+04  0.12000000000E+03 0.  0.
         25    1    3    3    0    0 -0.39753403563E+02  0.45432579209E+02 -0.78956742564E+03  0.80091271184E+03  0.12000000000E+03 0.  0.
<mgrwt>
<rscale>  0 0.27413318E+03</rscale>
<asrwt>0</asrwt>
<pdfrwt beam="1">  1        2 0.30541872E+00 0.27413318E+03</pdfrwt>
<pdfrwt beam="2">  1       -2 0.14559311E-02 0.27413318E+03</pdfrwt>
<totfact> 0.93214800E+03</totfact>
</mgrwt>
</event>
<event>
 5    1  0.1140254E+001  0.2746417E+03  0.7818608E-02  0.1098652E+00
          1   -1    0    0  501    0  0.00000000000E+00  0.00000000000E+00  0.21864171817E+04  0.21864171817E+04  0.00000000000E+00 0. -1.
         -1   -1    0    0    0  501 -0.00000000000E+00 -0.00000000000E+00 -0.86246187456E+01  0.86246187456E+01  0.00000000000E+00 0. -1.
         35    2    1    2    0    0  0.00000000000E+00  0.00000000000E+00  0.21777925630E+04  0.21950418005E+04  0.27464169102E+03 0.  0.
         25    1    3    3    0    0 -0.55821018117E+02 -0.13902009877E+02  0.81812513856E+03  0.82887755084E+03  0.12000000000E+03 0.  0.
         25    1    3    3    0    0  0.55821018117E+02  0.13902009877E+02  0.13596674244E+04  0.13661642496E+04  0.12000000000E+03 0.  0.
<mgrwt>
<rscale>  0 0.27464169E+03</rscale>
<asrwt>0</asrwt>
<pdfrwt beam="1">  1        1 0.33637143E+00 0.27464169E+03</pdfrwt>
<pdfrwt beam="2">  1       -1 0.13268662E-02 0.27464169E+03</pdfrwt>
<totfact> 0.31832730E+03</totfact>
</mgrwt>
</event>
<event>
 5    1  0.1140254E+001  0.2747669E+03  0.7818608E-02  0.1098582E+00
          1   -1    0    0  501    0  0.00000000000E+00  0.00000000000E+00  0.39103199473E+02  0.39103199473E+02  0.00000000000E+00 0. -1.
         -1   -1    0    0    0  501 -0.00000000000E+00 -0.00000000000E+00 -0.48267706711E+03  0.48267706711E+03  0.00000000000E+00 0. -1.
         35    2    1    2    0    0  0.00000000000E+00  0.00000000000E+00 -0.44357386764E+03  0.52178026658E+03  0.27476693860E+03 0.  0.
         25    1    3    3    0    0 -0.11504346478E+02  0.28856863473E+02 -0.10929430011E+03  0.16525832080E+03  0.12000000000E+03 0.  0.
         25    1    3    3    0    0  0.11504346478E+02 -0.28856863473E+02 -0.33427956753E+03  0.35652194579E+03  0.12000000000E+03 0.  0.
<mgrwt>
<rscale>  0 0.27476694E+03</rscale>
<asrwt>0</asrwt>
<pdfrwt beam="1">  1        1 0.60158769E-02 0.27476694E+03</pdfrwt>
<pdfrwt beam="2">  1       -1 0.74258010E-01 0.27476694E+03</pdfrwt>
<totfact> 0.24436661E+03</totfact>
</mgrwt>
</event>
<event>
 5    1  0.1140254E+001  0.2751350E+03  0.7818608E-02  0.1098376E+00
          3   -1    0    0  501    0  0.00000000000E+00  0.00000000000E+00  0.40491841477E+02  0.40491841477E+02  0.00000000000E+00 0.  1.
         -3   -1    0    0    0  501 -0.00000000000E+00 -0.00000000000E+00 -0.46737345537E+03  0.46737345537E+03  0.00000000000E+00 0.  1.
         35    2    1    2    0    0  0.00000000000E+00  0.00000000000E+00 -0.42688161389E+03  0.50786529684E+03  0.27513496227E+03 0.  0.
         25    1    3    3    0    0  0.40081099188E+02 -0.33874021683E+02 -0.13576319725E+03  0.18864143125E+03  0.12000000000E+03 0.  0.
         25    1    3    3    0    0 -0.40081099188E+02  0.33874021683E+02 -0.29111841664E+03  0.31922386559E+03  0.12000000000E+03 0.  0.
<mgrwt>
<rscale>  0 0.27513496E+03</rscale>
<asrwt>0</asrwt>
<pdfrwt beam="1">  1        3 0.62295138E-02 0.27513496E+03</pdfrwt>
<pdfrwt beam="2">  1       -3 0.71903611E-01 0.27513496E+03</pdfrwt>
<totfact> 0.76480020E+02</totfact>
</mgrwt>
</event>
<event>
 5    1  0.1140254E+001  0.2749457E+03  0.7818608E-02  0.1098482E+00
          1   -1    0    0  501    0  0.00000000000E+00  0.00000000000E+00  0.59345094415E+03  0.59345094415E+03  0.00000000000E+00 0. -1.
         -1   -1    0    0    0  501 -0.00000000000E+00 -0.00000000000E+00 -0.31845562907E+02  0.31845562907E+02  0.00000000000E+00 0. -1.
         35    2    1    2    0    0  0.00000000000E+00  0.00000000000E+00  0.56160538124E+03  0.62529650706E+03  0.27494566281E+03 0.  0.
         25    1    3    3    0    0  0.64117356946E+02  0.18178720144E+02  0.26359061571E+03  0.29718935718E+03  0.12000000000E+03 0.  0.
         25    1    3    3    0    0 -0.64117356946E+02 -0.18178720144E+02  0.29801476553E+03  0.32810714988E+03  0.12000000000E+03 0.  0.
<mgrwt>
<rscale>  0 0.27494566E+03</rscale>
<asrwt>0</asrwt>
<pdfrwt beam="1">  1        1 0.91300137E-01 0.27494566E+03</pdfrwt>
<pdfrwt beam="2">  1       -1 0.48993178E-02 0.27494566E+03</pdfrwt>
<totfact> 0.64569165E+03</totfact>
</mgrwt>
</event>
<event>
 5    1  0.1140254E+001  0.2771373E+03  0.7818608E-02  0.1097263E+00
          2   -1    0    0  501    0  0.00000000000E+00  0.00000000000E+00  0.12305774797E+04  0.12305774797E+04  0.00000000000E+00 0. -1.
         -2   -1    0    0    0  501 -0.00000000000E+00 -0.00000000000E+00 -0.15603464058E+02  0.15603464058E+02  0.00000000000E+00 0. -1.
         35    2    1    2    0    0  0.00000000000E+00  0.00000000000E+00  0.12149740156E+04  0.12461809438E+04  0.27713730514E+03 0.  0.
         25    1    3    3    0    0  0.25125099849E+02  0.63922750449E+02  0.64867044538E+03  0.66324259165E+03  0.12000000000E+03 0.  0.
         25    1    3    3    0    0 -0.25125099849E+02 -0.63922750449E+02  0.56630357026E+03  0.58293835210E+03  0.12000000000E+03 0.  0.
<mgrwt>
<rscale>  0 0.27713731E+03</rscale>
<asrwt>0</asrwt>
<pdfrwt beam="1">  1        2 0.18931954E+00 0.27713731E+03</pdfrwt>
<pdfrwt beam="2">  1       -2 0.24005339E-02 0.27713731E+03</pdfrwt>
<totfact> 0.11319900E+04</totfact>
</mgrwt>
</event>
<event>
 5    1  0.1140254E+001  0.2749681E+03  0.7818608E-02  0.1098469E+00
          4   -1    0    0  501    0  0.00000000000E+00  0.00000000000E+00  0.17721577016E+04  0.17721577016E+04  0.00000000000E+00 0.  1.
         -4   -1    0    0    0  501 -0.00000000000E+00 -0.00000000000E+00 -0.10666013685E+02  0.10666013685E+02  0.00000000000E+00 0.  1.
         35    2    1    2    0    0  0.00000000000E+00  0.00000000000E+00  0.17614916879E+04  0.17828237153E+04  0.27496805849E+03 0.  0.
         25    1    3    3    0    0  0.76597872093E+01  0.54653563954E+02  0.11281646901E+04  0.11358702622E+04  0.12000000000E+03 0.  0.
         25    1    3    3    0    0 -0.76597872093E+01 -0.54653563954E+02  0.63332699778E+03  0.64695345312E+03  0.12000000000E+03 0.  0.
<mgrwt>
<rscale>  0 0.27496806E+03</rscale>
<asrwt>0</asrwt>
<pdfrwt beam="1">  1        4 0.27263941E+00 0.27496806E+03</pdfrwt>
<pdfrwt beam="2">  1       -4 0.16409266E-02 0.27496806E+03</pdfrwt>
<totfact> 0.13562518E+02</totfact>
</mgrwt>
</event>
