<event>
 9    1  0.4412976E-036  0.9972327E+03  0.7818608E-02  0.8683678E-01
         -2   -1    0    0    0  501 -0.00000000000E+00  0.00000000000E+00  0.18346463697E+03  0.18346463697E+03  0.00000000000E+00 0.  1.
          2   -1    0    0  501    0  0.00000000000E+00 -0.00000000000E+00 -0.13551289968E+04  0.13551289968E+04  0.00000000000E+00 0.  1.
         36    2    1    2    0    0  0.00000000000E+00  0.14210854715E-13 -0.11716643598E+04  0.15385936338E+04  0.99723266985E+03 0.  0.
         25    2    3    3    0    0 -0.12865813829E+03 -0.66790475214E+02 -0.27398119786E+03  0.33415536550E+03  0.12482078106E+03 0.  0.
         35    2    3    3    0    0  0.12865813829E+03  0.66790475214E+02 -0.89768316198E+03  0.12044382683E+04  0.78982441003E+03 0.  0.
         22    1    5    5    0    0 -0.27931334451E+03 -0.17402764432E+03 -0.35545411036E+03  0.48440601770E+03  0.00000000000E+00 0.  1.
         22    1    5    5    0    0  0.40797148279E+03  0.24081811954E+03 -0.54222905162E+03  0.72003225059E+03  0.00000000000E+00 0.  1.
          5    1    4    4  502    0  0.23830245876E+02 -0.61810447981E+01 -0.55301165585E+02  0.60715688651E+02  0.47000000000E+01 0.  1.
         -5    1    4    4    0  502 -0.15248838416E+03 -0.60609430416E+02 -0.21868003228E+03  0.27343967685E+03  0.47000000000E+01 0.  1.
<mgrwt>
<rscale>  0 0.99723267E+03</rscale>
<asrwt>0</asrwt>
<pdfrwt beam="1">  1        2 0.20848139E+00 0.99723267E+03</pdfrwt>
<pdfrwt beam="2">  1       -2 0.28225328E-01 0.99723267E+03</pdfrwt>
<totfact> 0.21154255E+02</totfact>
</mgrwt>
</event>
<event>
 9    1  0.4412976E-036  0.1000389E+04  0.7818608E-02  0.8680668E-01
          2   -1    0    0  501    0  0.00000000000E+00  0.00000000000E+00  0.18997804346E+04  0.18997804346E+04  0.00000000000E+00 0. -1.
         -2   -1    0    0    0  501 -0.00000000000E+00 -0.00000000000E+00 -0.13169656815E+03  0.13169656815E+03  0.00000000000E+00 0. -1.
         36    2    1    2    0    0  0.28421709430E-13 -0.71054273576E-14  0.17680838665E+04  0.20314770028E+04  0.10003890513E+04 0.  0.
         25    2    3    3    0    0  0.13628423098E+03 -0.61057161035E+01  0.35476990493E+03  0.40149098463E+03  0.12931610075E+03 0.  0.
         35    2    3    3    0    0 -0.13628423098E+03  0.61057161035E+01  0.14133139615E+04  0.16299860181E+04  0.80049197000E+03 0.  0.
         22    1    5    5    0    0  0.24180641308E+03 -0.13213377289E+03  0.10571667804E+04  0.10924885706E+04  0.00000000000E+00 0.  1.
         22    1    5    5    0    0 -0.37809064406E+03  0.13823948899E+03  0.35614718110E+03  0.53749744748E+03  0.00000000000E+00 0.  1.
          5    1    4    4  502    0  0.61349183844E+02 -0.66907327630E+02  0.18603704644E+03  0.20705599604E+03  0.47000000000E+01 0.  1.
         -5    1    4    4    0  502  0.74935047132E+02  0.60801611526E+02  0.16873285849E+03  0.19443498859E+03  0.47000000000E+01 0.  1.
<mgrwt>
<rscale>  0 0.10003891E+04</rscale>
<asrwt>0</asrwt>
<pdfrwt beam="1">  1        2 0.29227389E+00 0.10003891E+04</pdfrwt>
<pdfrwt beam="2">  1       -2 0.20261012E-01 0.10003891E+04</pdfrwt>
<totfact> 0.18686475E+02</totfact>
</mgrwt>
</event>
<event>
 9    1  0.4412976E-036  0.1000631E+04  0.7818608E-02  0.8680437E-01
         -2   -1    0    0    0  501 -0.00000000000E+00  0.00000000000E+00  0.13032309860E+03  0.13032309860E+03  0.00000000000E+00 0.  1.
          2   -1    0    0  501    0  0.00000000000E+00 -0.00000000000E+00 -0.19207301145E+04  0.19207301145E+04  0.00000000000E+00 0.  1.
         36    2    1    2    0    0  0.14210854715E-13  0.14210854715E-13 -0.17904070159E+04  0.20510532131E+04  0.10006308013E+04 0.  0.
         25    2    3    3    0    0 -0.87018832281E+02 -0.46407777168E+02 -0.13252625009E+03  0.20772352842E+03  0.12593608833E+03 0.  0.
         35    2    3    3    0    0  0.87018832281E+02  0.46407777168E+02 -0.16578807658E+04  0.18433296847E+04  0.79973103845E+03 0.  0.
         22    1    5    5    0    0 -0.13377933329E+03 -0.26533590169E+03 -0.12485749453E+04  0.12834482634E+04  0.00000000000E+00 0. -1.
         22    1    5    5    0    0  0.22079816557E+03  0.31174367886E+03 -0.40930582051E+03  0.55988142131E+03  0.00000000000E+00 0. -1.
          5    1    4    4  502    0  0.10269772862E+02  0.13349289012E+02 -0.80123012919E+02  0.82008895560E+02  0.47000000000E+01 0.  1.
         -5    1    4    4    0  502 -0.97288605143E+02 -0.59757066179E+02 -0.52403237172E+02  0.12571463286E+03  0.47000000000E+01 0.  1.
<mgrwt>
<rscale>  0 0.10006308E+04</rscale>
<asrwt>0</asrwt>
<pdfrwt beam="1">  1        2 0.29549691E+00 0.10006308E+04</pdfrwt>
<pdfrwt beam="2">  1       -2 0.20049709E-01 0.10006308E+04</pdfrwt>
<totfact> 0.18515350E+02</totfact>
</mgrwt>
</event>
<event>
 9    1  0.4412976E-036  0.9986688E+03  0.7818608E-02  0.8682307E-01
          2   -1    0    0  501    0  0.00000000000E+00  0.00000000000E+00  0.10434258582E+04  0.10434258582E+04  0.00000000000E+00 0.  1.
         -2   -1    0    0    0  501 -0.00000000000E+00 -0.00000000000E+00 -0.23895787571E+03  0.23895787571E+03  0.00000000000E+00 0.  1.
         36    2    1    2    0    0  0.17763568394E-14  0.14210854715E-13  0.80446798253E+03  0.12823837340E+04  0.99866876701E+03 0.  0.
         25    2    3    3    0    0  0.56693816879E+01 -0.20484099022E+01 -0.25882085350E+02  0.12908215304E+03  0.12631699023E+03 0.  0.
         35    2    3    3    0    0 -0.56693816879E+01  0.20484099022E+01  0.83035006788E+03  0.11533015809E+04  0.80036676808E+03 0.  0.
         22    1    5    5    0    0  0.60810548444E+02  0.19733943372E+03 -0.78814238233E+02  0.22102592393E+03  0.00000000000E+00 0. -1.
         22    1    5    5    0    0 -0.66479930132E+02 -0.19529102382E+03  0.90916430611E+03  0.93227565698E+03  0.00000000000E+00 0. -1.
          5    1    4    4  502    0  0.10392085549E+02  0.48943201301E+02 -0.51217508506E+02  0.71754829616E+02  0.47000000000E+01 0.  1.
         -5    1    4    4    0  502 -0.47227038610E+01 -0.50991611203E+02  0.25335423156E+02  0.57327323428E+02  0.47000000000E+01 0.  1.
<mgrwt>
<rscale>  0 0.99866877E+03</rscale>
<asrwt>0</asrwt>
<pdfrwt beam="1">  1        2 0.16052705E+00 0.99866877E+03</pdfrwt>
<pdfrwt beam="2">  1       -2 0.36762751E-01 0.99866877E+03</pdfrwt>
<totfact> 0.19894709E+02</totfact>
</mgrwt>
</event>
<event>
 9    1  0.4412976E-036  0.9997997E+03  0.7818608E-02  0.8681229E-01
          2   -1    0    0  501    0  0.00000000000E+00  0.00000000000E+00  0.27591718993E+03  0.27591718993E+03  0.00000000000E+00 0. -1.
         -2   -1    0    0    0  501 -0.00000000000E+00 -0.00000000000E+00 -0.90570597455E+03  0.90570597455E+03  0.00000000000E+00 0. -1.
         36    2    1    2    0    0  0.00000000000E+00  0.14210854715E-13 -0.62978878462E+03  0.11816231645E+04  0.99979967473E+03 0.  0.
         25    2    3    3    0    0 -0.78526514172E+02 -0.10165413729E+03 -0.52649996189E+02  0.18677726461E+03  0.12495498158E+03 0.  0.
         35    2    3    3    0    0  0.78526514172E+02  0.10165413729E+03 -0.57713878843E+03  0.99484589986E+03  0.80008074987E+03 0.  0.
         22    1    5    5    0    0 -0.59057397364E+02  0.31053002556E+03  0.49672369021E+02  0.31997502590E+03  0.00000000000E+00 0. -1.
         22    1    5    5    0    0  0.13758391154E+03 -0.20887588827E+03 -0.62681115745E+03  0.67487087396E+03  0.00000000000E+00 0. -1.
          5    1    4    4  502    0 -0.29180424545E+02 -0.43204770336E+02 -0.87989330111E+02  0.10238340476E+03  0.47000000000E+01 0.  1.
         -5    1    4    4    0  502 -0.49346089627E+02 -0.58449366958E+02  0.35339333923E+02  0.84393859856E+02  0.47000000000E+01 0.  1.
<mgrwt>
<rscale>  0 0.99979967E+03</rscale>
<asrwt>0</asrwt>
<pdfrwt beam="1">  1        2 0.42448798E-01 0.99979967E+03</pdfrwt>
<pdfrwt beam="2">  1       -2 0.13933938E+00 0.99979967E+03</pdfrwt>
<totfact> 0.50116656E+01</totfact>
</mgrwt>
</event>
<event>
 9    1  0.4412976E-036  0.1000616E+04  0.7818608E-02  0.8680451E-01
          2   -1    0    0  501    0  0.00000000000E+00  0.00000000000E+00  0.11342889557E+04  0.11342889557E+04  0.00000000000E+00 0.  1.
         -2   -1    0    0    0  501 -0.00000000000E+00 -0.00000000000E+00 -0.22067410665E+03  0.22067410665E+03  0.00000000000E+00 0.  1.
         36    2    1    2    0    0  0.00000000000E+00  0.17763568394E-14  0.91361484910E+03  0.13549630624E+04  0.10006162141E+04 0.  0.
         25    2    3    3    0    0 -0.11140136559E+03 -0.84059740536E+01  0.54799189099E+02  0.17573343100E+03  0.12409014058E+03 0.  0.
         35    2    3    3    0    0  0.11140136559E+03  0.84059740536E+01  0.85881566000E+03  0.11792296314E+04  0.80033571772E+03 0.  0.
         22    1    5    5    0    0  0.30433698928E+03 -0.20255591227E+03  0.81071215300E+03  0.88932788985E+03  0.00000000000E+00 0. -1.
         22    1    5    5    0    0 -0.19293562368E+03  0.21096188632E+03  0.48103506994E+02  0.28990174155E+03  0.00000000000E+00 0. -1.
          5    1    4    4  502    0 -0.12771422784E+03 -0.23731355414E+02  0.70613965088E+02  0.14792742574E+03  0.47000000000E+01 0.  1.
         -5    1    4    4    0  502  0.16312862246E+02  0.15325381361E+02 -0.15814775989E+02  0.27806005252E+02  0.47000000000E+01 0.  1.
<mgrwt>
<rscale>  0 0.10006162E+04</rscale>
<asrwt>0</asrwt>
<pdfrwt beam="1">  1        2 0.17450599E+00 0.10006162E+04</pdfrwt>
<pdfrwt beam="2">  1       -2 0.33949863E-01 0.10006162E+04</pdfrwt>
<totfact> 0.20325385E+02</totfact>
</mgrwt>
</event>
<event>
 9    1  0.4412976E-036  0.9998565E+03  0.7818608E-02  0.8681175E-01
          2   -1    0    0  501    0  0.00000000000E+00  0.00000000000E+00  0.11525215340E+04  0.11525215340E+04  0.00000000000E+00 0. -1.
         -2   -1    0    0    0  501 -0.00000000000E+00 -0.00000000000E+00 -0.21685342159E+03  0.21685342159E+03  0.00000000000E+00 0. -1.
         36    2    1    2    0    0 -0.28421709430E-13  0.00000000000E+00  0.93566811245E+03  0.13693749556E+04  0.99985646593E+03 0.  0.
         25    2    3    3    0    0  0.11244397122E+03  0.38282110670E+02  0.27596855380E+03  0.32539976350E+03  0.12496878305E+03 0.  0.
         35    2    3    3    0    0 -0.11244397122E+03 -0.38282110670E+02  0.65969955865E+03  0.10439751921E+04  0.80035712495E+03 0.  0.
         22    1    5    5    0    0  0.34524138496E+03  0.19200379775E+02  0.24597206548E+03  0.42433774929E+03  0.00000000000E+00 0. -1.
         22    1    5    5    0    0 -0.45768535619E+03 -0.57482490446E+02  0.41372749317E+03  0.61963744285E+03  0.00000000000E+00 0. -1.
          5    1    4    4  502    0  0.14111827480E+02  0.60615472377E+02  0.58051956963E+02  0.85237895759E+02  0.47000000000E+01 0. -1.
         -5    1    4    4    0  502  0.98332143743E+02 -0.22333361706E+02  0.21791659684E+03  0.24016186774E+03  0.47000000000E+01 0. -1.
<mgrwt>
<rscale>  0 0.99985647E+03</rscale>
<asrwt>0</asrwt>
<pdfrwt beam="1">  1        2 0.17731100E+00 0.99985647E+03</pdfrwt>
<pdfrwt beam="2">  1       -2 0.33362066E-01 0.99985647E+03</pdfrwt>
<totfact> 0.20473074E+02</totfact>
</mgrwt>
</event>
<event>
 9    1  0.4412976E-036  0.9999806E+03  0.7818608E-02  0.8681056E-01
          2   -1    0    0  501    0  0.00000000000E+00  0.00000000000E+00  0.35658094812E+04  0.35658094812E+04  0.00000000000E+00 0.  1.
         -2   -1    0    0    0  501 -0.00000000000E+00 -0.00000000000E+00 -0.70107581996E+02  0.70107581996E+02  0.00000000000E+00 0.  1.
         36    2    1    2    0    0 -0.35527136788E-14  0.00000000000E+00  0.34957018992E+04  0.36359170632E+04  0.99998056099E+03 0.  0.
         25    2    3    3    0    0  0.15322479784E+02  0.13573872466E+03  0.78606316800E+03  0.80748226886E+03  0.12438862759E+03 0.  0.
         35    2    3    3    0    0 -0.15322479784E+02 -0.13573872466E+03  0.27096387312E+04  0.28284347944E+04  0.79952582975E+03 0.  0.
         22    1    5    5    0    0 -0.60124678670E+02 -0.44223038236E+03  0.10625472233E+04  0.11524709497E+04  0.00000000000E+00 0. -1.
         22    1    5    5    0    0  0.44802198886E+02  0.30649165770E+03  0.16470915079E+04  0.16759638447E+04  0.00000000000E+00 0. -1.
          5    1    4    4  502    0 -0.25614140651E+02  0.13588849008E+03  0.51315598111E+03  0.53148181237E+03  0.47000000000E+01 0.  1.
         -5    1    4    4    0  502  0.40936620435E+02 -0.14976541591E+00  0.27290718689E+03  0.27600045648E+03  0.47000000000E+01 0.  1.
<mgrwt>
<rscale>  0 0.99998056E+03</rscale>
<asrwt>0</asrwt>
<pdfrwt beam="1">  1        2 0.54858594E+00 0.99998056E+03</pdfrwt>
<pdfrwt beam="2">  1       -2 0.10785785E-01 0.99998056E+03</pdfrwt>
<totfact> 0.45452358E+01</totfact>
</mgrwt>
</event>
<event>
 9    1  0.4412976E-036  0.1002495E+04  0.7818608E-02  0.8678665E-01
         -1   -1    0    0    0  501 -0.00000000000E+00  0.00000000000E+00  0.18647309654E+03  0.18647309654E+03  0.00000000000E+00 0. -1.
          1   -1    0    0  501    0  0.00000000000E+00 -0.00000000000E+00 -0.13473746543E+04  0.13473746543E+04  0.00000000000E+00 0. -1.
         36    2    1    2    0    0  0.17763568394E-13  0.00000000000E+00 -0.11609015577E+04  0.15338477508E+04  0.10024951351E+04 0.  0.
         25    2    3    3    0    0 -0.83201299844E+01  0.12639200213E+03 -0.31990096796E+03  0.36621189162E+03  0.12542072196E+03 0.  0.
         35    2    3    3    0    0  0.83201299844E+01 -0.12639200213E+03 -0.84100058979E+03  0.11676358592E+04  0.80002959001E+03 0.  0.
         22    1    5    5    0    0 -0.14542555026E+03 -0.95189364503E+02  0.10874241132E+03  0.20502321284E+03  0.00000000000E+00 0. -1.
         22    1    5    5    0    0  0.15374568024E+03 -0.31202637629E+02 -0.94974300110E+03  0.96261264636E+03  0.00000000000E+00 0. -1.
          5    1    4    4  502    0  0.16872939395E+02  0.15833855573E+02  0.31364275527E+01  0.23818779228E+02  0.47000000000E+01 0. -1.
         -5    1    4    4    0  502 -0.25193069379E+02  0.11055814656E+03 -0.32303739551E+03  0.34239311239E+03  0.47000000000E+01 0. -1.
<mgrwt>
<rscale>  0 0.10024951E+04</rscale>
<asrwt>0</asrwt>
<pdfrwt beam="1">  1        1 0.20728841E+00 0.10024951E+04</pdfrwt>
<pdfrwt beam="2">  1       -1 0.28688168E-01 0.10024951E+04</pdfrwt>
<totfact> 0.10075643E+02</totfact>
</mgrwt>
</event>
<event>
 9    1  0.4412976E-036  0.9978429E+03  0.7818608E-02  0.8683095E-01
         -2   -1    0    0    0  501 -0.00000000000E+00  0.00000000000E+00  0.16082550694E+03  0.16082550694E+03  0.00000000000E+00 0.  1.
          2   -1    0    0  501    0  0.00000000000E+00 -0.00000000000E+00 -0.15477806624E+04  0.15477806624E+04  0.00000000000E+00 0.  1.
         36    2    1    2    0    0  0.28421709430E-13  0.00000000000E+00 -0.13869551554E+04  0.17086061693E+04  0.99784289275E+03 0.  0.
         25    2    3    3    0    0 -0.10764467136E+03 -0.92224670382E+02 -0.24409601864E+03  0.30617081566E+03  0.11859568688E+03 0.  0.
         35    2    3    3    0    0  0.10764467136E+03  0.92224670382E+02 -0.11428591368E+04  0.14024353536E+04  0.80037812908E+03 0.  0.
         22    1    5    5    0    0  0.16857300635E+03  0.31756160356E+03 -0.16228519245E+03  0.39446002866E+03  0.00000000000E+00 0.  1.
         22    1    5    5    0    0 -0.60928334990E+02 -0.22533693317E+03 -0.98057394433E+03  0.10079753250E+04  0.00000000000E+00 0.  1.
          5    1    4    4  502    0 -0.59698473087E+01 -0.16532549842E+02  0.11012598748E+02  0.21268089062E+02  0.47000000000E+01 0.  1.
         -5    1    4    4    0  502 -0.10167482405E+03 -0.75692120540E+02 -0.25510861738E+03  0.28490272660E+03  0.47000000000E+01 0.  1.
<mgrwt>
<rscale>  0 0.99784289E+03</rscale>
<asrwt>0</asrwt>
<pdfrwt beam="1">  1        2 0.23812010E+00 0.99784289E+03</pdfrwt>
<pdfrwt beam="2">  1       -2 0.24742386E-01 0.99784289E+03</pdfrwt>
<totfact> 0.20801317E+02</totfact>
</mgrwt>
</event>
<event>
 9    1  0.4412976E-036  0.9995293E+03  0.7818608E-02  0.8681486E-01
          2   -1    0    0  501    0  0.00000000000E+00  0.00000000000E+00  0.38808169858E+03  0.38808169858E+03  0.00000000000E+00 0. -1.
         -2   -1    0    0    0  501 -0.00000000000E+00 -0.00000000000E+00 -0.64358795735E+03  0.64358795735E+03  0.00000000000E+00 0. -1.
         36    2    1    2    0    0 -0.14210854715E-13  0.14210854715E-13 -0.25550625877E+03  0.10316696559E+04  0.99952930458E+03 0.  0.
         25    2    3    3    0    0 -0.88614781494E+02  0.51789264787E+02 -0.14491577448E+03  0.21740800112E+03  0.12542308326E+03 0.  0.
         35    2    3    3    0    0  0.88614781494E+02 -0.51789264787E+02 -0.11059048430E+03  0.81426165481E+03  0.80016065876E+03 0.  0.
         22    1    5    5    0    0 -0.18731178805E+03  0.92020763792E+02 -0.35957651108E+03  0.41575088001E+03  0.00000000000E+00 0.  1.
         22    1    5    5    0    0  0.27592656954E+03 -0.14381002858E+03  0.24898602678E+03  0.39851077480E+03  0.00000000000E+00 0.  1.
          5    1    4    4  502    0 -0.21267843287E+01  0.55194938278E+02 -0.11147607717E+03  0.12449903696E+03  0.47000000000E+01 0. -1.
         -5    1    4    4    0  502 -0.86487997165E+02 -0.34056734911E+01 -0.33439697302E+02  0.92908964159E+02  0.47000000000E+01 0. -1.
<mgrwt>
<rscale>  0 0.99952930E+03</rscale>
<asrwt>0</asrwt>
<pdfrwt beam="1">  1        2 0.59704878E-01 0.99952930E+03</pdfrwt>
<pdfrwt beam="2">  1       -2 0.99013530E-01 0.99952930E+03</pdfrwt>
<totfact> 0.82717713E+01</totfact>
</mgrwt>
</event>
<event>
 9    1  0.4412976E-036  0.1003480E+04  0.7818608E-02  0.8677731E-01
          1   -1    0    0  501    0  0.00000000000E+00  0.00000000000E+00  0.64174369738E+03  0.64174369738E+03  0.00000000000E+00 0. -1.
         -1   -1    0    0    0  501 -0.00000000000E+00 -0.00000000000E+00 -0.39227957727E+03  0.39227957727E+03  0.00000000000E+00 0. -1.
         36    2    1    2    0    0  0.00000000000E+00  0.00000000000E+00  0.24946412011E+03  0.10340232746E+04  0.10034798380E+04 0.  0.
         25    2    3    3    0    0  0.47780180619E+02  0.13294529287E+03  0.79159801204E+02  0.20496603159E+03  0.12564793442E+03 0.  0.
         35    2    3    3    0    0 -0.47780180619E+02 -0.13294529287E+03  0.17030431891E+03  0.82905724305E+03  0.79898370113E+03 0.  0.
         22    1    5    5    0    0 -0.22037522246E+03  0.20515573444E+03  0.30277769407E+03  0.42699935137E+03  0.00000000000E+00 0.  1.
         22    1    5    5    0    0  0.17259504184E+03 -0.33810102731E+03 -0.13247337516E+03  0.40205789168E+03  0.00000000000E+00 0.  1.
          5    1    4    4  502    0  0.88182018491E+02  0.81544808613E+02  0.32522681324E+02  0.12452083760E+03  0.47000000000E+01 0. -1.
         -5    1    4    4    0  502 -0.40401837873E+02  0.51400484254E+02  0.46637119880E+02  0.80445193988E+02  0.47000000000E+01 0. -1.
<mgrwt>
<rscale>  0 0.10034798E+04</rscale>
<asrwt>0</asrwt>
<pdfrwt beam="1">  1        1 0.98729799E-01 0.10034798E+04</pdfrwt>
<pdfrwt beam="2">  1       -1 0.60350704E-01 0.10034798E+04</pdfrwt>
<totfact> 0.10004636E+02</totfact>
</mgrwt>
</event>
<event>
 9    1  0.4412976E-036  0.1000387E+04  0.7818608E-02  0.8680669E-01
         -2   -1    0    0    0  501 -0.00000000000E+00  0.00000000000E+00  0.20280661973E+03  0.20280661973E+03  0.00000000000E+00 0. -1.
          2   -1    0    0  501    0  0.00000000000E+00 -0.00000000000E+00 -0.12336568583E+04  0.12336568583E+04  0.00000000000E+00 0. -1.
         36    2    1    2    0    0  0.00000000000E+00  0.56843418861E-13 -0.10308502386E+04  0.14364634780E+04  0.10003874796E+04 0.  0.
         25    2    3    3    0    0  0.19998885389E+02 -0.13801890465E+03 -0.21950645004E+03  0.28870236140E+03  0.12536665589E+03 0.  0.
         35    2    3    3    0    0 -0.19998885389E+02  0.13801890465E+03 -0.81134378851E+03  0.11477611166E+04  0.79976725628E+03 0.  0.
         22    1    5    5    0    0  0.22701394624E+02  0.47307584814E+03 -0.49232146014E+03  0.68315190955E+03  0.00000000000E+00 0.  1.
         22    1    5    5    0    0 -0.42700280014E+02 -0.33505694349E+03 -0.31902232837E+03  0.46460920707E+03  0.00000000000E+00 0.  1.
          5    1    4    4  502    0  0.37253908798E+02 -0.27656263723E+02 -0.51205605900E+01  0.46915165827E+02  0.47000000000E+01 0. -1.
         -5    1    4    4    0  502 -0.17255023409E+02 -0.11036264093E+03 -0.21438588945E+03  0.24178719557E+03  0.47000000000E+01 0. -1.
<mgrwt>
<rscale>  0 0.10003875E+04</rscale>
<asrwt>0</asrwt>
<pdfrwt beam="1">  1        2 0.18979336E+00 0.10003875E+04</pdfrwt>
<pdfrwt beam="2">  1       -2 0.31201018E-01 0.10003875E+04</pdfrwt>
<totfact> 0.20735173E+02</totfact>
</mgrwt>
</event>
<event>
 9    1  0.4412976E-036  0.9993215E+03  0.7818608E-02  0.8681684E-01
          2   -1    0    0  501    0  0.00000000000E+00  0.00000000000E+00  0.44596517029E+03  0.44596517029E+03  0.00000000000E+00 0. -1.
         -2   -1    0    0    0  501 -0.00000000000E+00 -0.00000000000E+00 -0.55982138940E+03  0.55982138940E+03  0.00000000000E+00 0. -1.
         36    2    1    2    0    0 -0.14210854715E-13 -0.14210854715E-13 -0.11385621911E+03  0.10057865597E+04  0.99932145229E+03 0.  0.
         25    2    3    3    0    0  0.12781302258E+03  0.45756942727E+02  0.10345313577E+02  0.18475340642E+03  0.12488766601E+03 0.  0.
         35    2    3    3    0    0 -0.12781302258E+03 -0.45756942727E+02 -0.12420153269E+03  0.82103315326E+03  0.80014970567E+03 0.  0.
         22    1    5    5    0    0 -0.11339600187E+03  0.20036400650E+03  0.27077875317E+03  0.35542301769E+03  0.00000000000E+00 0.  1.
         22    1    5    5    0    0 -0.14417020706E+02 -0.24612094922E+03 -0.39498028585E+03  0.46561013557E+03  0.00000000000E+00 0.  1.
          5    1    4    4  502    0  0.83631817750E+01  0.60713793843E+02  0.17964392392E+02  0.64038402277E+02  0.47000000000E+01 0. -1.
         -5    1    4    4    0  502  0.11944984080E+03 -0.14956851116E+02 -0.76190788144E+01  0.12071500414E+03  0.47000000000E+01 0. -1.
<mgrwt>
<rscale>  0 0.99932145E+03</rscale>
<asrwt>0</asrwt>
<pdfrwt beam="1">  1        2 0.68610026E-01 0.99932145E+03</pdfrwt>
<pdfrwt beam="2">  1       -2 0.86126367E-01 0.99932145E+03</pdfrwt>
<totfact> 0.98450491E+01</totfact>
</mgrwt>
</event>
<event>
 9    1  0.4412976E-036  0.9999441E+03  0.7818608E-02  0.8681091E-01
          1   -1    0    0  501    0  0.00000000000E+00  0.00000000000E+00  0.33607765266E+03  0.33607765266E+03  0.00000000000E+00 0.  1.
         -1   -1    0    0    0  501 -0.00000000000E+00 -0.00000000000E+00 -0.74379246894E+03  0.74379246894E+03  0.00000000000E+00 0.  1.
         36    2    1    2    0    0  0.71054273576E-14  0.00000000000E+00 -0.40771481628E+03  0.10798701216E+04  0.99994405249E+03 0.  0.
         25    2    3    3    0    0 -0.39440085321E+01  0.27562618752E+02 -0.22515415108E+03  0.25874748049E+03  0.12442111459E+03 0.  0.
         35    2    3    3    0    0  0.39440085321E+01 -0.27562618752E+02 -0.18256066520E+03  0.82112264110E+03  0.80008670911E+03 0.  0.
         22    1    5    5    0    0  0.16291904329E+03 -0.28437508493E+03 -0.34693247222E+03  0.47725668553E+03  0.00000000000E+00 0. -1.
         22    1    5    5    0    0 -0.15897503476E+03  0.25681246618E+03  0.16437180703E+03  0.34386595558E+03  0.00000000000E+00 0. -1.
          5    1    4    4  502    0  0.26517883713E+02  0.43467214140E+01 -0.21775486039E+03  0.21945696928E+03  0.47000000000E+01 0.  1.
         -5    1    4    4    0  502 -0.30461892245E+02  0.23215897338E+02 -0.73992906939E+01  0.39290511210E+02  0.47000000000E+01 0.  1.
<mgrwt>
<rscale>  0 0.99994405E+03</rscale>
<asrwt>0</asrwt>
<pdfrwt beam="1">  1        1 0.51704254E-01 0.99994405E+03</pdfrwt>
<pdfrwt beam="2">  1       -1 0.11442961E+00 0.99994405E+03</pdfrwt>
<totfact> 0.63136134E+01</totfact>
</mgrwt>
</event>
<event>
 9    1  0.4412976E-036  0.1004663E+04  0.7818608E-02  0.8676610E-01
         -3   -1    0    0    0  501 -0.00000000000E+00  0.00000000000E+00  0.13930630297E+04  0.13930630297E+04  0.00000000000E+00 0.  1.
          3   -1    0    0  501    0  0.00000000000E+00 -0.00000000000E+00 -0.18113822631E+03  0.18113822631E+03  0.00000000000E+00 0.  1.
         36    2    1    2    0    0  0.28421709430E-13  0.00000000000E+00  0.12119248034E+04  0.15742012560E+04  0.10046630606E+04 0.  0.
         25    2    3    3    0    0 -0.11399919248E+03 -0.64640769972E+02  0.33199534984E+03  0.37817921524E+03  0.12499744597E+03 0.  0.
         35    2    3    3    0    0  0.11399919248E+03  0.64640769972E+02  0.87992945355E+03  0.11960220408E+04  0.79938641078E+03 0.  0.
         22    1    5    5    0    0  0.44884544909E+03 -0.44645176834E+02  0.41663045871E+03  0.61403287217E+03  0.00000000000E+00 0. -1.
         22    1    5    5    0    0 -0.33484625661E+03  0.10928594681E+03  0.46329899484E+03  0.58198916859E+03  0.00000000000E+00 0. -1.
          5    1    4    4  502    0 -0.13045346757E+01  0.31189308214E+02  0.41388105818E+02  0.52053242557E+02  0.47000000000E+01 0.  1.
         -5    1    4    4    0  502 -0.11269465780E+03 -0.95830078185E+02  0.29060724402E+03  0.32612597269E+03  0.47000000000E+01 0.  1.
<mgrwt>
<rscale>  0 0.10046631E+04</rscale>
<asrwt>0</asrwt>
<pdfrwt beam="1">  1        3 0.27867420E-01 0.10046631E+04</pdfrwt>
<pdfrwt beam="2">  1       -3 0.21431738E+00 0.10046631E+04</pdfrwt>
<totfact> 0.39047428E+00</totfact>
</mgrwt>
</event>
<event>
 9    1  0.4412976E-036  0.9996957E+03  0.7818608E-02  0.8681328E-01
         -2   -1    0    0    0  501 -0.00000000000E+00  0.00000000000E+00  0.12396516895E+03  0.12396516895E+03  0.00000000000E+00 0. -1.
          2   -1    0    0  501    0  0.00000000000E+00 -0.00000000000E+00 -0.20154684110E+04  0.20154684110E+04  0.00000000000E+00 0. -1.
         36    2    1    2    0    0  0.00000000000E+00 -0.35527136788E-14 -0.18915032420E+04  0.21394335799E+04  0.99969571785E+03 0.  0.
         25    2    3    3    0    0 -0.13469368733E+03  0.83838182936E+01 -0.44303546315E+03  0.47921211727E+03  0.12309002360E+03 0.  0.
         35    2    3    3    0    0  0.13469368733E+03 -0.83838182936E+01 -0.14484677789E+04  0.16602214627E+04  0.80003982450E+03 0.  0.
         22    1    5    5    0    0  0.46133032170E+03  0.69007210901E+02 -0.71662950606E+03  0.85507047068E+03  0.00000000000E+00 0.  1.
         22    1    5    5    0    0 -0.32663663437E+03 -0.77391029195E+02 -0.73183827282E+03  0.80515099197E+03  0.00000000000E+00 0.  1.
          5    1    4    4  502    0  0.14182184091E+02 -0.98487787421E+00 -0.14624662514E+03  0.14701112099E+03  0.47000000000E+01 0. -1.
         -5    1    4    4    0  502 -0.14887587142E+03  0.93686961678E+01 -0.29678883801E+03  0.33220099628E+03  0.47000000000E+01 0. -1.
<mgrwt>
<rscale>  0 0.99969572E+03</rscale>
<asrwt>0</asrwt>
<pdfrwt beam="1">  1        2 0.31007204E+00 0.99969572E+03</pdfrwt>
<pdfrwt beam="2">  1       -2 0.19071566E-01 0.99969572E+03</pdfrwt>
<totfact> 0.17830412E+02</totfact>
</mgrwt>
</event>
<event>
 9    1  0.4412976E-036  0.9993181E+03  0.7818608E-02  0.8681688E-01
          2   -1    0    0  501    0  0.00000000000E+00  0.00000000000E+00  0.19139433976E+04  0.19139433976E+04  0.00000000000E+00 0.  1.
         -2   -1    0    0    0  501 -0.00000000000E+00 -0.00000000000E+00 -0.13044229326E+03  0.13044229326E+03  0.00000000000E+00 0.  1.
         36    2    1    2    0    0 -0.71054273576E-14  0.00000000000E+00  0.17835011043E+04  0.20443856908E+04  0.99931809940E+03 0.  0.
         25    2    3    3    0    0  0.32150846718E+01 -0.61544530889E+02  0.85888420923E+02  0.16642246677E+03  0.12853618379E+03 0.  0.
         35    2    3    3    0    0 -0.32150846718E+01  0.61544530889E+02  0.16976126834E+04  0.18779632241E+04  0.80066159023E+03 0.  0.
         22    1    5    5    0    0  0.33288052860E+03 -0.16769392414E+03  0.10389522866E+04  0.11037900853E+04  0.00000000000E+00 0.  1.
         22    1    5    5    0    0 -0.33609561327E+03  0.22923845503E+03  0.65866039678E+03  0.77417313878E+03  0.00000000000E+00 0.  1.
          5    1    4    4  502    0  0.44665374557E+02 -0.52863760465E+02  0.99853474120E+02  0.12158280778E+03  0.47000000000E+01 0.  1.
         -5    1    4    4    0  502 -0.41450289886E+02 -0.86807704239E+01 -0.13965053197E+02  0.44839658981E+02  0.47000000000E+01 0.  1.
<mgrwt>
<rscale>  0 0.99931810E+03</rscale>
<asrwt>0</asrwt>
<pdfrwt beam="1">  1        2 0.29445281E+00 0.99931810E+03</pdfrwt>
<pdfrwt beam="2">  1       -2 0.20068046E-01 0.99931810E+03</pdfrwt>
<totfact> 0.18650740E+02</totfact>
</mgrwt>
</event>
<event>
 9    1  0.4412976E-036  0.1001658E+04  0.7818608E-02  0.8679461E-01
         -2   -1    0    0    0  501 -0.00000000000E+00  0.00000000000E+00  0.18454878415E+03  0.18454878415E+03  0.00000000000E+00 0.  1.
          2   -1    0    0  501    0  0.00000000000E+00 -0.00000000000E+00 -0.13591512919E+04  0.13591512919E+04  0.00000000000E+00 0.  1.
         36    2    1    2    0    0  0.28421709430E-13 -0.28421709430E-13 -0.11746025077E+04  0.15437000760E+04  0.10016580622E+04 0.  0.
         25    2    3    3    0    0 -0.69291257331E+02  0.19815339022E+01 -0.41294055280E+03  0.43690300139E+03  0.12473623234E+03 0.  0.
         35    2    3    3    0    0  0.69291257331E+02 -0.19815339022E+01 -0.76166195492E+03  0.11067970746E+04  0.80004101522E+03 0.  0.
         22    1    5    5    0    0  0.35666375536E+03 -0.23241938523E+03 -0.32542665214E+03  0.53584541702E+03  0.00000000000E+00 0.  1.
         22    1    5    5    0    0 -0.28737249803E+03  0.23043785132E+03 -0.43623530278E+03  0.57095165762E+03  0.00000000000E+00 0.  1.
          5    1    4    4  502    0  0.41369494835E+01  0.50424390831E+02 -0.10563799874E+03  0.11722290868E+03  0.47000000000E+01 0. -1.
         -5    1    4    4    0  502 -0.73428206815E+02 -0.48442856928E+02 -0.30730255406E+03  0.31968009271E+03  0.47000000000E+01 0. -1.
<mgrwt>
<rscale>  0 0.10016581E+04</rscale>
<asrwt>0</asrwt>
<pdfrwt beam="1">  1        2 0.20910021E+00 0.10016581E+04</pdfrwt>
<pdfrwt beam="2">  1       -2 0.28392120E-01 0.10016581E+04</pdfrwt>
<totfact> 0.20818871E+02</totfact>
</mgrwt>
</event>
<event>
 9    1  0.4412976E-036  0.1000631E+04  0.7818608E-02  0.8680437E-01
         -2   -1    0    0    0  501 -0.00000000000E+00  0.00000000000E+00  0.16438778080E+03  0.16438778080E+03  0.00000000000E+00 0. -1.
          2   -1    0    0  501    0  0.00000000000E+00 -0.00000000000E+00 -0.15227146617E+04  0.15227146617E+04  0.00000000000E+00 0. -1.
         36    2    1    2    0    0 -0.14210854715E-13  0.28421709430E-13 -0.13583268809E+04  0.16871024425E+04  0.10006311688E+04 0.  0.
         25    2    3    3    0    0 -0.56550304580E+02 -0.11963090320E+03 -0.31719274466E+03  0.36731523975E+03  0.12961388098E+03 0.  0.
         35    2    3    3    0    0  0.56550304580E+02  0.11963090320E+03 -0.10411341362E+04  0.13197872027E+04  0.80023026743E+03 0.  0.
         22    1    5    5    0    0  0.27304780063E+03 -0.21419941086E+02 -0.29263093034E+02  0.27544553712E+03  0.00000000000E+00 0.  1.
         22    1    5    5    0    0 -0.21649749605E+03  0.14105084428E+03 -0.10118710432E+04  0.10443416656E+04  0.00000000000E+00 0.  1.
          5    1    4    4  502    0  0.41896563087E+02 -0.44349978974E+02 -0.10252907975E+03  0.11940077398E+03  0.47000000000E+01 0.  1.
         -5    1    4    4    0  502 -0.98446867668E+02 -0.75280924222E+02 -0.21466366491E+03  0.24791446577E+03  0.47000000000E+01 0.  1.
<mgrwt>
<rscale>  0 0.10006312E+04</rscale>
<asrwt>0</asrwt>
<pdfrwt beam="1">  1        2 0.23426379E+00 0.10006312E+04</pdfrwt>
<pdfrwt beam="2">  1       -2 0.25290428E-01 0.10006312E+04</pdfrwt>
<totfact> 0.20671888E+02</totfact>
</mgrwt>
</event>
<event>
 9    1  0.4412976E-036  0.9997904E+03  0.7818608E-02  0.8681238E-01
         -1   -1    0    0    0  501 -0.00000000000E+00  0.00000000000E+00  0.88932769952E+02  0.88932769952E+02  0.00000000000E+00 0. -1.
          1   -1    0    0  501    0  0.00000000000E+00 -0.00000000000E+00 -0.28099338138E+04  0.28099338138E+04  0.00000000000E+00 0. -1.
         36    2    1    2    0    0  0.14210854715E-13  0.00000000000E+00 -0.27210010439E+04  0.28988665838E+04  0.99979037292E+03 0.  0.
         25    2    3    3    0    0 -0.53463603266E+02 -0.12527550749E+03 -0.54792735726E+03  0.57829532176E+03  0.12509508659E+03 0.  0.
         35    2    3    3    0    0  0.53463603266E+02  0.12527550749E+03 -0.21730736866E+04  0.23205712620E+04  0.80265149659E+03 0.  0.
         22    1    5    5    0    0  0.18927483719E+03  0.36651740771E+03 -0.63117956181E+03  0.75402096349E+03  0.00000000000E+00 0.  1.
         22    1    5    5    0    0 -0.13581123392E+03 -0.24124190021E+03 -0.15418941248E+04  0.15665502985E+04  0.00000000000E+00 0.  1.
          5    1    4    4  502    0 -0.54797556029E+02 -0.10917569628E+03 -0.54800072130E+03  0.56147037798E+03  0.47000000000E+01 0. -1.
         -5    1    4    4    0  502  0.13339527631E+01 -0.16099811208E+02  0.73364043751E-01  0.16824943780E+02  0.47000000000E+01 0. -1.
<mgrwt>
<rscale>  0 0.99979037E+03</rscale>
<asrwt>0</asrwt>
<pdfrwt beam="1">  1        1 0.43229743E+00 0.99979037E+03</pdfrwt>
<pdfrwt beam="2">  1       -1 0.13681967E-01 0.99979037E+03</pdfrwt>
<totfact> 0.31821074E+01</totfact>
</mgrwt>
</event>
<event>
 9    1  0.4412976E-036  0.1001784E+04  0.7818608E-02  0.8679341E-01
         -1   -1    0    0    0  501 -0.00000000000E+00  0.00000000000E+00  0.13157205232E+03  0.13157205232E+03  0.00000000000E+00 0.  1.
          1   -1    0    0  501    0  0.00000000000E+00 -0.00000000000E+00 -0.19068855317E+04  0.19068855317E+04  0.00000000000E+00 0.  1.
         36    2    1    2    0    0 -0.14210854715E-13  0.17763568394E-13 -0.17753134794E+04  0.20384575840E+04  0.10017840944E+04 0.  0.
         25    2    3    3    0    0 -0.69062199832E+02  0.30450465824E+01 -0.68319373204E+02  0.15187203640E+03  0.11669926706E+03 0.  0.
         35    2    3    3    0    0  0.69062199832E+02 -0.30450465824E+01 -0.17069941062E+04  0.18865855476E+04  0.80037321933E+03 0.  0.
         22    1    5    5    0    0 -0.26143884578E+03 -0.27167272280E+03 -0.83189407641E+03  0.91334773924E+03  0.00000000000E+00 0.  1.
         22    1    5    5    0    0  0.33050104561E+03  0.26862767622E+03 -0.87510002974E+03  0.97323780837E+03  0.00000000000E+00 0.  1.
          5    1    4    4  502    0 -0.60633871880E+02  0.33444687863E+02  0.73130662126E+01  0.69789573024E+02  0.47000000000E+01 0. -1.
         -5    1    4    4    0  502 -0.84283279516E+01 -0.30399641281E+02 -0.75632439417E+02  0.82082463378E+02  0.47000000000E+01 0. -1.
<mgrwt>
<rscale>  0 0.10017841E+04</rscale>
<asrwt>0</asrwt>
<pdfrwt beam="1">  1        1 0.29336700E+00 0.10017841E+04</pdfrwt>
<pdfrwt beam="2">  1       -1 0.20241854E-01 0.10017841E+04</pdfrwt>
<totfact> 0.72559452E+01</totfact>
</mgrwt>
</event>
<event>
 9    1  0.4412976E-036  0.9994728E+03  0.7818608E-02  0.8681540E-01
          2   -1    0    0  501    0  0.00000000000E+00  0.00000000000E+00  0.20410952750E+04  0.20410952750E+04  0.00000000000E+00 0. -1.
         -2   -1    0    0    0  501 -0.00000000000E+00 -0.00000000000E+00 -0.12235415056E+03  0.12235415056E+03  0.00000000000E+00 0. -1.
         36    2    1    2    0    0 -0.14210854715E-13  0.21316282073E-13  0.19187411245E+04  0.21634494256E+04  0.99947281822E+03 0.  0.
         25    2    3    3    0    0 -0.86968388861E+01  0.48814885578E+02  0.63703662975E+03  0.65106183404E+03  0.12492924412E+03 0.  0.
         35    2    3    3    0    0  0.86968388861E+01 -0.48814885578E+02  0.12817044947E+04  0.15123875915E+04  0.80130598852E+03 0.  0.
         22    1    5    5    0    0  0.11651372573E+03 -0.40975561756E+03  0.66610792925E+03  0.79068001607E+03  0.00000000000E+00 0.  1.
         22    1    5    5    0    0 -0.10781688684E+03  0.36094073198E+03  0.61559656546E+03  0.72170757547E+03  0.00000000000E+00 0.  1.
          5    1    4    4  502    0  0.26781315427E+02  0.38619683678E+02  0.58599602706E+03  0.58789637909E+03  0.47000000000E+01 0. -1.
         -5    1    4    4    0  502 -0.35478154313E+02  0.10195201900E+02  0.51040602692E+02  0.63165454945E+02  0.47000000000E+01 0. -1.
<mgrwt>
<rscale>  0 0.99947282E+03</rscale>
<asrwt>0</asrwt>
<pdfrwt beam="1">  1        2 0.31401463E+00 0.99947282E+03</pdfrwt>
<pdfrwt beam="2">  1       -2 0.18823717E-01 0.99947282E+03</pdfrwt>
<totfact> 0.17631726E+02</totfact>
</mgrwt>
</event>
<event>
 9    1  0.4412976E-036  0.1001122E+04  0.7818608E-02  0.8679970E-01
         -2   -1    0    0    0  501 -0.00000000000E+00  0.00000000000E+00  0.36269474137E+03  0.36269474137E+03  0.00000000000E+00 0.  1.
          2   -1    0    0  501    0  0.00000000000E+00 -0.00000000000E+00 -0.69083306151E+03  0.69083306151E+03  0.00000000000E+00 0.  1.
         36    2    1    2    0    0  0.71054273576E-14  0.00000000000E+00 -0.32813832014E+03  0.10535278029E+04  0.10011224072E+04 0.  0.
         25    2    3    3    0    0 -0.18194586196E+02  0.57580551546E+02 -0.19695912497E+03  0.24064369863E+03  0.12437817290E+03 0.  0.
         35    2    3    3    0    0  0.18194586196E+02 -0.57580551546E+02 -0.13117919517E+03  0.81288410425E+03  0.79995376293E+03 0.  0.
         22    1    5    5    0    0  0.38875658011E+03  0.69184718831E+02 -0.14591436143E+03  0.42096223675E+03  0.00000000000E+00 0. -1.
         22    1    5    5    0    0 -0.37056199391E+03 -0.12676527038E+03  0.14735166257E+02  0.39192186751E+03  0.00000000000E+00 0. -1.
          5    1    4    4  502    0  0.45571196912E+02  0.52686533291E+02 -0.13221672876E+03  0.14951908956E+03  0.47000000000E+01 0. -1.
         -5    1    4    4    0  502 -0.63765783108E+02  0.48940182552E+01 -0.64742396215E+02  0.91124609067E+02  0.47000000000E+01 0. -1.
<mgrwt>
<rscale>  0 0.10011224E+04</rscale>
<asrwt>0</asrwt>
<pdfrwt beam="1">  1        2 0.10628201E+00 0.10011224E+04</pdfrwt>
<pdfrwt beam="2">  1       -2 0.55799191E-01 0.10011224E+04</pdfrwt>
<totfact> 0.15211482E+02</totfact>
</mgrwt>
</event>
<event>
 9    1  0.4412976E-036  0.9990892E+03  0.7818608E-02  0.8681906E-01
          2   -1    0    0  501    0  0.00000000000E+00  0.00000000000E+00  0.40287667683E+03  0.40287667683E+03  0.00000000000E+00 0.  1.
         -2   -1    0    0    0  501 -0.00000000000E+00 -0.00000000000E+00 -0.61940741262E+03  0.61940741262E+03  0.00000000000E+00 0.  1.
         36    2    1    2    0    0 -0.14210854715E-13  0.00000000000E+00 -0.21653073578E+03  0.10222840894E+04  0.99908918521E+03 0.  0.
         25    2    3    3    0    0  0.11961284172E+03  0.36005909947E+02 -0.83314515594E+02  0.19536898899E+03  0.12499630353E+03 0.  0.
         35    2    3    3    0    0 -0.11961284172E+03 -0.36005909947E+02 -0.13321622019E+03  0.82691510045E+03  0.80649759118E+03 0.  0.
         22    1    5    5    0    0  0.68673292315E+01  0.41722777940E+02 -0.46317325699E+03  0.46509936186E+03  0.00000000000E+00 0.  1.
         22    1    5    5    0    0 -0.12648017095E+03 -0.77728687886E+02  0.32995703680E+03  0.36181573860E+03  0.00000000000E+00 0.  1.
          5    1    4    4  502    0  0.50399629190E+02  0.79906311041E+02 -0.42880140896E+02  0.10385536890E+03  0.47000000000E+01 0.  1.
         -5    1    4    4    0  502  0.69213212530E+02 -0.43900401094E+02 -0.40434374698E+02  0.91513620091E+02  0.47000000000E+01 0.  1.
<mgrwt>
<rscale>  0 0.99908919E+03</rscale>
<asrwt>0</asrwt>
<pdfrwt beam="1">  1        2 0.61981028E-01 0.99908919E+03</pdfrwt>
<pdfrwt beam="2">  1       -2 0.95293447E-01 0.99908919E+03</pdfrwt>
<totfact> 0.86979702E+01</totfact>
</mgrwt>
</event>
<event>
 9    1  0.4412976E-036  0.1003399E+04  0.7818608E-02  0.8677808E-01
         -2   -1    0    0    0  501 -0.00000000000E+00  0.00000000000E+00  0.38244948976E+03  0.38244948976E+03  0.00000000000E+00 0. -1.
          2   -1    0    0  501    0  0.00000000000E+00 -0.00000000000E+00 -0.65813259495E+03  0.65813259495E+03  0.00000000000E+00 0. -1.
         36    2    1    2    0    0 -0.28421709430E-13  0.21316282073E-13 -0.27568310518E+03  0.10405820847E+04  0.10033991731E+04 0.  0.
         25    2    3    3    0    0  0.13529971374E+03 -0.37481744753E+02 -0.82593917334E+02  0.20439363615E+03  0.12346703847E+03 0.  0.
         35    2    3    3    0    0 -0.13529971374E+03  0.37481744753E+02 -0.19308918785E+03  0.83618844856E+03  0.80138429814E+03 0.  0.
         22    1    5    5    0    0 -0.27179834408E+03 -0.21991723373E+03  0.15484243982E+03  0.38237953751E+03  0.00000000000E+00 0.  1.
         22    1    5    5    0    0  0.13649863034E+03  0.25739897849E+03 -0.34793162767E+03  0.45380891105E+03  0.00000000000E+00 0.  1.
          5    1    4    4  502    0  0.44170706367E+02 -0.58835364786E+02  0.78692037767E+01  0.74139502416E+02  0.47000000000E+01 0. -1.
         -5    1    4    4    0  502  0.91129007376E+02  0.21353620032E+02 -0.90463121111E+02  0.13025413373E+03  0.47000000000E+01 0. -1.
<mgrwt>
<rscale>  0 0.10033992E+04</rscale>
<asrwt>0</asrwt>
<pdfrwt beam="1">  1        2 0.10125117E+00 0.10033992E+04</pdfrwt>
<pdfrwt beam="2">  1       -2 0.58838384E-01 0.10033992E+04</pdfrwt>
<totfact> 0.14460922E+02</totfact>
</mgrwt>
</event>
<event>
 9    1  0.4412976E-036  0.1000289E+04  0.7818608E-02  0.8680762E-01
         -2   -1    0    0    0  501 -0.00000000000E+00  0.00000000000E+00  0.47962468468E+03  0.47962468468E+03  0.00000000000E+00 0.  1.
          2   -1    0    0  501    0  0.00000000000E+00 -0.00000000000E+00 -0.52154254315E+03  0.52154254315E+03  0.00000000000E+00 0.  1.
         36    2    1    2    0    0 -0.71054273576E-14 -0.28421709430E-13 -0.41917858466E+02  0.10011672278E+04  0.10002893138E+04 0.  0.
         25    2    3    3    0    0  0.17948545885E+02  0.66881375960E+02 -0.13086779172E+03  0.19370885278E+03  0.12490585250E+03 0.  0.
         35    2    3    3    0    0 -0.17948545885E+02 -0.66881375960E+02  0.88949933252E+02  0.80745837505E+03  0.79955091649E+03 0.  0.
         22    1    5    5    0    0 -0.31985737587E+03  0.19375051377E+03 -0.65680890691E+02  0.37968668911E+03  0.00000000000E+00 0. -1.
         22    1    5    5    0    0  0.30190882999E+03 -0.26063188973E+03  0.15463082394E+03  0.42777168593E+03  0.00000000000E+00 0. -1.
          5    1    4    4  502    0 -0.25278930598E+02  0.76501298642E+02 -0.34934887534E+02  0.87943216869E+02  0.47000000000E+01 0.  1.
         -5    1    4    4    0  502  0.43227476483E+02 -0.96199226823E+01 -0.95932904184E+02  0.10576563592E+03  0.47000000000E+01 0.  1.
<mgrwt>
<rscale>  0 0.10002893E+04</rscale>
<asrwt>0</asrwt>
<pdfrwt beam="1">  1        2 0.80237314E-01 0.10002893E+04</pdfrwt>
<pdfrwt beam="2">  1       -2 0.73788413E-01 0.10002893E+04</pdfrwt>
<totfact> 0.11727475E+02</totfact>
</mgrwt>
</event>
<event>
 9    1  0.4412976E-036  0.9986688E+03  0.7818608E-02  0.8682307E-01
         -2   -1    0    0    0  501 -0.00000000000E+00  0.00000000000E+00  0.10107740747E+03  0.10107740747E+03  0.00000000000E+00 0. -1.
          2   -1    0    0  501    0  0.00000000000E+00 -0.00000000000E+00 -0.24667711925E+04  0.24667711925E+04  0.00000000000E+00 0. -1.
         36    2    1    2    0    0  0.10658141036E-13  0.10658141036E-13 -0.23656937850E+04  0.25678485999E+04  0.99866878786E+03 0.  0.
         25    2    3    3    0    0 -0.14315492265E+02 -0.22158576438E+01 -0.76907238472E+03  0.78147331304E+03  0.13790707997E+03 0.  0.
         35    2    3    3    0    0  0.14315492265E+02  0.22158576438E+01 -0.15966214003E+04  0.17863752869E+04  0.80107860194E+03 0.  0.
         22    1    5    5    0    0 -0.25023311296E+03  0.19968032304E+03 -0.13120193142E+04  0.13505123187E+04  0.00000000000E+00 0.  1.
         22    1    5    5    0    0  0.26454860523E+03 -0.19746446540E+03 -0.28460208609E+03  0.43586296818E+03  0.00000000000E+00 0.  1.
          5    1    4    4  502    0 -0.10535536883E+02 -0.30682914299E+02 -0.39540275176E+02  0.51361095474E+02  0.47000000000E+01 0.  1.
         -5    1    4    4    0  502 -0.37799553816E+01  0.28467056656E+02 -0.72953210954E+03  0.73011221756E+03  0.47000000000E+01 0.  1.
<mgrwt>
<rscale>  0 0.99866879E+03</rscale>
<asrwt>0</asrwt>
<pdfrwt beam="1">  1        2 0.37950323E+00 0.99866879E+03</pdfrwt>
<pdfrwt beam="2">  1       -2 0.15550372E-01 0.99866879E+03</pdfrwt>
<totfact> 0.13731128E+02</totfact>
</mgrwt>
</event>
<event>
 9    1  0.4412976E-036  0.1000685E+04  0.7818608E-02  0.8680386E-01
          2   -1    0    0  501    0  0.00000000000E+00  0.00000000000E+00  0.17005953110E+04  0.17005953110E+04  0.00000000000E+00 0. -1.
         -2   -1    0    0    0  501 -0.00000000000E+00 -0.00000000000E+00 -0.14720875198E+03  0.14720875198E+03  0.00000000000E+00 0. -1.
         36    2    1    2    0    0  0.00000000000E+00  0.71054273576E-14  0.15533865590E+04  0.18478040629E+04  0.10006847922E+04 0.  0.
         25    2    3    3    0    0  0.11128819228E+03 -0.44070368424E+02  0.42699879873E+03  0.46097652833E+03  0.12587345407E+03 0.  0.
         35    2    3    3    0    0 -0.11128819228E+03  0.44070368424E+02  0.11263877603E+04  0.13868275346E+04  0.80013371707E+03 0.  0.
         22    1    5    5    0    0 -0.21604593862E+03 -0.24335536589E+03  0.10072726173E+04  0.10585347454E+04  0.00000000000E+00 0. -1.
         22    1    5    5    0    0  0.10475774634E+03  0.28742573432E+03  0.11911514299E+03  0.32829278922E+03  0.00000000000E+00 0. -1.
          5    1    4    4  502    0  0.90159220330E+02 -0.65220183869E+02  0.17681385049E+03  0.20896790452E+03  0.47000000000E+01 0. -1.
         -5    1    4    4    0  502  0.21128971949E+02  0.21149815446E+02  0.25018494823E+03  0.25200862380E+03  0.47000000000E+01 0. -1.
<mgrwt>
<rscale>  0 0.10006848E+04</rscale>
<asrwt>0</asrwt>
<pdfrwt beam="1">  1        2 0.26163003E+00 0.10006848E+04</pdfrwt>
<pdfrwt beam="2">  1       -2 0.22647501E-01 0.10006848E+04</pdfrwt>
<totfact> 0.19936528E+02</totfact>
</mgrwt>
</event>
<event>
 9    1  0.4412976E-036  0.9996572E+03  0.7818608E-02  0.8681364E-01
         -1   -1    0    0    0  501 -0.00000000000E+00  0.00000000000E+00  0.63833515460E+03  0.63833515460E+03  0.00000000000E+00 0. -1.
          1   -1    0    0  501    0  0.00000000000E+00 -0.00000000000E+00 -0.39137532967E+03  0.39137532967E+03  0.00000000000E+00 0. -1.
         36    2    1    2    0    0  0.14210854715E-13  0.00000000000E+00  0.24695982493E+03  0.10297104843E+04  0.99965720439E+03 0.  0.
         25    2    3    3    0    0 -0.12202020435E+03  0.53863513649E+02  0.91579575853E+02  0.20521146269E+03  0.12623279025E+03 0.  0.
         35    2    3    3    0    0  0.12202020435E+03 -0.53863513649E+02  0.15538024908E+03  0.82449902158E+03  0.79866476472E+03 0.  0.
         22    1    5    5    0    0  0.11939618310E+03 -0.19886519342E+03 -0.28116475726E+03  0.36449476596E+03  0.00000000000E+00 0. -1.
         22    1    5    5    0    0  0.26240212521E+01  0.14500167977E+03  0.43654500634E+03  0.46000425561E+03  0.00000000000E+00 0. -1.
          5    1    4    4  502    0 -0.76242240919E+02  0.93915285754E+02  0.73320031838E+02  0.14153048176E+03  0.47000000000E+01 0.  1.
         -5    1    4    4    0  502 -0.45777963430E+02 -0.40051772105E+02  0.18259544014E+02  0.63680980929E+02  0.47000000000E+01 0.  1.
<mgrwt>
<rscale>  0 0.99965720E+03</rscale>
<asrwt>0</asrwt>
<pdfrwt beam="1">  1        1 0.60211589E-01 0.99965720E+03</pdfrwt>
<pdfrwt beam="2">  1       -1 0.98205409E-01 0.99965720E+03</pdfrwt>
<totfact> 0.73440347E+01</totfact>
</mgrwt>
</event>
<event>
 9    1  0.4412976E-036  0.9999856E+03  0.7818608E-02  0.8681052E-01
         -1   -1    0    0    0  501 -0.00000000000E+00  0.00000000000E+00  0.30879613547E+03  0.30879613547E+03  0.00000000000E+00 0. -1.
          1   -1    0    0  501    0  0.00000000000E+00 -0.00000000000E+00 -0.80957233000E+03  0.80957233000E+03  0.00000000000E+00 0. -1.
         36    2    1    2    0    0  0.00000000000E+00 -0.35527136788E-14 -0.50077619453E+03  0.11183684655E+04  0.99998561367E+03 0.  0.
         25    2    3    3    0    0  0.12903542404E+03  0.76754772036E+00 -0.15860534818E+03  0.23888899038E+03  0.12353770060E+03 0.  0.
         35    2    3    3    0    0 -0.12903542404E+03 -0.76754772036E+00 -0.34217084635E+03  0.87947947509E+03  0.79984531581E+03 0.  0.
         22    1    5    5    0    0  0.95308990889E+02  0.49366152702E+02 -0.55555516631E+03  0.56582891725E+03  0.00000000000E+00 0. -1.
         22    1    5    5    0    0 -0.22434441493E+03 -0.50133700422E+02  0.21338431996E+03  0.31365055784E+03  0.00000000000E+00 0. -1.
          5    1    4    4  502    0  0.24318956592E+02  0.29640843559E+02  0.84759166340E+01  0.39546459000E+02  0.47000000000E+01 0.  1.
         -5    1    4    4    0  502  0.10471646745E+03 -0.28873295839E+02 -0.16708126481E+03  0.19934253138E+03  0.47000000000E+01 0.  1.
<mgrwt>
<rscale>  0 0.99998561E+03</rscale>
<asrwt>0</asrwt>
<pdfrwt beam="1">  1        1 0.12454959E+00 0.99998561E+03</pdfrwt>
<pdfrwt beam="2">  1       -1 0.47507099E-01 0.99998561E+03</pdfrwt>
<totfact> 0.10915127E+02</totfact>
</mgrwt>
</event>
<event>
 9    1  0.4412976E-036  0.1002717E+04  0.7818608E-02  0.8678454E-01
          1   -1    0    0  501    0  0.00000000000E+00  0.00000000000E+00  0.81862729581E+03  0.81862729581E+03  0.00000000000E+00 0. -1.
         -1   -1    0    0    0  501 -0.00000000000E+00 -0.00000000000E+00 -0.30705129442E+03  0.30705129442E+03  0.00000000000E+00 0. -1.
         36    2    1    2    0    0  0.28421709430E-13  0.21316282073E-13  0.51157600139E+03  0.11256785902E+04  0.10027174494E+04 0.  0.
         25    2    3    3    0    0 -0.11695180867E+03  0.55089591207E+02  0.16603884430E+03  0.24480401791E+03  0.12509005060E+03 0.  0.
         35    2    3    3    0    0  0.11695180867E+03 -0.55089591207E+02  0.34553715709E+03  0.88087457231E+03  0.79989467845E+03 0.  0.
         22    1    5    5    0    0  0.44857530271E+02  0.31217256549E+03  0.39267739976E+03  0.50364615451E+03  0.00000000000E+00 0. -1.
         22    1    5    5    0    0  0.72094278395E+02 -0.36726215670E+03 -0.47140242675E+02  0.37722841780E+03  0.00000000000E+00 0. -1.
          5    1    4    4  502    0 -0.13119155181E+03  0.60728409261E+02  0.97541189215E+02  0.17445783603E+03  0.47000000000E+01 0.  1.
         -5    1    4    4    0  502  0.14239743144E+02 -0.56388180534E+01  0.68497655085E+02  0.70346181887E+02  0.47000000000E+01 0.  1.
<mgrwt>
<rscale>  0 0.10027174E+04</rscale>
<asrwt>0</asrwt>
<pdfrwt beam="1">  1        1 0.12594266E+00 0.10027174E+04</pdfrwt>
<pdfrwt beam="2">  1       -1 0.47238661E-01 0.10027174E+04</pdfrwt>
<totfact> 0.10826830E+02</totfact>
</mgrwt>
</event>
<event>
 9    1  0.4412976E-036  0.1002255E+04  0.7818608E-02  0.8678893E-01
         -1   -1    0    0    0  501 -0.00000000000E+00  0.00000000000E+00  0.19032032692E+03  0.19032032692E+03  0.00000000000E+00 0. -1.
          1   -1    0    0  501    0  0.00000000000E+00 -0.00000000000E+00 -0.13195070361E+04  0.13195070361E+04  0.00000000000E+00 0. -1.
         36    2    1    2    0    0  0.42632564146E-13  0.00000000000E+00 -0.11291867092E+04  0.15098273630E+04  0.10022554774E+04 0.  0.
         25    2    3    3    0    0 -0.30135667790E+02 -0.85816928358E+02 -0.45949326502E+02  0.16054509565E+03  0.12405919339E+03 0.  0.
         35    2    3    3    0    0  0.30135667790E+02  0.85816928358E+02 -0.10832373827E+04  0.13492822674E+04  0.79930388847E+03 0.  0.
         22    1    5    5    0    0  0.31869703967E+03 -0.21318666694E+03 -0.44146900314E+03  0.58473176653E+03  0.00000000000E+00 0.  1.
         22    1    5    5    0    0 -0.28856137188E+03  0.29900359530E+03 -0.64176837953E+03  0.76455050083E+03  0.00000000000E+00 0.  1.
          5    1    4    4  502    0 -0.73946607722E+02 -0.30422909965E+02 -0.87243471607E+01  0.80572070084E+02  0.47000000000E+01 0.  1.
         -5    1    4    4    0  502  0.43810939932E+02 -0.55394018392E+02 -0.37224979341E+02  0.79973025567E+02  0.47000000000E+01 0.  1.
<mgrwt>
<rscale>  0 0.10022555E+04</rscale>
<asrwt>0</asrwt>
<pdfrwt beam="1">  1        1 0.20300108E+00 0.10022555E+04</pdfrwt>
<pdfrwt beam="2">  1       -1 0.29280050E-01 0.10022555E+04</pdfrwt>
<totfact> 0.10195515E+02</totfact>
</mgrwt>
</event>
<event>
 9    1  0.4412976E-036  0.1001611E+04  0.7818608E-02  0.8679505E-01
          2   -1    0    0  501    0  0.00000000000E+00  0.00000000000E+00  0.13186062496E+04  0.13186062496E+04  0.00000000000E+00 0. -1.
         -2   -1    0    0    0  501 -0.00000000000E+00 -0.00000000000E+00 -0.19020544876E+03  0.19020544876E+03  0.00000000000E+00 0. -1.
         36    2    1    2    0    0 -0.35527136788E-13  0.71054273576E-14  0.11284008009E+04  0.15088116984E+04  0.10016108894E+04 0.  0.
         25    2    3    3    0    0  0.60583098687E+02 -0.50277982775E+02  0.38835934044E+03  0.41551769651E+03  0.12503516070E+03 0.  0.
         35    2    3    3    0    0 -0.60583098687E+02  0.50277982775E+02  0.74004146042E+03  0.10932940019E+04  0.80089463975E+03 0.  0.
         22    1    5    5    0    0  0.31114911141E+03 -0.16381084757E+03  0.46781136906E+03  0.58523092907E+03  0.00000000000E+00 0.  1.
         22    1    5    5    0    0 -0.37173221010E+03  0.21408883034E+03  0.27223009136E+03  0.50806307280E+03  0.00000000000E+00 0.  1.
          5    1    4    4  502    0 -0.25058182025E+02 -0.56150288471E+02  0.15406931306E+03  0.16595243478E+03  0.47000000000E+01 0. -1.
         -5    1    4    4    0  502  0.85641280711E+02  0.58723056956E+01  0.23429002737E+03  0.24956526173E+03  0.47000000000E+01 0. -1.
<mgrwt>
<rscale>  0 0.10016109E+04</rscale>
<asrwt>0</asrwt>
<pdfrwt beam="1">  1        2 0.20286249E+00 0.10016109E+04</pdfrwt>
<pdfrwt beam="2">  1       -2 0.29262378E-01 0.10016109E+04</pdfrwt>
<totfact> 0.20800129E+02</totfact>
</mgrwt>
</event>
<event>
 9    1  0.4412976E-036  0.9988823E+03  0.7818608E-02  0.8682103E-01
         -2   -1    0    0    0  501 -0.00000000000E+00  0.00000000000E+00  0.25806522232E+03  0.25806522232E+03  0.00000000000E+00 0. -1.
          2   -1    0    0  501    0  0.00000000000E+00 -0.00000000000E+00 -0.96658309874E+03  0.96658309874E+03  0.00000000000E+00 0. -1.
         36    2    1    2    0    0  0.00000000000E+00  0.14210854715E-13 -0.70851787642E+03  0.12246483211E+04  0.99888233996E+03 0.  0.
         25    2    3    3    0    0  0.69538551983E+02 -0.11398868933E+03 -0.17591876418E+03  0.25404738334E+03  0.12555329499E+03 0.  0.
         35    2    3    3    0    0 -0.69538551983E+02  0.11398868933E+03 -0.53259911223E+03  0.97060093772E+03  0.80035950326E+03 0.  0.
         22    1    5    5    0    0  0.30112113956E+03  0.18973027411E+03 -0.53134118129E+02  0.35985379269E+03  0.00000000000E+00 0. -1.
         22    1    5    5    0    0 -0.37065969154E+03 -0.75741584788E+02 -0.47946499410E+03  0.61074714503E+03  0.00000000000E+00 0. -1.
          5    1    4    4  502    0  0.69586471390E+02 -0.38738253652E+02 -0.15731526118E+03  0.17638908894E+03  0.47000000000E+01 0. -1.
         -5    1    4    4    0  502 -0.47919407610E-01 -0.75250435674E+02 -0.18603503008E+02  0.77658294403E+02  0.47000000000E+01 0. -1.
<mgrwt>
<rscale>  0 0.99888234E+03</rscale>
<asrwt>0</asrwt>
<pdfrwt beam="1">  1        2 0.14870509E+00 0.99888234E+03</pdfrwt>
<pdfrwt beam="2">  1       -2 0.39702342E-01 0.99888234E+03</pdfrwt>
<totfact> 0.19211198E+02</totfact>
</mgrwt>
</event>
<event>
 9    1  0.4412976E-036  0.1000314E+04  0.7818608E-02  0.8680739E-01
         -2   -1    0    0    0  501 -0.00000000000E+00  0.00000000000E+00  0.30904639940E+03  0.30904639940E+03  0.00000000000E+00 0. -1.
          2   -1    0    0  501    0  0.00000000000E+00 -0.00000000000E+00 -0.80944768383E+03  0.80944768383E+03  0.00000000000E+00 0. -1.
         36    2    1    2    0    0  0.00000000000E+00 -0.28421709430E-13 -0.50040128443E+03  0.11184940832E+04  0.10003137352E+04 0.  0.
         25    2    3    3    0    0 -0.17950082320E+02 -0.13749482454E+03 -0.11631296140E+03  0.21969273798E+03  0.12453578563E+03 0.  0.
         35    2    3    3    0    0  0.17950082320E+02  0.13749482454E+03 -0.38408832304E+03  0.89880134525E+03  0.80068282491E+03 0.  0.
         22    1    5    5    0    0  0.26092393644E+03  0.25283871464E+03  0.70974031373E+02  0.37019728438E+03  0.00000000000E+00 0.  1.
         22    1    5    5    0    0 -0.24297385412E+03 -0.11534389010E+03 -0.45506235441E+03  0.52860406088E+03  0.00000000000E+00 0.  1.
          5    1    4    4  502    0  0.46975787938E+02 -0.82805076505E+02 -0.88957873963E+02  0.13038020819E+03  0.47000000000E+01 0.  1.
         -5    1    4    4    0  502 -0.64925870258E+02 -0.54689748031E+02 -0.27355087433E+02  0.89312529787E+02  0.47000000000E+01 0.  1.
<mgrwt>
<rscale>  0 0.10003137E+04</rscale>
<asrwt>0</asrwt>
<pdfrwt beam="1">  1        2 0.12453041E+00 0.10003137E+04</pdfrwt>
<pdfrwt beam="2">  1       -2 0.47545600E-01 0.10003137E+04</pdfrwt>
<totfact> 0.17204878E+02</totfact>
</mgrwt>
</event>
<event>
 9    1  0.4412976E-036  0.1000539E+04  0.7818608E-02  0.8680525E-01
         -2   -1    0    0    0  501 -0.00000000000E+00  0.00000000000E+00  0.10851183113E+03  0.10851183113E+03  0.00000000000E+00 0.  1.
          2   -1    0    0  501    0  0.00000000000E+00 -0.00000000000E+00 -0.23063798469E+04  0.23063798469E+04  0.00000000000E+00 0.  1.
         36    2    1    2    0    0 -0.14210854715E-13  0.00000000000E+00 -0.21978680158E+04  0.24148916780E+04  0.10005388558E+04 0.  0.
         25    2    3    3    0    0 -0.10812819742E+03  0.81586609387E+02 -0.50434505173E+03  0.53702450038E+03  0.12523298646E+03 0.  0.
         35    2    3    3    0    0  0.10812819742E+03 -0.81586609387E+02 -0.16935229641E+04  0.18778671777E+04  0.80001064071E+03 0.  0.
         22    1    5    5    0    0 -0.34230599177E+03 -0.95867184983E+02 -0.64207697117E+03  0.73391194708E+03  0.00000000000E+00 0.  1.
         22    1    5    5    0    0  0.45043418919E+03  0.14280575596E+02 -0.10514459929E+04  0.11439552306E+04  0.00000000000E+00 0.  1.
          5    1    4    4  502    0 -0.10612838942E+03  0.10791504837E+03 -0.36575354293E+03  0.39586189116E+03  0.47000000000E+01 0.  1.
         -5    1    4    4    0  502 -0.19998079990E+01 -0.26328438983E+02 -0.13859150880E+03  0.14116260922E+03  0.47000000000E+01 0.  1.
<mgrwt>
<rscale>  0 0.10005389E+04</rscale>
<asrwt>0</asrwt>
<pdfrwt beam="1">  1        2 0.35482764E+00 0.10005389E+04</pdfrwt>
<pdfrwt beam="2">  1       -2 0.16694129E-01 0.10005389E+04</pdfrwt>
<totfact> 0.15185172E+02</totfact>
</mgrwt>
</event>
<event>
 9    1  0.4412976E-036  0.9988779E+03  0.7818608E-02  0.8682107E-01
         -2   -1    0    0    0  501 -0.00000000000E+00  0.00000000000E+00  0.13826725272E+03  0.13826725272E+03  0.00000000000E+00 0.  1.
          2   -1    0    0  501    0  0.00000000000E+00 -0.00000000000E+00 -0.18040370175E+04  0.18040370175E+04  0.00000000000E+00 0.  1.
         36    2    1    2    0    0  0.71054273576E-14  0.00000000000E+00 -0.16657697648E+04  0.19423042702E+04  0.99887785483E+03 0.  0.
         25    2    3    3    0    0  0.72897274742E+01  0.82935376152E+02 -0.53865817250E+03  0.55915436696E+03  0.12477805313E+03 0.  0.
         35    2    3    3    0    0 -0.72897274742E+01 -0.82935376152E+02 -0.11271115923E+04  0.13831499033E+04  0.79736547248E+03 0.  0.
         22    1    5    5    0    0  0.32235165665E+03  0.10060958250E+02 -0.93801491655E+03  0.99190916777E+03  0.00000000000E+00 0.  1.
         22    1    5    5    0    0 -0.32964138413E+03 -0.92996334402E+02 -0.18909667574E+03  0.39124073550E+03  0.00000000000E+00 0.  1.
          5    1    4    4  502    0  0.59383805660E+02  0.40364567275E+02 -0.38007847618E+03  0.38683003079E+03  0.47000000000E+01 0. -1.
         -5    1    4    4    0  502 -0.52094078186E+02  0.42570808877E+02 -0.15857969632E+03  0.17232433617E+03  0.47000000000E+01 0. -1.
<mgrwt>
<rscale>  0 0.99887785E+03</rscale>
<asrwt>0</asrwt>
<pdfrwt beam="1">  1        2 0.27754415E+00 0.99887785E+03</pdfrwt>
<pdfrwt beam="2">  1       -2 0.21271886E-01 0.99887785E+03</pdfrwt>
<totfact> 0.19449450E+02</totfact>
</mgrwt>
</event>
<event>
 9    1  0.4412976E-036  0.1000117E+04  0.7818608E-02  0.8680927E-01
          2   -1    0    0  501    0  0.00000000000E+00  0.00000000000E+00  0.56622204181E+03  0.56622204181E+03  0.00000000000E+00 0. -1.
         -2   -1    0    0    0  501 -0.00000000000E+00 -0.00000000000E+00 -0.44162611660E+03  0.44162611660E+03  0.00000000000E+00 0. -1.
         36    2    1    2    0    0 -0.53290705182E-14  0.00000000000E+00  0.12459592520E+03  0.10078481584E+04  0.10001168761E+04 0.  0.
         25    2    3    3    0    0  0.21180539518E+01  0.75129112605E+02  0.15452202533E+03  0.21231680901E+03  0.12470966828E+03 0.  0.
         35    2    3    3    0    0 -0.21180539518E+01 -0.75129112605E+02 -0.29926100129E+02  0.79553134940E+03  0.79140740879E+03 0.  0.
         22    1    5    5    0    0 -0.36885366632E+02 -0.13972299833E+03  0.36567126642E+03  0.39319018505E+03  0.00000000000E+00 0.  1.
         22    1    5    5    0    0  0.34767312680E+02  0.64593885722E+02 -0.39559736655E+03  0.40234116435E+03  0.00000000000E+00 0.  1.
          5    1    4    4  502    0 -0.46783965853E+01 -0.10860776277E+01  0.13233971992E+03  0.13251022009E+03  0.47000000000E+01 0.  1.
         -5    1    4    4    0  502  0.67964505371E+01  0.76215190233E+02  0.22182305416E+02  0.79806588924E+02  0.47000000000E+01 0.  1.
<mgrwt>
<rscale>  0 0.10001169E+04</rscale>
<asrwt>0</asrwt>
<pdfrwt beam="1">  1        2 0.87111083E-01 0.10001169E+04</pdfrwt>
<pdfrwt beam="2">  1       -2 0.67942480E-01 0.10001169E+04</pdfrwt>
<totfact> 0.12762369E+02</totfact>
</mgrwt>
</event>
<event>
 9    1  0.4412976E-036  0.1000225E+04  0.7818608E-02  0.8680824E-01
         -2   -1    0    0    0  501 -0.00000000000E+00  0.00000000000E+00  0.14891566070E+03  0.14891566070E+03  0.00000000000E+00 0. -1.
          2   -1    0    0  501    0  0.00000000000E+00 -0.00000000000E+00 -0.16795577598E+04  0.16795577598E+04  0.00000000000E+00 0. -1.
         36    2    1    2    0    0  0.00000000000E+00 -0.14210854715E-13 -0.15306420991E+04  0.18284734205E+04  0.10002248817E+04 0.  0.
         25    2    3    3    0    0  0.47340611182E+02  0.11465817928E+03 -0.40472111525E+03  0.44139034094E+03  0.12505446973E+03 0.  0.
         35    2    3    3    0    0 -0.47340611182E+02 -0.11465817928E+03 -0.11259209839E+04  0.13870830796E+04  0.80057090641E+03 0.  0.
         22    1    5    5    0    0  0.65720741397E+02 -0.33222882841E+03 -0.13219275381E+03  0.36355210691E+03  0.00000000000E+00 0. -1.
         22    1    5    5    0    0 -0.11306135258E+03  0.21757064913E+03 -0.99372823005E+03  0.10235309727E+04  0.00000000000E+00 0. -1.
          5    1    4    4  502    0 -0.21407365684E+02  0.88033899022E+02 -0.14221182751E+03  0.16868472535E+03  0.47000000000E+01 0. -1.
         -5    1    4    4    0  502  0.68747976866E+02  0.26624280260E+02 -0.26250928775E+03  0.27270561559E+03  0.47000000000E+01 0. -1.
<mgrwt>
<rscale>  0 0.10002249E+04</rscale>
<asrwt>0</asrwt>
<pdfrwt beam="1">  1        2 0.25839351E+00 0.10002249E+04</pdfrwt>
<pdfrwt beam="2">  1       -2 0.22910101E-01 0.10002249E+04</pdfrwt>
<totfact> 0.20077843E+02</totfact>
</mgrwt>
</event>
<event>
 9    1  0.4412976E-036  0.1001067E+04  0.7818608E-02  0.8680023E-01
         -2   -1    0    0    0  501 -0.00000000000E+00  0.00000000000E+00  0.10717082933E+03  0.10717082933E+03  0.00000000000E+00 0.  1.
          2   -1    0    0  501    0  0.00000000000E+00 -0.00000000000E+00 -0.23377037586E+04  0.23377037586E+04  0.00000000000E+00 0.  1.
         36    2    1    2    0    0 -0.28421709430E-13 -0.71054273576E-14 -0.22305329292E+04  0.24448745879E+04  0.10010667321E+04 0.  0.
         25    2    3    3    0    0 -0.12848808996E+03  0.50927899593E+02 -0.45114202858E+03  0.48824458616E+03  0.12550221411E+03 0.  0.
         35    2    3    3    0    0  0.12848808996E+03 -0.50927899593E+02 -0.17793909007E+04  0.19566300018E+04  0.80191405161E+03 0.  0.
         22    1    5    5    0    0  0.28571038444E+03 -0.24220404796E+03 -0.37297820107E+03  0.52858865207E+03  0.00000000000E+00 0. -1.
         22    1    5    5    0    0 -0.15722229448E+03  0.19127614836E+03 -0.14064126996E+04  0.14280413497E+04  0.00000000000E+00 0. -1.
          5    1    4    4  502    0 -0.57013134721E+02  0.70406874296E+02 -0.35706297794E+03  0.36840695663E+03  0.47000000000E+01 0. -1.
         -5    1    4    4    0  502 -0.71474955241E+02 -0.19478974703E+02 -0.94079050639E+02  0.11983762953E+03  0.47000000000E+01 0. -1.
<mgrwt>
<rscale>  0 0.10010667E+04</rscale>
<asrwt>0</asrwt>
<pdfrwt beam="1">  1        2 0.35964672E+00 0.10010667E+04</pdfrwt>
<pdfrwt beam="2">  1       -2 0.16487820E-01 0.10010667E+04</pdfrwt>
<totfact> 0.14861238E+02</totfact>
</mgrwt>
</event>
<event>
 9    1  0.4412976E-036  0.9999526E+03  0.7818608E-02  0.8681083E-01
          1   -1    0    0  501    0  0.00000000000E+00  0.00000000000E+00  0.87819294056E+03  0.87819294056E+03  0.00000000000E+00 0. -1.
         -1   -1    0    0    0  501 -0.00000000000E+00 -0.00000000000E+00 -0.28464851962E+03  0.28464851962E+03  0.00000000000E+00 0. -1.
         36    2    1    2    0    0  0.71054273576E-14  0.71054273576E-14  0.59354442093E+03  0.11628414602E+04  0.99995263983E+03 0.  0.
         25    2    3    3    0    0 -0.41407551904E+02  0.29513087549E+02  0.26371079498E+03  0.29694084497E+03  0.12666836357E+03 0.  0.
         35    2    3    3    0    0  0.41407551904E+02 -0.29513087549E+02  0.32983362595E+03  0.86590061521E+03  0.79900440983E+03 0.  0.
         22    1    5    5    0    0 -0.32797298961E+03 -0.20875921455E+03  0.13605951975E+03  0.41189669152E+03  0.00000000000E+00 0.  1.
         22    1    5    5    0    0  0.36938054151E+03  0.17924612700E+03  0.19377410620E+03  0.45400392369E+03  0.00000000000E+00 0.  1.
          5    1    4    4  502    0 -0.52188336303E+02 -0.30675395087E+02  0.64848381264E+02  0.88836956625E+02  0.47000000000E+01 0. -1.
         -5    1    4    4    0  502  0.10780784398E+02  0.60188482636E+02  0.19886241372E+03  0.20810388834E+03  0.47000000000E+01 0. -1.
<mgrwt>
<rscale>  0 0.99995264E+03</rscale>
<asrwt>0</asrwt>
<pdfrwt beam="1">  1        1 0.13510661E+00 0.99995264E+03</pdfrwt>
<pdfrwt beam="2">  1       -1 0.43792080E-01 0.99995264E+03</pdfrwt>
<totfact> 0.11050090E+02</totfact>
</mgrwt>
</event>
<event>
 9    1  0.4412976E-036  0.9996065E+03  0.7818608E-02  0.8681413E-01
         -2   -1    0    0    0  501 -0.00000000000E+00  0.00000000000E+00  0.16348288644E+03  0.16348288644E+03  0.00000000000E+00 0. -1.
          2   -1    0    0  501    0  0.00000000000E+00 -0.00000000000E+00 -0.15280088858E+04  0.15280088858E+04  0.00000000000E+00 0. -1.
         36    2    1    2    0    0  0.56843418861E-13  0.21316282073E-13 -0.13645259994E+04  0.16914917722E+04  0.99960652891E+03 0.  0.
         25    2    3    3    0    0  0.12496178217E+03  0.46102582009E+02 -0.33199887984E+03  0.37870509561E+03  0.12431169759E+03 0.  0.
         35    2    3    3    0    0 -0.12496178217E+03 -0.46102582009E+02 -0.10325271195E+04  0.13127866766E+04  0.79972227099E+03 0.  0.
         22    1    5    5    0    0  0.24899841063E+03  0.21840937500E+03 -0.58584711330E+03  0.67299309339E+03  0.00000000000E+00 0.  1.
         22    1    5    5    0    0 -0.37396019280E+03 -0.26451195700E+03 -0.44668000622E+03  0.63979358324E+03  0.00000000000E+00 0.  1.
          5    1    4    4  502    0  0.14822113437E+03  0.45077160302E+02 -0.25789288294E+03  0.30088583238E+03  0.47000000000E+01 0.  1.
         -5    1    4    4    0  502 -0.23259352195E+02  0.10254217069E+01 -0.74105996898E+02  0.77819263235E+02  0.47000000000E+01 0.  1.
<mgrwt>
<rscale>  0 0.99960653E+03</rscale>
<asrwt>0</asrwt>
<pdfrwt beam="1">  1        2 0.23507828E+00 0.99960653E+03</pdfrwt>
<pdfrwt beam="2">  1       -2 0.25151214E-01 0.99960653E+03</pdfrwt>
<totfact> 0.20732171E+02</totfact>
</mgrwt>
</event>
<event>
 9    1  0.4412976E-036  0.9995714E+03  0.7818608E-02  0.8681446E-01
          2   -1    0    0  501    0  0.00000000000E+00  0.00000000000E+00  0.77857898184E+03  0.77857898184E+03  0.00000000000E+00 0.  1.
         -2   -1    0    0    0  501 -0.00000000000E+00 -0.00000000000E+00 -0.32082259422E+03  0.32082259422E+03  0.00000000000E+00 0.  1.
         36    2    1    2    0    0 -0.14210854715E-13 -0.14210854715E-13  0.45775638762E+03  0.10994015761E+04  0.99957136566E+03 0.  0.
         25    2    3    3    0    0  0.50101706321E+02  0.30672538346E+02 -0.47864365138E+02  0.15073392652E+03  0.13030246955E+03 0.  0.
         35    2    3    3    0    0 -0.50101706321E+02 -0.30672538346E+02  0.50562075276E+03  0.94866764954E+03  0.80054167792E+03 0.  0.
         22    1    5    5    0    0  0.88618595353E+02  0.76379012702E+02  0.68675566189E+03  0.69664937246E+03  0.00000000000E+00 0.  1.
         22    1    5    5    0    0 -0.13872030167E+03 -0.10705155105E+03 -0.18113490913E+03  0.25201827708E+03  0.00000000000E+00 0.  1.
          5    1    4    4  502    0 -0.23896762375E+02 -0.33256987564E+02 -0.30561331466E+02  0.51314398124E+02  0.47000000000E+01 0.  1.
         -5    1    4    4    0  502  0.73998468696E+02  0.63929525910E+02 -0.17303033672E+02  0.99419528397E+02  0.47000000000E+01 0.  1.
<mgrwt>
<rscale>  0 0.99957137E+03</rscale>
<asrwt>0</asrwt>
<pdfrwt beam="1">  1        2 0.11978138E+00 0.99957137E+03</pdfrwt>
<pdfrwt beam="2">  1       -2 0.49357322E-01 0.99957137E+03</pdfrwt>
<totfact> 0.16792713E+02</totfact>
</mgrwt>
</event>
<event>
 9    1  0.4412976E-036  0.1000930E+04  0.7818608E-02  0.8680153E-01
         -2   -1    0    0    0  501 -0.00000000000E+00  0.00000000000E+00  0.95025517144E+02  0.95025517144E+02  0.00000000000E+00 0.  1.
          2   -1    0    0  501    0  0.00000000000E+00 -0.00000000000E+00 -0.26357682600E+04  0.26357682600E+04  0.00000000000E+00 0.  1.
         36    2    1    2    0    0  0.14210854715E-13  0.14210854715E-13 -0.25407427429E+04  0.27307937772E+04  0.10009300515E+04 0.  0.
         25    2    3    3    0    0  0.65973642604E+02  0.10284436520E+03 -0.28725547403E+03  0.33606759033E+03  0.12448386616E+03 0.  0.
         35    2    3    3    0    0 -0.65973642604E+02 -0.10284436520E+03 -0.22534872689E+04  0.23947261869E+04  0.80098636325E+03 0.  0.
         22    1    5    5    0    0  0.10577071621E+03  0.49580452817E+02 -0.21315146249E+04  0.21347131568E+04  0.00000000000E+00 0. -1.
         22    1    5    5    0    0 -0.17174435881E+03 -0.15242481802E+03 -0.12197264402E+03  0.26001303010E+03  0.00000000000E+00 0. -1.
          5    1    4    4  502    0 -0.30705820471E+02 -0.11034066985E+01 -0.68820722638E+02  0.75514546821E+02  0.47000000000E+01 0.  1.
         -5    1    4    4    0  502  0.96679463075E+02  0.10394777190E+03 -0.21843475140E+03  0.26055304351E+03  0.47000000000E+01 0.  1.
<mgrwt>
<rscale>  0 0.10009301E+04</rscale>
<asrwt>0</asrwt>
<pdfrwt beam="1">  1        2 0.40550276E+00 0.10009301E+04</pdfrwt>
<pdfrwt beam="2">  1       -2 0.14619312E-01 0.10009301E+04</pdfrwt>
<totfact> 0.11992490E+02</totfact>
</mgrwt>
</event>
<event>
 9    1  0.4412976E-036  0.9993488E+03  0.7818608E-02  0.8681658E-01
         -2   -1    0    0    0  501 -0.00000000000E+00  0.00000000000E+00  0.13437889802E+03  0.13437889802E+03  0.00000000000E+00 0.  1.
          2   -1    0    0  501    0  0.00000000000E+00 -0.00000000000E+00 -0.18579888611E+04  0.18579888611E+04  0.00000000000E+00 0.  1.
         36    2    1    2    0    0  0.28421709430E-13 -0.14210854715E-13 -0.17236099631E+04  0.19923677591E+04  0.99934877931E+03 0.  0.
         25    2    3    3    0    0  0.79535511740E+02 -0.95723745149E+02 -0.20014052030E+03  0.26701699392E+03  0.12551061375E+03 0.  0.
         35    2    3    3    0    0 -0.79535511740E+02  0.95723745149E+02 -0.15234694428E+04  0.17253507652E+04  0.80024195519E+03 0.  0.
         22    1    5    5    0    0  0.53005353322E+02  0.15221476393E+03 -0.15666674208E+04  0.15749367318E+04  0.00000000000E+00 0.  1.
         22    1    5    5    0    0 -0.13254086506E+03 -0.56491018777E+02  0.43197978063E+02  0.15041403333E+03  0.00000000000E+00 0.  1.
          5    1    4    4  502    0  0.67561684611E+02 -0.62851288593E+02 -0.21078601086E+03  0.23014712268E+03  0.47000000000E+01 0. -1.
         -5    1    4    4    0  502  0.11973827129E+02 -0.32872456556E+02  0.10645490557E+02  0.36869871241E+02  0.47000000000E+01 0. -1.
<mgrwt>
<rscale>  0 0.99934878E+03</rscale>
<asrwt>0</asrwt>
<pdfrwt beam="1">  1        2 0.28584444E+00 0.99934878E+03</pdfrwt>
<pdfrwt beam="2">  1       -2 0.20673677E-01 0.99934878E+03</pdfrwt>
<totfact> 0.19054322E+02</totfact>
</mgrwt>
</event>
<event>
 9    1  0.4412976E-036  0.1000199E+04  0.7818608E-02  0.8680848E-01
         -2   -1    0    0    0  501 -0.00000000000E+00  0.00000000000E+00  0.13539577025E+03  0.13539577025E+03  0.00000000000E+00 0.  1.
          2   -1    0    0  501    0  0.00000000000E+00 -0.00000000000E+00 -0.18471751739E+04  0.18471751739E+04  0.00000000000E+00 0.  1.
         36    2    1    2    0    0 -0.71054273576E-14 -0.28421709430E-13 -0.17117794036E+04  0.19825709441E+04  0.10001993910E+04 0.  0.
         25    2    3    3    0    0  0.55256552377E+01  0.75321836289E+02 -0.92965535473E+02  0.17470393597E+03  0.12718082626E+03 0.  0.
         35    2    3    3    0    0 -0.55256552377E+01 -0.75321836289E+02 -0.16188138681E+04  0.18078670081E+04  0.80132444587E+03 0.  0.
         22    1    5    5    0    0 -0.10575374746E+03  0.22124189063E+03 -0.11325590009E+03  0.27010873398E+03  0.00000000000E+00 0. -1.
         22    1    5    5    0    0  0.10022809222E+03 -0.29656372692E+03 -0.15055579680E+04  0.15377582742E+04  0.00000000000E+00 0. -1.
          5    1    4    4  502    0  0.65861529571E+02  0.47299520669E+02 -0.51398476568E+02  0.96119088253E+02  0.47000000000E+01 0. -1.
         -5    1    4    4    0  502 -0.60335874333E+02  0.28022315620E+02 -0.41567058905E+02  0.78584847714E+02  0.47000000000E+01 0. -1.
<mgrwt>
<rscale>  0 0.10001994E+04</rscale>
<asrwt>0</asrwt>
<pdfrwt beam="1">  1        2 0.28418078E+00 0.10001994E+04</pdfrwt>
<pdfrwt beam="2">  1       -2 0.20830120E-01 0.10001994E+04</pdfrwt>
<totfact> 0.19072767E+02</totfact>
</mgrwt>
</event>
<event>
 9    1  0.4412976E-036  0.1000424E+04  0.7818608E-02  0.8680634E-01
          1   -1    0    0  501    0  0.00000000000E+00  0.00000000000E+00  0.72517260114E+03  0.72517260114E+03  0.00000000000E+00 0. -1.
         -1   -1    0    0    0  501 -0.00000000000E+00 -0.00000000000E+00 -0.34503782691E+03  0.34503782691E+03  0.00000000000E+00 0. -1.
         36    2    1    2    0    0  0.14210854715E-13  0.14210854715E-13  0.38013477423E+03  0.10702104281E+04  0.10004238670E+04 0.  0.
         25    2    3    3    0    0 -0.44534356101E+02 -0.12277662183E+03  0.82738309283E+01  0.17867705229E+03  0.12165370934E+03 0.  0.
         35    2    3    3    0    0  0.44534356101E+02  0.12277662183E+03  0.37186094330E+03  0.89153337576E+03  0.79968355692E+03 0.  0.
         22    1    5    5    0    0  0.36447568574E+03  0.10280423797E+03  0.42207382066E+03  0.56706044380E+03  0.00000000000E+00 0.  1.
         22    1    5    5    0    0 -0.31994132964E+03  0.19972383855E+02 -0.50212877359E+02  0.32447293197E+03  0.00000000000E+00 0.  1.
          5    1    4    4  502    0 -0.79385642759E+02 -0.11154984885E+03  0.23038858637E+02  0.13891842233E+03  0.47000000000E+01 0.  1.
         -5    1    4    4    0  502  0.34851286658E+02 -0.11226772980E+02 -0.14765027709E+02  0.39758629963E+02  0.47000000000E+01 0.  1.
<mgrwt>
<rscale>  0 0.10004239E+04</rscale>
<asrwt>0</asrwt>
<pdfrwt beam="1">  1        1 0.11156501E+00 0.10004239E+04</pdfrwt>
<pdfrwt beam="2">  1       -1 0.53082743E-01 0.10004239E+04</pdfrwt>
<totfact> 0.10595842E+02</totfact>
</mgrwt>
</event>
<event>
 9    1  0.4412976E-036  0.9983094E+03  0.7818608E-02  0.8682650E-01
          2   -1    0    0  501    0  0.00000000000E+00  0.00000000000E+00  0.23040440974E+04  0.23040440974E+04  0.00000000000E+00 0.  1.
         -2   -1    0    0    0  501 -0.00000000000E+00 -0.00000000000E+00 -0.10813830501E+03  0.10813830501E+03  0.00000000000E+00 0.  1.
         36    2    1    2    0    0  0.00000000000E+00  0.00000000000E+00  0.21959057924E+04  0.24121824024E+04  0.99830941769E+03 0.  0.
         25    2    3    3    0    0 -0.37425813632E+02  0.12415373940E+03  0.54538547381E+03  0.57541546969E+03  0.12977983348E+03 0.  0.
         35    2    3    3    0    0  0.37425813632E+02 -0.12415373940E+03  0.16505203186E+04  0.18367669328E+04  0.79541222054E+03 0.  0.
         22    1    5    5    0    0  0.35823316506E+03  0.39154424115E+02  0.41380226698E+03  0.54872250330E+03  0.00000000000E+00 0. -1.
         22    1    5    5    0    0 -0.32080735143E+03 -0.16330816352E+03  0.12367180516E+04  0.12880444295E+04  0.00000000000E+00 0. -1.
          5    1    4    4  502    0  0.83789108604E+01  0.10787412371E+02  0.30810422959E+03  0.30844267005E+03  0.47000000000E+01 0.  1.
         -5    1    4    4    0  502 -0.45804724492E+02  0.11336632703E+03  0.23728124422E+03  0.26697279964E+03  0.47000000000E+01 0.  1.
<mgrwt>
<rscale>  0 0.99830942E+03</rscale>
<asrwt>0</asrwt>
<pdfrwt beam="1">  1        2 0.35446829E+00 0.99830942E+03</pdfrwt>
<pdfrwt beam="2">  1       -2 0.16636664E-01 0.99830942E+03</pdfrwt>
<totfact> 0.15323131E+02</totfact>
</mgrwt>
</event>
<event>
 9    1  0.4412976E-036  0.9989347E+03  0.7818608E-02  0.8682053E-01
         -2   -1    0    0    0  501 -0.00000000000E+00  0.00000000000E+00  0.32321224281E+03  0.32321224281E+03  0.00000000000E+00 0. -1.
          2   -1    0    0  501    0  0.00000000000E+00 -0.00000000000E+00 -0.77183847027E+03  0.77183847027E+03  0.00000000000E+00 0. -1.
         36    2    1    2    0    0 -0.28421709430E-13  0.14210854715E-13 -0.44862622746E+03  0.10950507131E+04  0.99893471871E+03 0.  0.
         25    2    3    3    0    0  0.89642483342E+02 -0.97873658621E+02 -0.39489191142E+02  0.18672985150E+03  0.12527415278E+03 0.  0.
         35    2    3    3    0    0 -0.89642483342E+02  0.97873658621E+02 -0.40913703632E+03  0.90832086157E+03  0.80002415289E+03 0.  0.
         22    1    5    5    0    0  0.91306368220E+02 -0.17096440985E+03  0.16136848576E+03  0.25220125002E+03  0.00000000000E+00 0. -1.
         22    1    5    5    0    0 -0.18094885156E+03  0.26883806847E+03 -0.57050552208E+03  0.65611961155E+03  0.00000000000E+00 0. -1.
          5    1    4    4  502    0  0.48694533903E+02 -0.51248671751E+01 -0.65540142949E+02  0.81945239235E+02  0.47000000000E+01 0.  1.
         -5    1    4    4    0  502  0.40947949439E+02 -0.92748791446E+02  0.26050951807E+02  0.10478461227E+03  0.47000000000E+01 0.  1.
<mgrwt>
<rscale>  0 0.99893472E+03</rscale>
<asrwt>0</asrwt>
<pdfrwt beam="1">  1        2 0.11874438E+00 0.99893472E+03</pdfrwt>
<pdfrwt beam="2">  1       -2 0.49724960E-01 0.99893472E+03</pdfrwt>
<totfact> 0.16730459E+02</totfact>
</mgrwt>
</event>
<event>
 9    1  0.4412976E-036  0.9992422E+03  0.7818608E-02  0.8681760E-01
          2   -1    0    0  501    0  0.00000000000E+00  0.00000000000E+00  0.70843943060E+03  0.70843943060E+03  0.00000000000E+00 0.  1.
         -2   -1    0    0    0  501 -0.00000000000E+00 -0.00000000000E+00 -0.35235365016E+03  0.35235365016E+03  0.00000000000E+00 0.  1.
         36    2    1    2    0    0  0.14210854715E-13  0.00000000000E+00  0.35608578044E+03  0.10607930808E+04  0.99924215140E+03 0.  0.
         25    2    3    3    0    0 -0.24260973953E+02  0.13237211341E+03  0.23526018045E+02  0.18612689290E+03  0.12640718125E+03 0.  0.
         35    2    3    3    0    0  0.24260973953E+02 -0.13237211341E+03  0.33255976239E+03  0.87466618785E+03  0.79770544271E+03 0.  0.
         22    1    5    5    0    0 -0.25144946851E+03  0.21358803252E+03  0.15292020004E+02  0.33027341511E+03  0.00000000000E+00 0. -1.
         22    1    5    5    0    0  0.27571044246E+03 -0.34596014593E+03  0.31726774239E+03  0.54439277274E+03  0.00000000000E+00 0. -1.
          5    1    4    4  502    0  0.23154401387E+01  0.25844042517E+02 -0.48168604961E+02  0.54914299600E+02  0.47000000000E+01 0.  1.
         -5    1    4    4    0  502 -0.26576414092E+02  0.10652807089E+03  0.71694623006E+02  0.13121259330E+03  0.47000000000E+01 0.  1.
<mgrwt>
<rscale>  0 0.99924215E+03</rscale>
<asrwt>0</asrwt>
<pdfrwt beam="1">  1        2 0.10899068E+00 0.99924215E+03</pdfrwt>
<pdfrwt beam="2">  1       -2 0.54208254E-01 0.99924215E+03</pdfrwt>
<totfact> 0.15648068E+02</totfact>
</mgrwt>
</event>
<event>
 9    1  0.4412976E-036  0.1000819E+04  0.7818608E-02  0.8680259E-01
          2   -1    0    0  501    0  0.00000000000E+00  0.00000000000E+00  0.28622897964E+03  0.28622897964E+03  0.00000000000E+00 0.  1.
         -2   -1    0    0    0  501 -0.00000000000E+00 -0.00000000000E+00 -0.87485708968E+03  0.87485708968E+03  0.00000000000E+00 0.  1.
         36    2    1    2    0    0 -0.14210854715E-13  0.28421709430E-13 -0.58862811005E+03  0.11610860693E+04  0.10008185692E+04 0.  0.
         25    2    3    3    0    0 -0.51813140618E+01  0.13769286993E+03 -0.83196773223E+02  0.20448237691E+03  0.12611568875E+03 0.  0.
         35    2    3    3    0    0  0.51813140618E+01 -0.13769286993E+03 -0.50543133682E+03  0.95660369241E+03  0.80040215869E+03 0.  0.
         22    1    5    5    0    0  0.39233321786E+03 -0.16066029293E+03 -0.27874243856E+03  0.50737996671E+03  0.00000000000E+00 0. -1.
         22    1    5    5    0    0 -0.38715190380E+03  0.22967422995E+02 -0.22668889826E+03  0.44922372570E+03  0.00000000000E+00 0. -1.
          5    1    4    4  502    0  0.22621726387E+02  0.15089230793E+03 -0.54347163920E+02  0.16203683323E+03  0.47000000000E+01 0. -1.
         -5    1    4    4    0  502 -0.27803040449E+02 -0.13199437999E+02 -0.28849609303E+02  0.42445543684E+02  0.47000000000E+01 0. -1.
<mgrwt>
<rscale>  0 0.10008186E+04</rscale>
<asrwt>0</asrwt>
<pdfrwt beam="1">  1        2 0.44035228E-01 0.10008186E+04</pdfrwt>
<pdfrwt beam="2">  1       -2 0.13459340E+00 0.10008186E+04</pdfrwt>
<totfact> 0.52859008E+01</totfact>
</mgrwt>
</event>
<event>
 9    1  0.4412976E-036  0.9998787E+03  0.7818608E-02  0.8681154E-01
          2   -1    0    0  501    0  0.00000000000E+00  0.00000000000E+00  0.10905728442E+04  0.10905728442E+04  0.00000000000E+00 0.  1.
         -2   -1    0    0    0  501 -0.00000000000E+00 -0.00000000000E+00 -0.22918169871E+03  0.22918169871E+03  0.00000000000E+00 0.  1.
         36    2    1    2    0    0 -0.21316282073E-13  0.00000000000E+00  0.86139114546E+03  0.13197545429E+04  0.99987866661E+03 0.  0.
         25    2    3    3    0    0 -0.41343789688E+02 -0.98593137607E+02  0.47740039626E+02  0.17137934045E+03  0.12514731807E+03 0.  0.
         35    2    3    3    0    0  0.41343789688E+02  0.98593137607E+02  0.81365110583E+03  0.11483752024E+04  0.80331038073E+03 0.  0.
         22    1    5    5    0    0 -0.10380055548E+03  0.52108137880E+02 -0.14040766939E+03  0.18221999609E+03  0.00000000000E+00 0.  1.
         22    1    5    5    0    0  0.14514434517E+03  0.46484999727E+02  0.95405877522E+03  0.96615520633E+03  0.00000000000E+00 0.  1.
          5    1    4    4  502    0 -0.73479190446E+02 -0.35114810853E+02  0.56944385181E+02  0.99483638722E+02  0.47000000000E+01 0.  1.
         -5    1    4    4    0  502  0.32135400757E+02 -0.63478326754E+02 -0.92043455547E+01  0.71895701724E+02  0.47000000000E+01 0.  1.
<mgrwt>
<rscale>  0 0.99987867E+03</rscale>
<asrwt>0</asrwt>
<pdfrwt beam="1">  1        2 0.16778043E+00 0.99987867E+03</pdfrwt>
<pdfrwt beam="2">  1       -2 0.35258723E-01 0.99987867E+03</pdfrwt>
<totfact> 0.20130263E+02</totfact>
</mgrwt>
</event>
<event>
 9    1  0.4412976E-036  0.1001350E+04  0.7818608E-02  0.8679753E-01
         -1   -1    0    0    0  501 -0.00000000000E+00  0.00000000000E+00  0.39333979201E+03  0.39333979201E+03  0.00000000000E+00 0. -1.
          1   -1    0    0  501    0  0.00000000000E+00 -0.00000000000E+00 -0.63730051608E+03  0.63730051608E+03  0.00000000000E+00 0. -1.
         36    2    1    2    0    0  0.00000000000E+00  0.00000000000E+00 -0.24396072407E+03  0.10306403081E+04  0.10013503931E+04 0.  0.
         25    2    3    3    0    0 -0.10296496231E+03 -0.24944354309E+02 -0.14230168990E+03  0.21703233930E+03  0.12501704315E+03 0.  0.
         35    2    3    3    0    0  0.10296496231E+03  0.24944354309E+02 -0.10165903417E+03  0.81360796880E+03  0.80024956319E+03 0.  0.
         22    1    5    5    0    0 -0.15223235450E+03  0.23240140169E+03  0.21939124780E+03  0.35400228936E+03  0.00000000000E+00 0. -1.
         22    1    5    5    0    0  0.25519731681E+03 -0.20745704739E+03 -0.32105028197E+03  0.45960567943E+03  0.00000000000E+00 0. -1.
          5    1    4    4  502    0  0.49886018877E+01 -0.51942086300E+02 -0.42021613275E+02  0.67162284507E+02  0.47000000000E+01 0.  1.
         -5    1    4    4    0  502 -0.10795356420E+03  0.26997731991E+02 -0.10028007662E+03  0.14987005479E+03  0.47000000000E+01 0.  1.
<mgrwt>
<rscale>  0 0.10013504E+04</rscale>
<asrwt>0</asrwt>
<pdfrwt beam="1">  1        1 0.98046233E-01 0.10013504E+04</pdfrwt>
<pdfrwt beam="2">  1       -1 0.60513814E-01 0.10013504E+04</pdfrwt>
<totfact> 0.10058395E+02</totfact>
</mgrwt>
</event>
<event>
 9    1  0.4412976E-036  0.1000229E+04  0.7818608E-02  0.8680820E-01
         -2   -1    0    0    0  501 -0.00000000000E+00  0.00000000000E+00  0.22985229925E+03  0.22985229925E+03  0.00000000000E+00 0.  1.
          2   -1    0    0  501    0  0.00000000000E+00 -0.00000000000E+00 -0.10881533084E+04  0.10881533084E+04  0.00000000000E+00 0.  1.
         36    2    1    2    0    0  0.28421709430E-13  0.14210854715E-13 -0.85830100914E+03  0.13180056076E+04  0.10002290535E+04 0.  0.
         25    2    3    3    0    0  0.12267691724E+03 -0.23548961010E+02 -0.24451264711E+03  0.30140309065E+03  0.12431093625E+03 0.  0.
         35    2    3    3    0    0 -0.12267691724E+03  0.23548961010E+02 -0.61378836204E+03  0.10166025170E+04  0.80071239818E+03 0.  0.
         22    1    5    5    0    0  0.13719021507E+03 -0.23155357321E+03  0.36189840319E+02  0.27156567699E+03  0.00000000000E+00 0. -1.
         22    1    5    5    0    0 -0.25986713231E+03  0.25510253422E+03 -0.64997820235E+03  0.74503684000E+03  0.00000000000E+00 0. -1.
          5    1    4    4  502    0  0.78344655486E+01  0.39681363444E+02 -0.32552291869E+02  0.52131863204E+02  0.47000000000E+01 0. -1.
         -5    1    4    4    0  502  0.11484245169E+03 -0.63230324454E+02 -0.21196035524E+03  0.24927122745E+03  0.47000000000E+01 0. -1.
<mgrwt>
<rscale>  0 0.10002291E+04</rscale>
<asrwt>0</asrwt>
<pdfrwt beam="1">  1        2 0.16740820E+00 0.10002291E+04</pdfrwt>
<pdfrwt beam="2">  1       -2 0.35361892E-01 0.10002291E+04</pdfrwt>
<totfact> 0.20088570E+02</totfact>
</mgrwt>
</event>
<event>
 9    1  0.4412976E-036  0.1000411E+04  0.7818608E-02  0.8680647E-01
          2   -1    0    0  501    0  0.00000000000E+00  0.00000000000E+00  0.21564858971E+03  0.21564858971E+03  0.00000000000E+00 0. -1.
         -2   -1    0    0    0  501 -0.00000000000E+00 -0.00000000000E+00 -0.11602463425E+04  0.11602463425E+04  0.00000000000E+00 0. -1.
         36    2    1    2    0    0 -0.14210854715E-13  0.00000000000E+00 -0.94459775274E+03  0.13758949322E+04  0.10004108905E+04 0.  0.
         25    2    3    3    0    0 -0.46651343877E+02  0.12942847239E+03 -0.22049593775E+03  0.28812046358E+03  0.12436585391E+03 0.  0.
         35    2    3    3    0    0  0.46651343877E+02 -0.12942847239E+03 -0.72410181499E+03  0.10877744686E+04  0.80000111166E+03 0.  0.
         22    1    5    5    0    0  0.19232155428E+03  0.18595546650E+03 -0.68838910074E+03  0.73854354630E+03  0.00000000000E+00 0. -1.
         22    1    5    5    0    0 -0.14567021040E+03 -0.31538393889E+03 -0.35712714249E+02  0.34923092227E+03  0.00000000000E+00 0. -1.
          5    1    4    4  502    0 -0.87942370695E+02  0.78525786284E+02 -0.15999563596E+03  0.19879852414E+03  0.47000000000E+01 0.  1.
         -5    1    4    4    0  502  0.41291026818E+02  0.50902686106E+02 -0.60500301787E+02  0.89321939437E+02  0.47000000000E+01 0.  1.
<mgrwt>
<rscale>  0 0.10004109E+04</rscale>
<asrwt>0</asrwt>
<pdfrwt beam="1">  1        2 0.33176706E-01 0.10004109E+04</pdfrwt>
<pdfrwt beam="2">  1       -2 0.17849944E+00 0.10004109E+04</pdfrwt>
<totfact> 0.32606884E+01</totfact>
</mgrwt>
</event>
<event>
 9    1  0.4412976E-036  0.1000078E+04  0.7818608E-02  0.8680963E-01
         -1   -1    0    0    0  501 -0.00000000000E+00  0.00000000000E+00  0.10360456246E+04  0.10360456246E+04  0.00000000000E+00 0. -1.
          1   -1    0    0  501    0  0.00000000000E+00 -0.00000000000E+00 -0.24133999651E+03  0.24133999651E+03  0.00000000000E+00 0. -1.
         36    2    1    2    0    0  0.35527136788E-14 -0.28421709430E-13  0.79470562811E+03  0.12773856211E+04  0.10000784918E+04 0.  0.
         25    2    3    3    0    0  0.40537814758E+01  0.11289674833E+03  0.25415164819E+03  0.30463492624E+03  0.12428704309E+03 0.  0.
         35    2    3    3    0    0 -0.40537814758E+01 -0.11289674833E+03  0.54055397992E+03  0.97275069488E+03  0.80080159856E+03 0.  0.
         22    1    5    5    0    0  0.22373996527E+03  0.25926835424E+03  0.37025812165E+03  0.50435179014E+03  0.00000000000E+00 0. -1.
         22    1    5    5    0    0 -0.22779374674E+03 -0.37216510257E+03  0.17029585827E+03  0.46839890474E+03  0.00000000000E+00 0. -1.
          5    1    4    4  502    0  0.15083589858E+02 -0.24487228984E+02  0.33172038847E+02  0.44154424780E+02  0.47000000000E+01 0.  1.
         -5    1    4    4    0  502 -0.11029808383E+02  0.13738397731E+03  0.22097960934E+03  0.26048050146E+03  0.47000000000E+01 0.  1.
<mgrwt>
<rscale>  0 0.10000785E+04</rscale>
<asrwt>0</asrwt>
<pdfrwt beam="1">  1        1 0.37129231E-01 0.10000785E+04</pdfrwt>
<pdfrwt beam="2">  1       -1 0.15939163E+00 0.10000785E+04</pdfrwt>
<totfact> 0.39801347E+01</totfact>
</mgrwt>
</event>
<event>
 9    1  0.4412976E-036  0.9997708E+03  0.7818608E-02  0.8681256E-01
          1   -1    0    0  501    0  0.00000000000E+00  0.00000000000E+00  0.28587446623E+04  0.28587446623E+04  0.00000000000E+00 0. -1.
         -1   -1    0    0    0  501 -0.00000000000E+00 -0.00000000000E+00 -0.87410896943E+02  0.87410896943E+02  0.00000000000E+00 0. -1.
         36    2    1    2    0    0 -0.42632564146E-13 -0.14210854715E-13  0.27713337653E+04  0.29461555592E+04  0.99977084386E+03 0.  0.
         25    2    3    3    0    0  0.72567847658E+02  0.11841503612E+03  0.48445288389E+03  0.51882309252E+03  0.12326634305E+03 0.  0.
         35    2    3    3    0    0 -0.72567847658E+02 -0.11841503612E+03  0.22868808814E+04  0.24273324667E+04  0.80176712622E+03 0.  0.
         22    1    5    5    0    0 -0.41533486364E+03 -0.18226761382E+03  0.10873719175E+04  0.11781774989E+04  0.00000000000E+00 0.  1.
         22    1    5    5    0    0  0.34276701599E+03  0.63852577698E+02  0.11995089640E+04  0.12491549678E+04  0.00000000000E+00 0.  1.
          5    1    4    4  502    0  0.27234888508E+02  0.81688193727E+02  0.43104407174E+03  0.43958592098E+03  0.47000000000E+01 0.  1.
         -5    1    4    4    0  502  0.45332959150E+02  0.36726842396E+02  0.53408812152E+02  0.79237171537E+02  0.47000000000E+01 0.  1.
<mgrwt>
<rscale>  0 0.99977084E+03</rscale>
<asrwt>0</asrwt>
<pdfrwt beam="1">  1        1 0.43980680E+00 0.99977084E+03</pdfrwt>
<pdfrwt beam="2">  1       -1 0.13447832E-01 0.99977084E+03</pdfrwt>
<totfact> 0.30188843E+01</totfact>
</mgrwt>
</event>
<event>
 9    1  0.4412976E-036  0.1001323E+04  0.7818608E-02  0.8679779E-01
          2   -1    0    0  501    0  0.00000000000E+00  0.00000000000E+00  0.18172617012E+04  0.18172617012E+04  0.00000000000E+00 0. -1.
         -2   -1    0    0    0  501 -0.00000000000E+00 -0.00000000000E+00 -0.13793396344E+03  0.13793396344E+03  0.00000000000E+00 0. -1.
         36    2    1    2    0    0  0.00000000000E+00  0.00000000000E+00  0.16793277378E+04  0.19551956646E+04  0.10013233425E+04 0.  0.
         25    2    3    3    0    0  0.69596379504E+02 -0.11480224479E+03  0.24589931346E+03  0.30629906469E+03  0.12381208836E+03 0.  0.
         35    2    3    3    0    0 -0.69596379504E+02  0.11480224479E+03  0.14334284243E+04  0.16488965999E+04  0.80381573651E+03 0.  0.
         22    1    5    5    0    0 -0.58544488204E+02  0.41186417391E+03  0.12026396274E+04  0.12725571218E+04  0.00000000000E+00 0. -1.
         22    1    5    5    0    0 -0.11051891300E+02 -0.29706192912E+03  0.23078879690E+03  0.37633947814E+03  0.00000000000E+00 0. -1.
          5    1    4    4  502    0  0.15470072358E+02 -0.68906126909E+02  0.26359757146E+02  0.75526844639E+02  0.47000000000E+01 0. -1.
         -5    1    4    4    0  502  0.54126307146E+02 -0.45896117877E+02  0.21953955631E+03  0.23077222005E+03  0.47000000000E+01 0. -1.
<mgrwt>
<rscale>  0 0.10013233E+04</rscale>
<asrwt>0</asrwt>
<pdfrwt beam="1">  1        2 0.27957871E+00 0.10013233E+04</pdfrwt>
<pdfrwt beam="2">  1       -2 0.21220611E-01 0.10013233E+04</pdfrwt>
<totfact> 0.19198492E+02</totfact>
</mgrwt>
</event>
<event>
 9    1  0.4412976E-036  0.9988984E+03  0.7818608E-02  0.8682088E-01
         -2   -1    0    0    0  501 -0.00000000000E+00  0.00000000000E+00  0.21765774311E+03  0.21765774311E+03  0.00000000000E+00 0. -1.
          2   -1    0    0  501    0  0.00000000000E+00 -0.00000000000E+00 -0.11460629845E+04  0.11460629845E+04  0.00000000000E+00 0. -1.
         36    2    1    2    0    0  0.71054273576E-14 -0.28421709430E-13 -0.92840524143E+03  0.13637207277E+04  0.99889835856E+03 0.  0.
         25    2    3    3    0    0  0.27535774026E+02 -0.13278628760E+03 -0.22367549243E+03  0.29037314686E+03  0.12607704582E+03 0.  0.
         35    2    3    3    0    0 -0.27535774026E+02  0.13278628760E+03 -0.70472974900E+03  0.10733475808E+04  0.79814822749E+03 0.  0.
         22    1    5    5    0    0 -0.56972186641E+02 -0.33184683786E+03 -0.36787516438E+03  0.49869859677E+03  0.00000000000E+00 0. -1.
         22    1    5    5    0    0  0.29436412615E+02  0.46463312546E+03 -0.33685458462E+03  0.57464898403E+03  0.00000000000E+00 0. -1.
          5    1    4    4  502    0 -0.92918526091E+01 -0.91367116316E+02 -0.21530882983E+03  0.23412447687E+03  0.47000000000E+01 0.  1.
         -5    1    4    4    0  502  0.36827626635E+02 -0.41419171279E+02 -0.83666625994E+01  0.56248669994E+02  0.47000000000E+01 0.  1.
<mgrwt>
<rscale>  0 0.99889836E+03</rscale>
<asrwt>0</asrwt>
<pdfrwt beam="1">  1        2 0.17631738E+00 0.99889836E+03</pdfrwt>
<pdfrwt beam="2">  1       -2 0.33485807E-01 0.99889836E+03</pdfrwt>
<totfact> 0.20514990E+02</totfact>
</mgrwt>
</event>
<event>
 9    1  0.4412976E-036  0.9996233E+03  0.7818608E-02  0.8681397E-01
         -2   -1    0    0    0  501 -0.00000000000E+00  0.00000000000E+00  0.24914027317E+03  0.24914027317E+03  0.00000000000E+00 0. -1.
          2   -1    0    0  501    0  0.00000000000E+00 -0.00000000000E+00 -0.10026949395E+04  0.10026949395E+04  0.00000000000E+00 0. -1.
         36    2    1    2    0    0  0.00000000000E+00 -0.71054273576E-14 -0.75355466635E+03  0.12518352127E+04  0.99962331134E+03 0.  0.
         25    2    3    3    0    0  0.13259123897E+03 -0.44107281126E+02 -0.15360394431E+03  0.24231535056E+03  0.12488662261E+03 0.  0.
         35    2    3    3    0    0 -0.13259123897E+03  0.44107281126E+02 -0.59995072204E+03  0.10095198621E+04  0.79978971879E+03 0.  0.
         22    1    5    5    0    0  0.16163428220E+03  0.20926710523E+03 -0.61741749784E+03  0.67165670484E+03  0.00000000000E+00 0. -1.
         22    1    5    5    0    0 -0.29422552117E+03 -0.16515982410E+03  0.17466775802E+02  0.33786315730E+03  0.00000000000E+00 0. -1.
          5    1    4    4  502    0  0.90821429209E+02  0.24220621916E+01 -0.15485250367E+03  0.17959895958E+03  0.47000000000E+01 0.  1.
         -5    1    4    4    0  502  0.41769809763E+02 -0.46529343318E+02  0.12485593561E+01  0.62716390981E+02  0.47000000000E+01 0.  1.
<mgrwt>
<rscale>  0 0.99962331E+03</rscale>
<asrwt>0</asrwt>
<pdfrwt beam="1">  1        2 0.15426076E+00 0.99962331E+03</pdfrwt>
<pdfrwt beam="2">  1       -2 0.38329273E-01 0.99962331E+03</pdfrwt>
<totfact> 0.19491089E+02</totfact>
</mgrwt>
</event>
<event>
 9    1  0.4412976E-036  0.9999428E+03  0.7818608E-02  0.8681092E-01
         -2   -1    0    0    0  501 -0.00000000000E+00  0.00000000000E+00  0.82679674999E+03  0.82679674999E+03  0.00000000000E+00 0.  1.
          2   -1    0    0  501    0  0.00000000000E+00 -0.00000000000E+00 -0.30233716183E+03  0.30233716183E+03  0.00000000000E+00 0.  1.
         36    2    1    2    0    0  0.35527136788E-13  0.14210854715E-13  0.52445958815E+03  0.11291339118E+04  0.99994276397E+03 0.  0.
         25    2    3    3    0    0  0.39738940024E+00 -0.91983222129E+02  0.21803535637E+03  0.26732218425E+03  0.12434091238E+03 0.  0.
         35    2    3    3    0    0 -0.39738940024E+00  0.91983222129E+02  0.30642423178E+03  0.86181172757E+03  0.80022657597E+03 0.  0.
         22    1    5    5    0    0 -0.30205134326E+03 -0.88071900270E+02  0.38961552425E+03  0.50079130416E+03  0.00000000000E+00 0. -1.
         22    1    5    5    0    0  0.30165395386E+03  0.18005512240E+03 -0.83191292471E+02  0.36102042341E+03  0.00000000000E+00 0. -1.
          5    1    4    4  502    0  0.36232979422E+02 -0.69084593048E+02  0.20962295376E+03  0.22371719321E+03  0.47000000000E+01 0. -1.
         -5    1    4    4    0  502 -0.35835590022E+02 -0.22898629081E+02  0.84124026166E+01  0.43604991042E+02  0.47000000000E+01 0. -1.
<mgrwt>
<rscale>  0 0.99994276E+03</rscale>
<asrwt>0</asrwt>
<pdfrwt beam="1">  1        2 0.46513410E-01 0.99994276E+03</pdfrwt>
<pdfrwt beam="2">  1       -2 0.12719950E+00 0.99994276E+03</pdfrwt>
<totfact> 0.57834034E+01</totfact>
</mgrwt>
</event>
<event>
 9    1  0.4412976E-036  0.1000605E+04  0.7818608E-02  0.8680462E-01
          2   -1    0    0  501    0  0.00000000000E+00  0.00000000000E+00  0.36456117003E+03  0.36456117003E+03  0.00000000000E+00 0.  1.
         -2   -1    0    0    0  501 -0.00000000000E+00 -0.00000000000E+00 -0.68658655359E+03  0.68658655359E+03  0.00000000000E+00 0.  1.
         36    2    1    2    0    0 -0.14210854715E-13  0.14210854715E-13 -0.32202538356E+03  0.10511477236E+04  0.10006054114E+04 0.  0.
         25    2    3    3    0    0  0.12670742607E+02  0.12054948888E+03 -0.14079738464E+03  0.22636144682E+03  0.12931695210E+03 0.  0.
         35    2    3    3    0    0 -0.12670742607E+02 -0.12054948888E+03 -0.18122799892E+03  0.82478627680E+03  0.79544709932E+03 0.  0.
         22    1    5    5    0    0  0.38785686015E+03 -0.63714963728E+02 -0.34926282266E+02  0.39460408736E+03  0.00000000000E+00 0. -1.
         22    1    5    5    0    0 -0.40052760276E+03 -0.56834525150E+02 -0.14630171666E+03  0.43018218944E+03  0.00000000000E+00 0. -1.
          5    1    4    4  502    0 -0.33122151454E+02  0.99342117427E+02 -0.37553089405E+02  0.11134746398E+03  0.47000000000E+01 0. -1.
         -5    1    4    4    0  502  0.45792894061E+02  0.21207371451E+02 -0.10324429523E+03  0.11501398284E+03  0.47000000000E+01 0. -1.
<mgrwt>
<rscale>  0 0.10006054E+04</rscale>
<asrwt>0</asrwt>
<pdfrwt beam="1">  1        2 0.56086334E-01 0.10006054E+04</pdfrwt>
<pdfrwt beam="2">  1       -2 0.10562870E+00 0.10006054E+04</pdfrwt>
<totfact> 0.75666493E+01</totfact>
</mgrwt>
</event>
<event>
 9    1  0.4412976E-036  0.9995779E+03  0.7818608E-02  0.8681440E-01
         -2   -1    0    0    0  501 -0.00000000000E+00  0.00000000000E+00  0.21918886801E+04  0.21918886801E+04  0.00000000000E+00 0. -1.
          2   -1    0    0  501    0  0.00000000000E+00 -0.00000000000E+00 -0.11396062930E+03  0.11396062930E+03  0.00000000000E+00 0. -1.
         36    2    1    2    0    0  0.00000000000E+00  0.28421709430E-13  0.20779280508E+04  0.23058493094E+04  0.99957793763E+03 0.  0.
         25    2    3    3    0    0 -0.35511596454E+02  0.42827928764E+02  0.92930937918E+02  0.16523213607E+03  0.12478058584E+03 0.  0.
         35    2    3    3    0    0  0.35511596454E+02 -0.42827928764E+02  0.19849971129E+04  0.21406171734E+04  0.79933287163E+03 0.  0.
         22    1    5    5    0    0  0.75185541325E+02  0.37291597499E+03  0.10422592355E+04  0.11095149859E+04  0.00000000000E+00 0. -1.
         22    1    5    5    0    0 -0.39673944871E+02 -0.41574390376E+03  0.94273787744E+03  0.10311021874E+04  0.00000000000E+00 0. -1.
          5    1    4    4  502    0 -0.62620074557E+02  0.59920115245E+02  0.25564862421E+02  0.90483955147E+02  0.47000000000E+01 0.  1.
         -5    1    4    4    0  502  0.27108478103E+02 -0.17092186481E+02  0.67366075496E+02  0.74748180924E+02  0.47000000000E+01 0.  1.
<mgrwt>
<rscale>  0 0.99957794E+03</rscale>
<asrwt>0</asrwt>
<pdfrwt beam="1">  1        2 0.17532406E-01 0.99957794E+03</pdfrwt>
<pdfrwt beam="2">  1       -2 0.33721361E+00 0.99957794E+03</pdfrwt>
<totfact> 0.73637418E+00</totfact>
</mgrwt>
</event>
<event>
 9    1  0.4412976E-036  0.9927718E+03  0.7818608E-02  0.8687952E-01
          1   -1    0    0  501    0  0.00000000000E+00  0.00000000000E+00  0.13672142038E+04  0.13672142038E+04  0.00000000000E+00 0. -1.
         -1   -1    0    0    0  501 -0.00000000000E+00 -0.00000000000E+00 -0.18021972621E+03  0.18021972621E+03  0.00000000000E+00 0. -1.
         36    2    1    2    0    0  0.14210854715E-13 -0.42632564146E-13  0.11869944776E+04  0.15474339300E+04  0.99277181562E+03 0.  0.
         25    2    3    3    0    0 -0.47761579509E+02 -0.11581242264E+03  0.14937922826E+03  0.23140451625E+03  0.12466038100E+03 0.  0.
         35    2    3    3    0    0  0.47761579509E+02  0.11581242264E+03  0.10376152493E+04  0.13160294137E+04  0.79974641387E+03 0.  0.
         22    1    5    5    0    0  0.25335122839E+03 -0.19706441331E+03  0.82557438330E+03  0.88577327250E+03  0.00000000000E+00 0. -1.
         22    1    5    5    0    0 -0.20558964889E+03  0.31287683595E+03  0.21204086601E+03  0.43025614123E+03  0.00000000000E+00 0. -1.
          5    1    4    4  502    0 -0.44373706184E+02 -0.39966388485E+02  0.14303624161E+03  0.15507351297E+03  0.47000000000E+01 0.  1.
         -5    1    4    4    0  502 -0.33878733255E+01 -0.75846034158E+02  0.63429866440E+01  0.76331003287E+02  0.47000000000E+01 0.  1.
<mgrwt>
<rscale>  0 0.99277182E+03</rscale>
<asrwt>0</asrwt>
<pdfrwt beam="1">  1        1 0.21034064E+00 0.99277182E+03</pdfrwt>
<pdfrwt beam="2">  1       -1 0.27726113E-01 0.99277182E+03</pdfrwt>
<totfact> 0.10338776E+02</totfact>
</mgrwt>
</event>
<event>
 9    1  0.4412976E-036  0.9969014E+03  0.7818608E-02  0.8683994E-01
          2   -1    0    0  501    0  0.00000000000E+00  0.00000000000E+00  0.43140149737E+04  0.43140149737E+04  0.00000000000E+00 0. -1.
         -2   -1    0    0    0  501 -0.00000000000E+00 -0.00000000000E+00 -0.57592083726E+02  0.57592083726E+02  0.00000000000E+00 0. -1.
         36    2    1    2    0    0 -0.42632564146E-13 -0.14210854715E-13  0.42564228900E+04  0.43716070574E+04  0.99690142253E+03 0.  0.
         25    2    3    3    0    0 -0.10991575544E+03  0.65172911767E+02  0.60732786140E+03  0.63314890578E+03  0.12530532284E+03 0.  0.
         35    2    3    3    0    0  0.10991575544E+03 -0.65172911767E+02  0.36490950286E+04  0.37384581517E+04  0.80240005131E+03 0.  0.
         22    1    5    5    0    0  0.42091666156E+03 -0.11655718871E+03  0.27771682004E+04  0.28113021232E+04  0.00000000000E+00 0.  1.
         22    1    5    5    0    0 -0.31100090611E+03  0.51384276942E+02  0.87192682813E+03  0.92715602848E+03  0.00000000000E+00 0.  1.
          5    1    4    4  502    0 -0.38364122953E+00  0.62411262491E+02  0.30965038757E+03  0.31591259137E+03  0.47000000000E+01 0.  1.
         -5    1    4    4    0  502 -0.10953211421E+03  0.27616492758E+01  0.29767747383E+03  0.31723631441E+03  0.47000000000E+01 0.  1.
<mgrwt>
<rscale>  0 0.99690142E+03</rscale>
<asrwt>0</asrwt>
<pdfrwt beam="1">  1        2 0.66369436E+00 0.99690142E+03</pdfrwt>
<pdfrwt beam="2">  1       -2 0.88603239E-02 0.99690142E+03</pdfrwt>
<totfact> 0.14240658E+01</totfact>
</mgrwt>
</event>
<event>
 9    1  0.4412976E-036  0.1006943E+04  0.7818608E-02  0.8674454E-01
          1   -1    0    0  501    0  0.00000000000E+00  0.00000000000E+00  0.88852425818E+03  0.88852425818E+03  0.00000000000E+00 0.  1.
         -1   -1    0    0    0  501 -0.00000000000E+00 -0.00000000000E+00 -0.28528599926E+03  0.28528599926E+03  0.00000000000E+00 0.  1.
         36    2    1    2    0    0  0.00000000000E+00 -0.21316282073E-13  0.60323825893E+03  0.11738102574E+04  0.10069429594E+04 0.  0.
         25    2    3    3    0    0  0.14146365446E+03 -0.10528598402E+02  0.16302813180E+03  0.24957699892E+03  0.12485066967E+03 0.  0.
         35    2    3    3    0    0 -0.14146365446E+03  0.10528598402E+02  0.44021012713E+03  0.92423325852E+03  0.80018706763E+03 0.  0.
         22    1    5    5    0    0 -0.55056259479E+02 -0.24000691399E+03 -0.14220763749E+03  0.28435457203E+03  0.00000000000E+00 0.  1.
         22    1    5    5    0    0 -0.86407394981E+02  0.25053551239E+03  0.58241776462E+03  0.63987868649E+03  0.00000000000E+00 0.  1.
          5    1    4    4  502    0  0.37279869904E+02  0.31733142468E+02  0.11896433762E+03  0.12872989029E+03  0.47000000000E+01 0. -1.
         -5    1    4    4    0  502  0.10418378456E+03 -0.42261740870E+02  0.44063794180E+02  0.12084710863E+03  0.47000000000E+01 0. -1.
<mgrwt>
<rscale>  0 0.10069430E+04</rscale>
<asrwt>0</asrwt>
<pdfrwt beam="1">  1        1 0.13669604E+00 0.10069430E+04</pdfrwt>
<pdfrwt beam="2">  1       -1 0.43890154E-01 0.10069430E+04</pdfrwt>
<totfact> 0.10781308E+02</totfact>
</mgrwt>
</event>
<event>
 9    1  0.4412976E-036  0.9999409E+03  0.7818608E-02  0.8681094E-01
         -1   -1    0    0    0  501 -0.00000000000E+00  0.00000000000E+00  0.29230326318E+03  0.29230326318E+03  0.00000000000E+00 0.  1.
          1   -1    0    0  501    0  0.00000000000E+00 -0.00000000000E+00 -0.85517504558E+03  0.85517504558E+03  0.00000000000E+00 0.  1.
         36    2    1    2    0    0  0.28421709430E-13  0.00000000000E+00 -0.56287178241E+03  0.11474783088E+04  0.99994091108E+03 0.  0.
         25    2    3    3    0    0 -0.43663770341E+01 -0.83745110256E-01  0.55120960242E+02  0.13644716177E+03  0.12474147440E+03 0.  0.
         35    2    3    3    0    0  0.43663770341E+01  0.83745110256E-01 -0.61799274265E+03  0.10110311470E+04  0.80015615848E+03 0.  0.
         22    1    5    5    0    0 -0.35807453310E+03 -0.40964071394E+02 -0.93796403941E+02  0.37241534849E+03  0.00000000000E+00 0.  1.
         22    1    5    5    0    0  0.36244091013E+03  0.41047816504E+02 -0.52419633871E+03  0.63861579850E+03  0.00000000000E+00 0.  1.
          5    1    4    4  502    0 -0.49368767491E+02 -0.39545984307E+02  0.38306945689E+02  0.74099069943E+02  0.47000000000E+01 0.  1.
         -5    1    4    4    0  502  0.45002390457E+02  0.39462239197E+02  0.16814014553E+02  0.62348091828E+02  0.47000000000E+01 0.  1.
<mgrwt>
<rscale>  0 0.99994091E+03</rscale>
<asrwt>0</asrwt>
<pdfrwt beam="1">  1        1 0.13156539E+00 0.99994091E+03</pdfrwt>
<pdfrwt beam="2">  1       -1 0.44969733E-01 0.99994091E+03</pdfrwt>
<totfact> 0.11015685E+02</totfact>
</mgrwt>
</event>
<event>
 9    1  0.4412976E-036  0.9985567E+03  0.7818608E-02  0.8682414E-01
         -2   -1    0    0    0  501 -0.00000000000E+00  0.00000000000E+00  0.20311124522E+03  0.20311124522E+03  0.00000000000E+00 0. -1.
          2   -1    0    0  501    0  0.00000000000E+00 -0.00000000000E+00 -0.12273021605E+04  0.12273021605E+04  0.00000000000E+00 0. -1.
         36    2    1    2    0    0  0.14210854715E-13  0.42632564146E-13 -0.10241909153E+04  0.14304134057E+04  0.99855669861E+03 0.  0.
         25    2    3    3    0    0  0.55923842912E+02  0.12040974976E+03 -0.26289691851E+03  0.31963801334E+03  0.12420823550E+03 0.  0.
         35    2    3    3    0    0 -0.55923842912E+02 -0.12040974976E+03 -0.76129399680E+03  0.11107753924E+04  0.79788936500E+03 0.  0.
         22    1    5    5    0    0 -0.19264223589E+03  0.30434081922E+03 -0.29724148907E+03  0.46699771747E+03  0.00000000000E+00 0. -1.
         22    1    5    5    0    0  0.13671839298E+03 -0.42475056898E+03 -0.46405250772E+03  0.64377767494E+03  0.00000000000E+00 0. -1.
          5    1    4    4  502    0 -0.27193759260E+02  0.33505979077E+02 -0.14425538310E+03  0.15064480320E+03  0.47000000000E+01 0.  1.
         -5    1    4    4    0  502  0.83117602172E+02  0.86903770685E+02 -0.11864153541E+03  0.16899321014E+03  0.47000000000E+01 0.  1.
<mgrwt>
<rscale>  0 0.99855670E+03</rscale>
<asrwt>0</asrwt>
<pdfrwt beam="1">  1        2 0.18881572E+00 0.99855670E+03</pdfrwt>
<pdfrwt beam="2">  1       -2 0.31247884E-01 0.99855670E+03</pdfrwt>
<totfact> 0.20856711E+02</totfact>
</mgrwt>
</event>
<event>
 9    1  0.4412976E-036  0.9949114E+03  0.7818608E-02  0.8685899E-01
          1   -1    0    0  501    0  0.00000000000E+00  0.00000000000E+00  0.23764068931E+04  0.23764068931E+04  0.00000000000E+00 0. -1.
         -1   -1    0    0    0  501 -0.00000000000E+00 -0.00000000000E+00 -0.10413291361E+03  0.10413291361E+03  0.00000000000E+00 0. -1.
         36    2    1    2    0    0  0.00000000000E+00  0.14210854715E-13  0.22722739795E+04  0.24805398067E+04  0.99491140047E+03 0.  0.
         25    2    3    3    0    0  0.10000050114E+03  0.65775123605E+02  0.58092893259E+03  0.60615325631E+03  0.12496750899E+03 0.  0.
         35    2    3    3    0    0 -0.10000050114E+03 -0.65775123605E+02  0.16913450469E+04  0.18743865504E+04  0.79896833824E+03 0.  0.
         22    1    5    5    0    0 -0.28143204924E+03  0.29256980820E+03  0.82594440951E+03  0.92031802037E+03  0.00000000000E+00 0. -1.
         22    1    5    5    0    0  0.18143154810E+03 -0.35834493181E+03  0.86540063738E+03  0.95406853002E+03  0.00000000000E+00 0. -1.
          5    1    4    4  502    0  0.31457453482E+01 -0.15288984763E+02  0.27036440723E+03  0.27085540694E+03  0.47000000000E+01 0.  1.
         -5    1    4    4    0  502  0.96854755787E+02  0.81064108368E+02  0.31056452536E+03  0.33529784937E+03  0.47000000000E+01 0.  1.
<mgrwt>
<rscale>  0 0.99491140E+03</rscale>
<asrwt>0</asrwt>
<pdfrwt beam="1">  1        1 0.36560102E+00 0.99491140E+03</pdfrwt>
<pdfrwt beam="2">  1       -1 0.16020450E-01 0.99491140E+03</pdfrwt>
<totfact> 0.49862827E+01</totfact>
</mgrwt>
</event>
<event>
 9    1  0.4412976E-036  0.1002303E+04  0.7818608E-02  0.8678847E-01
         -2   -1    0    0    0  501 -0.00000000000E+00  0.00000000000E+00  0.21541487527E+03  0.21541487527E+03  0.00000000000E+00 0. -1.
          2   -1    0    0  501    0  0.00000000000E+00 -0.00000000000E+00 -0.11659040402E+04  0.11659040402E+04  0.00000000000E+00 0. -1.
         36    2    1    2    0    0  0.10658141036E-13  0.14210854715E-13 -0.95048916490E+03  0.13813189154E+04  0.10023034937E+04 0.  0.
         25    2    3    3    0    0  0.36739100895E+01  0.93956027424E+02 -0.32592361133E+03  0.36162980124E+03  0.12533427312E+03 0.  0.
         35    2    3    3    0    0 -0.36739100895E+01 -0.93956027424E+02 -0.62456555358E+03  0.10196891142E+04  0.80052640570E+03 0.  0.
         22    1    5    5    0    0  0.12431955356E+03  0.30929133304E+02  0.16569735702E+03  0.20944588038E+03  0.00000000000E+00 0.  1.
         22    1    5    5    0    0 -0.12799346365E+03 -0.12488516073E+03 -0.79026291060E+03  0.81024323383E+03  0.00000000000E+00 0.  1.
          5    1    4    4  502    0 -0.23400983544E+02 -0.16805378045E+02 -0.14359662660E+03  0.14653364096E+03  0.47000000000E+01 0.  1.
         -5    1    4    4    0  502  0.27074893633E+02  0.11076140547E+03 -0.18232698472E+03  0.21509616028E+03  0.47000000000E+01 0.  1.
<mgrwt>
<rscale>  0 0.10023035E+04</rscale>
<asrwt>0</asrwt>
<pdfrwt beam="1">  1        2 0.17936985E+00 0.10023035E+04</pdfrwt>
<pdfrwt beam="2">  1       -2 0.33140750E-01 0.10023035E+04</pdfrwt>
<totfact> 0.20348790E+02</totfact>
</mgrwt>
</event>
<event>
 9    1  0.4412976E-036  0.1000042E+04  0.7818608E-02  0.8680998E-01
         -1   -1    0    0    0  501 -0.00000000000E+00  0.00000000000E+00  0.84135731562E+03  0.84135731562E+03  0.00000000000E+00 0. -1.
          1   -1    0    0  501    0  0.00000000000E+00 -0.00000000000E+00 -0.29716358975E+03  0.29716358975E+03  0.00000000000E+00 0. -1.
         36    2    1    2    0    0  0.00000000000E+00 -0.28421709430E-13  0.54419372587E+03  0.11385209054E+04  0.10000415195E+04 0.  0.
         25    2    3    3    0    0  0.50620567126E+02 -0.84671917017E+02 -0.10002576551E+02  0.15940886836E+03  0.12481730820E+03 0.  0.
         35    2    3    3    0    0 -0.50620567126E+02  0.84671917017E+02  0.55419630242E+03  0.97911203701E+03  0.80112112945E+03 0.  0.
         22    1    5    5    0    0  0.79137208864E+02  0.41197530675E+03  0.44246530677E+03  0.60972280497E+03  0.00000000000E+00 0. -1.
         22    1    5    5    0    0 -0.12975777599E+03 -0.32730338973E+03  0.11173099565E+03  0.36938923204E+03  0.00000000000E+00 0. -1.
          5    1    4    4  502    0  0.78985965842E+02 -0.82682425937E+02  0.21787852089E+02  0.11649878479E+03  0.47000000000E+01 0.  1.
         -5    1    4    4    0  502 -0.28365398717E+02 -0.19894910798E+01 -0.31790428639E+02  0.42910083572E+02  0.47000000000E+01 0.  1.
<mgrwt>
<rscale>  0 0.10000415E+04</rscale>
<asrwt>0</asrwt>
<pdfrwt beam="1">  1        1 0.45717476E-01 0.10000415E+04</pdfrwt>
<pdfrwt beam="2">  1       -1 0.12943959E+00 0.10000415E+04</pdfrwt>
<totfact> 0.54520217E+01</totfact>
</mgrwt>
</event>
<event>
 9    1  0.4412976E-036  0.9994457E+03  0.7818608E-02  0.8681566E-01
          2   -1    0    0  501    0  0.00000000000E+00  0.00000000000E+00  0.48725154902E+03  0.48725154902E+03  0.00000000000E+00 0.  1.
         -2   -1    0    0    0  501 -0.00000000000E+00 -0.00000000000E+00 -0.51251334706E+03  0.51251334706E+03  0.00000000000E+00 0.  1.
         36    2    1    2    0    0 -0.14210854715E-13  0.21316282073E-13 -0.25261798040E+02  0.99976489609E+03  0.99944569087E+03 0.  0.
         25    2    3    3    0    0 -0.51688178521E+02  0.38978794313E+00  0.12632723072E+03  0.18440898076E+03  0.12400114205E+03 0.  0.
         35    2    3    3    0    0  0.51688178521E+02 -0.38978794313E+00 -0.15158902876E+03  0.81535591533E+03  0.79947120979E+03 0.  0.
         22    1    5    5    0    0 -0.17114587065E+03  0.20919829737E+03  0.20959562568E+03  0.34203093861E+03  0.00000000000E+00 0. -1.
         22    1    5    5    0    0  0.22283404917E+03 -0.20958808531E+03 -0.36118465445E+03  0.47332497671E+03  0.00000000000E+00 0. -1.
          5    1    4    4  502    0  0.16584783443E+02  0.42055912609E+02  0.16267804027E+02  0.48275110306E+02  0.47000000000E+01 0.  1.
         -5    1    4    4    0  502 -0.68272961963E+02 -0.41666124666E+02  0.11005942670E+03  0.13613387045E+03  0.47000000000E+01 0.  1.
<mgrwt>
<rscale>  0 0.99944569E+03</rscale>
<asrwt>0</asrwt>
<pdfrwt beam="1">  1        2 0.74961776E-01 0.99944569E+03</pdfrwt>
<pdfrwt beam="2">  1       -2 0.78848208E-01 0.99944569E+03</pdfrwt>
<totfact> 0.10926433E+02</totfact>
</mgrwt>
</event>
<event>
 9    1  0.4412976E-036  0.9999049E+03  0.7818608E-02  0.8681129E-01
          2   -1    0    0  501    0  0.00000000000E+00  0.00000000000E+00  0.21243875989E+04  0.21243875989E+04  0.00000000000E+00 0.  1.
         -2   -1    0    0    0  501 -0.00000000000E+00 -0.00000000000E+00 -0.11765857993E+03  0.11765857993E+03  0.00000000000E+00 0.  1.
         36    2    1    2    0    0  0.35527136788E-14 -0.14210854715E-13  0.20067290190E+04  0.22420461789E+04  0.99990485172E+03 0.  0.
         25    2    3    3    0    0  0.76237425015E+01  0.55231726463E+01  0.63005282005E+02  0.14026627637E+03  0.12496533856E+03 0.  0.
         35    2    3    3    0    0 -0.76237425015E+01 -0.55231726463E+01  0.19437237370E+04  0.21017799025E+04  0.79957999344E+03 0.  0.
         22    1    5    5    0    0 -0.23001865575E+03 -0.21782866979E+03  0.16374103230E+04  0.16677741086E+04  0.00000000000E+00 0. -1.
         22    1    5    5    0    0  0.22239491325E+03  0.21230549714E+03  0.30631341396E+03  0.43400579389E+03  0.00000000000E+00 0. -1.
          5    1    4    4  502    0  0.27193846050E+02 -0.23950263462E+02 -0.25684809793E+02  0.44664525486E+02  0.47000000000E+01 0. -1.
         -5    1    4    4    0  502 -0.19570103548E+02  0.29473436108E+02  0.88690091798E+02  0.95601750883E+02  0.47000000000E+01 0. -1.
<mgrwt>
<rscale>  0 0.99990485E+03</rscale>
<asrwt>0</asrwt>
<pdfrwt beam="1">  1        2 0.32682883E+00 0.99990485E+03</pdfrwt>
<pdfrwt beam="2">  1       -2 0.18101322E-01 0.99990485E+03</pdfrwt>
<totfact> 0.16890803E+02</totfact>
</mgrwt>
</event>
<event>
 9    1  0.4412976E-036  0.9998469E+03  0.7818608E-02  0.8681184E-01
         -1   -1    0    0    0  501 -0.00000000000E+00  0.00000000000E+00  0.12590291793E+03  0.12590291793E+03  0.00000000000E+00 0.  1.
          1   -1    0    0  501    0  0.00000000000E+00 -0.00000000000E+00 -0.19850490467E+04  0.19850490467E+04  0.00000000000E+00 0.  1.
         36    2    1    2    0    0  0.28421709430E-13 -0.71054273576E-14 -0.18591461288E+04  0.21109519646E+04  0.99984692269E+03 0.  0.
         25    2    3    3    0    0  0.87758744793E+02  0.59627960254E+02 -0.12535216177E+03  0.19876607363E+03  0.11197185644E+03 0.  0.
         35    2    3    3    0    0 -0.87758744793E+02 -0.59627960254E+02 -0.17337939670E+04  0.19121858910E+04  0.79947249531E+03 0.  0.
         22    1    5    5    0    0 -0.20309633102E+03 -0.15794313202E+02 -0.17714944320E+04  0.17831685570E+04  0.00000000000E+00 0.  1.
         22    1    5    5    0    0  0.11533758622E+03 -0.43833647052E+02  0.37700465012E+02  0.12901733400E+03  0.00000000000E+00 0.  1.
          5    1    4    4  502    0  0.67309072539E+02  0.50553584341E+02 -0.14459473883E+02  0.85541466674E+02  0.47000000000E+01 0.  1.
         -5    1    4    4    0  502  0.20449672254E+02  0.90743759135E+01 -0.11089268788E+03  0.11322460695E+03  0.47000000000E+01 0.  1.
<mgrwt>
<rscale>  0 0.99984692E+03</rscale>
<asrwt>0</asrwt>
<pdfrwt beam="1">  1        1 0.30539213E+00 0.99984692E+03</pdfrwt>
<pdfrwt beam="2">  1       -1 0.19369682E-01 0.99984692E+03</pdfrwt>
<totfact> 0.68793141E+01</totfact>
</mgrwt>
</event>
<event>
 9    1  0.4412976E-036  0.9999850E+03  0.7818608E-02  0.8681052E-01
          2   -1    0    0  501    0  0.00000000000E+00  0.00000000000E+00  0.25791486731E+04  0.25791486731E+04  0.00000000000E+00 0. -1.
         -2   -1    0    0    0  501 -0.00000000000E+00 -0.00000000000E+00 -0.96928300406E+02  0.96928300406E+02  0.00000000000E+00 0. -1.
         36    2    1    2    0    0  0.14210854715E-13  0.42632564146E-13  0.24822203727E+04  0.26760769735E+04  0.99998499464E+03 0.  0.
         25    2    3    3    0    0  0.73318378018E+02  0.53516595975E+02  0.75001232556E+03  0.76578557305E+03  0.12517765296E+03 0.  0.
         35    2    3    3    0    0 -0.73318378018E+02 -0.53516595975E+02  0.17322080471E+04  0.19102914004E+04  0.80026802104E+03 0.  0.
         22    1    5    5    0    0 -0.22235404596E+03 -0.36446244151E+03  0.67895635939E+03  0.80203237527E+03  0.00000000000E+00 0.  1.
         22    1    5    5    0    0  0.14903566794E+03  0.31094584553E+03  0.10532516877E+04  0.11082590252E+04  0.00000000000E+00 0.  1.
          5    1    4    4  502    0  0.58389972000E+02 -0.10774485115E+02  0.13930318918E+03  0.15150229991E+03  0.47000000000E+01 0. -1.
         -5    1    4    4    0  502  0.14928406018E+02  0.64291081089E+02  0.61070913638E+03  0.61428327315E+03  0.47000000000E+01 0. -1.
<mgrwt>
<rscale>  0 0.99998499E+03</rscale>
<asrwt>0</asrwt>
<pdfrwt beam="1">  1        2 0.39679205E+00 0.99998499E+03</pdfrwt>
<pdfrwt beam="2">  1       -2 0.14912048E-01 0.99998499E+03</pdfrwt>
<totfact> 0.12578160E+02</totfact>
</mgrwt>
</event>
<event>
 9    1  0.4412976E-036  0.9994202E+03  0.7818608E-02  0.8681590E-01
          4   -1    0    0  501    0  0.00000000000E+00  0.00000000000E+00  0.81545967021E+03  0.81545967021E+03  0.00000000000E+00 0. -1.
         -4   -1    0    0    0  501 -0.00000000000E+00 -0.00000000000E+00 -0.30622014185E+03  0.30622014185E+03  0.00000000000E+00 0. -1.
         36    2    1    2    0    0  0.00000000000E+00 -0.71054273576E-14  0.50923952836E+03  0.11216798121E+04  0.99942018368E+03 0.  0.
         25    2    3    3    0    0 -0.81378207782E+02 -0.31721017086E+02  0.20678704824E+03  0.26232895635E+03  0.13574594798E+03 0.  0.
         35    2    3    3    0    0  0.81378207782E+02  0.31721017086E+02  0.30245248011E+03  0.85935085571E+03  0.79961100221E+03 0.  0.
         22    1    5    5    0    0 -0.10077694584E+03 -0.23158130801E+03  0.44280678654E+03  0.50976832507E+03  0.00000000000E+00 0. -1.
         22    1    5    5    0    0  0.18215515362E+03  0.26330232510E+03 -0.14035430643E+03  0.34958253064E+03  0.00000000000E+00 0. -1.
          5    1    4    4  502    0  0.12456268694E+02 -0.27871207008E+02 -0.43569108593E+01  0.31193516667E+02  0.47000000000E+01 0.  1.
         -5    1    4    4    0  502 -0.93834476476E+02 -0.38498100781E+01  0.21114395910E+03  0.23113543968E+03  0.47000000000E+01 0.  1.
<mgrwt>
<rscale>  0 0.99942018E+03</rscale>
<asrwt>0</asrwt>
<pdfrwt beam="1">  1        4 0.12545533E+00 0.99942018E+03</pdfrwt>
<pdfrwt beam="2">  1       -4 0.47110791E-01 0.99942018E+03</pdfrwt>
<totfact> 0.43882576E+00</totfact>
</mgrwt>
</event>
<event>
 9    1  0.4412976E-036  0.9996629E+03  0.7818608E-02  0.8681359E-01
         -3   -1    0    0    0  501 -0.00000000000E+00  0.00000000000E+00  0.86917684972E+03  0.86917684972E+03  0.00000000000E+00 0. -1.
          3   -1    0    0  501    0  0.00000000000E+00 -0.00000000000E+00 -0.28743458921E+03  0.28743458921E+03  0.00000000000E+00 0. -1.
         36    2    1    2    0    0  0.00000000000E+00  0.14210854715E-13  0.58174226052E+03  0.11566114389E+04  0.99966292469E+03 0.  0.
         25    2    3    3    0    0  0.12954524534E+03 -0.55225850196E+02  0.11505071192E+03  0.22058447672E+03  0.12485583662E+03 0.  0.
         35    2    3    3    0    0 -0.12954524534E+03  0.55225850196E+02  0.46669154859E+03  0.93602696221E+03  0.79907046456E+03 0.  0.
         22    1    5    5    0    0 -0.21110912693E+03 -0.15845004936E+03 -0.13200931053E+03  0.29512698908E+03  0.00000000000E+00 0.  1.
         22    1    5    5    0    0  0.81563881595E+02  0.21367589956E+03  0.59870085913E+03  0.64089997313E+03  0.00000000000E+00 0.  1.
          5    1    4    4  502    0  0.46692967109E+02  0.34348605096E+02  0.68616221352E+02  0.89946293321E+02  0.47000000000E+01 0.  1.
         -5    1    4    4    0  502  0.82852278227E+02 -0.89574455292E+02  0.46434490570E+02  0.13063818340E+03  0.47000000000E+01 0.  1.
<mgrwt>
<rscale>  0 0.99966292E+03</rscale>
<asrwt>0</asrwt>
<pdfrwt beam="1">  1        3 0.44220706E-01 0.99966292E+03</pdfrwt>
<pdfrwt beam="2">  1       -3 0.13371951E+00 0.99966292E+03</pdfrwt>
<totfact> 0.74116226E+00</totfact>
</mgrwt>
</event>
<event>
 9    1  0.4412976E-036  0.1000649E+04  0.7818608E-02  0.8680420E-01
          2   -1    0    0  501    0  0.00000000000E+00  0.00000000000E+00  0.31052978841E+03  0.31052978841E+03  0.00000000000E+00 0.  1.
         -2   -1    0    0    0  501 -0.00000000000E+00 -0.00000000000E+00 -0.80612052222E+03  0.80612052222E+03  0.00000000000E+00 0.  1.
         36    2    1    2    0    0 -0.35527136788E-14 -0.14210854715E-13 -0.49559073381E+03  0.11166503106E+04  0.10006486600E+04 0.  0.
         25    2    3    3    0    0  0.21182459957E+02  0.11343877991E+03 -0.64564625602E+01  0.17024089823E+03  0.12499289629E+03 0.  0.
         35    2    3    3    0    0 -0.21182459957E+02 -0.11343877991E+03 -0.48913427125E+03  0.94640941241E+03  0.80194849410E+03 0.  0.
         22    1    5    5    0    0  0.81899983416E+02  0.33289447763E+03 -0.28095986955E+03  0.44324348705E+03  0.00000000000E+00 0.  1.
         22    1    5    5    0    0 -0.10308244337E+03 -0.44633325754E+03 -0.20817440170E+03  0.50316592536E+03  0.00000000000E+00 0.  1.
          5    1    4    4  502    0 -0.10712715363E+02  0.12262171367E+03 -0.32954761721E+02  0.12751060055E+03  0.47000000000E+01 0. -1.
         -5    1    4    4    0  502  0.31895175320E+02 -0.91829337515E+01  0.26498299161E+02  0.42730297675E+02  0.47000000000E+01 0. -1.
<mgrwt>
<rscale>  0 0.10006487E+04</rscale>
<asrwt>0</asrwt>
<pdfrwt beam="1">  1        2 0.47773814E-01 0.10006487E+04</pdfrwt>
<pdfrwt beam="2">  1       -2 0.12401854E+00 0.10006487E+04</pdfrwt>
<totfact> 0.60005095E+01</totfact>
</mgrwt>
</event>
<event>
 9    1  0.4412976E-036  0.9905413E+03  0.7818608E-02  0.8690098E-01
         -2   -1    0    0    0  501 -0.00000000000E+00  0.00000000000E+00  0.12011884592E+03  0.12011884592E+03  0.00000000000E+00 0.  1.
          2   -1    0    0  501    0  0.00000000000E+00 -0.00000000000E+00 -0.20420861088E+04  0.20420861088E+04  0.00000000000E+00 0.  1.
         36    2    1    2    0    0 -0.21316282073E-13  0.00000000000E+00 -0.19219672628E+04  0.21622049547E+04  0.99054131998E+03 0.  0.
         25    2    3    3    0    0  0.60703339679E+02  0.46280448790E+02 -0.58566899912E+03  0.60262932727E+03  0.11969609084E+03 0.  0.
         35    2    3    3    0    0 -0.60703339679E+02 -0.46280448790E+02 -0.13362982637E+04  0.15595756274E+04  0.80047255581E+03 0.  0.
         22    1    5    5    0    0  0.12808458057E+03  0.34582876261E+03 -0.62682467810E+03  0.72726361789E+03  0.00000000000E+00 0.  1.
         22    1    5    5    0    0 -0.18878792025E+03 -0.39210921140E+03 -0.70947358562E+03  0.83231200952E+03  0.00000000000E+00 0.  1.
          5    1    4    4  502    0  0.66004920944E+02 -0.31284758256E+01 -0.14832784963E+03  0.16244900100E+03  0.47000000000E+01 0.  1.
         -5    1    4    4    0  502 -0.53015812652E+01  0.49408924615E+02 -0.43734114949E+03  0.44018032626E+03  0.47000000000E+01 0.  1.
<mgrwt>
<rscale>  0 0.99054132E+03</rscale>
<asrwt>0</asrwt>
<pdfrwt beam="1">  1        2 0.31416709E+00 0.99054132E+03</pdfrwt>
<pdfrwt beam="2">  1       -2 0.18479823E-01 0.99054132E+03</pdfrwt>
<totfact> 0.18176483E+02</totfact>
</mgrwt>
</event>
<event>
 9    1  0.4412976E-036  0.9999125E+03  0.7818608E-02  0.8681121E-01
          2   -1    0    0  501    0  0.00000000000E+00  0.00000000000E+00  0.12737704124E+04  0.12737704124E+04  0.00000000000E+00 0.  1.
         -2   -1    0    0    0  501 -0.00000000000E+00 -0.00000000000E+00 -0.19623334603E+03  0.19623334603E+03  0.00000000000E+00 0.  1.
         36    2    1    2    0    0 -0.14210854715E-13  0.28421709430E-13  0.10775370664E+04  0.14700037585E+04  0.99991245638E+03 0.  0.
         25    2    3    3    0    0 -0.48365605999E+02 -0.10995822849E+03  0.10225603705E+03  0.20226581730E+03  0.12659036250E+03 0.  0.
         35    2    3    3    0    0  0.48365605999E+02  0.10995822849E+03  0.97528102934E+03  0.12677379412E+04  0.80097213273E+03 0.  0.
         22    1    5    5    0    0  0.19618606720E+03  0.16489683679E+03 -0.22783328893E+02  0.25729170181E+03  0.00000000000E+00 0.  1.
         22    1    5    5    0    0 -0.14782046120E+03 -0.54938608293E+02  0.99806435823E+03  0.10104462393E+04  0.00000000000E+00 0.  1.
          5    1    4    4  502    0 -0.16334106559E+02  0.25054461181E+02  0.39847500019E+02  0.50044403483E+02  0.47000000000E+01 0.  1.
         -5    1    4    4    0  502 -0.32031499440E+02 -0.13501268967E+03  0.62408537032E+02  0.15222141382E+03  0.47000000000E+01 0.  1.
<mgrwt>
<rscale>  0 0.99991246E+03</rscale>
<asrwt>0</asrwt>
<pdfrwt beam="1">  1        2 0.19596467E+00 0.99991246E+03</pdfrwt>
<pdfrwt beam="2">  1       -2 0.30189746E-01 0.99991246E+03</pdfrwt>
<totfact> 0.20865753E+02</totfact>
</mgrwt>
</event>
<event>
 9    1  0.4412976E-036  0.1000652E+04  0.7818608E-02  0.8680418E-01
          2   -1    0    0  501    0  0.00000000000E+00  0.00000000000E+00  0.84942996230E+03  0.84942996230E+03  0.00000000000E+00 0. -1.
         -2   -1    0    0    0  501 -0.00000000000E+00 -0.00000000000E+00 -0.29469880825E+03  0.29469880825E+03  0.00000000000E+00 0. -1.
         36    2    1    2    0    0 -0.71054273576E-14  0.35527136788E-14  0.55473115405E+03  0.11441287705E+04  0.10006517828E+04 0.  0.
         25    2    3    3    0    0  0.61836416326E+02 -0.13903217179E-01  0.26051008515E+03  0.29553898059E+03  0.12511611410E+03 0.  0.
         35    2    3    3    0    0 -0.61836416326E+02  0.13903217179E-01  0.29422106890E+03  0.84858978995E+03  0.79354574642E+03 0.  0.
         22    1    5    5    0    0 -0.44378527372E+02 -0.24648810329E+03 -0.18367355104E+03  0.31058301967E+03  0.00000000000E+00 0.  1.
         22    1    5    5    0    0 -0.17457888954E+02  0.24650200651E+03  0.47789461994E+03  0.53800677028E+03  0.00000000000E+00 0.  1.
          5    1    4    4  502    0  0.38350785314E+02  0.27445042142E+02  0.18619472462E+02  0.50919424851E+02  0.47000000000E+01 0. -1.
         -5    1    4    4    0  502  0.23485631012E+02 -0.27458945360E+02  0.24189061269E+03  0.24461955574E+03  0.47000000000E+01 0. -1.
<mgrwt>
<rscale>  0 0.10006518E+04</rscale>
<asrwt>0</asrwt>
<pdfrwt beam="1">  1        2 0.13068153E+00 0.10006518E+04</pdfrwt>
<pdfrwt beam="2">  1       -2 0.45338279E-01 0.10006518E+04</pdfrwt>
<totfact> 0.17736034E+02</totfact>
</mgrwt>
</event>
<event>
 9    1  0.4412976E-036  0.1001245E+04  0.7818608E-02  0.8679853E-01
          2   -1    0    0  501    0  0.00000000000E+00  0.00000000000E+00  0.21413454364E+03  0.21413454364E+03  0.00000000000E+00 0.  1.
         -2   -1    0    0    0  501 -0.00000000000E+00 -0.00000000000E+00 -0.11703997099E+04  0.11703997099E+04  0.00000000000E+00 0.  1.
         36    2    1    2    0    0  0.14210854715E-13 -0.28421709430E-13 -0.95626516630E+03  0.13845342536E+04  0.10012452402E+04 0.  0.
         25    2    3    3    0    0  0.30775983153E+02  0.13619706920E+03 -0.15863983999E+03  0.24573309005E+03  0.12538480736E+03 0.  0.
         35    2    3    3    0    0 -0.30775983153E+02 -0.13619706920E+03 -0.79762532631E+03  0.11388011635E+04  0.80072787269E+03 0.  0.
         22    1    5    5    0    0 -0.27254317589E+03  0.23592136796E+03 -0.44045938477E+03  0.56916003392E+03  0.00000000000E+00 0.  1.
         22    1    5    5    0    0  0.24176719273E+03 -0.37211843715E+03 -0.35716594154E+03  0.56964112961E+03  0.00000000000E+00 0.  1.
          5    1    4    4  502    0 -0.18218586185E+02  0.12501254078E+03 -0.72062329095E+02  0.14551673962E+03  0.47000000000E+01 0. -1.
         -5    1    4    4    0  502  0.48994569338E+02  0.11184528411E+02 -0.86577510894E+02  0.10021635043E+03  0.47000000000E+01 0. -1.
<mgrwt>
<rscale>  0 0.10012452E+04</rscale>
<asrwt>0</asrwt>
<pdfrwt beam="1">  1        2 0.32943776E-01 0.10012452E+04</pdfrwt>
<pdfrwt beam="2">  1       -2 0.18006150E+00 0.10012452E+04</pdfrwt>
<totfact> 0.32018868E+01</totfact>
</mgrwt>
</event>
<event>
 9    1  0.4412976E-036  0.9999096E+03  0.7818608E-02  0.8681124E-01
          1   -1    0    0  501    0  0.00000000000E+00  0.00000000000E+00  0.18005663628E+04  0.18005663628E+04  0.00000000000E+00 0. -1.
         -1   -1    0    0    0  501 -0.00000000000E+00 -0.00000000000E+00 -0.13882010485E+03  0.13882010485E+03  0.00000000000E+00 0. -1.
         36    2    1    2    0    0  0.00000000000E+00 -0.28421709430E-13  0.16617462580E+04  0.19393864676E+04  0.99990961845E+03 0.  0.
         25    2    3    3    0    0 -0.23887507221E+02 -0.13751248831E+03  0.34826805239E+03  0.39557897008E+03  0.12534667052E+03 0.  0.
         35    2    3    3    0    0  0.23887507221E+02  0.13751248831E+03  0.13134782056E+04  0.15438074976E+04  0.79914723025E+03 0.  0.
         22    1    5    5    0    0 -0.42626745143E+02 -0.38991637035E+02 -0.10124405055E+03  0.11656648289E+03  0.00000000000E+00 0. -1.
         22    1    5    5    0    0  0.66514252365E+02  0.17650412535E+03  0.14147222561E+04  0.14272410147E+04  0.00000000000E+00 0. -1.
          5    1    4    4  502    0  0.45411451283E+02 -0.85903393660E+02  0.22335682453E+03  0.24362256467E+03  0.47000000000E+01 0. -1.
         -5    1    4    4    0  502 -0.69298958504E+02 -0.51609094654E+02  0.12491122786E+03  0.15195640542E+03  0.47000000000E+01 0. -1.
<mgrwt>
<rscale>  0 0.99990962E+03</rscale>
<asrwt>0</asrwt>
<pdfrwt beam="1">  1        1 0.27701019E+00 0.99990962E+03</pdfrwt>
<pdfrwt beam="2">  1       -1 0.21356941E-01 0.99990962E+03</pdfrwt>
<totfact> 0.78839663E+01</totfact>
</mgrwt>
</event>
<event>
 9    1  0.4412976E-036  0.1001903E+04  0.7818608E-02  0.8679228E-01
          2   -1    0    0  501    0  0.00000000000E+00  0.00000000000E+00  0.59688243125E+03  0.59688243125E+03  0.00000000000E+00 0.  1.
         -2   -1    0    0    0  501 -0.00000000000E+00 -0.00000000000E+00 -0.42043818830E+03  0.42043818830E+03  0.00000000000E+00 0.  1.
         36    2    1    2    0    0  0.14210854715E-13  0.28421709430E-13  0.17644424295E+03  0.10173206196E+04  0.10019025263E+04 0.  0.
         25    2    3    3    0    0  0.80190190982E+02 -0.64896149075E+02 -0.59347552190E+02  0.17233966965E+03  0.12464691288E+03 0.  0.
         35    2    3    3    0    0 -0.80190190982E+02  0.64896149075E+02  0.23579179514E+03  0.84498094991E+03  0.80483107430E+03 0.  0.
         22    1    5    5    0    0  0.89751102540E+02 -0.28803960880E+03 -0.11133647975E+03  0.32158651771E+03  0.00000000000E+00 0. -1.
         22    1    5    5    0    0 -0.16994129352E+03  0.35293575788E+03  0.34712827489E+03  0.52339443220E+03  0.00000000000E+00 0. -1.
          5    1    4    4  502    0  0.65373723001E+02  0.25074921087E+02 -0.20439917508E+02  0.73091419156E+02  0.47000000000E+01 0.  1.
         -5    1    4    4    0  502  0.14816467981E+02 -0.89971070162E+02 -0.38907634683E+02  0.99248250494E+02  0.47000000000E+01 0.  1.
<mgrwt>
<rscale>  0 0.10019025E+04</rscale>
<asrwt>0</asrwt>
<pdfrwt beam="1">  1        2 0.91828066E-01 0.10019025E+04</pdfrwt>
<pdfrwt beam="2">  1       -2 0.64682798E-01 0.10019025E+04</pdfrwt>
<totfact> 0.13323669E+02</totfact>
</mgrwt>
</event>
<event>
 9    1  0.4412976E-036  0.9994985E+03  0.7818608E-02  0.8681516E-01
          2   -1    0    0  501    0  0.00000000000E+00  0.00000000000E+00  0.19280642581E+04  0.19280642581E+04  0.00000000000E+00 0. -1.
         -2   -1    0    0    0  501 -0.00000000000E+00 -0.00000000000E+00 -0.12953370211E+03  0.12953370211E+03  0.00000000000E+00 0. -1.
         36    2    1    2    0    0 -0.88817841970E-15  0.00000000000E+00  0.17985305560E+04  0.20575979602E+04  0.99949847676E+03 0.  0.
         25    2    3    3    0    0 -0.63343861160E+01  0.13068424606E+03  0.24060826045E+03  0.30136142752E+03  0.12572938553E+03 0.  0.
         35    2    3    3    0    0  0.63343861160E+01 -0.13068424606E+03  0.15579222955E+04  0.17562365327E+04  0.80007898561E+03 0.  0.
         22    1    5    5    0    0  0.56617212027E+02 -0.43602279877E+03  0.12259073696E+04  0.13023710180E+04  0.00000000000E+00 0. -1.
         22    1    5    5    0    0 -0.50282825911E+02  0.30533855271E+03  0.33201492588E+03  0.45386551462E+03  0.00000000000E+00 0. -1.
          5    1    4    4  502    0 -0.18056728262E+01 -0.89402591150E+01  0.10865863802E+03  0.10914200980E+03  0.47000000000E+01 0. -1.
         -5    1    4    4    0  502 -0.45287132897E+01  0.13962450517E+03  0.13194962244E+03  0.19221941772E+03  0.47000000000E+01 0. -1.
<mgrwt>
<rscale>  0 0.99949848E+03</rscale>
<asrwt>0</asrwt>
<pdfrwt beam="1">  1        2 0.29662525E+00 0.99949848E+03</pdfrwt>
<pdfrwt beam="2">  1       -2 0.19928263E-01 0.99949848E+03</pdfrwt>
<totfact> 0.18532650E+02</totfact>
</mgrwt>
</event>
<event>
 9    1  0.4412976E-036  0.1000547E+04  0.7818608E-02  0.8680517E-01
         -2   -1    0    0    0  501 -0.00000000000E+00  0.00000000000E+00  0.92795953865E+03  0.92795953865E+03  0.00000000000E+00 0. -1.
          2   -1    0    0  501    0  0.00000000000E+00 -0.00000000000E+00 -0.26970295482E+03  0.26970295482E+03  0.00000000000E+00 0. -1.
         36    2    1    2    0    0 -0.28421709430E-13  0.28421709430E-13  0.65825658383E+03  0.11976624935E+04  0.10005467096E+04 0.  0.
         25    2    3    3    0    0  0.13359000097E+03  0.34152919845E+02  0.13838054080E+03  0.23197349347E+03  0.12509922983E+03 0.  0.
         35    2    3    3    0    0 -0.13359000097E+03 -0.34152919845E+02  0.51987604303E+03  0.96568900001E+03  0.80204204026E+03 0.  0.
         22    1    5    5    0    0  0.23334629995E+03 -0.28561292921E+03  0.22608073089E+03  0.43259419542E+03  0.00000000000E+00 0. -1.
         22    1    5    5    0    0 -0.36693630092E+03  0.25146000937E+03  0.29379531214E+03  0.53309480459E+03  0.00000000000E+00 0. -1.
          5    1    4    4  502    0  0.30959833261E+02  0.59613403842E+02  0.97531509803E+02  0.11851900522E+03  0.47000000000E+01 0. -1.
         -5    1    4    4    0  502  0.10263016771E+03 -0.25460483997E+02  0.40849031000E+02  0.11345448825E+03  0.47000000000E+01 0. -1.
<mgrwt>
<rscale>  0 0.10005467E+04</rscale>
<asrwt>0</asrwt>
<pdfrwt beam="1">  1        2 0.41492763E-01 0.10005467E+04</pdfrwt>
<pdfrwt beam="2">  1       -2 0.14276300E+00 0.10005467E+04</pdfrwt>
<totfact> 0.48098138E+01</totfact>
</mgrwt>
</event>
<event>
 9    1  0.4412976E-036  0.1000142E+04  0.7818608E-02  0.8680903E-01
         -3   -1    0    0    0  501 -0.00000000000E+00  0.00000000000E+00  0.88958000483E+03  0.88958000483E+03  0.00000000000E+00 0. -1.
          3   -1    0    0  501    0  0.00000000000E+00 -0.00000000000E+00 -0.28111132050E+03  0.28111132050E+03  0.00000000000E+00 0. -1.
         36    2    1    2    0    0  0.00000000000E+00  0.28421709430E-13  0.60846868433E+03  0.11706913253E+04  0.10001420096E+04 0.  0.
         25    2    3    3    0    0  0.10322841619E+02  0.13052876294E+03  0.17173646732E+03  0.24989962383E+03  0.12574612825E+03 0.  0.
         35    2    3    3    0    0 -0.10322841619E+02 -0.13052876294E+03  0.43673221701E+03  0.92079170150E+03  0.79998625560E+03 0.  0.
         22    1    5    5    0    0  0.86709617941E+02 -0.18027564337E+03 -0.19521165266E+03  0.27950931071E+03  0.00000000000E+00 0. -1.
         22    1    5    5    0    0 -0.97032459560E+02  0.49746880426E+02  0.63194386967E+03  0.64128239079E+03  0.00000000000E+00 0. -1.
          5    1    4    4  502    0  0.46254697460E+02  0.13495404540E+03  0.15153657672E+03  0.20817664492E+03  0.47000000000E+01 0. -1.
         -5    1    4    4    0  502 -0.35931855841E+02 -0.44252824552E+01  0.20199890604E+02  0.41722978913E+02  0.47000000000E+01 0. -1.
<mgrwt>
<rscale>  0 0.10001420E+04</rscale>
<asrwt>0</asrwt>
<pdfrwt beam="1">  1        3 0.43247896E-01 0.10001420E+04</pdfrwt>
<pdfrwt beam="2">  1       -3 0.13685846E+00 0.10001420E+04</pdfrwt>
<totfact> 0.72405862E+00</totfact>
</mgrwt>
</event>
<event>
 9    1  0.4412976E-036  0.1000033E+04  0.7818608E-02  0.8681006E-01
         -2   -1    0    0    0  501 -0.00000000000E+00  0.00000000000E+00  0.17025947229E+03  0.17025947229E+03  0.00000000000E+00 0.  1.
          2   -1    0    0  501    0  0.00000000000E+00 -0.00000000000E+00 -0.14684443069E+04  0.14684443069E+04  0.00000000000E+00 0.  1.
         36    2    1    2    0    0  0.14210854715E-13  0.14210854715E-13 -0.12981848346E+04  0.16387037792E+04  0.10000331050E+04 0.  0.
         25    2    3    3    0    0 -0.62728000198E+02 -0.12263359319E+03 -0.30670838809E+03  0.35805079768E+03  0.12311189305E+03 0.  0.
         35    2    3    3    0    0  0.62728000198E+02  0.12263359319E+03 -0.99147644649E+03  0.12806529815E+04  0.79879453856E+03 0.  0.
         22    1    5    5    0    0  0.41579015670E+03 -0.15968060327E+02 -0.39455280601E+03  0.57341812850E+03  0.00000000000E+00 0.  1.
         22    1    5    5    0    0 -0.35306215650E+03  0.13860165352E+03 -0.59692364048E+03  0.70723485298E+03  0.00000000000E+00 0.  1.
          5    1    4    4  502    0 -0.29613974464E+02  0.21384832841E+02 -0.57469275351E+02  0.68257645496E+02  0.47000000000E+01 0. -1.
         -5    1    4    4    0  502 -0.33114025734E+02 -0.14401842603E+03 -0.24923911274E+03  0.28979315219E+03  0.47000000000E+01 0. -1.
<mgrwt>
<rscale>  0 0.10000331E+04</rscale>
<asrwt>0</asrwt>
<pdfrwt beam="1">  1        2 0.22591450E+00 0.10000331E+04</pdfrwt>
<pdfrwt beam="2">  1       -2 0.26193766E-01 0.10000331E+04</pdfrwt>
<totfact> 0.20843267E+02</totfact>
</mgrwt>
</event>
<event>
 9    1  0.4412976E-036  0.9997462E+03  0.7818608E-02  0.8681280E-01
          2   -1    0    0  501    0  0.00000000000E+00  0.00000000000E+00  0.12408589286E+04  0.12408589286E+04  0.00000000000E+00 0. -1.
         -2   -1    0    0    0  501 -0.00000000000E+00 -0.00000000000E+00 -0.20137109166E+03  0.20137109166E+03  0.00000000000E+00 0. -1.
         36    2    1    2    0    0  0.14210854715E-13  0.00000000000E+00  0.10394878370E+04  0.14422300203E+04  0.99974620191E+03 0.  0.
         25    2    3    3    0    0 -0.60914080858E+02  0.12672683172E+03  0.21094249465E+03  0.28256741958E+03  0.12480943646E+03 0.  0.
         35    2    3    3    0    0  0.60914080858E+02 -0.12672683172E+03  0.82854534233E+03  0.11596626007E+04  0.79909933557E+03 0.  0.
         22    1    5    5    0    0 -0.15900407337E+03 -0.40877614233E+03  0.34401308459E+03  0.55742733361E+03  0.00000000000E+00 0.  1.
         22    1    5    5    0    0  0.21991815423E+03  0.28204931061E+03  0.48453225774E+03  0.60223526712E+03  0.00000000000E+00 0.  1.
          5    1    4    4  502    0  0.22161045874E+02 -0.20636173353E+01  0.72495327859E+02  0.75980477967E+02  0.47000000000E+01 0.  1.
         -5    1    4    4    0  502 -0.83075126732E+02  0.12879044906E+03  0.13844716679E+03  0.20658694161E+03  0.47000000000E+01 0.  1.
<mgrwt>
<rscale>  0 0.99974620E+03</rscale>
<asrwt>0</asrwt>
<pdfrwt beam="1">  1        2 0.19090137E+00 0.99974620E+03</pdfrwt>
<pdfrwt beam="2">  1       -2 0.30980169E-01 0.99974620E+03</pdfrwt>
<totfact> 0.20803627E+02</totfact>
</mgrwt>
</event>
<event>
 9    1  0.4412976E-036  0.1000672E+04  0.7818608E-02  0.8680399E-01
         -1   -1    0    0    0  501 -0.00000000000E+00  0.00000000000E+00  0.66262149268E+03  0.66262149268E+03  0.00000000000E+00 0.  1.
          1   -1    0    0  501    0  0.00000000000E+00 -0.00000000000E+00 -0.37779621732E+03  0.37779621732E+03  0.00000000000E+00 0.  1.
         36    2    1    2    0    0  0.00000000000E+00  0.00000000000E+00  0.28482527536E+03  0.10404177100E+04  0.10006715614E+04 0.  0.
         25    2    3    3    0    0 -0.10116472123E+03  0.74964949975E+02  0.11745587756E+03  0.21304191208E+03  0.12544691540E+03 0.  0.
         35    2    3    3    0    0  0.10116472123E+03 -0.74964949975E+02  0.16736939779E+03  0.82737579792E+03  0.80042748024E+03 0.  0.
         22    1    5    5    0    0  0.31354436447E+03  0.88679763836E+02  0.36872676373E+03  0.49207072185E+03  0.00000000000E+00 0.  1.
         22    1    5    5    0    0 -0.21237964324E+03 -0.16364471381E+03 -0.20135736594E+03  0.33530507607E+03  0.00000000000E+00 0.  1.
          5    1    4    4  502    0 -0.66924038985E+02 -0.93280399841E+01  0.99213436829E+02  0.12013007688E+03  0.47000000000E+01 0. -1.
         -5    1    4    4    0  502 -0.34240682248E+02  0.84292989959E+02  0.18242440735E+02  0.92911835204E+02  0.47000000000E+01 0. -1.
<mgrwt>
<rscale>  0 0.10006716E+04</rscale>
<asrwt>0</asrwt>
<pdfrwt beam="1">  1        1 0.58122495E-01 0.10006716E+04</pdfrwt>
<pdfrwt beam="2">  1       -1 0.10194177E+00 0.10006716E+04</pdfrwt>
<totfact> 0.70778476E+01</totfact>
</mgrwt>
</event>
<event>
 9    1  0.4412976E-036  0.1001199E+04  0.7818608E-02  0.8679897E-01
         -2   -1    0    0    0  501 -0.00000000000E+00  0.00000000000E+00  0.21531578365E+03  0.21531578365E+03  0.00000000000E+00 0. -1.
          2   -1    0    0  501    0  0.00000000000E+00 -0.00000000000E+00 -0.11638719848E+04  0.11638719848E+04  0.00000000000E+00 0. -1.
         36    2    1    2    0    0  0.00000000000E+00 -0.71054273576E-14 -0.94855620115E+03  0.13791877685E+04  0.10011992978E+04 0.  0.
         25    2    3    3    0    0 -0.69720908971E+02  0.11931838256E+02 -0.94591626536E+01  0.14355834398E+03  0.12456383286E+03 0.  0.
         35    2    3    3    0    0  0.69720908971E+02 -0.11931838256E+02 -0.93909703850E+03  0.12356294245E+04  0.79992090423E+03 0.  0.
         22    1    5    5    0    0  0.31988736144E+03 -0.12688727692E+03 -0.10887118822E+03  0.36094492749E+03  0.00000000000E+00 0.  1.
         22    1    5    5    0    0 -0.25016645247E+03  0.11495543867E+03 -0.83022585028E+03  0.87468449700E+03  0.00000000000E+00 0.  1.
          5    1    4    4  502    0 -0.32764978501E+02 -0.43949524106E+02  0.32946815126E+02  0.64130235554E+02  0.47000000000E+01 0. -1.
         -5    1    4    4    0  502 -0.36955930470E+02  0.55881362362E+02 -0.42405977779E+02  0.79428108424E+02  0.47000000000E+01 0. -1.
<mgrwt>
<rscale>  0 0.10011993E+04</rscale>
<asrwt>0</asrwt>
<pdfrwt beam="1">  1        2 0.17905723E+00 0.10011993E+04</pdfrwt>
<pdfrwt beam="2">  1       -2 0.33125505E-01 0.10011993E+04</pdfrwt>
<totfact> 0.20423128E+02</totfact>
</mgrwt>
</event>
<event>
 9    1  0.4412976E-036  0.9986837E+03  0.7818608E-02  0.8682293E-01
         -2   -1    0    0    0  501 -0.00000000000E+00  0.00000000000E+00  0.43816756891E+03  0.43816756891E+03  0.00000000000E+00 0. -1.
          2   -1    0    0  501    0  0.00000000000E+00 -0.00000000000E+00 -0.56905685552E+03  0.56905685552E+03  0.00000000000E+00 0. -1.
         36    2    1    2    0    0 -0.71054273576E-14  0.71054273576E-14 -0.13088928660E+03  0.10072244244E+04  0.99868365152E+03 0.  0.
         25    2    3    3    0    0 -0.20040755096E+02 -0.29079743891E+02 -0.16326716455E+03  0.20850277279E+03  0.12477970937E+03 0.  0.
         35    2    3    3    0    0  0.20040755096E+02  0.29079743891E+02  0.32377877949E+02  0.79872165164E+03  0.79728331630E+03 0.  0.
         22    1    5    5    0    0  0.40138931785E+03  0.29063708341E+02 -0.58564925700E+02  0.40667915381E+03  0.00000000000E+00 0.  1.
         22    1    5    5    0    0 -0.38134856275E+03  0.16035550450E-01  0.90942803649E+02  0.39204249783E+03  0.00000000000E+00 0.  1.
          5    1    4    4  502    0  0.30186904935E+01 -0.74431486929E+02 -0.12110355762E+03  0.14225793618E+03  0.47000000000E+01 0. -1.
         -5    1    4    4    0  502 -0.23059445589E+02  0.45351743038E+02 -0.42163606930E+02  0.66244836605E+02  0.47000000000E+01 0. -1.
<mgrwt>
<rscale>  0 0.99868365E+03</rscale>
<asrwt>0</asrwt>
<pdfrwt beam="1">  1        2 0.87547208E-01 0.99868365E+03</pdfrwt>
<pdfrwt beam="2">  1       -2 0.67410395E-01 0.99868365E+03</pdfrwt>
<totfact> 0.12904870E+02</totfact>
</mgrwt>
</event>
<event>
 9    1  0.4412976E-036  0.9978456E+03  0.7818608E-02  0.8683092E-01
          2   -1    0    0  501    0  0.00000000000E+00  0.00000000000E+00  0.13950542877E+04  0.13950542877E+04  0.00000000000E+00 0. -1.
         -2   -1    0    0    0  501 -0.00000000000E+00 -0.00000000000E+00 -0.17843316941E+03  0.17843316941E+03  0.00000000000E+00 0. -1.
         36    2    1    2    0    0 -0.28421709430E-13 -0.28421709430E-13  0.12166211183E+04  0.15734874571E+04  0.99784559536E+03 0.  0.
         25    2    3    3    0    0  0.51463455068E+02  0.10707482231E+03  0.33775626722E+03  0.37904671208E+03  0.12443315115E+03 0.  0.
         35    2    3    3    0    0 -0.51463455068E+02 -0.10707482231E+03  0.87886485106E+03  0.11944407450E+04  0.80010734414E+03 0.  0.
         22    1    5    5    0    0 -0.28598459678E+03 -0.29583415990E+02  0.62867877105E+01  0.28757936609E+03  0.00000000000E+00 0.  1.
         22    1    5    5    0    0  0.23452114171E+03 -0.77491406325E+02  0.87257806334E+03  0.90686137893E+03  0.00000000000E+00 0.  1.
          5    1    4    4  502    0 -0.70386896416E+01  0.80382931867E+02  0.28344797891E+03  0.29474701972E+03  0.47000000000E+01 0. -1.
         -5    1    4    4    0  502  0.58502144710E+02  0.26691890448E+02  0.54308288314E+02  0.84299692354E+02  0.47000000000E+01 0. -1.
<mgrwt>
<rscale>  0 0.99784560E+03</rscale>
<asrwt>0</asrwt>
<pdfrwt beam="1">  1        2 0.21462373E+00 0.99784560E+03</pdfrwt>
<pdfrwt beam="2">  1       -2 0.27451258E-01 0.99784560E+03</pdfrwt>
<totfact> 0.21100314E+02</totfact>
</mgrwt>
</event>
<event>
 9    1  0.4412976E-036  0.1000487E+04  0.7818608E-02  0.8680575E-01
         -2   -1    0    0    0  501 -0.00000000000E+00  0.00000000000E+00  0.42765597854E+03  0.42765597854E+03  0.00000000000E+00 0. -1.
          2   -1    0    0  501    0  0.00000000000E+00 -0.00000000000E+00 -0.58515119578E+03  0.58515119578E+03  0.00000000000E+00 0. -1.
         36    2    1    2    0    0  0.35527136788E-13  0.00000000000E+00 -0.15749521724E+03  0.10128071743E+04  0.10004866960E+04 0.  0.
         25    2    3    3    0    0 -0.53707170517E+00  0.11457411603E+03 -0.11351011486E+03  0.20405075018E+03  0.12499858385E+03 0.  0.
         35    2    3    3    0    0  0.53707170517E+00 -0.11457411603E+03 -0.43985102386E+02  0.80875642415E+03  0.79939023503E+03 0.  0.
         22    1    5    5    0    0  0.27940550259E+03  0.14598936676E+03 -0.22405196135E+03  0.38675523457E+03  0.00000000000E+00 0. -1.
         22    1    5    5    0    0 -0.27886843088E+03 -0.26056348279E+03  0.18006685896E+03  0.42200118958E+03  0.00000000000E+00 0. -1.
          5    1    4    4  502    0  0.48264108056E+02  0.82158411858E+02 -0.26436062594E+02  0.98996889704E+02  0.47000000000E+01 0.  1.
         -5    1    4    4    0  502 -0.48801179761E+02  0.32415704170E+02 -0.87074052262E+02  0.10505386047E+03  0.47000000000E+01 0.  1.
<mgrwt>
<rscale>  0 0.10004867E+04</rscale>
<asrwt>0</asrwt>
<pdfrwt beam="1">  1        2 0.90023261E-01 0.10004867E+04</pdfrwt>
<pdfrwt beam="2">  1       -2 0.65793228E-01 0.10004867E+04</pdfrwt>
<totfact> 0.13154650E+02</totfact>
</mgrwt>
</event>
<event>
 9    1  0.4412976E-036  0.1000628E+04  0.7818608E-02  0.8680440E-01
         -4   -1    0    0    0  501 -0.00000000000E+00  0.00000000000E+00  0.94046851782E+03  0.94046851782E+03  0.00000000000E+00 0.  1.
          4   -1    0    0  501    0  0.00000000000E+00 -0.00000000000E+00 -0.26615892701E+03  0.26615892701E+03  0.00000000000E+00 0.  1.
         36    2    1    2    0    0  0.14210854715E-13  0.28421709430E-13  0.67430959080E+03  0.12066274448E+04  0.10006279860E+04 0.  0.
         25    2    3    3    0    0  0.65723085845E+02  0.10815263032E+03  0.51365789524E+02  0.18451226819E+03  0.12405570250E+03 0.  0.
         35    2    3    3    0    0 -0.65723085845E+02 -0.10815263032E+03  0.62294380128E+03  0.10221151766E+04  0.80040236089E+03 0.  0.
         22    1    5    5    0    0  0.78200131517E+02 -0.42842246087E+03  0.46504076844E+03  0.63712163820E+03  0.00000000000E+00 0. -1.
         22    1    5    5    0    0 -0.14392321736E+03  0.32026983056E+03  0.15790303284E+03  0.38499353844E+03  0.00000000000E+00 0. -1.
          5    1    4    4  502    0  0.33830385299E+02  0.10390093014E+03 -0.15206808505E+02  0.11042298347E+03  0.47000000000E+01 0. -1.
         -5    1    4    4    0  502  0.31892700546E+02  0.42517001788E+01  0.66572598029E+02  0.74089284723E+02  0.47000000000E+01 0. -1.
<mgrwt>
<rscale>  0 0.10006280E+04</rscale>
<asrwt>0</asrwt>
<pdfrwt beam="1">  1        4 0.40947528E-01 0.10006280E+04</pdfrwt>
<pdfrwt beam="2">  1       -4 0.14468746E+00 0.10006280E+04</pdfrwt>
<totfact> 0.38761572E+00</totfact>
</mgrwt>
</event>
<event>
 9    1  0.4412976E-036  0.1000534E+04  0.7818608E-02  0.8680530E-01
          2   -1    0    0  501    0  0.00000000000E+00  0.00000000000E+00  0.14330277332E+04  0.14330277332E+04  0.00000000000E+00 0. -1.
         -2   -1    0    0    0  501 -0.00000000000E+00 -0.00000000000E+00 -0.17464202179E+03  0.17464202179E+03  0.00000000000E+00 0. -1.
         36    2    1    2    0    0 -0.24868995752E-13  0.00000000000E+00  0.12583857114E+04  0.16076697550E+04  0.10005335788E+04 0.  0.
         25    2    3    3    0    0  0.28383556834E+02  0.99531940521E+02  0.92422305027E+02  0.18687690267E+03  0.12517532026E+03 0.  0.
         35    2    3    3    0    0 -0.28383556834E+02 -0.99531940521E+02  0.11659634064E+04  0.14207928523E+04  0.80527599659E+03 0.  0.
         22    1    5    5    0    0  0.34718286288E+03  0.12107606522E+03  0.63778898939E+03  0.73618621885E+03  0.00000000000E+00 0. -1.
         22    1    5    5    0    0 -0.37556641971E+03 -0.22060800574E+03  0.52817441697E+03  0.68460663344E+03  0.00000000000E+00 0. -1.
          5    1    4    4  502    0  0.13734068415E+02 -0.25583326706E+01 -0.25926892283E+02  0.29823873738E+02  0.47000000000E+01 0. -1.
         -5    1    4    4    0  502  0.14649488419E+02  0.10209027319E+03  0.11834919731E+03  0.15705302893E+03  0.47000000000E+01 0. -1.
<mgrwt>
<rscale>  0 0.10005336E+04</rscale>
<asrwt>0</asrwt>
<pdfrwt beam="1">  1        2 0.22046580E+00 0.10005336E+04</pdfrwt>
<pdfrwt beam="2">  1       -2 0.26868004E-01 0.10005336E+04</pdfrwt>
<totfact> 0.20861990E+02</totfact>
</mgrwt>
</event>
<event>
 9    1  0.4412976E-036  0.1000219E+04  0.7818608E-02  0.8680829E-01
          2   -1    0    0  501    0  0.00000000000E+00  0.00000000000E+00  0.12963511006E+04  0.12963511006E+04  0.00000000000E+00 0.  1.
         -2   -1    0    0    0  501 -0.00000000000E+00 -0.00000000000E+00 -0.19293358793E+03  0.19293358793E+03  0.00000000000E+00 0.  1.
         36    2    1    2    0    0 -0.28421709430E-13  0.35527136788E-14  0.11034175126E+04  0.14892846885E+04  0.10002193141E+04 0.  0.
         25    2    3    3    0    0 -0.47726627227E+02 -0.25383385288E+02  0.40266596124E+03  0.42502448353E+03  0.12483504343E+03 0.  0.
         35    2    3    3    0    0  0.47726627227E+02  0.25383385288E+02  0.70075155138E+03  0.10642602050E+04  0.79917138330E+03 0.  0.
         22    1    5    5    0    0  0.32231516581E+03 -0.79608056087E+02  0.69500081652E+03  0.77022765704E+03  0.00000000000E+00 0. -1.
         22    1    5    5    0    0 -0.27458853859E+03  0.10499144138E+03  0.57507348690E+01  0.29403254792E+03  0.00000000000E+00 0. -1.
          5    1    4    4  502    0  0.37820397744E+02 -0.29117153176E+02  0.18387287957E+03  0.19002504292E+03  0.47000000000E+01 0. -1.
         -5    1    4    4    0  502 -0.85547024971E+02  0.37337678880E+01  0.21879308167E+03  0.23499944062E+03  0.47000000000E+01 0. -1.
<mgrwt>
<rscale>  0 0.10002193E+04</rscale>
<asrwt>0</asrwt>
<pdfrwt beam="1">  1        2 0.19943863E+00 0.10002193E+04</pdfrwt>
<pdfrwt beam="2">  1       -2 0.29682091E-01 0.10002193E+04</pdfrwt>
<totfact> 0.20879524E+02</totfact>
</mgrwt>
</event>
<event>
 9    1  0.4412976E-036  0.1000288E+04  0.7818608E-02  0.8680763E-01
          1   -1    0    0  501    0  0.00000000000E+00  0.00000000000E+00  0.37185899302E+03  0.37185899302E+03  0.00000000000E+00 0.  1.
         -1   -1    0    0    0  501 -0.00000000000E+00 -0.00000000000E+00 -0.67268553575E+03  0.67268553575E+03  0.00000000000E+00 0.  1.
         36    2    1    2    0    0  0.00000000000E+00 -0.28421709430E-13 -0.30082654274E+03  0.10445445288E+04  0.10002882903E+04 0.  0.
         25    2    3    3    0    0 -0.65109759825E+02  0.91919421435E+02  0.33389476835E+02  0.17049476880E+03  0.12355220825E+03 0.  0.
         35    2    3    3    0    0  0.65109759825E+02 -0.91919421435E+02 -0.33421601957E+03  0.87404975997E+03  0.79973381465E+03 0.  0.
         22    1    5    5    0    0  0.53407790793E+02 -0.41806232988E+03 -0.34923521383E+03  0.54735156743E+03  0.00000000000E+00 0.  1.
         22    1    5    5    0    0  0.11701969032E+02  0.32614290845E+03  0.15019194261E+02  0.32669819254E+03  0.00000000000E+00 0.  1.
          5    1    4    4  502    0 -0.62948605969E+02  0.35574622475E+01 -0.20983245617E+02  0.66615081834E+02  0.47000000000E+01 0.  1.
         -5    1    4    4    0  502 -0.21611538553E+01  0.88361959188E+02  0.54372722452E+02  0.10387968697E+03  0.47000000000E+01 0.  1.
<mgrwt>
<rscale>  0 0.10002883E+04</rscale>
<asrwt>0</asrwt>
<pdfrwt beam="1">  1        1 0.57209077E-01 0.10002883E+04</pdfrwt>
<pdfrwt beam="2">  1       -1 0.10349008E+00 0.10002883E+04</pdfrwt>
<totfact> 0.69855726E+01</totfact>
</mgrwt>
</event>
<event>
 9    1  0.4412976E-036  0.9998157E+03  0.7818608E-02  0.8681213E-01
          2   -1    0    0  501    0  0.00000000000E+00  0.00000000000E+00  0.88515329031E+03  0.88515329031E+03  0.00000000000E+00 0.  1.
         -2   -1    0    0    0  501 -0.00000000000E+00 -0.00000000000E+00 -0.28233288088E+03  0.28233288088E+03  0.00000000000E+00 0.  1.
         36    2    1    2    0    0  0.00000000000E+00  0.14210854715E-13  0.60282040943E+03  0.11674861712E+04  0.99981573997E+03 0.  0.
         25    2    3    3    0    0  0.77470167305E+02 -0.92537594262E+02  0.19654707095E+03  0.26234817770E+03  0.12502392600E+03 0.  0.
         35    2    3    3    0    0 -0.77470167305E+02  0.92537594262E+02  0.40627333849E+03  0.90513799349E+03  0.79978242574E+03 0.  0.
         22    1    5    5    0    0  0.34920518717E+03  0.55963407717E+02  0.69702859394E+02  0.36046449805E+03  0.00000000000E+00 0.  1.
         22    1    5    5    0    0 -0.42667535447E+03  0.36574186546E+02  0.33657047909E+03  0.54467349544E+03  0.00000000000E+00 0.  1.
          5    1    4    4  502    0  0.54127203221E+02 -0.65371135362E+02  0.20779864691E+03  0.22451170822E+03  0.47000000000E+01 0.  1.
         -5    1    4    4    0  502  0.23342964085E+02 -0.27166458900E+02 -0.11251575966E+02  0.37836469486E+02  0.47000000000E+01 0.  1.
<mgrwt>
<rscale>  0 0.99981574E+03</rscale>
<asrwt>0</asrwt>
<pdfrwt beam="1">  1        2 0.13617743E+00 0.99981574E+03</pdfrwt>
<pdfrwt beam="2">  1       -2 0.43435828E-01 0.99981574E+03</pdfrwt>
<totfact> 0.18249271E+02</totfact>
</mgrwt>
</event>
<event>
 9    1  0.4412976E-036  0.9990734E+03  0.7818608E-02  0.8681921E-01
          2   -1    0    0  501    0  0.00000000000E+00  0.00000000000E+00  0.19622744464E+04  0.19622744464E+04  0.00000000000E+00 0.  1.
         -2   -1    0    0    0  501 -0.00000000000E+00 -0.00000000000E+00 -0.12716718683E+03  0.12716718683E+03  0.00000000000E+00 0.  1.
         36    2    1    2    0    0  0.14210854715E-13 -0.42632564146E-13  0.18351072596E+04  0.20894416333E+04  0.99907341300E+03 0.  0.
         25    2    3    3    0    0 -0.48018107150E+02  0.23339855217E+02  0.75300113437E+02  0.15518783556E+03  0.12475042993E+03 0.  0.
         35    2    3    3    0    0  0.48018107150E+02 -0.23339855217E+02  0.17598071462E+04  0.19342537977E+04  0.80097819869E+03 0.  0.
         22    1    5    5    0    0 -0.76877937129E+02  0.37517442972E+03  0.77121522225E+03  0.86106851584E+03  0.00000000000E+00 0. -1.
         22    1    5    5    0    0  0.12489604428E+03 -0.39851428494E+03  0.98859192392E+03  0.10731852819E+04  0.00000000000E+00 0. -1.
          5    1    4    4  502    0  0.23292747802E+02  0.20101014249E+02 -0.19270768432E+02  0.36606766997E+02  0.47000000000E+01 0. -1.
         -5    1    4    4    0  502 -0.71310854952E+02  0.32388409682E+01  0.94570881868E+02  0.11858106857E+03  0.47000000000E+01 0. -1.
<mgrwt>
<rscale>  0 0.99907341E+03</rscale>
<asrwt>0</asrwt>
<pdfrwt beam="1">  1        2 0.30188835E+00 0.99907341E+03</pdfrwt>
<pdfrwt beam="2">  1       -2 0.19564184E-01 0.99907341E+03</pdfrwt>
<totfact> 0.18295950E+02</totfact>
</mgrwt>
</event>
<event>
 9    1  0.4412976E-036  0.9996314E+03  0.7818608E-02  0.8681389E-01
          2   -1    0    0  501    0  0.00000000000E+00  0.00000000000E+00  0.12104023084E+04  0.12104023084E+04  0.00000000000E+00 0.  1.
         -2   -1    0    0    0  501 -0.00000000000E+00 -0.00000000000E+00 -0.20639067517E+03  0.20639067517E+03  0.00000000000E+00 0.  1.
         36    2    1    2    0    0  0.00000000000E+00  0.28421709430E-13  0.10040116333E+04  0.14167929836E+04  0.99963143140E+03 0.  0.
         25    2    3    3    0    0  0.26872711532E+02 -0.12686360145E+03  0.31865565016E+03  0.36666215880E+03  0.12681955418E+03 0.  0.
         35    2    3    3    0    0 -0.26872711532E+02  0.12686360145E+03  0.68535598311E+03  0.10501308248E+04  0.78501299964E+03 0.  0.
         22    1    5    5    0    0  0.25932465228E+03 -0.21243297158E+03  0.19133828839E+03  0.38598883831E+03  0.00000000000E+00 0.  1.
         22    1    5    5    0    0 -0.28619736381E+03  0.33929657303E+03  0.49401769471E+03  0.66414198649E+03  0.00000000000E+00 0.  1.
          5    1    4    4  502    0 -0.83734045561E+01 -0.16051904350E+02 -0.76620608935E+01  0.20213231168E+02  0.47000000000E+01 0.  1.
         -5    1    4    4    0  502  0.35246116088E+02 -0.11081169710E+03  0.32631771105E+03  0.34644892764E+03  0.47000000000E+01 0.  1.
<mgrwt>
<rscale>  0 0.99963143E+03</rscale>
<asrwt>0</asrwt>
<pdfrwt beam="1">  1        2 0.18621574E+00 0.99963143E+03</pdfrwt>
<pdfrwt beam="2">  1       -2 0.31752412E-01 0.99963143E+03</pdfrwt>
<totfact> 0.20721685E+02</totfact>
</mgrwt>
</event>
<event>
 9    1  0.4412976E-036  0.9997508E+03  0.7818608E-02  0.8681275E-01
          2   -1    0    0  501    0  0.00000000000E+00  0.00000000000E+00  0.45463098877E+04  0.45463098877E+04  0.00000000000E+00 0. -1.
         -2   -1    0    0    0  501 -0.00000000000E+00 -0.00000000000E+00 -0.54962252777E+02  0.54962252777E+02  0.00000000000E+00 0. -1.
         36    2    1    2    0    0  0.00000000000E+00  0.28421709430E-13  0.44913476349E+04  0.46012721405E+04  0.99975083546E+03 0.  0.
         25    2    3    3    0    0  0.86117651165E+02 -0.10782456606E+03  0.90918914620E+03  0.92818119360E+03  0.12590884676E+03 0.  0.
         35    2    3    3    0    0 -0.86117651165E+02  0.10782456606E+03  0.35821584887E+04  0.36730909469E+04  0.80043443131E+03 0.  0.
         22    1    5    5    0    0 -0.60588588687E+02 -0.28142171369E+03  0.59951067480E+03  0.66504301155E+03  0.00000000000E+00 0.  1.
         22    1    5    5    0    0 -0.25529062478E+02  0.38924627975E+03  0.29826478139E+04  0.30080479353E+04  0.00000000000E+00 0.  1.
          5    1    4    4  502    0  0.58937371055E+02  0.10666303983E+02  0.41013844617E+03  0.41451540234E+03  0.47000000000E+01 0.  1.
         -5    1    4    4    0  502  0.27180280110E+02 -0.11849087005E+03  0.49905070003E+03  0.51366579126E+03  0.47000000000E+01 0.  1.
<mgrwt>
<rscale>  0 0.99975084E+03</rscale>
<asrwt>0</asrwt>
<pdfrwt beam="1">  1        2 0.69943199E+00 0.99975084E+03</pdfrwt>
<pdfrwt beam="2">  1       -2 0.84557348E-02 0.99975084E+03</pdfrwt>
<totfact> 0.89151633E+00</totfact>
</mgrwt>
</event>
<event>
 9    1  0.4412976E-036  0.1000467E+04  0.7818608E-02  0.8680593E-01
         -1   -1    0    0    0  501 -0.00000000000E+00  0.00000000000E+00  0.43040836223E+03  0.43040836223E+03  0.00000000000E+00 0.  1.
          1   -1    0    0  501    0  0.00000000000E+00 -0.00000000000E+00 -0.58138659571E+03  0.58138659571E+03  0.00000000000E+00 0.  1.
         36    2    1    2    0    0  0.35527136788E-13  0.00000000000E+00 -0.15097823348E+03  0.10117949579E+04  0.10004671958E+04 0.  0.
         25    2    3    3    0    0  0.29657876611E+02 -0.13879014252E+03 -0.63786841437E+01  0.18955509490E+03  0.12549164548E+03 0.  0.
         35    2    3    3    0    0 -0.29657876611E+02  0.13879014252E+03 -0.14459954934E+03  0.82223986304E+03  0.79688585720E+03 0.  0.
         22    1    5    5    0    0 -0.37401702285E+03 -0.96589421026E+02 -0.11957934299E+03  0.40437293296E+03  0.00000000000E+00 0. -1.
         22    1    5    5    0    0  0.34435914624E+03  0.23537956354E+03 -0.25020206345E+02  0.41786693009E+03  0.00000000000E+00 0. -1.
          5    1    4    4  502    0  0.63948299315E+02 -0.13597196242E+03  0.10979329995E+02  0.15073286051E+03  0.47000000000E+01 0.  1.
         -5    1    4    4    0  502 -0.34290422704E+02 -0.28181800951E+01 -0.17358014138E+02  0.38822234390E+02  0.47000000000E+01 0.  1.
<mgrwt>
<rscale>  0 0.10004672E+04</rscale>
<asrwt>0</asrwt>
<pdfrwt beam="1">  1        1 0.89444091E-01 0.10004672E+04</pdfrwt>
<pdfrwt beam="2">  1       -1 0.66216671E-01 0.10004672E+04</pdfrwt>
<totfact> 0.96660638E+01</totfact>
</mgrwt>
</event>
<event>
 9    1  0.4412976E-036  0.9998964E+03  0.7818608E-02  0.8681137E-01
          1   -1    0    0  501    0  0.00000000000E+00  0.00000000000E+00  0.36930273587E+04  0.36930273587E+04  0.00000000000E+00 0. -1.
         -1   -1    0    0    0  501 -0.00000000000E+00 -0.00000000000E+00 -0.67681109928E+02  0.67681109928E+02  0.00000000000E+00 0. -1.
         36    2    1    2    0    0  0.42632564146E-13  0.00000000000E+00  0.36253462487E+04  0.37607084686E+04  0.99989637589E+03 0.  0.
         25    2    3    3    0    0  0.11715967968E+03 -0.69835994121E+02  0.77913518315E+03  0.80073681251E+03  0.12459676024E+03 0.  0.
         35    2    3    3    0    0 -0.11715967968E+03  0.69835994121E+02  0.28462110656E+04  0.29599716561E+04  0.80119368343E+03 0.  0.
         22    1    5    5    0    0  0.34129377243E+03  0.58960664212E+02  0.10260147839E+04  0.10828961796E+04  0.00000000000E+00 0. -1.
         22    1    5    5    0    0 -0.45845345211E+03  0.10875329909E+02  0.18201962816E+04  0.18770754764E+04  0.00000000000E+00 0. -1.
          5    1    4    4  502    0  0.29737436118E+02 -0.68206746581E+02  0.17401450613E+03  0.18931353288E+03  0.47000000000E+01 0. -1.
         -5    1    4    4    0  502  0.87422243560E+02 -0.16292475404E+01  0.60512067702E+03  0.61142327963E+03  0.47000000000E+01 0. -1.
<mgrwt>
<rscale>  0 0.99989638E+03</rscale>
<asrwt>0</asrwt>
<pdfrwt beam="1">  1        1 0.56815790E+00 0.99989638E+03</pdfrwt>
<pdfrwt beam="2">  1       -1 0.10412481E-01 0.99989638E+03</pdfrwt>
<totfact> 0.11101441E+01</totfact>
</mgrwt>
</event>
<event>
 9    1  0.4412976E-036  0.9998553E+03  0.7818608E-02  0.8681176E-01
         -1   -1    0    0    0  501 -0.00000000000E+00  0.00000000000E+00  0.27608267499E+03  0.27608267499E+03  0.00000000000E+00 0.  1.
          1   -1    0    0  501    0  0.00000000000E+00 -0.00000000000E+00 -0.90526381436E+03  0.90526381436E+03  0.00000000000E+00 0.  1.
         36    2    1    2    0    0  0.28421709430E-13  0.71054273576E-14 -0.62918113936E+03  0.11813464893E+04  0.99985530041E+03 0.  0.
         25    2    3    3    0    0  0.10840025044E+03 -0.43106445441E+02 -0.40877350899E+02  0.18049791962E+03  0.13152855674E+03 0.  0.
         35    2    3    3    0    0 -0.10840025044E+03  0.43106445441E+02 -0.58830378846E+03  0.10008485697E+04  0.80124136942E+03 0.  0.
         22    1    5    5    0    0 -0.48272404160E+02 -0.71801105782E+02  0.19160348708E+03  0.21023206239E+03  0.00000000000E+00 0.  1.
         22    1    5    5    0    0 -0.60127846282E+02  0.11490755122E+03 -0.77990727554E+03  0.79061650734E+03  0.00000000000E+00 0.  1.
          5    1    4    4  502    0  0.10478446400E+03  0.18750501073E+02 -0.80218467491E+00  0.10655561312E+03  0.47000000000E+01 0. -1.
         -5    1    4    4    0  502  0.36157864402E+01 -0.61856946515E+02 -0.40075166224E+02  0.73942306507E+02  0.47000000000E+01 0. -1.
<mgrwt>
<rscale>  0 0.99985530E+03</rscale>
<asrwt>0</asrwt>
<pdfrwt beam="1">  1        1 0.13927136E+00 0.99985530E+03</pdfrwt>
<pdfrwt beam="2">  1       -1 0.42474257E-01 0.99985530E+03</pdfrwt>
<totfact> 0.11083062E+02</totfact>
</mgrwt>
</event>
<event>
 9    1  0.4412976E-036  0.1001199E+04  0.7818608E-02  0.8679897E-01
          2   -1    0    0  501    0  0.00000000000E+00  0.00000000000E+00  0.12894616807E+04  0.12894616807E+04  0.00000000000E+00 0. -1.
         -2   -1    0    0    0  501 -0.00000000000E+00 -0.00000000000E+00 -0.19434472368E+03  0.19434472368E+03  0.00000000000E+00 0. -1.
         36    2    1    2    0    0 -0.28421709430E-13 -0.24868995752E-13  0.10951169570E+04  0.14838064043E+04  0.10011994287E+04 0.  0.
         25    2    3    3    0    0 -0.96165114234E+02 -0.36964304814E+01  0.51529772257E+02  0.16533574043E+03  0.12417405865E+03 0.  0.
         35    2    3    3    0    0  0.96165114234E+02  0.36964304814E+01  0.10435871847E+04  0.13184706639E+04  0.80001830397E+03 0.  0.
         22    1    5    5    0    0 -0.13537819466E+03  0.34671182049E+03  0.64028475898E+03  0.74060847594E+03  0.00000000000E+00 0. -1.
         22    1    5    5    0    0  0.23154330889E+03 -0.34301539001E+03  0.40330242574E+03  0.57786218797E+03  0.00000000000E+00 0. -1.
          5    1    4    4  502    0 -0.98733079534E+02 -0.26725033439E+02  0.78827892229E+02  0.12922219237E+03  0.47000000000E+01 0. -1.
         -5    1    4    4    0  502  0.25679652998E+01  0.23028602958E+02 -0.27298119972E+02  0.36113548067E+02  0.47000000000E+01 0. -1.
<mgrwt>
<rscale>  0 0.10011994E+04</rscale>
<asrwt>0</asrwt>
<pdfrwt beam="1">  1        2 0.19837871E+00 0.10011994E+04</pdfrwt>
<pdfrwt beam="2">  1       -2 0.29899189E-01 0.10011994E+04</pdfrwt>
<totfact> 0.20794999E+02</totfact>
</mgrwt>
</event>
<event>
 9    1  0.4412976E-036  0.1000102E+04  0.7818608E-02  0.8680941E-01
          1   -1    0    0  501    0  0.00000000000E+00  0.00000000000E+00  0.36184161326E+03  0.36184161326E+03  0.00000000000E+00 0.  1.
         -1   -1    0    0    0  501 -0.00000000000E+00 -0.00000000000E+00 -0.69105072023E+03  0.69105072023E+03  0.00000000000E+00 0.  1.
         36    2    1    2    0    0  0.00000000000E+00  0.14210854715E-13 -0.32920910697E+03  0.10528923335E+04  0.10001018097E+04 0.  0.
         25    2    3    3    0    0  0.13119348437E+03 -0.23048915994E+02 -0.73092992060E+02  0.19705927354E+03  0.12548621013E+03 0.  0.
         35    2    3    3    0    0 -0.13119348437E+03  0.23048915994E+02 -0.25611611491E+03  0.85583305994E+03  0.80567473543E+03 0.  0.
         22    1    5    5    0    0 -0.39829905567E+03 -0.12879445585E+03 -0.33781040177E+03  0.53790893016E+03  0.00000000000E+00 0.  1.
         22    1    5    5    0    0  0.26710557130E+03  0.15184337185E+03  0.81694286864E+02  0.31792412978E+03  0.00000000000E+00 0.  1.
          5    1    4    4  502    0  0.52215756763E+02 -0.27306394616E+02 -0.97616254285E+02  0.11411900605E+03  0.47000000000E+01 0.  1.
         -5    1    4    4    0  502  0.78977727606E+02  0.42574786216E+01  0.24523262225E+02  0.82940267495E+02  0.47000000000E+01 0.  1.
<mgrwt>
<rscale>  0 0.10001018E+04</rscale>
<asrwt>0</asrwt>
<pdfrwt beam="1">  1        1 0.55667941E-01 0.10001018E+04</pdfrwt>
<pdfrwt beam="2">  1       -1 0.10631549E+00 0.10001018E+04</pdfrwt>
<totfact> 0.68096888E+01</totfact>
</mgrwt>
</event>
<event>
 9    1  0.4412976E-036  0.9999426E+03  0.7818608E-02  0.8681093E-01
          2   -1    0    0  501    0  0.00000000000E+00  0.00000000000E+00  0.87097720342E+03  0.87097720342E+03  0.00000000000E+00 0.  1.
         -2   -1    0    0    0  501 -0.00000000000E+00 -0.00000000000E+00 -0.28700096167E+03  0.28700096167E+03  0.00000000000E+00 0.  1.
         36    2    1    2    0    0  0.28421709430E-13 -0.14210854715E-13  0.58397624175E+03  0.11579781651E+04  0.99994258831E+03 0.  0.
         25    2    3    3    0    0 -0.87682021359E+02 -0.87509368742E+02  0.17919257592E+03  0.25275463462E+03  0.12817526894E+03 0.  0.
         35    2    3    3    0    0  0.87682021359E+02  0.87509368742E+02  0.40478366583E+03  0.90522353048E+03  0.80014611011E+03 0.  0.
         22    1    5    5    0    0 -0.30747848382E+03  0.14179028942E+03  0.37499535635E+03  0.50524154765E+03  0.00000000000E+00 0. -1.
         22    1    5    5    0    0  0.39516050518E+03 -0.54280920678E+02  0.29788309472E+02  0.39998198283E+03  0.00000000000E+00 0. -1.
          5    1    4    4  502    0 -0.66340408821E+02 -0.10803080625E+03  0.18285594855E+03  0.22255357301E+03  0.47000000000E+01 0. -1.
         -5    1    4    4    0  502 -0.21341612538E+02  0.20521437507E+02 -0.36633726240E+01  0.30201061605E+02  0.47000000000E+01 0. -1.
<mgrwt>
<rscale>  0 0.99994259E+03</rscale>
<asrwt>0</asrwt>
<pdfrwt beam="1">  1        2 0.13399649E+00 0.99994259E+03</pdfrwt>
<pdfrwt beam="2">  1       -2 0.44153995E-01 0.99994259E+03</pdfrwt>
<totfact> 0.18064504E+02</totfact>
</mgrwt>
</event>
<event>
 9    1  0.4412976E-036  0.9993376E+03  0.7818608E-02  0.8681669E-01
          2   -1    0    0  501    0  0.00000000000E+00  0.00000000000E+00  0.21741559156E+04  0.21741559156E+04  0.00000000000E+00 0.  1.
         -2   -1    0    0    0  501 -0.00000000000E+00 -0.00000000000E+00 -0.11483487315E+03  0.11483487315E+03  0.00000000000E+00 0.  1.
         36    2    1    2    0    0 -0.35527136788E-14 -0.28421709430E-13  0.20593210424E+04  0.22889907887E+04  0.99933761817E+03 0.  0.
         25    2    3    3    0    0 -0.25421846097E+02 -0.13631138624E+03  0.37850005204E+03  0.42258832726E+03  0.12685243658E+03 0.  0.
         35    2    3    3    0    0  0.25421846097E+02  0.13631138624E+03  0.16808209904E+04  0.18664024614E+04  0.79941971588E+03 0.  0.
         22    1    5    5    0    0  0.56098760624E+02  0.18499554846E+03  0.89289078549E+01  0.19352041052E+03  0.00000000000E+00 0.  1.
         22    1    5    5    0    0 -0.30676914527E+02 -0.48684162212E+02  0.16718920825E+04  0.16728820509E+04  0.00000000000E+00 0.  1.
          5    1    4    4  502    0 -0.50061274860E+02 -0.15070520165E+03  0.32591477056E+03  0.36257511872E+03  0.47000000000E+01 0. -1.
         -5    1    4    4    0  502  0.24639428763E+02  0.14393815404E+02  0.52585281475E+02  0.60013208541E+02  0.47000000000E+01 0. -1.
<mgrwt>
<rscale>  0 0.99933762E+03</rscale>
<asrwt>0</asrwt>
<pdfrwt beam="1">  1        2 0.33448549E+00 0.99933762E+03</pdfrwt>
<pdfrwt beam="2">  1       -2 0.17666905E-01 0.99933762E+03</pdfrwt>
<totfact> 0.16477828E+02</totfact>
</mgrwt>
</event>
<event>
 9    1  0.4412976E-036  0.1000454E+04  0.7818608E-02  0.8680605E-01
          3   -1    0    0  501    0  0.00000000000E+00  0.00000000000E+00  0.63634754128E+03  0.63634754128E+03  0.00000000000E+00 0.  1.
         -3   -1    0    0    0  501 -0.00000000000E+00 -0.00000000000E+00 -0.39322414360E+03  0.39322414360E+03  0.00000000000E+00 0.  1.
         36    2    1    2    0    0  0.28421709430E-13 -0.42632564146E-13  0.24312339768E+03  0.10295716849E+04  0.10004543307E+04 0.  0.
         25    2    3    3    0    0 -0.12267954505E+03  0.62490328310E+02  0.74715677504E+02  0.20028142400E+03  0.12479945685E+03 0.  0.
         35    2    3    3    0    0  0.12267954505E+03 -0.62490328310E+02  0.16840772017E+03  0.82929026088E+03  0.80025362522E+03 0.  0.
         22    1    5    5    0    0 -0.24671623678E+03 -0.27336421674E+03  0.16603308487E+03  0.40393549207E+03  0.00000000000E+00 0.  1.
         22    1    5    5    0    0  0.36939578183E+03  0.21087388843E+03  0.23746353016E+01  0.42535476881E+03  0.00000000000E+00 0.  1.
          5    1    4    4  502    0 -0.70175892632E+02  0.99126683314E+02  0.51760840832E+02  0.13210613118E+03  0.47000000000E+01 0.  1.
         -5    1    4    4    0  502 -0.52503652417E+02 -0.36636355004E+02  0.22954836673E+02  0.68175292825E+02  0.47000000000E+01 0.  1.
<mgrwt>
<rscale>  0 0.10004543E+04</rscale>
<asrwt>0</asrwt>
<pdfrwt beam="1">  1        3 0.97899622E-01 0.10004543E+04</pdfrwt>
<pdfrwt beam="2">  1       -3 0.60496022E-01 0.10004543E+04</pdfrwt>
<totfact> 0.10113976E+01</totfact>
</mgrwt>
</event>
<event>
 9    1  0.4412976E-036  0.1002737E+04  0.7818608E-02  0.8678436E-01
          2   -1    0    0  501    0  0.00000000000E+00  0.00000000000E+00  0.84106434002E+03  0.84106434002E+03  0.00000000000E+00 0.  1.
         -2   -1    0    0    0  501 -0.00000000000E+00 -0.00000000000E+00 -0.29887190922E+03  0.29887190922E+03  0.00000000000E+00 0.  1.
         36    2    1    2    0    0  0.35527136788E-14 -0.28421709430E-13  0.54219243080E+03  0.11399362492E+04  0.10027372638E+04 0.  0.
         25    2    3    3    0    0 -0.21802391138E+02  0.70942543360E+02  0.23825874800E+03  0.27911234465E+03  0.12501312419E+03 0.  0.
         35    2    3    3    0    0  0.21802391138E+02 -0.70942543360E+02  0.30393368280E+03  0.86082390459E+03  0.80195630957E+03 0.  0.
         22    1    5    5    0    0 -0.14569987380E+03  0.19631245099E+03 -0.16553362322E+03  0.29524297122E+03  0.00000000000E+00 0. -1.
         22    1    5    5    0    0  0.16750226494E+03 -0.26725499435E+03  0.46946730602E+03  0.56558093337E+03  0.00000000000E+00 0. -1.
          5    1    4    4  502    0 -0.60010404904E+01 -0.30774606530E+02  0.19296346948E+02  0.37115062974E+02  0.47000000000E+01 0. -1.
         -5    1    4    4    0  502 -0.15801350648E+02  0.10171714989E+03  0.21896240105E+03  0.24199728168E+03  0.47000000000E+01 0. -1.
<mgrwt>
<rscale>  0 0.10027373E+04</rscale>
<asrwt>0</asrwt>
<pdfrwt beam="1">  1        2 0.12939451E+00 0.10027373E+04</pdfrwt>
<pdfrwt beam="2">  1       -2 0.45980294E-01 0.10027373E+04</pdfrwt>
<totfact> 0.17479800E+02</totfact>
</mgrwt>
</event>
<event>
 9    1  0.4412976E-036  0.1000241E+04  0.7818608E-02  0.8680808E-01
         -1   -1    0    0    0  501 -0.00000000000E+00  0.00000000000E+00  0.32350212629E+03  0.32350212629E+03  0.00000000000E+00 0. -1.
          1   -1    0    0  501    0  0.00000000000E+00 -0.00000000000E+00 -0.77316551161E+03  0.77316551161E+03  0.00000000000E+00 0. -1.
         36    2    1    2    0    0 -0.35527136788E-13  0.00000000000E+00 -0.44966338532E+03  0.10966676379E+04  0.10002413448E+04 0.  0.
         25    2    3    3    0    0 -0.13646209295E+02  0.11875669476E+03 -0.16551622633E+03  0.23911256592E+03  0.12445813121E+03 0.  0.
         35    2    3    3    0    0  0.13646209295E+02 -0.11875669476E+03 -0.28414715899E+03  0.85755507198E+03  0.80023229249E+03 0.  0.
         22    1    5    5    0    0  0.27027164244E+03 -0.36921157564E+02  0.17581167589E+03  0.32452993385E+03  0.00000000000E+00 0.  1.
         22    1    5    5    0    0 -0.25662543315E+03 -0.81835537195E+02 -0.45995883489E+03  0.53302513813E+03  0.00000000000E+00 0.  1.
          5    1    4    4  502    0 -0.63672623754E+02  0.79940396265E+02 -0.13294163210E+03  0.16775052166E+03  0.47000000000E+01 0.  1.
         -5    1    4    4    0  502  0.50026414459E+02  0.38816298494E+02 -0.32574594233E+02  0.71362044266E+02  0.47000000000E+01 0.  1.
<mgrwt>
<rscale>  0 0.10002413E+04</rscale>
<asrwt>0</asrwt>
<pdfrwt beam="1">  1        1 0.11894854E+00 0.10002413E+04</pdfrwt>
<pdfrwt beam="2">  1       -1 0.49769558E-01 0.10002413E+04</pdfrwt>
<totfact> 0.10794667E+02</totfact>
</mgrwt>
</event>
<event>
 9    1  0.4412976E-036  0.9996412E+03  0.7818608E-02  0.8681380E-01
         -1   -1    0    0    0  501 -0.00000000000E+00  0.00000000000E+00  0.19588433848E+03  0.19588433848E+03  0.00000000000E+00 0.  1.
          1   -1    0    0  501    0  0.00000000000E+00 -0.00000000000E+00 -0.12753476252E+04  0.12753476252E+04  0.00000000000E+00 0.  1.
         36    2    1    2    0    0  0.00000000000E+00  0.71054273576E-14 -0.10794632867E+04  0.14712319637E+04  0.99964118742E+03 0.  0.
         25    2    3    3    0    0 -0.35538599686E+02  0.33117912633E+00 -0.39943796611E+03  0.42033458260E+03  0.12596575253E+03 0.  0.
         35    2    3    3    0    0  0.35538599686E+02 -0.33117912633E+00 -0.68002532064E+03  0.10508973811E+04  0.80042973905E+03 0.  0.
         22    1    5    5    0    0  0.32578074530E+03 -0.24882336741E+03 -0.27234842706E+03  0.49215833621E+03  0.00000000000E+00 0. -1.
         22    1    5    5    0    0 -0.29024214561E+03  0.24849218829E+03 -0.40767689358E+03  0.55873904489E+03  0.00000000000E+00 0. -1.
          5    1    4    4  502    0 -0.60607409623E+02 -0.37956550034E+02 -0.32515567200E+03  0.33295984566E+03  0.47000000000E+01 0. -1.
         -5    1    4    4    0  502  0.25068809936E+02  0.38287729160E+02 -0.74282294113E+02  0.87374736936E+02  0.47000000000E+01 0. -1.
<mgrwt>
<rscale>  0 0.99964119E+03</rscale>
<asrwt>0</asrwt>
<pdfrwt beam="1">  1        1 0.19620733E+00 0.99964119E+03</pdfrwt>
<pdfrwt beam="2">  1       -1 0.30136052E-01 0.99964119E+03</pdfrwt>
<totfact> 0.10457122E+02</totfact>
</mgrwt>
</event>
<event>
 9    1  0.4412976E-036  0.9985817E+03  0.7818608E-02  0.8682390E-01
          1   -1    0    0  501    0  0.00000000000E+00  0.00000000000E+00  0.55916630167E+03  0.55916630167E+03  0.00000000000E+00 0. -1.
         -1   -1    0    0    0  501 -0.00000000000E+00 -0.00000000000E+00 -0.44582688766E+03  0.44582688766E+03  0.00000000000E+00 0. -1.
         36    2    1    2    0    0 -0.14210854715E-13  0.00000000000E+00  0.11333941400E+03  0.10049931893E+04  0.99858173818E+03 0.  0.
         25    2    3    3    0    0  0.10459260182E+03 -0.65174592485E+02 -0.40638425652E+02  0.18030069149E+03  0.12517794475E+03 0.  0.
         35    2    3    3    0    0 -0.10459260182E+03  0.65174592485E+02  0.15397783966E+03  0.82469249784E+03  0.80076288689E+03 0.  0.
         22    1    5    5    0    0 -0.48528728357E+02  0.26488725855E+03 -0.25198483233E+03  0.36880435592E+03  0.00000000000E+00 0. -1.
         22    1    5    5    0    0 -0.56063873461E+02 -0.19971266606E+03  0.40596267199E+03  0.45588814192E+03  0.00000000000E+00 0. -1.
          5    1    4    4  502    0  0.98692312647E+02 -0.99571736126E+02 -0.29257509243E+02  0.14329269018E+03  0.47000000000E+01 0. -1.
         -5    1    4    4    0  502  0.59002891708E+01  0.34397143641E+02 -0.11380916409E+02  0.37008001314E+02  0.47000000000E+01 0. -1.
<mgrwt>
<rscale>  0 0.99858174E+03</rscale>
<asrwt>0</asrwt>
<pdfrwt beam="1">  1        1 0.86025585E-01 0.99858174E+03</pdfrwt>
<pdfrwt beam="2">  1       -1 0.68588752E-01 0.99858174E+03</pdfrwt>
<totfact> 0.95413159E+01</totfact>
</mgrwt>
</event>
<event>
 9    1  0.4412976E-036  0.1003324E+04  0.7818608E-02  0.8677879E-01
         -2   -1    0    0    0  501 -0.00000000000E+00  0.00000000000E+00  0.27418013448E+03  0.27418013448E+03  0.00000000000E+00 0. -1.
          2   -1    0    0  501    0  0.00000000000E+00 -0.00000000000E+00 -0.91788160705E+03  0.91788160705E+03  0.00000000000E+00 0. -1.
         36    2    1    2    0    0  0.71054273576E-14 -0.28421709430E-13 -0.64370147256E+03  0.11920617415E+04  0.10033242795E+04 0.  0.
         25    2    3    3    0    0  0.24769898578E+02 -0.87966909304E+02  0.10363032379E+02  0.15433747655E+03  0.12393925617E+03 0.  0.
         35    2    3    3    0    0 -0.24769898578E+02  0.87966909304E+02 -0.65406450494E+03  0.10377242650E+04  0.80044959147E+03 0.  0.
         22    1    5    5    0    0 -0.10422256019E+03  0.28696176505E+03  0.43141837884E+02  0.30833523125E+03  0.00000000000E+00 0. -1.
         22    1    5    5    0    0  0.79452661615E+02 -0.19899485574E+03 -0.69720634283E+03  0.72938903373E+03  0.00000000000E+00 0. -1.
          5    1    4    4  502    0  0.25918637319E+02 -0.28091831609E+02  0.63416330222E+02  0.74193313057E+02  0.47000000000E+01 0. -1.
         -5    1    4    4    0  502 -0.11487387408E+01 -0.59875077695E+02 -0.53053297843E+02  0.80144163491E+02  0.47000000000E+01 0. -1.
<mgrwt>
<rscale>  0 0.10033243E+04</rscale>
<asrwt>0</asrwt>
<pdfrwt beam="1">  1        2 0.14121255E+00 0.10033243E+04</pdfrwt>
<pdfrwt beam="2">  1       -2 0.42181560E-01 0.10033243E+04</pdfrwt>
<totfact> 0.18380521E+02</totfact>
</mgrwt>
</event>
<event>
 9    1  0.4412976E-036  0.9997294E+03  0.7818608E-02  0.8681296E-01
         -2   -1    0    0    0  501 -0.00000000000E+00  0.00000000000E+00  0.14633202179E+03  0.14633202179E+03  0.00000000000E+00 0. -1.
          2   -1    0    0  501    0  0.00000000000E+00 -0.00000000000E+00 -0.17075189356E+04  0.17075189356E+04  0.00000000000E+00 0. -1.
         36    2    1    2    0    0  0.28421709430E-13  0.31974423109E-13 -0.15611869138E+04  0.18538509574E+04  0.99972935955E+03 0.  0.
         25    2    3    3    0    0 -0.12161154296E+03  0.19448934724E+02 -0.41241270038E+03  0.44875866751E+03  0.12701369134E+03 0.  0.
         35    2    3    3    0    0  0.12161154296E+03 -0.19448934724E+02 -0.11487742134E+04  0.14050922899E+04  0.79964649764E+03 0.  0.
         22    1    5    5    0    0 -0.11179120677E+03  0.32030769736E+03 -0.78559936861E+03  0.85572230476E+03  0.00000000000E+00 0. -1.
         22    1    5    5    0    0  0.23340274973E+03 -0.33975663209E+03 -0.36317484480E+03  0.54936998510E+03  0.00000000000E+00 0. -1.
          5    1    4    4  502    0 -0.99292403258E+00 -0.18080745901E+02 -0.14162007683E+01  0.18761526992E+02  0.47000000000E+01 0.  1.
         -5    1    4    4    0  502 -0.12061861893E+03  0.37529680625E+02 -0.41099649961E+03  0.42999714052E+03  0.47000000000E+01 0.  1.
<mgrwt>
<rscale>  0 0.99972936E+03</rscale>
<asrwt>0</asrwt>
<pdfrwt beam="1">  1        2 0.26269523E+00 0.99972936E+03</pdfrwt>
<pdfrwt beam="2">  1       -2 0.22512618E-01 0.99972936E+03</pdfrwt>
<totfact> 0.19966316E+02</totfact>
</mgrwt>
</event>
<event>
 9    1  0.4412976E-036  0.9998154E+03  0.7818608E-02  0.8681214E-01
          1   -1    0    0  501    0  0.00000000000E+00  0.00000000000E+00  0.17873650651E+04  0.17873650651E+04  0.00000000000E+00 0.  1.
         -1   -1    0    0    0  501 -0.00000000000E+00 -0.00000000000E+00 -0.13981907236E+03  0.13981907236E+03  0.00000000000E+00 0.  1.
         36    2    1    2    0    0  0.71054273576E-14 -0.14210854715E-13  0.16475459927E+04  0.19271841374E+04  0.99981543371E+03 0.  0.
         25    2    3    3    0    0 -0.37850636757E+02  0.10265719614E+02  0.57627133318E+03  0.59097236505E+03  0.12498652370E+03 0.  0.
         35    2    3    3    0    0  0.37850636757E+02 -0.10265719614E+02  0.10712746595E+04  0.13362117724E+04  0.79768066844E+03 0.  0.
         22    1    5    5    0    0  0.21359897211E+03 -0.22747570180E+03  0.10004294762E+04  0.10479641467E+04  0.00000000000E+00 0. -1.
         22    1    5    5    0    0 -0.17574833535E+03  0.21720998219E+03  0.70845183311E+02  0.28824762573E+03  0.00000000000E+00 0. -1.
          5    1    4    4  502    0 -0.70793449422E+00  0.49978738725E+02  0.10320649223E+03  0.11476953226E+03  0.47000000000E+01 0. -1.
         -5    1    4    4    0  502 -0.37142702263E+02 -0.39713019112E+02  0.47306484095E+03  0.47620283280E+03  0.47000000000E+01 0. -1.
<mgrwt>
<rscale>  0 0.99981543E+03</rscale>
<asrwt>0</asrwt>
<pdfrwt beam="1">  1        1 0.27497922E+00 0.99981543E+03</pdfrwt>
<pdfrwt beam="2">  1       -1 0.21510628E-01 0.99981543E+03</pdfrwt>
<totfact> 0.79588798E+01</totfact>
</mgrwt>
</event>
<event>
 9    1  0.4412976E-036  0.9997693E+03  0.7818608E-02  0.8681258E-01
         -2   -1    0    0    0  501 -0.00000000000E+00  0.00000000000E+00  0.95153933205E+02  0.95153933205E+02  0.00000000000E+00 0. -1.
          2   -1    0    0  501    0  0.00000000000E+00 -0.00000000000E+00 -0.26261094209E+04  0.26261094209E+04  0.00000000000E+00 0. -1.
         36    2    1    2    0    0 -0.28421709430E-13  0.00000000000E+00 -0.25309554877E+04  0.27212633541E+04  0.99976925423E+03 0.  0.
         25    2    3    3    0    0  0.11674709243E+03 -0.58059991921E+02 -0.33574294714E+03  0.38121761730E+03  0.12491076387E+03 0.  0.
         35    2    3    3    0    0 -0.11674709243E+03  0.58059991921E+02 -0.21952125406E+04  0.23400457368E+04  0.79990943607E+03 0.  0.
         22    1    5    5    0    0  0.30080425724E+03 -0.24591625662E+01 -0.42781792841E+03  0.52298893728E+03  0.00000000000E+00 0.  1.
         22    1    5    5    0    0 -0.41755134966E+03  0.60519154487E+02 -0.17673946122E+04  0.18170567995E+04  0.00000000000E+00 0.  1.
          5    1    4    4  502    0  0.43999975007E+02 -0.14986715331E+02 -0.27001660323E+03  0.27402856686E+03  0.47000000000E+01 0. -1.
         -5    1    4    4    0  502  0.72747117420E+02 -0.43073276590E+02 -0.65726343917E+02  0.10718905044E+03  0.47000000000E+01 0. -1.
<mgrwt>
<rscale>  0 0.99976925E+03</rscale>
<asrwt>0</asrwt>
<pdfrwt beam="1">  1        2 0.40401681E+00 0.99976925E+03</pdfrwt>
<pdfrwt beam="2">  1       -2 0.14639067E-01 0.99976925E+03</pdfrwt>
<totfact> 0.12132685E+02</totfact>
</mgrwt>
</event>
<event>
 9    1  0.4412976E-036  0.1000598E+04  0.7818608E-02  0.8680469E-01
          1   -1    0    0  501    0  0.00000000000E+00  0.00000000000E+00  0.52196624249E+03  0.52196624249E+03  0.00000000000E+00 0.  1.
         -1   -1    0    0    0  501 -0.00000000000E+00 -0.00000000000E+00 -0.47953134071E+03  0.47953134071E+03  0.00000000000E+00 0.  1.
         36    2    1    2    0    0  0.28421709430E-13  0.00000000000E+00  0.42434901788E+02  0.10014975832E+04  0.10005981652E+04 0.  0.
         25    2    3    3    0    0  0.62853869399E+02  0.88516049144E+02  0.92555369418E+02  0.18968601909E+03  0.12501435747E+03 0.  0.
         35    2    3    3    0    0 -0.62853869399E+02 -0.88516049144E+02 -0.50120467631E+02  0.81181156412E+03  0.80295719344E+03 0.  0.
         22    1    5    5    0    0  0.32409921203E+03 -0.18392353115E+03  0.10016329375E+03  0.38587672898E+03  0.00000000000E+00 0. -1.
         22    1    5    5    0    0 -0.38695308143E+03  0.95407482005E+02 -0.15028376138E+03  0.42593483514E+03  0.00000000000E+00 0. -1.
          5    1    4    4  502    0  0.48309985310E+02  0.11374737726E+03  0.41004107663E+02  0.13029101028E+03  0.47000000000E+01 0. -1.
         -5    1    4    4    0  502  0.14543884089E+02 -0.25231328114E+02  0.51551261756E+02  0.59395008809E+02  0.47000000000E+01 0. -1.
<mgrwt>
<rscale>  0 0.10005982E+04</rscale>
<asrwt>0</asrwt>
<pdfrwt beam="1">  1        1 0.80302499E-01 0.10005982E+04</pdfrwt>
<pdfrwt beam="2">  1       -1 0.73774052E-01 0.10005982E+04</pdfrwt>
<totfact> 0.90926281E+01</totfact>
</mgrwt>
</event>
<event>
 9    1  0.4412976E-036  0.9980684E+03  0.7818608E-02  0.8682880E-01
          2   -1    0    0  501    0  0.00000000000E+00  0.00000000000E+00  0.96800970724E+03  0.96800970724E+03  0.00000000000E+00 0.  1.
         -2   -1    0    0    0  501 -0.00000000000E+00 -0.00000000000E+00 -0.25726512909E+03  0.25726512909E+03  0.00000000000E+00 0.  1.
         36    2    1    2    0    0  0.28421709430E-13 -0.14210854715E-13  0.71074457814E+03  0.12252748363E+04  0.99806841909E+03 0.  0.
         25    2    3    3    0    0  0.13627767543E+03 -0.35493324288E+01  0.15241848659E+03  0.24046857480E+03  0.12652880239E+03 0.  0.
         35    2    3    3    0    0 -0.13627767543E+03  0.35493324288E+01  0.55832609156E+03  0.98480626153E+03  0.79970691234E+03 0.  0.
         22    1    5    5    0    0  0.43728051927E+02  0.34827438170E+03  0.46896733038E+03  0.58577943326E+03  0.00000000000E+00 0.  1.
         22    1    5    5    0    0 -0.18000572736E+03 -0.34472504927E+03  0.89358761178E+02  0.39902682826E+03  0.00000000000E+00 0.  1.
          5    1    4    4  502    0  0.57236470991E+02  0.60539205174E+02  0.78920971794E+02  0.11485477249E+03  0.47000000000E+01 0. -1.
         -5    1    4    4    0  502  0.79041204439E+02 -0.64088537602E+02  0.73497514792E+02  0.12561380231E+03  0.47000000000E+01 0. -1.
<mgrwt>
<rscale>  0 0.99806842E+03</rscale>
<asrwt>0</asrwt>
<pdfrwt beam="1">  1        2 0.14892457E+00 0.99806842E+03</pdfrwt>
<pdfrwt beam="2">  1       -2 0.39579251E-01 0.99806842E+03</pdfrwt>
<totfact> 0.19285283E+02</totfact>
</mgrwt>
</event>
<event>
 9    1  0.4412976E-036  0.1000149E+04  0.7818608E-02  0.8680896E-01
          2   -1    0    0  501    0  0.00000000000E+00  0.00000000000E+00  0.61174670822E+03  0.61174670822E+03  0.00000000000E+00 0.  1.
         -2   -1    0    0    0  501 -0.00000000000E+00 -0.00000000000E+00 -0.40878755774E+03  0.40878755774E+03  0.00000000000E+00 0.  1.
         36    2    1    2    0    0 -0.71054273576E-14 -0.21316282073E-13  0.20295915048E+03  0.10205342660E+04  0.10001488745E+04 0.  0.
         25    2    3    3    0    0 -0.52900324180E+02  0.15899030352E+02 -0.94283642765E+02  0.16539932316E+03  0.12416242324E+03 0.  0.
         35    2    3    3    0    0  0.52900324180E+02 -0.15899030352E+02  0.29724279324E+03  0.85513494280E+03  0.79990703760E+03 0.  0.
         22    1    5    5    0    0 -0.13360882818E+03  0.31878355479E+03 -0.35771616667E+02  0.34749659327E+03  0.00000000000E+00 0. -1.
         22    1    5    5    0    0  0.18650915236E+03 -0.33468258514E+03  0.33301440991E+03  0.50763834954E+03  0.00000000000E+00 0. -1.
          5    1    4    4  502    0  0.24472122569E+02  0.21088350652E+02 -0.80005824091E+02  0.86409636065E+02  0.47000000000E+01 0. -1.
         -5    1    4    4    0  502 -0.77372446749E+02 -0.51893203009E+01 -0.14277818674E+02  0.78989687094E+02  0.47000000000E+01 0. -1.
<mgrwt>
<rscale>  0 0.10001489E+04</rscale>
<asrwt>0</asrwt>
<pdfrwt beam="1">  1        2 0.94114878E-01 0.10001489E+04</pdfrwt>
<pdfrwt beam="2">  1       -2 0.62890393E-01 0.10001489E+04</pdfrwt>
<totfact> 0.13734220E+02</totfact>
</mgrwt>
</event>
<event>
 9    1  0.4412976E-036  0.1002048E+04  0.7818608E-02  0.8679090E-01
          1   -1    0    0  501    0  0.00000000000E+00  0.00000000000E+00  0.39482507446E+03  0.39482507446E+03  0.00000000000E+00 0.  1.
         -1   -1    0    0    0  501 -0.00000000000E+00 -0.00000000000E+00 -0.63578780128E+03  0.63578780128E+03  0.00000000000E+00 0.  1.
         36    2    1    2    0    0  0.00000000000E+00 -0.14210854715E-13 -0.24096272682E+03  0.10306128757E+04  0.10020478351E+04 0.  0.
         25    2    3    3    0    0  0.73985116997E+02 -0.12140005088E+03 -0.37940272294E+02  0.19344197769E+03  0.12557294525E+03 0.  0.
         35    2    3    3    0    0 -0.73985116997E+02  0.12140005088E+03 -0.20302245453E+03  0.83717089805E+03  0.79964068531E+03 0.  0.
         22    1    5    5    0    0 -0.44451170141E+02  0.21881015464E+03  0.27169102100E+03  0.35166717389E+03  0.00000000000E+00 0. -1.
         22    1    5    5    0    0 -0.29533946856E+02 -0.97410103767E+02 -0.47471347552E+03  0.48550372416E+03  0.00000000000E+00 0. -1.
          5    1    4    4  502    0  0.62367510706E+02 -0.80571959811E+02 -0.82894513189E+02  0.13143491704E+03  0.47000000000E+01 0. -1.
         -5    1    4    4    0  502  0.11617606291E+02 -0.40828091065E+02  0.44954240895E+02  0.62007060649E+02  0.47000000000E+01 0. -1.
<mgrwt>
<rscale>  0 0.10020478E+04</rscale>
<asrwt>0</asrwt>
<pdfrwt beam="1">  1        1 0.60742319E-01 0.10020478E+04</pdfrwt>
<pdfrwt beam="2">  1       -1 0.97813507E-01 0.10020478E+04</pdfrwt>
<totfact> 0.73211708E+01</totfact>
</mgrwt>
</event>
<event>
 9    1  0.4412976E-036  0.1000345E+04  0.7818608E-02  0.8680709E-01
         -1   -1    0    0    0  501 -0.00000000000E+00  0.00000000000E+00  0.11450020884E+04  0.11450020884E+04  0.00000000000E+00 0.  1.
          1   -1    0    0  501    0  0.00000000000E+00 -0.00000000000E+00 -0.21849102387E+03  0.21849102387E+03  0.00000000000E+00 0.  1.
         36    2    1    2    0    0  0.56843418861E-13  0.00000000000E+00  0.92651106456E+03  0.13634931123E+04  0.10003452977E+04 0.  0.
         25    2    3    3    0    0  0.13728842396E+03 -0.20261611669E+02  0.13670280152E+03  0.23125593068E+03  0.12463147786E+03 0.  0.
         35    2    3    3    0    0 -0.13728842396E+03  0.20261611669E+02  0.78980826305E+03  0.11322371816E+04  0.79931551894E+03 0.  0.
         22    1    5    5    0    0  0.25795671376E+03 -0.35433626487E+02  0.15182498834E+02  0.26082123443E+03  0.00000000000E+00 0. -1.
         22    1    5    5    0    0 -0.39524513772E+03  0.55695238157E+02  0.77462576421E+03  0.87141594720E+03  0.00000000000E+00 0. -1.
          5    1    4    4  502    0  0.32255966931E+02 -0.51182610713E+01  0.11909819168E+03  0.12358443778E+03  0.47000000000E+01 0.  1.
         -5    1    4    4    0  502  0.10503245703E+03 -0.15143350598E+02  0.17604609833E+02  0.10767149290E+03  0.47000000000E+01 0.  1.
<mgrwt>
<rscale>  0 0.10003453E+04</rscale>
<asrwt>0</asrwt>
<pdfrwt beam="1">  1        1 0.33614004E-01 0.10003453E+04</pdfrwt>
<pdfrwt beam="2">  1       -1 0.17615416E+00 0.10003453E+04</pdfrwt>
<totfact> 0.32794949E+01</totfact>
</mgrwt>
</event>
<event>
 9    1  0.4412976E-036  0.1001409E+04  0.7818608E-02  0.8679697E-01
          2   -1    0    0  501    0  0.00000000000E+00  0.00000000000E+00  0.10369884410E+04  0.10369884410E+04  0.00000000000E+00 0. -1.
         -2   -1    0    0    0  501 -0.00000000000E+00 -0.00000000000E+00 -0.24176253985E+03  0.24176253985E+03  0.00000000000E+00 0. -1.
         36    2    1    2    0    0 -0.21316282073E-13  0.14210854715E-13  0.79522590110E+03  0.12787509808E+04  0.10014089260E+04 0.  0.
         25    2    3    3    0    0  0.57512348345E+02 -0.11558513478E+03  0.75632425097E+02  0.19498872228E+03  0.12503097415E+03 0.  0.
         35    2    3    3    0    0 -0.57512348345E+02  0.11558513478E+03  0.71959347600E+03  0.10837622585E+04  0.80003641711E+03 0.  0.
         22    1    5    5    0    0  0.33727048394E+03  0.11754185435E+03  0.14248010382E+03  0.38453614505E+03  0.00000000000E+00 0. -1.
         22    1    5    5    0    0 -0.39478283229E+03 -0.19567195708E+01  0.57711337218E+03  0.69922611347E+03  0.00000000000E+00 0. -1.
          5    1    4    4  502    0  0.81681103029E+02 -0.12576327635E+03  0.76335408171E+02  0.16833712844E+03  0.47000000000E+01 0.  1.
         -5    1    4    4    0  502 -0.24168754685E+02  0.10178141574E+02 -0.70298307441E+00  0.26651593838E+02  0.47000000000E+01 0.  1.
<mgrwt>
<rscale>  0 0.10014089E+04</rscale>
<asrwt>0</asrwt>
<pdfrwt beam="1">  1        2 0.15953668E+00 0.10014089E+04</pdfrwt>
<pdfrwt beam="2">  1       -2 0.37194237E-01 0.10014089E+04</pdfrwt>
<totfact> 0.19640789E+02</totfact>
</mgrwt>
</event>
<event>
 9    1  0.4412976E-036  0.1000396E+04  0.7818608E-02  0.8680661E-01
          2   -1    0    0  501    0  0.00000000000E+00  0.00000000000E+00  0.38895323335E+04  0.38895323335E+04  0.00000000000E+00 0.  1.
         -2   -1    0    0    0  501 -0.00000000000E+00 -0.00000000000E+00 -0.64325963648E+02  0.64325963648E+02  0.00000000000E+00 0.  1.
         36    2    1    2    0    0  0.00000000000E+00  0.00000000000E+00  0.38252063698E+04  0.39538582971E+04  0.10003957527E+04 0.  0.
         25    2    3    3    0    0  0.42499084159E+02 -0.11344911540E+03  0.10178056521E+04  0.10320097460E+04  0.12016195880E+03 0.  0.
         35    2    3    3    0    0 -0.42499084159E+02  0.11344911540E+03  0.28074007177E+04  0.29218485511E+04  0.80063930217E+03 0.  0.
         22    1    5    5    0    0  0.20311378324E+03 -0.18850404058E+03  0.42166249585E+03  0.50456738169E+03  0.00000000000E+00 0. -1.
         22    1    5    5    0    0 -0.24561286740E+03  0.30195315598E+03  0.23857382218E+04  0.24172811695E+04  0.00000000000E+00 0. -1.
          5    1    4    4  502    0 -0.15033755483E+02 -0.17195561763E+02  0.30742826336E+02  0.38586429213E+02  0.47000000000E+01 0.  1.
         -5    1    4    4    0  502  0.57532839643E+02 -0.96253553635E+02  0.98706282578E+03  0.99342331675E+03  0.47000000000E+01 0.  1.
<mgrwt>
<rscale>  0 0.10003958E+04</rscale>
<asrwt>0</asrwt>
<pdfrwt beam="1">  1        2 0.59838941E+00 0.10003958E+04</pdfrwt>
<pdfrwt beam="2">  1       -2 0.98963051E-02 0.10003958E+04</pdfrwt>
<totfact> 0.28699555E+01</totfact>
</mgrwt>
</event>
<event>
 9    1  0.4412976E-036  0.1001086E+04  0.7818608E-02  0.8680005E-01
          3   -1    0    0  501    0  0.00000000000E+00  0.00000000000E+00  0.22357103737E+03  0.22357103737E+03  0.00000000000E+00 0. -1.
         -3   -1    0    0    0  501 -0.00000000000E+00 -0.00000000000E+00 -0.11206426473E+04  0.11206426473E+04  0.00000000000E+00 0. -1.
         36    2    1    2    0    0  0.71054273576E-14  0.00000000000E+00 -0.89707160997E+03  0.13442136847E+04  0.10010858888E+04 0.  0.
         25    2    3    3    0    0 -0.28758177156E+02 -0.13612592884E+03 -0.13133436698E+03  0.22845024572E+03  0.12483387988E+03 0.  0.
         35    2    3    3    0    0  0.28758177156E+02  0.13612592884E+03 -0.76573724300E+03  0.11157634390E+04  0.79951061609E+03 0.  0.
         22    1    5    5    0    0  0.22306587944E+03 -0.27516759496E+03 -0.29281565242E+03  0.45958306996E+03  0.00000000000E+00 0.  1.
         22    1    5    5    0    0 -0.19430770229E+03  0.41129352380E+03 -0.47292159058E+03  0.65618036904E+03  0.00000000000E+00 0.  1.
          5    1    4    4  502    0 -0.49466906680E+02 -0.72903345329E+02 -0.13542771108E+03  0.16163114658E+03  0.47000000000E+01 0.  1.
         -5    1    4    4    0  502  0.20708729524E+02 -0.63222583508E+02  0.40933441061E+01  0.66819099140E+02  0.47000000000E+01 0.  1.
<mgrwt>
<rscale>  0 0.10010859E+04</rscale>
<asrwt>0</asrwt>
<pdfrwt beam="1">  1        3 0.34395545E-01 0.10010859E+04</pdfrwt>
<pdfrwt beam="2">  1       -3 0.17240656E+00 0.10010859E+04</pdfrwt>
<totfact> 0.55830838E+00</totfact>
</mgrwt>
</event>
<event>
 9    1  0.4412976E-036  0.1000635E+04  0.7818608E-02  0.8680434E-01
          1   -1    0    0  501    0  0.00000000000E+00  0.00000000000E+00  0.90114905934E+03  0.90114905934E+03  0.00000000000E+00 0.  1.
         -1   -1    0    0    0  501 -0.00000000000E+00 -0.00000000000E+00 -0.27777594612E+03  0.27777594612E+03  0.00000000000E+00 0.  1.
         36    2    1    2    0    0 -0.71054273576E-14  0.14210854715E-13  0.62337311322E+03  0.11789250055E+04  0.10006348636E+04 0.  0.
         25    2    3    3    0    0  0.48161471377E+02  0.10760832741E+03  0.26094713014E+02  0.17386932328E+03  0.12510207063E+03 0.  0.
         35    2    3    3    0    0 -0.48161471377E+02 -0.10760832741E+03  0.59727840021E+03  0.10050556822E+04  0.79968516147E+03 0.  0.
         22    1    5    5    0    0  0.36122672618E+02  0.21357187583E+03  0.63494157382E+03  0.67087151958E+03  0.00000000000E+00 0.  1.
         22    1    5    5    0    0 -0.84284143995E+02 -0.32118020324E+03 -0.37663173617E+02  0.33418416259E+03  0.00000000000E+00 0.  1.
          5    1    4    4  502    0  0.89461970597E+02  0.89255891864E+02  0.19537122055E+02  0.12796033586E+03  0.47000000000E+01 0.  1.
         -5    1    4    4    0  502 -0.41300499220E+02  0.18352435551E+02  0.65575909590E+01  0.45908987417E+02  0.47000000000E+01 0.  1.
<mgrwt>
<rscale>  0 0.10006349E+04</rscale>
<asrwt>0</asrwt>
<pdfrwt beam="1">  1        1 0.13863832E+00 0.10006349E+04</pdfrwt>
<pdfrwt beam="2">  1       -1 0.42734761E-01 0.10006349E+04</pdfrwt>
<totfact> 0.11047730E+02</totfact>
</mgrwt>
</event>
<event>
 9    1  0.4412976E-036  0.1001392E+04  0.7818608E-02  0.8679714E-01
          2   -1    0    0  501    0  0.00000000000E+00  0.00000000000E+00  0.17367157987E+04  0.17367157987E+04  0.00000000000E+00 0. -1.
         -2   -1    0    0    0  501 -0.00000000000E+00 -0.00000000000E+00 -0.14435076204E+03  0.14435076204E+03  0.00000000000E+00 0. -1.
         36    2    1    2    0    0  0.71054273576E-14 -0.28421709430E-13  0.15923650366E+04  0.18810665607E+04  0.10013915298E+04 0.  0.
         25    2    3    3    0    0  0.17223163389E+02  0.13612381834E+03  0.38491435552E+03  0.42652577733E+03  0.12222457350E+03 0.  0.
         35    2    3    3    0    0 -0.17223163389E+02 -0.13612381834E+03  0.12074506811E+04  0.14545407834E+04  0.79932810029E+03 0.  0.
         22    1    5    5    0    0  0.26180120781E+03  0.19964926433E+03  0.29097640002E+03  0.43939386264E+03  0.00000000000E+00 0. -1.
         22    1    5    5    0    0 -0.27902437120E+03 -0.33577308267E+03  0.91647428110E+03  0.10151469207E+04  0.00000000000E+00 0. -1.
          5    1    4    4  502    0  0.58039783047E+02  0.12009302651E+03  0.23496404815E+03  0.27022425013E+03  0.47000000000E+01 0.  1.
         -5    1    4    4    0  502 -0.40816619659E+02  0.16030791827E+02  0.14995030736E+03  0.15630152720E+03  0.47000000000E+01 0.  1.
<mgrwt>
<rscale>  0 0.10013915E+04</rscale>
<asrwt>0</asrwt>
<pdfrwt beam="1">  1        2 0.26718703E+00 0.10013915E+04</pdfrwt>
<pdfrwt beam="2">  1       -2 0.22207811E-01 0.10013915E+04</pdfrwt>
<totfact> 0.19689251E+02</totfact>
</mgrwt>
</event>
<event>
 9    1  0.4412976E-036  0.9997079E+03  0.7818608E-02  0.8681316E-01
          1   -1    0    0  501    0  0.00000000000E+00  0.00000000000E+00  0.41781039481E+03  0.41781039481E+03  0.00000000000E+00 0. -1.
         -1   -1    0    0    0  501 -0.00000000000E+00 -0.00000000000E+00 -0.59800808233E+03  0.59800808233E+03  0.00000000000E+00 0. -1.
         36    2    1    2    0    0  0.71054273576E-14  0.42632564146E-13 -0.18019768753E+03  0.10158184771E+04  0.99970794331E+03 0.  0.
         25    2    3    3    0    0 -0.37895307039E+02 -0.82985143521E+02  0.59402858373E+02  0.16595545101E+03  0.12525942598E+03 0.  0.
         35    2    3    3    0    0  0.37895307039E+02  0.82985143521E+02 -0.23960054590E+03  0.84986302613E+03  0.81026918567E+03 0.  0.
         22    1    5    5    0    0  0.11234294764E+02  0.44107541630E+03 -0.50689380438E+02  0.44412064300E+03  0.00000000000E+00 0.  1.
         22    1    5    5    0    0  0.26661012275E+02 -0.35809027278E+03 -0.18891116546E+03  0.40574238314E+03  0.00000000000E+00 0.  1.
          5    1    4    4  502    0  0.43460087186E+02 -0.22081789478E+02  0.17179170276E+01  0.49004345151E+02  0.47000000000E+01 0.  1.
         -5    1    4    4    0  502 -0.81355394225E+02 -0.60903354043E+02  0.57684941345E+02  0.11695110586E+03  0.47000000000E+01 0.  1.
<mgrwt>
<rscale>  0 0.99970794E+03</rscale>
<asrwt>0</asrwt>
<pdfrwt beam="1">  1        1 0.64278523E-01 0.99970794E+03</pdfrwt>
<pdfrwt beam="2">  1       -1 0.92001243E-01 0.99970794E+03</pdfrwt>
<totfact> 0.77612802E+01</totfact>
</mgrwt>
</event>
<event>
 9    1  0.4412976E-036  0.1000417E+04  0.7818608E-02  0.8680641E-01
         -1   -1    0    0    0  501 -0.00000000000E+00  0.00000000000E+00  0.21848089800E+03  0.21848089800E+03  0.00000000000E+00 0.  1.
          1   -1    0    0  501    0  0.00000000000E+00 -0.00000000000E+00 -0.11452202521E+04  0.11452202521E+04  0.00000000000E+00 0.  1.
         36    2    1    2    0    0 -0.28421709430E-13 -0.35527136788E-14 -0.92673935412E+03  0.13637011501E+04  0.10004174111E+04 0.  0.
         25    2    3    3    0    0 -0.11026936116E+03  0.78717247792E+01 -0.53086412781E+02  0.17473745909E+03  0.12447375758E+03 0.  0.
         35    2    3    3    0    0  0.11026936116E+03 -0.78717247792E+01 -0.87365294134E+03  0.11889636910E+04  0.79883909557E+03 0.  0.
         22    1    5    5    0    0 -0.10444381576E+03 -0.56907904603E+02 -0.94882186505E+03  0.95624785064E+03  0.00000000000E+00 0.  1.
         22    1    5    5    0    0  0.21471317692E+03  0.49036179824E+02  0.75168923711E+02  0.23271584039E+03  0.00000000000E+00 0.  1.
          5    1    4    4  502    0  0.13164162072E+02 -0.27026116360E+02  0.95792622398E+01  0.31899191113E+02  0.47000000000E+01 0. -1.
         -5    1    4    4    0  502 -0.12343352323E+03  0.34897841140E+02 -0.62665675021E+02  0.14283826798E+03  0.47000000000E+01 0. -1.
<mgrwt>
<rscale>  0 0.10004174E+04</rscale>
<asrwt>0</asrwt>
<pdfrwt beam="1">  1        1 0.17618773E+00 0.10004174E+04</pdfrwt>
<pdfrwt beam="2">  1       -1 0.33612446E-01 0.10004174E+04</pdfrwt>
<totfact> 0.10830317E+02</totfact>
</mgrwt>
</event>
<event>
 9    1  0.4412976E-036  0.9996017E+03  0.7818608E-02  0.8681417E-01
         -2   -1    0    0    0  501 -0.00000000000E+00  0.00000000000E+00  0.10592518132E+04  0.10592518132E+04  0.00000000000E+00 0. -1.
          2   -1    0    0  501    0  0.00000000000E+00 -0.00000000000E+00 -0.23582767285E+03  0.23582767285E+03  0.00000000000E+00 0. -1.
         36    2    1    2    0    0  0.35527136788E-14  0.00000000000E+00  0.82342414038E+03  0.12950794861E+04  0.99960170084E+03 0.  0.
         25    2    3    3    0    0 -0.11869483321E+02 -0.11432597590E+03  0.25622083530E+03  0.30729942013E+03  0.12478983842E+03 0.  0.
         35    2    3    3    0    0  0.11869483321E+02  0.11432597590E+03  0.56720330509E+03  0.98778006596E+03  0.80048644961E+03 0.  0.
         22    1    5    5    0    0  0.28076601925E+02 -0.31163719641E+03  0.48892375252E+02  0.31669623004E+03  0.00000000000E+00 0. -1.
         22    1    5    5    0    0 -0.16207118604E+02  0.42596317230E+03  0.51831092984E+03  0.67108383593E+03  0.00000000000E+00 0. -1.
          5    1    4    4  502    0 -0.63057618302E+02 -0.36083428987E+02  0.83048470866E+02  0.11044191046E+03  0.47000000000E+01 0. -1.
         -5    1    4    4    0  502  0.51188134981E+02 -0.78242546909E+02  0.17317236443E+03  0.19685750967E+03  0.47000000000E+01 0. -1.
<mgrwt>
<rscale>  0 0.99960170E+03</rscale>
<asrwt>0</asrwt>
<pdfrwt beam="1">  1        2 0.36281181E-01 0.99960170E+03</pdfrwt>
<pdfrwt beam="2">  1       -2 0.16296182E+00 0.99960170E+03</pdfrwt>
<totfact> 0.38527295E+01</totfact>
</mgrwt>
</event>
<event>
 9    1  0.4412976E-036  0.1000104E+04  0.7818608E-02  0.8680939E-01
          2   -1    0    0  501    0  0.00000000000E+00  0.00000000000E+00  0.34830974104E+03  0.34830974104E+03  0.00000000000E+00 0.  1.
         -2   -1    0    0    0  501 -0.00000000000E+00 -0.00000000000E+00 -0.71790185380E+03  0.71790185380E+03  0.00000000000E+00 0.  1.
         36    2    1    2    0    0  0.00000000000E+00 -0.71054273576E-14 -0.36959211276E+03  0.10662115948E+04  0.10001044121E+04 0.  0.
         25    2    3    3    0    0  0.14103134004E+03 -0.16307320220E+01 -0.56222314989E+02  0.19568200452E+03  0.12344229433E+03 0.  0.
         35    2    3    3    0    0 -0.14103134004E+03  0.16307320220E+01 -0.31336979777E+03  0.87052959032E+03  0.79983038159E+03 0.  0.
         22    1    5    5    0    0  0.27419042807E+03 -0.69519917113E+02 -0.34726904060E+03  0.44789417978E+03  0.00000000000E+00 0.  1.
         22    1    5    5    0    0 -0.41522176811E+03  0.71150649135E+02  0.33899242834E+02  0.42263541054E+03  0.00000000000E+00 0.  1.
          5    1    4    4  502    0  0.99615881975E+02  0.29197001169E+01 -0.95587455697E+02  0.13816982405E+03  0.47000000000E+01 0.  1.
         -5    1    4    4    0  502  0.41415458065E+02 -0.45504321390E+01  0.39365140709E+02  0.57512180470E+02  0.47000000000E+01 0.  1.
<mgrwt>
<rscale>  0 0.10001044E+04</rscale>
<asrwt>0</asrwt>
<pdfrwt beam="1">  1        2 0.53586114E-01 0.10001044E+04</pdfrwt>
<pdfrwt beam="2">  1       -2 0.11044644E+00 0.10001044E+04</pdfrwt>
<totfact> 0.71207529E+01</totfact>
</mgrwt>
</event>
<event>
 9    1  0.4412976E-036  0.1001012E+04  0.7818608E-02  0.8680075E-01
          1   -1    0    0  501    0  0.00000000000E+00  0.00000000000E+00  0.33483418788E+03  0.33483418788E+03  0.00000000000E+00 0.  1.
         -1   -1    0    0    0  501 -0.00000000000E+00 -0.00000000000E+00 -0.74815014837E+03  0.74815014837E+03  0.00000000000E+00 0.  1.
         36    2    1    2    0    0 -0.28421709430E-13  0.00000000000E+00 -0.41331596049E+03  0.10829843363E+04  0.10010119826E+04 0.  0.
         25    2    3    3    0    0  0.73193704414E+02 -0.23933444644E+02  0.50403219429E+02  0.15509149343E+03  0.12483092031E+03 0.  0.
         35    2    3    3    0    0 -0.73193704414E+02  0.23933444644E+02 -0.46371917992E+03  0.92789284283E+03  0.80001220103E+03 0.  0.
         22    1    5    5    0    0  0.18712690310E+03  0.15036049831E+03  0.12591287298E+03  0.27106974914E+03  0.00000000000E+00 0. -1.
         22    1    5    5    0    0 -0.26032060751E+03 -0.12642705367E+03 -0.58963205290E+03  0.65682309369E+03  0.00000000000E+00 0. -1.
          5    1    4    4  502    0  0.81376742436E+02  0.51507149557E+01 -0.14864384492E+02  0.83016528477E+02  0.47000000000E+01 0.  1.
         -5    1    4    4    0  502 -0.81830380218E+01 -0.29084159599E+02  0.65267603922E+02  0.72074964950E+02  0.47000000000E+01 0.  1.
<mgrwt>
<rscale>  0 0.10010120E+04</rscale>
<asrwt>0</asrwt>
<pdfrwt beam="1">  1        1 0.51512953E-01 0.10010120E+04</pdfrwt>
<pdfrwt beam="2">  1       -1 0.11510002E+00 0.10010120E+04</pdfrwt>
<totfact> 0.62550683E+01</totfact>
</mgrwt>
</event>
<event>
 9    1  0.4412976E-036  0.9994446E+03  0.7818608E-02  0.8681567E-01
         -1   -1    0    0    0  501 -0.00000000000E+00  0.00000000000E+00  0.13361364514E+03  0.13361364514E+03  0.00000000000E+00 0.  1.
          1   -1    0    0  501    0  0.00000000000E+00 -0.00000000000E+00 -0.18689886120E+04  0.18689886120E+04  0.00000000000E+00 0.  1.
         36    2    1    2    0    0  0.00000000000E+00 -0.71054273576E-14 -0.17353749668E+04  0.20026022571E+04  0.99944460812E+03 0.  0.
         25    2    3    3    0    0 -0.16375443957E+02  0.23087668957E+02 -0.61615925055E+03  0.62944687452E+03  0.12549880551E+03 0.  0.
         35    2    3    3    0    0  0.16375443957E+02 -0.23087668957E+02 -0.11192157163E+04  0.13731553826E+04  0.79505389097E+03 0.  0.
         22    1    5    5    0    0 -0.10902579193E+03 -0.11353362348E+03 -0.11919415553E+04  0.12022899726E+04  0.00000000000E+00 0.  1.
         22    1    5    5    0    0  0.12540123589E+03  0.90445954524E+02  0.72725839060E+02  0.17086540995E+03  0.00000000000E+00 0.  1.
          5    1    4    4  502    0 -0.42079686370E+01 -0.46730590508E+02 -0.13336087232E+03  0.14145199665E+03  0.47000000000E+01 0. -1.
         -5    1    4    4    0  502 -0.12167475320E+02  0.69818259465E+02 -0.48279837823E+03  0.48799487788E+03  0.47000000000E+01 0. -1.
<mgrwt>
<rscale>  0 0.99944461E+03</rscale>
<asrwt>0</asrwt>
<pdfrwt beam="1">  1        1 0.28753670E+00 0.99944461E+03</pdfrwt>
<pdfrwt beam="2">  1       -1 0.20555946E-01 0.99944461E+03</pdfrwt>
<totfact> 0.75209595E+01</totfact>
</mgrwt>
</event>
<event>
 9    1  0.4412976E-036  0.1000925E+04  0.7818608E-02  0.8680158E-01
          2   -1    0    0  501    0  0.00000000000E+00  0.00000000000E+00  0.21214660295E+03  0.21214660295E+03  0.00000000000E+00 0.  1.
         -2   -1    0    0    0  501 -0.00000000000E+00 -0.00000000000E+00 -0.11806108459E+04  0.11806108459E+04  0.00000000000E+00 0.  1.
         36    2    1    2    0    0 -0.14210854715E-13  0.00000000000E+00 -0.96846424295E+03  0.13927574488E+04  0.10009247332E+04 0.  0.
         25    2    3    3    0    0  0.89387404017E+02 -0.89441058583E+02 -0.10201969016E+03  0.20449339750E+03  0.12417617115E+03 0.  0.
         35    2    3    3    0    0 -0.89387404017E+02  0.89441058583E+02 -0.86644455278E+03  0.11882640514E+04  0.80327796044E+03 0.  0.
         22    1    5    5    0    0 -0.26686737768E+03 -0.28908289195E+03 -0.45820470521E+03  0.60393597969E+03  0.00000000000E+00 0. -1.
         22    1    5    5    0    0  0.17747997366E+03  0.37852395054E+03 -0.40823984758E+03  0.58432807166E+03  0.00000000000E+00 0. -1.
          5    1    4    4  502    0  0.24551730443E+02  0.13645247782E+02 -0.74213722400E+02  0.79490545647E+02  0.47000000000E+01 0.  1.
         -5    1    4    4    0  502  0.64835673574E+02 -0.10308630637E+03 -0.27805967764E+02  0.12500285185E+03  0.47000000000E+01 0.  1.
<mgrwt>
<rscale>  0 0.10009247E+04</rscale>
<asrwt>0</asrwt>
<pdfrwt beam="1">  1        2 0.32637939E-01 0.10009247E+04</pdfrwt>
<pdfrwt beam="2">  1       -2 0.18163244E+00 0.10009247E+04</pdfrwt>
<totfact> 0.31526525E+01</totfact>
</mgrwt>
</event>
<event>
 9    1  0.4412976E-036  0.1000302E+04  0.7818608E-02  0.8680750E-01
          1   -1    0    0  501    0  0.00000000000E+00  0.00000000000E+00  0.29305061977E+03  0.29305061977E+03  0.00000000000E+00 0.  1.
         -1   -1    0    0    0  501 -0.00000000000E+00 -0.00000000000E+00 -0.85361055861E+03  0.85361055861E+03  0.00000000000E+00 0.  1.
         36    2    1    2    0    0  0.14210854715E-13 -0.14210854715E-13 -0.56055993884E+03  0.11466611784E+04  0.10003021608E+04 0.  0.
         25    2    3    3    0    0 -0.74519367024E+02  0.54072266443E+02 -0.22923340133E+03  0.27576746680E+03  0.12256752180E+03 0.  0.
         35    2    3    3    0    0  0.74519367024E+02 -0.54072266443E+02 -0.33132653751E+03  0.87089371159E+03  0.80012601280E+03 0.  0.
         22    1    5    5    0    0  0.38536187839E+03  0.16741756036E+03 -0.21443049237E+03  0.47171268045E+03  0.00000000000E+00 0. -1.
         22    1    5    5    0    0 -0.31084251137E+03 -0.22148982681E+03 -0.11689604514E+03  0.39918103114E+03  0.00000000000E+00 0. -1.
          5    1    4    4  502    0 -0.72374796507E+02  0.76480857818E+01 -0.21485312857E+03  0.22689328161E+03  0.47000000000E+01 0.  1.
         -5    1    4    4    0  502 -0.21445705164E+01  0.46424180661E+02 -0.14380272759E+02  0.48874185184E+02  0.47000000000E+01 0.  1.
<mgrwt>
<rscale>  0 0.10003022E+04</rscale>
<asrwt>0</asrwt>
<pdfrwt beam="1">  1        1 0.45084712E-01 0.10003022E+04</pdfrwt>
<pdfrwt beam="2">  1       -1 0.13132470E+00 0.10003022E+04</pdfrwt>
<totfact> 0.53464135E+01</totfact>
</mgrwt>
</event>
<event>
 9    1  0.4412976E-036  0.1000173E+04  0.7818608E-02  0.8680873E-01
         -2   -1    0    0    0  501 -0.00000000000E+00  0.00000000000E+00  0.11261904763E+03  0.11261904763E+03  0.00000000000E+00 0.  1.
          2   -1    0    0  501    0  0.00000000000E+00 -0.00000000000E+00 -0.22206418406E+04  0.22206418406E+04  0.00000000000E+00 0.  1.
         36    2    1    2    0    0  0.00000000000E+00 -0.14210854715E-13 -0.21080227930E+04  0.23332608883E+04  0.10001731234E+04 0.  0.
         25    2    3    3    0    0 -0.79397218101E+02  0.69443174667E+02 -0.18383650309E+03  0.24654267992E+03  0.12594109895E+03 0.  0.
         35    2    3    3    0    0  0.79397218101E+02 -0.69443174667E+02 -0.19241862899E+04  0.20867182084E+04  0.80048343517E+03 0.  0.
         22    1    5    5    0    0 -0.30452671018E+02 -0.14201786368E+03  0.12295765596E+02  0.14576564969E+03  0.00000000000E+00 0.  1.
         22    1    5    5    0    0  0.10984988912E+03  0.72574689017E+02 -0.19364820555E+04  0.19409525587E+04  0.00000000000E+00 0.  1.
          5    1    4    4  502    0 -0.43636827059E+02  0.91098379953E+02 -0.17710278960E+03  0.20393767575E+03  0.47000000000E+01 0.  1.
         -5    1    4    4    0  502 -0.35760391042E+02 -0.21655205287E+02 -0.67337134990E+01  0.42605004177E+02  0.47000000000E+01 0.  1.
<mgrwt>
<rscale>  0 0.10001731E+04</rscale>
<asrwt>0</asrwt>
<pdfrwt beam="1">  1        2 0.34163721E+00 0.10001731E+04</pdfrwt>
<pdfrwt beam="2">  1       -2 0.17326007E-01 0.10001731E+04</pdfrwt>
<totfact> 0.16006828E+02</totfact>
</mgrwt>
</event>
<event>
 9    1  0.4412976E-036  0.1000207E+04  0.7818608E-02  0.8680841E-01
          2   -1    0    0  501    0  0.00000000000E+00  0.00000000000E+00  0.18667828832E+04  0.18667828832E+04  0.00000000000E+00 0. -1.
         -2   -1    0    0    0  501 -0.00000000000E+00 -0.00000000000E+00 -0.13397555485E+03  0.13397555485E+03  0.00000000000E+00 0. -1.
         36    2    1    2    0    0  0.00000000000E+00 -0.71054273576E-14  0.17328073283E+04  0.20007584380E+04  0.10002065238E+04 0.  0.
         25    2    3    3    0    0 -0.67403118292E+02 -0.31357755974E+02  0.56858756585E+03  0.58669509135E+03  0.12406780794E+03 0.  0.
         35    2    3    3    0    0  0.67403118292E+02  0.31357755974E+02  0.11642197625E+04  0.14140633466E+04  0.79915017601E+03 0.  0.
         22    1    5    5    0    0 -0.28852246791E+02  0.23347221037E+03  0.11667041513E+04  0.11901849864E+04  0.00000000000E+00 0. -1.
         22    1    5    5    0    0  0.96255365083E+02 -0.20211445440E+03 -0.24843888902E+01  0.22387836021E+03  0.00000000000E+00 0. -1.
          5    1    4    4  502    0 -0.42495189390E+02 -0.72803890352E+02  0.46071321078E+03  0.46838552513E+03  0.47000000000E+01 0. -1.
         -5    1    4    4    0  502 -0.24907928902E+02  0.41446134378E+02  0.10787435507E+03  0.11830956622E+03  0.47000000000E+01 0. -1.
<mgrwt>
<rscale>  0 0.10002065E+04</rscale>
<asrwt>0</asrwt>
<pdfrwt beam="1">  1        2 0.28719735E+00 0.10002065E+04</pdfrwt>
<pdfrwt beam="2">  1       -2 0.20611625E-01 0.10002065E+04</pdfrwt>
<totfact> 0.18935997E+02</totfact>
</mgrwt>
</event>
<event>
 9    1  0.4412976E-036  0.1000045E+04  0.7818608E-02  0.8680995E-01
          2   -1    0    0  501    0  0.00000000000E+00  0.00000000000E+00  0.92098848342E+03  0.92098848342E+03  0.00000000000E+00 0.  1.
         -2   -1    0    0    0  501 -0.00000000000E+00 -0.00000000000E+00 -0.27147204038E+03  0.27147204038E+03  0.00000000000E+00 0.  1.
         36    2    1    2    0    0  0.14210854715E-13 -0.14210854715E-13  0.64951644304E+03  0.11924605238E+04  0.10000452445E+04 0.  0.
         25    2    3    3    0    0  0.12543868733E+03 -0.15422470268E+02  0.19561500356E+03  0.26419135817E+03  0.12473623069E+03 0.  0.
         35    2    3    3    0    0 -0.12543868733E+03  0.15422470268E+02  0.45390143948E+03  0.92826916563E+03  0.79980273206E+03 0.  0.
         22    1    5    5    0    0  0.21716405831E+03 -0.18661646466E+03 -0.45404754631E+02  0.28990951149E+03  0.00000000000E+00 0. -1.
         22    1    5    5    0    0 -0.34260274565E+03  0.20203893493E+03  0.49930619411E+03  0.63835965414E+03  0.00000000000E+00 0. -1.
          5    1    4    4  502    0  0.13517648838E+03 -0.46989603507E+02  0.16904166494E+03  0.22153528012E+03  0.47000000000E+01 0. -1.
         -5    1    4    4    0  502 -0.97378010495E+01  0.31567133239E+02  0.26573338615E+02  0.42656078059E+02  0.47000000000E+01 0. -1.
<mgrwt>
<rscale>  0 0.10000452E+04</rscale>
<asrwt>0</asrwt>
<pdfrwt beam="1">  1        2 0.14169053E+00 0.10000452E+04</pdfrwt>
<pdfrwt beam="2">  1       -2 0.41764930E-01 0.10000452E+04</pdfrwt>
<totfact> 0.18649958E+02</totfact>
</mgrwt>
</event>
<event>
 9    1  0.4412976E-036  0.9979199E+03  0.7818608E-02  0.8683021E-01
         -2   -1    0    0    0  501 -0.00000000000E+00  0.00000000000E+00  0.11417063527E+04  0.11417063527E+04  0.00000000000E+00 0.  1.
          2   -1    0    0  501    0  0.00000000000E+00 -0.00000000000E+00 -0.21806045935E+03  0.21806045935E+03  0.00000000000E+00 0.  1.
         36    2    1    2    0    0 -0.28421709430E-13  0.00000000000E+00  0.92364589336E+03  0.13597668121E+04  0.99791985993E+03 0.  0.
         25    2    3    3    0    0  0.45267532881E+02  0.27462010985E+02  0.49658258031E+01  0.13886141137E+03  0.12827517515E+03 0.  0.
         35    2    3    3    0    0 -0.45267532881E+02 -0.27462010985E+02  0.91868006756E+03  0.12209054007E+04  0.80239243474E+03 0.  0.
         22    1    5    5    0    0  0.22086367815E+03 -0.21796262275E+03  0.79740684580E+02  0.32038577687E+03  0.00000000000E+00 0. -1.
         22    1    5    5    0    0 -0.26613121103E+03  0.19050061177E+03  0.83893938298E+03  0.90051962382E+03  0.00000000000E+00 0. -1.
          5    1    4    4  502    0  0.53308363365E+02  0.67011579188E+02  0.30329625191E+02  0.90963231661E+02  0.47000000000E+01 0. -1.
         -5    1    4    4    0  502 -0.80408304841E+01 -0.39549568203E+02 -0.25363799388E+02  0.47898179707E+02  0.47000000000E+01 0. -1.
<mgrwt>
<rscale>  0 0.99791986E+03</rscale>
<asrwt>0</asrwt>
<pdfrwt beam="1">  1        2 0.33547764E-01 0.99791986E+03</pdfrwt>
<pdfrwt beam="2">  1       -2 0.17564713E+00 0.99791986E+03</pdfrwt>
<totfact> 0.33792820E+01</totfact>
</mgrwt>
</event>
<event>
 9    1  0.4412976E-036  0.1000767E+04  0.7818608E-02  0.8680308E-01
          2   -1    0    0  501    0  0.00000000000E+00  0.00000000000E+00  0.88964051469E+03  0.88964051469E+03  0.00000000000E+00 0. -1.
         -2   -1    0    0    0  501 -0.00000000000E+00 -0.00000000000E+00 -0.28144368288E+03  0.28144368288E+03  0.00000000000E+00 0. -1.
         36    2    1    2    0    0  0.28421709430E-13  0.71054273576E-14  0.60819683181E+03  0.11710841976E+04  0.10007671116E+04 0.  0.
         25    2    3    3    0    0 -0.10057413575E+03  0.24381140277E+02  0.22737487233E+03  0.27950591160E+03  0.12535798844E+03 0.  0.
         35    2    3    3    0    0  0.10057413575E+03 -0.24381140277E+02  0.38082195947E+03  0.89157828598E+03  0.79948538350E+03 0.  0.
         22    1    5    5    0    0  0.40761092931E+03  0.17114687742E+03  0.20332942597E+03  0.48660125237E+03  0.00000000000E+00 0. -1.
         22    1    5    5    0    0 -0.30703679356E+03 -0.19552801769E+03  0.17749253350E+03  0.40497703361E+03  0.00000000000E+00 0. -1.
          5    1    4    4  502    0 -0.62102263040E+02 -0.36438511165E+02  0.17809646980E+03  0.19215852499E+03  0.47000000000E+01 0.  1.
         -5    1    4    4    0  502 -0.38471872711E+02  0.60819651442E+02  0.49278402537E+02  0.87347386612E+02  0.47000000000E+01 0.  1.
<mgrwt>
<rscale>  0 0.10007671E+04</rscale>
<asrwt>0</asrwt>
<pdfrwt beam="1">  1        2 0.13686777E+00 0.10007671E+04</pdfrwt>
<pdfrwt beam="2">  1       -2 0.43299029E-01 0.10007671E+04</pdfrwt>
<totfact> 0.18235867E+02</totfact>
</mgrwt>
</event>
<event>
 9    1  0.4412976E-036  0.1001700E+04  0.7818608E-02  0.8679421E-01
         -2   -1    0    0    0  501 -0.00000000000E+00  0.00000000000E+00  0.18434065328E+03  0.18434065328E+03  0.00000000000E+00 0.  1.
          2   -1    0    0  501    0  0.00000000000E+00 -0.00000000000E+00 -0.13608000741E+04  0.13608000741E+04  0.00000000000E+00 0.  1.
         36    2    1    2    0    0 -0.28421709430E-13 -0.71054273576E-14 -0.11764594208E+04  0.15451407274E+04  0.10017001041E+04 0.  0.
         25    2    3    3    0    0  0.60128944123E+02  0.11459282863E+02 -0.41991034421E+03  0.44230915714E+03  0.12476332888E+03 0.  0.
         35    2    3    3    0    0 -0.60128944123E+02 -0.11459282863E+02 -0.75654907660E+03  0.11028315702E+04  0.80007759743E+03 0.  0.
         22    1    5    5    0    0 -0.39309862013E+03 -0.53842661080E+02 -0.62914960133E+03  0.74381098281E+03  0.00000000000E+00 0. -1.
         22    1    5    5    0    0  0.33296967601E+03  0.42383378217E+02 -0.12739947527E+03  0.35902058742E+03  0.00000000000E+00 0. -1.
          5    1    4    4  502    0  0.81062158707E+02  0.22235387317E+02 -0.15563791221E+03  0.17694839853E+03  0.47000000000E+01 0. -1.
         -5    1    4    4    0  502 -0.20933214584E+02 -0.10776104454E+02 -0.26427243199E+03  0.26536075861E+03  0.47000000000E+01 0. -1.
<mgrwt>
<rscale>  0 0.10017001E+04</rscale>
<asrwt>0</asrwt>
<pdfrwt beam="1">  1        2 0.20935385E+00 0.10017001E+04</pdfrwt>
<pdfrwt beam="2">  1       -2 0.28360101E-01 0.10017001E+04</pdfrwt>
<totfact> 0.20815963E+02</totfact>
</mgrwt>
</event>
<event>
 9    1  0.4412976E-036  0.1002222E+04  0.7818608E-02  0.8678925E-01
          3   -1    0    0  501    0  0.00000000000E+00  0.00000000000E+00  0.56279110923E+03  0.56279110923E+03  0.00000000000E+00 0.  1.
         -3   -1    0    0    0  501 -0.00000000000E+00 -0.00000000000E+00 -0.44619067679E+03  0.44619067679E+03  0.00000000000E+00 0.  1.
         36    2    1    2    0    0  0.00000000000E+00  0.00000000000E+00  0.11660043244E+03  0.10089817860E+04  0.10022218236E+04 0.  0.
         25    2    3    3    0    0  0.39755470219E+02  0.10686194299E+03 -0.65803868655E+02  0.18147512704E+03  0.12491237061E+03 0.  0.
         35    2    3    3    0    0 -0.39755470219E+02 -0.10686194299E+03  0.18240430110E+03  0.82750665898E+03  0.79905942791E+03 0.  0.
         22    1    5    5    0    0  0.18091610889E+03  0.36251693747E+02 -0.25641526759E+03  0.31590127130E+03  0.00000000000E+00 0. -1.
         22    1    5    5    0    0 -0.22067157910E+03 -0.14311363674E+03  0.43881956869E+03  0.51160538769E+03  0.00000000000E+00 0. -1.
          5    1    4    4  502    0  0.65525597569E+02  0.17861228248E+02 -0.56058914098E+02  0.88189110786E+02  0.47000000000E+01 0. -1.
         -5    1    4    4    0  502 -0.25770127350E+02  0.89000714744E+02 -0.97449545571E+01  0.93286016251E+02  0.47000000000E+01 0. -1.
<mgrwt>
<rscale>  0 0.10022218E+04</rscale>
<asrwt>0</asrwt>
<pdfrwt beam="1">  1        3 0.86583247E-01 0.10022218E+04</pdfrwt>
<pdfrwt beam="2">  1       -3 0.68644720E-01 0.10022218E+04</pdfrwt>
<totfact> 0.10049678E+01</totfact>
</mgrwt>
</event>
<event>
 9    1  0.4412976E-036  0.9999479E+03  0.7818608E-02  0.8681088E-01
         -2   -1    0    0    0  501 -0.00000000000E+00  0.00000000000E+00  0.73337014557E+02  0.73337014557E+02  0.00000000000E+00 0. -1.
          2   -1    0    0  501    0  0.00000000000E+00 -0.00000000000E+00 -0.34085646476E+04  0.34085646476E+04  0.00000000000E+00 0. -1.
         36    2    1    2    0    0 -0.35527136788E-13 -0.28421709430E-13 -0.33352276330E+04  0.34819016621E+04  0.99994790900E+03 0.  0.
         25    2    3    3    0    0 -0.27944849173E+02  0.13622069722E+03 -0.67082471828E+03  0.69654229817E+03  0.12581088003E+03 0.  0.
         35    2    3    3    0    0  0.27944849173E+02 -0.13622069722E+03 -0.26644029147E+04  0.27853593640E+04  0.79990430767E+03 0.  0.
         22    1    5    5    0    0  0.33065393076E+03 -0.26778055473E+03 -0.19841826005E+04  0.20292902798E+04  0.00000000000E+00 0.  1.
         22    1    5    5    0    0 -0.30270908159E+03  0.13155985751E+03 -0.68022031423E+03  0.75606908420E+03  0.00000000000E+00 0.  1.
          5    1    4    4  502    0 -0.27250796307E+02  0.13407879647E+03 -0.67568613819E+03  0.68941538778E+03  0.47000000000E+01 0.  1.
         -5    1    4    4    0  502 -0.69405286595E+00  0.21419007445E+01  0.48614199084E+01  0.71269103899E+01  0.47000000000E+01 0.  1.
<mgrwt>
<rscale>  0 0.99994791E+03</rscale>
<asrwt>0</asrwt>
<pdfrwt beam="1">  1        2 0.52439457E+00 0.99994791E+03</pdfrwt>
<pdfrwt beam="2">  1       -2 0.11282618E-01 0.99994791E+03</pdfrwt>
<totfact> 0.55473748E+01</totfact>
</mgrwt>
</event>
<event>
 9    1  0.4412976E-036  0.1000496E+04  0.7818608E-02  0.8680566E-01
         -1   -1    0    0    0  501 -0.00000000000E+00  0.00000000000E+00  0.18859385299E+03  0.18859385299E+03  0.00000000000E+00 0. -1.
          1   -1    0    0  501    0  0.00000000000E+00 -0.00000000000E+00 -0.13269145874E+04  0.13269145874E+04  0.00000000000E+00 0. -1.
         36    2    1    2    0    0 -0.56843418861E-13  0.00000000000E+00 -0.11383207344E+04  0.15155084404E+04  0.10004957464E+04 0.  0.
         25    2    3    3    0    0  0.58198333373E+02  0.16292997841E+02 -0.40718687057E+03  0.43004663633E+03  0.12444458233E+03 0.  0.
         35    2    3    3    0    0 -0.58198333373E+02 -0.16292997841E+02 -0.73113386380E+03  0.10854618040E+04  0.80001130829E+03 0.  0.
         22    1    5    5    0    0  0.29720310011E+03  0.26365283732E+02 -0.32077688659E+02  0.30008963497E+03  0.00000000000E+00 0. -1.
         22    1    5    5    0    0 -0.35540143349E+03 -0.42658281573E+02 -0.69905617514E+03  0.78537216905E+03  0.00000000000E+00 0. -1.
          5    1    4    4  502    0  0.95227647158E+02  0.75415291548E+01 -0.23649630838E+03  0.25510345611E+03  0.47000000000E+01 0. -1.
         -5    1    4    4    0  502 -0.37029313784E+02  0.87514686860E+01 -0.17069056220E+03  0.17494318022E+03  0.47000000000E+01 0. -1.
<mgrwt>
<rscale>  0 0.10004957E+04</rscale>
<asrwt>0</asrwt>
<pdfrwt beam="1">  1        1 0.20414071E+00 0.10004957E+04</pdfrwt>
<pdfrwt beam="2">  1       -1 0.29014439E-01 0.10004957E+04</pdfrwt>
<totfact> 0.10229022E+02</totfact>
</mgrwt>
</event>
<event>
 9    1  0.4412976E-036  0.9998003E+03  0.7818608E-02  0.8681228E-01
         -2   -1    0    0    0  501 -0.00000000000E+00  0.00000000000E+00  0.11881231058E+04  0.11881231058E+04  0.00000000000E+00 0.  1.
          2   -1    0    0  501    0  0.00000000000E+00 -0.00000000000E+00 -0.21033187616E+03  0.21033187616E+03  0.00000000000E+00 0.  1.
         36    2    1    2    0    0  0.00000000000E+00  0.28421709430E-13  0.97779122966E+03  0.13984549820E+04  0.99980030396E+03 0.  0.
         25    2    3    3    0    0  0.11835673119E+02 -0.12858383414E+03  0.25303410590E+03  0.31082361957E+03  0.12613951868E+03 0.  0.
         35    2    3    3    0    0 -0.11835673119E+02  0.12858383414E+03  0.72475712376E+03  0.10876313624E+04  0.80062176243E+03 0.  0.
         22    1    5    5    0    0  0.10687922471E+03  0.40342178310E+03  0.66070456445E+03  0.78147477582E+03  0.00000000000E+00 0.  1.
         22    1    5    5    0    0 -0.11871489783E+03 -0.27483794896E+03  0.64052559314E+02  0.30615658659E+03  0.00000000000E+00 0.  1.
          5    1    4    4  502    0  0.28268595102E+02 -0.14101759576E+03  0.25134154005E+03  0.28961998469E+03  0.47000000000E+01 0.  1.
         -5    1    4    4    0  502 -0.16432921983E+02  0.12433761613E+02  0.16925658547E+01  0.21203634875E+02  0.47000000000E+01 0.  1.
<mgrwt>
<rscale>  0 0.99980030E+03</rscale>
<asrwt>0</asrwt>
<pdfrwt beam="1">  1        2 0.32358751E-01 0.99980030E+03</pdfrwt>
<pdfrwt beam="2">  1       -2 0.18278817E+00 0.99980030E+03</pdfrwt>
<totfact> 0.31235955E+01</totfact>
</mgrwt>
</event>
<event>
 9    1  0.4412976E-036  0.1006610E+04  0.7818608E-02  0.8674769E-01
         -1   -1    0    0    0  501 -0.00000000000E+00  0.00000000000E+00  0.49352011566E+03  0.49352011566E+03  0.00000000000E+00 0. -1.
          1   -1    0    0  501    0  0.00000000000E+00 -0.00000000000E+00 -0.51328380018E+03  0.51328380018E+03  0.00000000000E+00 0. -1.
         36    2    1    2    0    0  0.28421709430E-13  0.21316282073E-13 -0.19763684522E+02  0.10068039158E+04  0.10066099154E+04 0.  0.
         25    2    3    3    0    0 -0.11134419614E+03 -0.56046091633E+01  0.92960942826E+02  0.19171907311E+03  0.12524186379E+03 0.  0.
         35    2    3    3    0    0  0.11134419614E+03  0.56046091633E+01 -0.11272462735E+03  0.81508484274E+03  0.79951705272E+03 0.  0.
         22    1    5    5    0    0 -0.29532000285E+03  0.19949386517E+03 -0.61621570347E+02  0.36167516400E+03  0.00000000000E+00 0.  1.
         22    1    5    5    0    0  0.40666419899E+03 -0.19388925601E+03 -0.51103057001E+02  0.45340967873E+03  0.00000000000E+00 0.  1.
          5    1    4    4  502    0 -0.93049308603E+02 -0.37441070263E+02  0.10040082051E+02  0.10091036033E+03  0.47000000000E+01 0. -1.
         -5    1    4    4    0  502 -0.18294887540E+02  0.31836461100E+02  0.82920860776E+02  0.90808712783E+02  0.47000000000E+01 0. -1.
<mgrwt>
<rscale>  0 0.10066099E+04</rscale>
<asrwt>0</asrwt>
<pdfrwt beam="1">  1        1 0.78966738E-01 0.10066099E+04</pdfrwt>
<pdfrwt beam="2">  1       -1 0.75926172E-01 0.10066099E+04</pdfrwt>
<totfact> 0.87758661E+01</totfact>
</mgrwt>
</event>
<event>
 9    1  0.4412976E-036  0.9998411E+03  0.7818608E-02  0.8681189E-01
         -2   -1    0    0    0  501 -0.00000000000E+00  0.00000000000E+00  0.57697718106E+03  0.57697718106E+03  0.00000000000E+00 0.  1.
          2   -1    0    0  501    0  0.00000000000E+00 -0.00000000000E+00 -0.43315504410E+03  0.43315504410E+03  0.00000000000E+00 0.  1.
         36    2    1    2    0    0 -0.14210854715E-13  0.00000000000E+00  0.14382213696E+03  0.10101322252E+04  0.99984114000E+03 0.  0.
         25    2    3    3    0    0  0.72631934798E+02  0.11971967941E+03  0.31365264815E+02  0.19073030545E+03  0.12564262808E+03 0.  0.
         35    2    3    3    0    0 -0.72631934798E+02 -0.11971967941E+03  0.11245687214E+03  0.81940191971E+03  0.79947780354E+03 0.  0.
         22    1    5    5    0    0 -0.29241683585E+03 -0.10689651211E+03 -0.24731257881E+03  0.39761536920E+03  0.00000000000E+00 0.  1.
         22    1    5    5    0    0  0.21978490105E+03 -0.12823167295E+02  0.35976945095E+03  0.42178655051E+03  0.00000000000E+00 0.  1.
          5    1    4    4  502    0  0.73203535115E+02  0.14082235095E+03  0.81342057233E+01  0.15899040029E+03  0.47000000000E+01 0.  1.
         -5    1    4    4    0  502 -0.57160031722E+00 -0.21102671545E+02  0.23231059092E+02  0.31739905164E+02  0.47000000000E+01 0.  1.
<mgrwt>
<rscale>  0 0.99984114E+03</rscale>
<asrwt>0</asrwt>
<pdfrwt beam="1">  1        2 0.66639238E-01 0.99984114E+03</pdfrwt>
<pdfrwt beam="2">  1       -2 0.88765720E-01 0.99984114E+03</pdfrwt>
<totfact> 0.94799043E+01</totfact>
</mgrwt>
</event>
<event>
 9    1  0.4412976E-036  0.9995879E+03  0.7818608E-02  0.8681430E-01
         -2   -1    0    0    0  501 -0.00000000000E+00  0.00000000000E+00  0.19582632838E+03  0.19582632838E+03  0.00000000000E+00 0. -1.
          2   -1    0    0  501    0  0.00000000000E+00 -0.00000000000E+00 -0.12755894584E+04  0.12755894584E+04  0.00000000000E+00 0. -1.
         36    2    1    2    0    0 -0.14210854715E-13 -0.28421709430E-13 -0.10797631300E+04  0.14714157868E+04  0.99958791541E+03 0.  0.
         25    2    3    3    0    0  0.36592307338E+02  0.70364083893E+02 -0.37473241015E+03  0.40294445407E+03  0.12509897117E+03 0.  0.
         35    2    3    3    0    0 -0.36592307338E+02 -0.70364083893E+02 -0.70503071984E+03  0.10684713327E+04  0.79891962775E+03 0.  0.
         22    1    5    5    0    0  0.80502479439E+02  0.27784193083E+03 -0.63040030176E+03  0.69360026541E+03  0.00000000000E+00 0. -1.
         22    1    5    5    0    0 -0.11709478678E+03 -0.34820601472E+03 -0.74630418081E+02  0.37487106728E+03  0.00000000000E+00 0. -1.
          5    1    4    4  502    0  0.82786084000E+02  0.36551308613E+02 -0.23508441898E+03  0.25194504939E+03  0.47000000000E+01 0.  1.
         -5    1    4    4    0  502 -0.46193776663E+02  0.33812775281E+02 -0.13964799118E+03  0.15099940468E+03  0.47000000000E+01 0.  1.
<mgrwt>
<rscale>  0 0.99958792E+03</rscale>
<asrwt>0</asrwt>
<pdfrwt beam="1">  1        2 0.19624453E+00 0.99958792E+03</pdfrwt>
<pdfrwt beam="2">  1       -2 0.30127128E-01 0.99958792E+03</pdfrwt>
<totfact> 0.20893901E+02</totfact>
</mgrwt>
</event>
<event>
 9    1  0.4412976E-036  0.1000668E+04  0.7818608E-02  0.8680402E-01
          2   -1    0    0  501    0  0.00000000000E+00  0.00000000000E+00  0.20630414365E+04  0.20630414365E+04  0.00000000000E+00 0.  1.
         -2   -1    0    0    0  501 -0.00000000000E+00 -0.00000000000E+00 -0.12134235014E+03  0.12134235014E+03  0.00000000000E+00 0.  1.
         36    2    1    2    0    0 -0.14210854715E-13  0.28421709430E-13  0.19416990864E+04  0.21843837867E+04  0.10006683693E+04 0.  0.
         25    2    3    3    0    0  0.75129254877E+02 -0.99939828903E+02  0.21887829241E+03  0.28111419598E+03  0.12443918175E+03 0.  0.
         35    2    3    3    0    0 -0.75129254877E+02  0.99939828903E+02  0.17228207940E+04  0.19032695907E+04  0.79918162660E+03 0.  0.
         22    1    5    5    0    0 -0.34225868729E+03 -0.20848255790E+03  0.87028855481E+03  0.95812742087E+03  0.00000000000E+00 0.  1.
         22    1    5    5    0    0  0.26712943241E+03  0.30842238681E+03  0.85253223919E+03  0.94514216983E+03  0.00000000000E+00 0.  1.
          5    1    4    4  502    0  0.25045592590E+01 -0.73945642625E+02  0.17986576235E+03  0.19454565877E+03  0.47000000000E+01 0.  1.
         -5    1    4    4    0  502  0.72624695618E+02 -0.25994186278E+02  0.39012530062E+02  0.86568537216E+02  0.47000000000E+01 0.  1.
<mgrwt>
<rscale>  0 0.10006684E+04</rscale>
<asrwt>0</asrwt>
<pdfrwt beam="1">  1        2 0.31739096E+00 0.10006684E+04</pdfrwt>
<pdfrwt beam="2">  1       -2 0.18668055E-01 0.10006684E+04</pdfrwt>
<totfact> 0.17375168E+02</totfact>
</mgrwt>
</event>
<event>
 9    1  0.4412976E-036  0.1002033E+04  0.7818608E-02  0.8679104E-01
          1   -1    0    0  501    0  0.00000000000E+00  0.00000000000E+00  0.13560283645E+04  0.13560283645E+04  0.00000000000E+00 0.  1.
         -1   -1    0    0    0  501 -0.00000000000E+00 -0.00000000000E+00 -0.18511248538E+03  0.18511248538E+03  0.00000000000E+00 0.  1.
         36    2    1    2    0    0  0.53290705182E-14  0.00000000000E+00  0.11709158792E+04  0.15411408499E+04  0.10020334940E+04 0.  0.
         25    2    3    3    0    0  0.10568042757E+02  0.11574752712E+03  0.95519794642E+02  0.19579453710E+03  0.12530880268E+03 0.  0.
         35    2    3    3    0    0 -0.10568042757E+02 -0.11574752712E+03  0.10753960845E+04  0.13453463128E+04  0.79998174306E+03 0.  0.
         22    1    5    5    0    0  0.34003442184E+02  0.31258735830E+03  0.72468266252E+03  0.78995699377E+03  0.00000000000E+00 0.  1.
         22    1    5    5    0    0 -0.44571484941E+02 -0.42833488542E+03  0.35071342200E+03  0.55538931904E+03  0.00000000000E+00 0.  1.
          5    1    4    4  502    0  0.26369335600E+02  0.11941534632E+03  0.27134182583E+02  0.12535438030E+03  0.47000000000E+01 0. -1.
         -5    1    4    4    0  502 -0.15801292843E+02 -0.36678192020E+01  0.68385612059E+02  0.70440156799E+02  0.47000000000E+01 0. -1.
<mgrwt>
<rscale>  0 0.10020335E+04</rscale>
<asrwt>0</asrwt>
<pdfrwt beam="1">  1        1 0.20861974E+00 0.10020335E+04</pdfrwt>
<pdfrwt beam="2">  1       -1 0.28478845E-01 0.10020335E+04</pdfrwt>
<totfact> 0.10056311E+02</totfact>
</mgrwt>
</event>
<event>
 9    1  0.4412976E-036  0.9989507E+03  0.7818608E-02  0.8682038E-01
         -2   -1    0    0    0  501 -0.00000000000E+00  0.00000000000E+00  0.77361941940E+02  0.77361941940E+02  0.00000000000E+00 0. -1.
          2   -1    0    0  501    0  0.00000000000E+00 -0.00000000000E+00 -0.32247847706E+04  0.32247847706E+04  0.00000000000E+00 0. -1.
         36    2    1    2    0    0  0.14210854715E-13  0.00000000000E+00 -0.31474228287E+04  0.33021467125E+04  0.99895067384E+03 0.  0.
         25    2    3    3    0    0 -0.65610115859E+01 -0.11270934102E+03 -0.31664171267E+03  0.35919912310E+03  0.12655272978E+03 0.  0.
         35    2    3    3    0    0  0.65610115859E+01  0.11270934102E+03 -0.28307811160E+04  0.29429475894E+04  0.79678877067E+03 0.  0.
         22    1    5    5    0    0 -0.26763370525E+03 -0.13002375322E+03 -0.48679982046E+03  0.57053312068E+03  0.00000000000E+00 0. -1.
         22    1    5    5    0    0  0.27419471683E+03  0.24273309423E+03 -0.23439812955E+04  0.23724144688E+04  0.00000000000E+00 0. -1.
          5    1    4    4  502    0  0.79234164508E+01 -0.12822970654E+03 -0.31131100438E+03  0.33681192024E+03  0.47000000000E+01 0.  1.
         -5    1    4    4    0  502 -0.14484428037E+02  0.15520365518E+02 -0.53307082853E+01  0.22387202866E+02  0.47000000000E+01 0.  1.
<mgrwt>
<rscale>  0 0.99895067E+03</rscale>
<asrwt>0</asrwt>
<pdfrwt beam="1">  1        2 0.49612076E+00 0.99895067E+03</pdfrwt>
<pdfrwt beam="2">  1       -2 0.11901837E-01 0.99895067E+03</pdfrwt>
<totfact> 0.68925169E+01</totfact>
</mgrwt>
</event>
<event>
 9    1  0.4412976E-036  0.9990770E+03  0.7818608E-02  0.8681917E-01
          2   -1    0    0  501    0  0.00000000000E+00  0.00000000000E+00  0.60800060280E+03  0.60800060280E+03  0.00000000000E+00 0.  1.
         -2   -1    0    0    0  501 -0.00000000000E+00 -0.00000000000E+00 -0.41042509053E+03  0.41042509053E+03  0.00000000000E+00 0.  1.
         36    2    1    2    0    0  0.00000000000E+00 -0.21316282073E-13  0.19757551227E+03  0.10184256933E+04  0.99907697891E+03 0.  0.
         25    2    3    3    0    0  0.66650626217E+02  0.72454038222E+01 -0.87185616067E+02  0.16634924234E+03  0.12480359341E+03 0.  0.
         35    2    3    3    0    0 -0.66650626217E+02 -0.72454038222E+01  0.28476112834E+03  0.85207645099E+03  0.80028156062E+03 0.  0.
         22    1    5    5    0    0 -0.21553100710E+03  0.30714517411E+03  0.33201073385E+03  0.50102185620E+03  0.00000000000E+00 0.  1.
         22    1    5    5    0    0  0.14888038088E+03 -0.31439057793E+03 -0.47249605506E+02  0.35105459479E+03  0.00000000000E+00 0.  1.
          5    1    4    4  502    0 -0.23381615961E+01 -0.43352562940E+02 -0.64185365358E+02  0.77632228097E+02  0.47000000000E+01 0.  1.
         -5    1    4    4    0  502  0.68988787813E+02  0.50597966762E+02 -0.23000250709E+02  0.88717014248E+02  0.47000000000E+01 0.  1.
<mgrwt>
<rscale>  0 0.99907698E+03</rscale>
<asrwt>0</asrwt>
<pdfrwt beam="1">  1        2 0.93538554E-01 0.99907698E+03</pdfrwt>
<pdfrwt beam="2">  1       -2 0.63142322E-01 0.99907698E+03</pdfrwt>
<totfact> 0.13719041E+02</totfact>
</mgrwt>
</event>
<event>
 9    1  0.4412976E-036  0.9996282E+03  0.7818608E-02  0.8681392E-01
          1   -1    0    0  501    0  0.00000000000E+00  0.00000000000E+00  0.38607865195E+03  0.38607865195E+03  0.00000000000E+00 0. -1.
         -1   -1    0    0    0  501 -0.00000000000E+00 -0.00000000000E+00 -0.64705496865E+03  0.64705496865E+03  0.00000000000E+00 0. -1.
         36    2    1    2    0    0 -0.14210854715E-13  0.49737991503E-13 -0.26097631670E+03  0.10331336206E+04  0.99962815093E+03 0.  0.
         25    2    3    3    0    0 -0.79026443367E+02 -0.15950574625E+02  0.69087947573E+02  0.16336704482E+03  0.12416137584E+03 0.  0.
         35    2    3    3    0    0  0.79026443367E+02  0.15950574625E+02 -0.33006426427E+03  0.86976657577E+03  0.80065715397E+03 0.  0.
         22    1    5    5    0    0  0.22669009233E+03 -0.30168949018E+03 -0.35565037910E+03  0.51854810635E+03  0.00000000000E+00 0. -1.
         22    1    5    5    0    0 -0.14766364896E+03  0.31764006480E+03  0.25586114831E+02  0.35121846942E+03  0.00000000000E+00 0. -1.
          5    1    4    4  502    0 -0.28199992265E+02  0.38046359719E+02 -0.16180776009E+02  0.50266017983E+02  0.47000000000E+01 0.  1.
         -5    1    4    4    0  502 -0.50826451102E+02 -0.53996934344E+02  0.85268723582E+02  0.11310102684E+03  0.47000000000E+01 0.  1.
<mgrwt>
<rscale>  0 0.99962815E+03</rscale>
<asrwt>0</asrwt>
<pdfrwt beam="1">  1        1 0.59396717E-01 0.99962815E+03</pdfrwt>
<pdfrwt beam="2">  1       -1 0.99546917E-01 0.99962815E+03</pdfrwt>
<totfact> 0.72556884E+01</totfact>
</mgrwt>
</event>
<event>
 9    1  0.4412976E-036  0.1000048E+04  0.7818608E-02  0.8680992E-01
         -2   -1    0    0    0  501 -0.00000000000E+00  0.00000000000E+00  0.24166398842E+03  0.24166398842E+03  0.00000000000E+00 0. -1.
          2   -1    0    0  501    0  0.00000000000E+00 -0.00000000000E+00 -0.10345932885E+04  0.10345932885E+04  0.00000000000E+00 0. -1.
         36    2    1    2    0    0  0.28421709430E-13  0.00000000000E+00 -0.79292930005E+03  0.12762572769E+04  0.10000478798E+04 0.  0.
         25    2    3    3    0    0 -0.11674113121E+03  0.59787112510E+02 -0.21465039734E+03  0.28038552285E+03  0.12384772024E+03 0.  0.
         35    2    3    3    0    0  0.11674113121E+03 -0.59787112510E+02 -0.57827890271E+03  0.99587175405E+03  0.80009441358E+03 0.  0.
         22    1    5    5    0    0 -0.13388033953E+03  0.67796725546E+02  0.15182721297E+03  0.21347562836E+03  0.00000000000E+00 0.  1.
         22    1    5    5    0    0  0.25062147074E+03 -0.12758383806E+03 -0.73010611568E+03  0.78239612568E+03  0.00000000000E+00 0.  1.
          5    1    4    4  502    0  0.83842582675E+00 -0.31069521190E+02 -0.43732808631E+02  0.53857837457E+02  0.47000000000E+01 0.  1.
         -5    1    4    4    0  502 -0.11757955704E+03  0.90856633700E+02 -0.17091758871E+03  0.22652768539E+03  0.47000000000E+01 0.  1.
<mgrwt>
<rscale>  0 0.10000479E+04</rscale>
<asrwt>0</asrwt>
<pdfrwt beam="1">  1        2 0.15916820E+00 0.10000479E+04</pdfrwt>
<pdfrwt beam="2">  1       -2 0.37179075E-01 0.10000479E+04</pdfrwt>
<totfact> 0.19723450E+02</totfact>
</mgrwt>
</event>
<event>
 9    1  0.4412976E-036  0.1000595E+04  0.7818608E-02  0.8680471E-01
         -2   -1    0    0    0  501 -0.00000000000E+00  0.00000000000E+00  0.17845169925E+03  0.17845169925E+03  0.00000000000E+00 0.  1.
          2   -1    0    0  501    0  0.00000000000E+00 -0.00000000000E+00 -0.14026082282E+04  0.14026082282E+04  0.00000000000E+00 0.  1.
         36    2    1    2    0    0  0.00000000000E+00  0.28421709430E-13 -0.12241565290E+04  0.15810599275E+04  0.10005954661E+04 0.  0.
         25    2    3    3    0    0  0.93091179156E+02  0.88369502716E+02 -0.32092926754E+03  0.36740807322E+03  0.12457110762E+03 0.  0.
         35    2    3    3    0    0 -0.93091179156E+02 -0.88369502716E+02 -0.90322726143E+03  0.12136518543E+04  0.80041002049E+03 0.  0.
         22    1    5    5    0    0  0.29065920877E+02  0.31040630061E+03 -0.66227107608E+03  0.73198352265E+03  0.00000000000E+00 0.  1.
         22    1    5    5    0    0 -0.12215710003E+03 -0.39877580333E+03 -0.24095618535E+03  0.48166833160E+03  0.00000000000E+00 0.  1.
          5    1    4    4  502    0  0.10639763534E+03  0.83021604893E+02 -0.17670096280E+03  0.22239236484E+03  0.47000000000E+01 0. -1.
         -5    1    4    4    0  502 -0.13306456182E+02  0.53478978229E+01 -0.14422830475E+03  0.14501570838E+03  0.47000000000E+01 0. -1.
<mgrwt>
<rscale>  0 0.10005955E+04</rscale>
<asrwt>0</asrwt>
<pdfrwt beam="1">  1        2 0.21578589E+00 0.10005955E+04</pdfrwt>
<pdfrwt beam="2">  1       -2 0.27454107E-01 0.10005955E+04</pdfrwt>
<totfact> 0.20887345E+02</totfact>
</mgrwt>
</event>
<event>
 9    1  0.4412976E-036  0.9998973E+03  0.7818608E-02  0.8681136E-01
          2   -1    0    0  501    0  0.00000000000E+00  0.00000000000E+00  0.35659140767E+03  0.35659140767E+03  0.00000000000E+00 0. -1.
         -2   -1    0    0    0  501 -0.00000000000E+00 -0.00000000000E+00 -0.70093857012E+03  0.70093857012E+03  0.00000000000E+00 0. -1.
         36    2    1    2    0    0  0.00000000000E+00 -0.14210854715E-13 -0.34434716245E+03  0.10575299778E+04  0.99989733754E+03 0.  0.
         25    2    3    3    0    0 -0.37157847005E+00  0.58933169638E+02 -0.20250911235E+03  0.24256127218E+03  0.11980306183E+03 0.  0.
         35    2    3    3    0    0  0.37157847005E+00 -0.58933169638E+02 -0.14183805009E+03  0.81496870560E+03  0.80036410595E+03 0.  0.
         22    1    5    5    0    0 -0.11500514452E+03 -0.39025652922E+03  0.58386127826E+02  0.41101737407E+03  0.00000000000E+00 0. -1.
         22    1    5    5    0    0  0.11537672299E+03  0.33132335959E+03 -0.20022417792E+03  0.40395133152E+03  0.00000000000E+00 0. -1.
          5    1    4    4  502    0 -0.49077516977E+02 -0.67510076961E+01 -0.96714614356E+02  0.10876573637E+03  0.47000000000E+01 0.  1.
         -5    1    4    4    0  502  0.48705938507E+02  0.65684177334E+02 -0.10579449800E+03  0.13379553582E+03  0.47000000000E+01 0.  1.
<mgrwt>
<rscale>  0 0.99989734E+03</rscale>
<asrwt>0</asrwt>
<pdfrwt beam="1">  1        2 0.54860217E-01 0.99989734E+03</pdfrwt>
<pdfrwt beam="2">  1       -2 0.10783670E+00 0.99989734E+03</pdfrwt>
<totfact> 0.73662942E+01</totfact>
</mgrwt>
</event>
<event>
 9    1  0.4412976E-036  0.1000427E+04  0.7818608E-02  0.8680631E-01
          1   -1    0    0  501    0  0.00000000000E+00  0.00000000000E+00  0.58303149995E+03  0.58303149995E+03  0.00000000000E+00 0. -1.
         -1   -1    0    0    0  501 -0.00000000000E+00 -0.00000000000E+00 -0.42915963730E+03  0.42915963730E+03  0.00000000000E+00 0. -1.
         36    2    1    2    0    0  0.00000000000E+00  0.46185277824E-13  0.15387186265E+03  0.10121911373E+04  0.10004270829E+04 0.  0.
         25    2    3    3    0    0  0.77502735468E+02  0.10224514380E+00 -0.88373016824E+02  0.17088981724E+03  0.12404376273E+03 0.  0.
         35    2    3    3    0    0 -0.77502735468E+02 -0.10224514380E+00  0.24224487947E+03  0.84130132002E+03  0.80193431462E+03 0.  0.
         22    1    5    5    0    0 -0.13732340684E+03 -0.30089115013E+03  0.38113609650E+03  0.50463642987E+03  0.00000000000E+00 0. -1.
         22    1    5    5    0    0  0.59820671373E+02  0.30078890499E+03 -0.13889121703E+03  0.33666489014E+03  0.00000000000E+00 0. -1.
          5    1    4    4  502    0  0.33631625278E+02 -0.31785381654E+02 -0.10427277864E+03  0.11417661350E+03  0.47000000000E+01 0. -1.
         -5    1    4    4    0  502  0.43871110190E+02  0.31887626798E+02  0.15899761814E+02  0.56713203735E+02  0.47000000000E+01 0. -1.
<mgrwt>
<rscale>  0 0.10004271E+04</rscale>
<asrwt>0</asrwt>
<pdfrwt beam="1">  1        1 0.89697154E-01 0.10004271E+04</pdfrwt>
<pdfrwt beam="2">  1       -1 0.66024560E-01 0.10004271E+04</pdfrwt>
<totfact> 0.96815533E+01</totfact>
</mgrwt>
</event>
<event>
 9    1  0.4412976E-036  0.9997927E+03  0.7818608E-02  0.8681235E-01
          2   -1    0    0  501    0  0.00000000000E+00  0.00000000000E+00  0.28384886236E+04  0.28384886236E+04  0.00000000000E+00 0. -1.
         -2   -1    0    0    0  501 -0.00000000000E+00 -0.00000000000E+00 -0.88038536246E+02  0.88038536246E+02  0.00000000000E+00 0. -1.
         36    2    1    2    0    0 -0.28421709430E-13 -0.10658141036E-13  0.27504500873E+04  0.29265271598E+04  0.99979274567E+03 0.  0.
         25    2    3    3    0    0 -0.64955885668E+02  0.24775728705E+02  0.16231224036E+03  0.21734033281E+03  0.12672195185E+03 0.  0.
         35    2    3    3    0    0  0.64955885668E+02 -0.24775728705E+02  0.25881378470E+04  0.27091868270E+04  0.79774848475E+03 0.  0.
         22    1    5    5    0    0  0.28346945705E+03 -0.12913291832E+03  0.39656209089E+03  0.50427347303E+03  0.00000000000E+00 0. -1.
         22    1    5    5    0    0 -0.21851357138E+03  0.10435718962E+03  0.21915757561E+04  0.22049133540E+04  0.00000000000E+00 0. -1.
          5    1    4    4  502    0 -0.50855342434E+02  0.31465453406E+02  0.61181594124E+01  0.60298113459E+02  0.47000000000E+01 0. -1.
         -5    1    4    4    0  502 -0.14100543235E+02 -0.66897247010E+01  0.15619408095E+03  0.15704221935E+03  0.47000000000E+01 0. -1.
<mgrwt>
<rscale>  0 0.99979275E+03</rscale>
<asrwt>0</asrwt>
<pdfrwt beam="1">  1        2 0.43669049E+00 0.99979275E+03</pdfrwt>
<pdfrwt beam="2">  1       -2 0.13544392E-01 0.99979275E+03</pdfrwt>
<totfact> 0.10130361E+02</totfact>
</mgrwt>
</event>
<event>
 9    1  0.4412976E-036  0.1000362E+04  0.7818608E-02  0.8680693E-01
         -2   -1    0    0    0  501 -0.00000000000E+00  0.00000000000E+00  0.38202759983E+03  0.38202759983E+03  0.00000000000E+00 0.  1.
          2   -1    0    0  501    0  0.00000000000E+00 -0.00000000000E+00 -0.65487725723E+03  0.65487725723E+03  0.00000000000E+00 0.  1.
         36    2    1    2    0    0  0.00000000000E+00  0.00000000000E+00 -0.27284965740E+03  0.10369048571E+04  0.10003623079E+04 0.  0.
         25    2    3    3    0    0 -0.21292838977E+02  0.92366511030E+02 -0.15822322947E+03  0.22227884249E+03  0.12404973245E+03 0.  0.
         35    2    3    3    0    0  0.21292838977E+02 -0.92366511030E+02 -0.11462642793E+03  0.81462601457E+03  0.80093156280E+03 0.  0.
         22    1    5    5    0    0  0.33809496871E+03  0.17163148602E+03  0.23063494566E+02  0.37986510717E+03  0.00000000000E+00 0. -1.
         22    1    5    5    0    0 -0.31680212973E+03 -0.26399799705E+03 -0.13768992250E+03  0.43476090740E+03  0.00000000000E+00 0. -1.
          5    1    4    4  502    0  0.26256441170E+02  0.23246292286E+02  0.77739714940E+01  0.36225894616E+02  0.47000000000E+01 0. -1.
         -5    1    4    4    0  502 -0.47549280148E+02  0.69120218744E+02 -0.16599720097E+03  0.18605294787E+03  0.47000000000E+01 0. -1.
<mgrwt>
<rscale>  0 0.10003623E+04</rscale>
<asrwt>0</asrwt>
<pdfrwt beam="1">  1        2 0.10075035E+00 0.10003623E+04</pdfrwt>
<pdfrwt beam="2">  1       -2 0.58773478E-01 0.10003623E+04</pdfrwt>
<totfact> 0.14582604E+02</totfact>
</mgrwt>
</event>
<event>
 9    1  0.4412976E-036  0.9999411E+03  0.7818608E-02  0.8681094E-01
         -2   -1    0    0    0  501 -0.00000000000E+00  0.00000000000E+00  0.22777609451E+03  0.22777609451E+03  0.00000000000E+00 0. -1.
          2   -1    0    0  501    0  0.00000000000E+00 -0.00000000000E+00 -0.10974398904E+04  0.10974398904E+04  0.00000000000E+00 0. -1.
         36    2    1    2    0    0  0.71054273576E-14  0.71054273576E-14 -0.86966379592E+03  0.13252159849E+04  0.99994114267E+03 0.  0.
         25    2    3    3    0    0 -0.55392033967E+02  0.47376532454E+02 -0.32330442048E+03  0.35351757302E+03  0.12302891074E+03 0.  0.
         35    2    3    3    0    0  0.55392033967E+02 -0.47376532454E+02 -0.54635937545E+03  0.97169841192E+03  0.80023523001E+03 0.  0.
         22    1    5    5    0    0 -0.57884601514E+02 -0.17004689458E+03  0.16323834008E+03  0.24272068128E+03  0.00000000000E+00 0.  1.
         22    1    5    5    0    0  0.11327663548E+03  0.12267036212E+03 -0.70959771553E+03  0.72897773065E+03  0.00000000000E+00 0.  1.
          5    1    4    4  502    0 -0.44892566668E+02  0.44335500657E+02 -0.51847357341E+02  0.81799863226E+02  0.47000000000E+01 0.  1.
         -5    1    4    4    0  502 -0.10499467300E+02  0.30410317969E+01 -0.27145706313E+03  0.27171770979E+03  0.47000000000E+01 0.  1.
<mgrwt>
<rscale>  0 0.99994114E+03</rscale>
<asrwt>0</asrwt>
<pdfrwt beam="1">  1        2 0.16883691E+00 0.99994114E+03</pdfrwt>
<pdfrwt beam="2">  1       -2 0.35042475E-01 0.99994114E+03</pdfrwt>
<totfact> 0.20168162E+02</totfact>
</mgrwt>
</event>
<event>
 9    1  0.4412976E-036  0.1000392E+04  0.7818608E-02  0.8680665E-01
         -2   -1    0    0    0  501 -0.00000000000E+00  0.00000000000E+00  0.14642628043E+03  0.14642628043E+03  0.00000000000E+00 0.  1.
          2   -1    0    0  501    0  0.00000000000E+00 -0.00000000000E+00 -0.17086814018E+04  0.17086814018E+04  0.00000000000E+00 0.  1.
         36    2    1    2    0    0 -0.14210854715E-13 -0.71054273576E-14 -0.15622551213E+04  0.18551076822E+04  0.10003916475E+04 0.  0.
         25    2    3    3    0    0  0.57639813084E+02  0.62424964440E+02 -0.87156703561E+02  0.17485869853E+03  0.12553903471E+03 0.  0.
         35    2    3    3    0    0 -0.57639813084E+02 -0.62424964440E+02 -0.14750984178E+04  0.16802489837E+04  0.80006379794E+03 0.  0.
         22    1    5    5    0    0  0.25328463702E+03 -0.29837003579E+03 -0.53961086523E+03  0.66660158377E+03  0.00000000000E+00 0. -1.
         22    1    5    5    0    0 -0.31092445011E+03  0.23594507135E+03 -0.93548755253E+03  0.10136473999E+04  0.00000000000E+00 0. -1.
          5    1    4    4  502    0  0.66637954325E+02  0.95567682468E+02 -0.71898425878E+02  0.13698639543E+03  0.47000000000E+01 0.  1.
         -5    1    4    4    0  502 -0.89981412405E+01 -0.33142718028E+02 -0.15258277683E+02  0.37872303097E+02  0.47000000000E+01 0.  1.
<mgrwt>
<rscale>  0 0.10003916E+04</rscale>
<asrwt>0</asrwt>
<pdfrwt beam="1">  1        2 0.26287408E+00 0.10003916E+04</pdfrwt>
<pdfrwt beam="2">  1       -2 0.22527119E-01 0.10003916E+04</pdfrwt>
<totfact> 0.19913759E+02</totfact>
</mgrwt>
</event>
<event>
 9    1  0.4412976E-036  0.1000372E+04  0.7818608E-02  0.8680684E-01
          1   -1    0    0  501    0  0.00000000000E+00  0.00000000000E+00  0.11673080628E+04  0.11673080628E+04  0.00000000000E+00 0.  1.
         -1   -1    0    0    0  501 -0.00000000000E+00 -0.00000000000E+00 -0.21432724421E+03  0.21432724421E+03  0.00000000000E+00 0.  1.
         36    2    1    2    0    0  0.00000000000E+00  0.14210854715E-13  0.95298081861E+03  0.13816353070E+04  0.10003717714E+04 0.  0.
         25    2    3    3    0    0  0.10096670117E+03  0.83966181391E+02  0.25410259019E+03  0.31162149082E+03  0.12367389714E+03 0.  0.
         35    2    3    3    0    0 -0.10096670117E+03 -0.83966181391E+02  0.69887822842E+03  0.10700138162E+04  0.79953373561E+03 0.  0.
         22    1    5    5    0    0 -0.17901074236E+03 -0.36299756281E+03  0.11914596660E+03  0.42190975083E+03  0.00000000000E+00 0.  1.
         22    1    5    5    0    0  0.78044041191E+02  0.27903138142E+03  0.57973226182E+03  0.64810406539E+03  0.00000000000E+00 0.  1.
          5    1    4    4  502    0  0.58891198672E+01 -0.24483409808E+02  0.87701155515E+02  0.91365758177E+02  0.47000000000E+01 0. -1.
         -5    1    4    4    0  502  0.95077581305E+02  0.10844959120E+03  0.16640143467E+03  0.22025573264E+03  0.47000000000E+01 0. -1.
<mgrwt>
<rscale>  0 0.10003718E+04</rscale>
<asrwt>0</asrwt>
<pdfrwt beam="1">  1        1 0.17958585E+00 0.10003718E+04</pdfrwt>
<pdfrwt beam="2">  1       -1 0.32973423E-01 0.10003718E+04</pdfrwt>
<totfact> 0.10774780E+02</totfact>
</mgrwt>
</event>
<event>
 9    1  0.4412976E-036  0.1001847E+04  0.7818608E-02  0.8679281E-01
         -2   -1    0    0    0  501 -0.00000000000E+00  0.00000000000E+00  0.77256800083E+03  0.77256800083E+03  0.00000000000E+00 0.  1.
          2   -1    0    0  501    0  0.00000000000E+00 -0.00000000000E+00 -0.32479267754E+03  0.32479267754E+03  0.00000000000E+00 0.  1.
         36    2    1    2    0    0  0.28421709430E-13  0.14210854715E-13  0.44777532329E+03  0.10973606784E+04  0.10018471532E+04 0.  0.
         25    2    3    3    0    0  0.52592625055E+02 -0.12599846155E+03  0.14395151499E+03  0.23446753198E+03  0.12494554159E+03 0.  0.
         35    2    3    3    0    0 -0.52592625055E+02  0.12599846155E+03  0.30382380829E+03  0.86289314638E+03  0.79601135611E+03 0.  0.
         22    1    5    5    0    0  0.32706907948E+03  0.21537266405E+03  0.43637428416E+02  0.39403526788E+03  0.00000000000E+00 0.  1.
         22    1    5    5    0    0 -0.37966170453E+03 -0.89374202499E+02  0.26018637988E+03  0.46885787850E+03  0.00000000000E+00 0.  1.
          5    1    4    4  502    0 -0.11375626390E+02 -0.11103698241E+03  0.57089298752E+02  0.12545873573E+03  0.47000000000E+01 0.  1.
         -5    1    4    4    0  502  0.63968251445E+02 -0.14961479142E+02  0.86862216241E+02  0.10900879626E+03  0.47000000000E+01 0.  1.
<mgrwt>
<rscale>  0 0.10018472E+04</rscale>
<asrwt>0</asrwt>
<pdfrwt beam="1">  1        2 0.49968104E-01 0.10018472E+04</pdfrwt>
<pdfrwt beam="2">  1       -2 0.11885661E+00 0.10018472E+04</pdfrwt>
<totfact> 0.63772866E+01</totfact>
</mgrwt>
</event>
<event>
 9    1  0.4412976E-036  0.9998753E+03  0.7818608E-02  0.8681157E-01
          2   -1    0    0  501    0  0.00000000000E+00  0.00000000000E+00  0.35743351047E+03  0.35743351047E+03  0.00000000000E+00 0.  1.
         -2   -1    0    0    0  501 -0.00000000000E+00 -0.00000000000E+00 -0.69925639917E+03  0.69925639917E+03  0.00000000000E+00 0.  1.
         36    2    1    2    0    0  0.28421709430E-13 -0.35527136788E-14 -0.34182288870E+03  0.10566899096E+04  0.99987533118E+03 0.  0.
         25    2    3    3    0    0 -0.13419675883E+03  0.28893237681E+02 -0.94186315502E+02  0.20779035317E+03  0.12434701274E+03 0.  0.
         35    2    3    3    0    0  0.13419675883E+03 -0.28893237681E+02 -0.24763657320E+03  0.84889955648E+03  0.80028931977E+03 0.  0.
         22    1    5    5    0    0  0.33728736512E+03 -0.22000841234E+03  0.88328601263E+02  0.41227225225E+03  0.00000000000E+00 0. -1.
         22    1    5    5    0    0 -0.20309060629E+03  0.19111517466E+03 -0.33596517446E+03  0.43662730423E+03  0.00000000000E+00 0. -1.
          5    1    4    4  502    0 -0.11610421135E+03 -0.21649585743E+01 -0.11703801070E+03  0.16493896110E+03  0.47000000000E+01 0. -1.
         -5    1    4    4    0  502 -0.18092547484E+02  0.31058196256E+02  0.22851695199E+02  0.42851392073E+02  0.47000000000E+01 0. -1.
<mgrwt>
<rscale>  0 0.99987533E+03</rscale>
<asrwt>0</asrwt>
<pdfrwt beam="1">  1        2 0.54989772E-01 0.99987533E+03</pdfrwt>
<pdfrwt beam="2">  1       -2 0.10757791E+00 0.99987533E+03</pdfrwt>
<totfact> 0.73912238E+01</totfact>
</mgrwt>
</event>
<event>
 9    1  0.4412976E-036  0.9998396E+03  0.7818608E-02  0.8681191E-01
          1   -1    0    0  501    0  0.00000000000E+00  0.00000000000E+00  0.96167501592E+03  0.96167501592E+03  0.00000000000E+00 0. -1.
         -1   -1    0    0    0  501 -0.00000000000E+00 -0.00000000000E+00 -0.25987970303E+03  0.25987970303E+03  0.00000000000E+00 0. -1.
         36    2    1    2    0    0  0.28421709430E-13  0.35527136788E-14  0.70179531289E+03  0.12215547190E+04  0.99983962224E+03 0.  0.
         25    2    3    3    0    0  0.17801444546E+02  0.12414398683E+02 -0.38376617936E+02  0.13157334144E+03  0.12396681270E+03 0.  0.
         35    2    3    3    0    0 -0.17801444546E+02 -0.12414398683E+02  0.74017193082E+03  0.10899813775E+04  0.79983367485E+03 0.  0.
         22    1    5    5    0    0 -0.38596007849E+03  0.54649584868E+02  0.21514705268E+03  0.44524152276E+03  0.00000000000E+00 0.  1.
         22    1    5    5    0    0  0.36815863394E+03 -0.67063983551E+02  0.52502487815E+03  0.64473985476E+03  0.00000000000E+00 0.  1.
          5    1    4    4  502    0  0.46069085994E+02 -0.22733993697E+02  0.21982886439E+02  0.56076130839E+02  0.47000000000E+01 0.  1.
         -5    1    4    4    0  502 -0.28267641448E+02  0.35148392380E+02 -0.60359504374E+02  0.75497210599E+02  0.47000000000E+01 0.  1.
<mgrwt>
<rscale>  0 0.99983962E+03</rscale>
<asrwt>0</asrwt>
<pdfrwt beam="1">  1        1 0.14795000E+00 0.99983962E+03</pdfrwt>
<pdfrwt beam="2">  1       -1 0.39981493E-01 0.99983962E+03</pdfrwt>
<totfact> 0.11103183E+02</totfact>
</mgrwt>
</event>
<event>
 9    1  0.4412976E-036  0.9995083E+03  0.7818608E-02  0.8681506E-01
          1   -1    0    0  501    0  0.00000000000E+00  0.00000000000E+00  0.90572586617E+03  0.90572586617E+03  0.00000000000E+00 0. -1.
         -1   -1    0    0    0  501 -0.00000000000E+00 -0.00000000000E+00 -0.27575033297E+03  0.27575033297E+03  0.00000000000E+00 0. -1.
         36    2    1    2    0    0  0.00000000000E+00 -0.28421709430E-13  0.62997553320E+03  0.11814761991E+04  0.99950829746E+03 0.  0.
         25    2    3    3    0    0 -0.88646962015E+02 -0.10010046338E+03  0.16577646724E+03  0.24710709826E+03  0.12530640157E+03 0.  0.
         35    2    3    3    0    0  0.88646962015E+02  0.10010046338E+03  0.46419906596E+03  0.93436910088E+03  0.79980401174E+03 0.  0.
         22    1    5    5    0    0  0.10538567352E+03  0.90689856744E+02 -0.21438007558E+03  0.25551831071E+03  0.00000000000E+00 0. -1.
         22    1    5    5    0    0 -0.16738711507E+02  0.94106066388E+01  0.67857914154E+03  0.67885079017E+03  0.00000000000E+00 0. -1.
          5    1    4    4  502    0 -0.63070133055E+02  0.11480407727E+02  0.86561675003E+02  0.10781769347E+03  0.47000000000E+01 0. -1.
         -5    1    4    4    0  502 -0.25576828960E+02 -0.11158087111E+03  0.79214792240E+02  0.13928940479E+03  0.47000000000E+01 0. -1.
<mgrwt>
<rscale>  0 0.99950830E+03</rscale>
<asrwt>0</asrwt>
<pdfrwt beam="1">  1        1 0.13934244E+00 0.99950830E+03</pdfrwt>
<pdfrwt beam="2">  1       -1 0.42423129E-01 0.99950830E+03</pdfrwt>
<totfact> 0.11097620E+02</totfact>
</mgrwt>
</event>
<event>
 9    1  0.4412976E-036  0.1001291E+04  0.7818608E-02  0.8679809E-01
         -2   -1    0    0    0  501 -0.00000000000E+00  0.00000000000E+00  0.21827633462E+04  0.21827633462E+04  0.00000000000E+00 0.  1.
          2   -1    0    0  501    0  0.00000000000E+00 -0.00000000000E+00 -0.11482967496E+03  0.11482967496E+03  0.00000000000E+00 0.  1.
         36    2    1    2    0    0  0.28421709430E-13  0.00000000000E+00  0.20679336713E+04  0.22975930212E+04  0.10012911776E+04 0.  0.
         25    2    3    3    0    0  0.11646080803E+03  0.55598032443E+02  0.53940143258E+03  0.56859055961E+03  0.12524798595E+03 0.  0.
         35    2    3    3    0    0 -0.11646080803E+03 -0.55598032443E+02  0.15285322387E+04  0.17290024616E+04  0.79773707854E+03 0.  0.
         22    1    5    5    0    0  0.20403682413E+03  0.45023754236E+02  0.52790871090E+02  0.21551111368E+03  0.00000000000E+00 0. -1.
         22    1    5    5    0    0 -0.32049763216E+03 -0.10062178668E+03  0.14757413676E+04  0.15134913479E+04  0.00000000000E+00 0. -1.
          5    1    4    4  502    0  0.12451105524E+02  0.49530567145E+02  0.33719119276E+03  0.34106934425E+03  0.47000000000E+01 0. -1.
         -5    1    4    4    0  502  0.10400970250E+03  0.60674652973E+01  0.20221023983E+03  0.22752121536E+03  0.47000000000E+01 0. -1.
<mgrwt>
<rscale>  0 0.10012912E+04</rscale>
<asrwt>0</asrwt>
<pdfrwt beam="1">  1        2 0.17666105E-01 0.10012912E+04</pdfrwt>
<pdfrwt beam="2">  1       -2 0.33580971E+00 0.10012912E+04</pdfrwt>
<totfact> 0.74156996E+00</totfact>
</mgrwt>
</event>
<event>
 9    1  0.4412976E-036  0.1000346E+04  0.7818608E-02  0.8680709E-01
         -1   -1    0    0    0  501 -0.00000000000E+00  0.00000000000E+00  0.17963701150E+03  0.17963701150E+03  0.00000000000E+00 0.  1.
          1   -1    0    0  501    0  0.00000000000E+00 -0.00000000000E+00 -0.13926573648E+04  0.13926573648E+04  0.00000000000E+00 0.  1.
         36    2    1    2    0    0 -0.71054273576E-14  0.00000000000E+00 -0.12130203533E+04  0.15722943763E+04  0.10003455544E+04 0.  0.
         25    2    3    3    0    0  0.12242069762E+02  0.13151725488E+03 -0.30100475903E+03  0.35177281558E+03  0.12527406842E+03 0.  0.
         35    2    3    3    0    0 -0.12242069762E+02 -0.13151725488E+03 -0.91201559428E+03  0.12205215607E+04  0.80028356186E+03 0.  0.
         22    1    5    5    0    0 -0.40095448984E+02 -0.84532134790E+02 -0.10593060101E+04  0.10634296168E+04  0.00000000000E+00 0. -1.
         22    1    5    5    0    0  0.27853379222E+02 -0.46985120091E+02  0.14729041584E+03  0.15709194391E+03  0.00000000000E+00 0. -1.
          5    1    4    4  502    0 -0.38957922208E+02  0.11449971679E+03 -0.24816282962E+03  0.27610647376E+03  0.47000000000E+01 0. -1.
         -5    1    4    4    0  502  0.51199991969E+02  0.17017538089E+02 -0.52841929417E+02  0.75666341822E+02  0.47000000000E+01 0. -1.
<mgrwt>
<rscale>  0 0.10003456E+04</rscale>
<asrwt>0</asrwt>
<pdfrwt beam="1">  1        1 0.21425498E+00 0.10003456E+04</pdfrwt>
<pdfrwt beam="2">  1       -1 0.27636464E-01 0.10003456E+04</pdfrwt>
<totfact> 0.99592973E+01</totfact>
</mgrwt>
</event>
<event>
 9    1  0.4412976E-036  0.9999623E+03  0.7818608E-02  0.8681074E-01
          1   -1    0    0  501    0  0.00000000000E+00  0.00000000000E+00  0.22796871567E+04  0.22796871567E+04  0.00000000000E+00 0.  1.
         -1   -1    0    0    0  501 -0.00000000000E+00 -0.00000000000E+00 -0.10965590987E+03  0.10965590987E+03  0.00000000000E+00 0.  1.
         36    2    1    2    0    0  0.00000000000E+00 -0.28421709430E-13  0.21700312469E+04  0.23893430666E+04  0.99996233808E+03 0.  0.
         25    2    3    3    0    0  0.26874946274E+02 -0.13341811691E+03  0.49321811059E+03  0.52674603604E+03  0.12519834347E+03 0.  0.
         35    2    3    3    0    0 -0.26874946274E+02  0.13341811691E+03  0.16768131363E+04  0.18625970306E+04  0.79940149341E+03 0.  0.
         22    1    5    5    0    0 -0.15068213663E+03 -0.31184174956E+03  0.64795947805E+03  0.73471209889E+03  0.00000000000E+00 0.  1.
         22    1    5    5    0    0  0.12380719036E+03  0.44525986647E+03  0.10288536582E+04  0.11278849317E+04  0.00000000000E+00 0.  1.
          5    1    4    4  502    0 -0.18731202405E+01 -0.47847151592E+02  0.34495574633E+02  0.59202138172E+02  0.47000000000E+01 0.  1.
         -5    1    4    4    0  502  0.28748066515E+02 -0.85570965318E+02  0.45872253596E+03  0.46754389787E+03  0.47000000000E+01 0.  1.
<mgrwt>
<rscale>  0 0.99996234E+03</rscale>
<asrwt>0</asrwt>
<pdfrwt beam="1">  1        1 0.35072107E+00 0.99996234E+03</pdfrwt>
<pdfrwt beam="2">  1       -1 0.16870142E-01 0.99996234E+03</pdfrwt>
<totfact> 0.53594980E+01</totfact>
</mgrwt>
</event>
<event>
 9    1  0.4412976E-036  0.9990887E+03  0.7818608E-02  0.8681906E-01
         -2   -1    0    0    0  501 -0.00000000000E+00  0.00000000000E+00  0.17752557036E+03  0.17752557036E+03  0.00000000000E+00 0.  1.
          2   -1    0    0  501    0  0.00000000000E+00 -0.00000000000E+00 -0.14056822573E+04  0.14056822573E+04  0.00000000000E+00 0.  1.
         36    2    1    2    0    0 -0.14210854715E-13  0.14210854715E-13 -0.12281566870E+04  0.15832078277E+04  0.99908867369E+03 0.  0.
         25    2    3    3    0    0  0.59421881084E+02 -0.84693995522E+02 -0.37902246770E+03  0.41200775165E+03  0.12404968187E+03 0.  0.
         35    2    3    3    0    0 -0.59421881084E+02  0.84693995522E+02 -0.84913421929E+03  0.11712000760E+04  0.79998541420E+03 0.  0.
         22    1    5    5    0    0  0.27326129494E+03  0.16265571137E+03 -0.75121169730E+03  0.81574973485E+03  0.00000000000E+00 0.  1.
         22    1    5    5    0    0 -0.33268317602E+03 -0.77961715845E+02 -0.97922521990E+02  0.35545034120E+03  0.00000000000E+00 0.  1.
          5    1    4    4  502    0 -0.28173963533E+01 -0.61141868781E+01 -0.24214582339E+03  0.24228497846E+03  0.47000000000E+01 0.  1.
         -5    1    4    4    0  502  0.62239277437E+02 -0.78579808644E+02 -0.13687664431E+03  0.16972277319E+03  0.47000000000E+01 0.  1.
<mgrwt>
<rscale>  0 0.99908867E+03</rscale>
<asrwt>0</asrwt>
<pdfrwt beam="1">  1        2 0.21625881E+00 0.99908867E+03</pdfrwt>
<pdfrwt beam="2">  1       -2 0.27311626E-01 0.99908867E+03</pdfrwt>
<totfact> 0.20998750E+02</totfact>
</mgrwt>
</event>
<event>
 9    1  0.4412976E-036  0.9998276E+03  0.7818608E-02  0.8681202E-01
          1   -1    0    0  501    0  0.00000000000E+00  0.00000000000E+00  0.39603152207E+03  0.39603152207E+03  0.00000000000E+00 0.  1.
         -1   -1    0    0    0  501 -0.00000000000E+00 -0.00000000000E+00 -0.63104526948E+03  0.63104526948E+03  0.00000000000E+00 0.  1.
         36    2    1    2    0    0  0.00000000000E+00  0.14210854715E-13 -0.23501374741E+03  0.10270767915E+04  0.99982762227E+03 0.  0.
         25    2    3    3    0    0 -0.12439016841E+03 -0.38358258820E+02 -0.96395370487E+02  0.20509950796E+03  0.12581522444E+03 0.  0.
         35    2    3    3    0    0  0.12439016841E+03  0.38358258820E+02 -0.13861837692E+03  0.82197728358E+03  0.79967951723E+03 0.  0.
         22    1    5    5    0    0 -0.22926525229E+03 -0.10233560881E+03  0.19338366840E+03  0.31691067502E+03  0.00000000000E+00 0. -1.
         22    1    5    5    0    0  0.35365542070E+03  0.14069386763E+03 -0.33200204533E+03  0.50506660856E+03  0.00000000000E+00 0. -1.
          5    1    4    4  502    0 -0.53707584075E+02 -0.43022634079E+02 -0.11281812197E+03  0.13223263695E+03  0.47000000000E+01 0.  1.
         -5    1    4    4    0  502 -0.70682584332E+02  0.46643752590E+01  0.16422751486E+02  0.72866871010E+02  0.47000000000E+01 0.  1.
<mgrwt>
<rscale>  0 0.99982762E+03</rscale>
<asrwt>0</asrwt>
<pdfrwt beam="1">  1        1 0.60927927E-01 0.99982762E+03</pdfrwt>
<pdfrwt beam="2">  1       -1 0.97083887E-01 0.99982762E+03</pdfrwt>
<totfact> 0.74151550E+01</totfact>
</mgrwt>
</event>
<event>
 9    1  0.4412976E-036  0.1000705E+04  0.7818608E-02  0.8680367E-01
         -2   -1    0    0    0  501 -0.00000000000E+00  0.00000000000E+00  0.12353111978E+03  0.12353111978E+03  0.00000000000E+00 0. -1.
          2   -1    0    0  501    0  0.00000000000E+00 -0.00000000000E+00 -0.20266365830E+04  0.20266365830E+04  0.00000000000E+00 0. -1.
         36    2    1    2    0    0  0.00000000000E+00  0.00000000000E+00 -0.19031054632E+04  0.21501677028E+04  0.10007051244E+04 0.  0.
         25    2    3    3    0    0 -0.12244990801E+03 -0.61013389579E+02 -0.27836202231E+03  0.33405298356E+03  0.12405388619E+03 0.  0.
         35    2    3    3    0    0  0.12244990801E+03  0.61013389579E+02 -0.16247434409E+04  0.18161147192E+04  0.79985299333E+03 0.  0.
         22    1    5    5    0    0 -0.48014027956E+02  0.26346230712E+03 -0.12920806063E+03  0.29734232307E+03  0.00000000000E+00 0.  1.
         22    1    5    5    0    0  0.17046393597E+03 -0.20244891754E+03 -0.14955353803E+04  0.15187723962E+04  0.00000000000E+00 0.  1.
          5    1    4    4  502    0 -0.24916187030E+02 -0.43131244397E+00  0.70959756591E+01  0.26333349144E+02  0.47000000000E+01 0. -1.
         -5    1    4    4    0  502 -0.97533720980E+02 -0.60582077135E+02 -0.28545799797E+03  0.30771963442E+03  0.47000000000E+01 0. -1.
<mgrwt>
<rscale>  0 0.10007051E+04</rscale>
<asrwt>0</asrwt>
<pdfrwt beam="1">  1        2 0.31179022E+00 0.10007051E+04</pdfrwt>
<pdfrwt beam="2">  1       -2 0.19004789E-01 0.10007051E+04</pdfrwt>
<totfact> 0.17676775E+02</totfact>
</mgrwt>
</event>
<event>
 9    1  0.4412976E-036  0.9976459E+03  0.7818608E-02  0.8683283E-01
          2   -1    0    0  501    0  0.00000000000E+00  0.00000000000E+00  0.10068414801E+04  0.10068414801E+04  0.00000000000E+00 0.  1.
         -2   -1    0    0    0  501 -0.00000000000E+00 -0.00000000000E+00 -0.24713357585E+03  0.24713357585E+03  0.00000000000E+00 0.  1.
         36    2    1    2    0    0  0.00000000000E+00  0.14210854715E-13  0.75970790428E+03  0.12539750560E+04  0.99764589970E+03 0.  0.
         25    2    3    3    0    0  0.10737843505E+03 -0.76014551116E+02  0.10785747357E+03  0.21388880787E+03  0.12964122505E+03 0.  0.
         35    2    3    3    0    0 -0.10737843505E+03  0.76014551116E+02  0.65185043071E+03  0.10400862481E+04  0.79972625266E+03 0.  0.
         22    1    5    5    0    0  0.10898770337E+02 -0.28349729026E+03  0.59259528898E+03  0.65700736168E+03  0.00000000000E+00 0. -1.
         22    1    5    5    0    0 -0.11827720539E+03  0.35951184138E+03  0.59255141731E+02  0.38307888643E+03  0.00000000000E+00 0. -1.
          5    1    4    4  502    0  0.96319770526E+02 -0.82100044168E+02  0.23933322388E+02  0.12889068767E+03  0.47000000000E+01 0. -1.
         -5    1    4    4    0  502  0.11058664527E+02  0.60854930518E+01  0.83924151183E+02  0.84998120206E+02  0.47000000000E+01 0. -1.
<mgrwt>
<rscale>  0 0.99764590E+03</rscale>
<asrwt>0</asrwt>
<pdfrwt beam="1">  1        2 0.15489869E+00 0.99764590E+03</pdfrwt>
<pdfrwt beam="2">  1       -2 0.38020550E-01 0.99764590E+03</pdfrwt>
<totfact> 0.19674600E+02</totfact>
</mgrwt>
</event>
<event>
 9    1  0.4412976E-036  0.1001706E+04  0.7818608E-02  0.8679416E-01
          1   -1    0    0  501    0  0.00000000000E+00  0.00000000000E+00  0.20023208490E+04  0.20023208490E+04  0.00000000000E+00 0. -1.
         -1   -1    0    0    0  501 -0.00000000000E+00 -0.00000000000E+00 -0.12528135915E+03  0.12528135915E+03  0.00000000000E+00 0. -1.
         36    2    1    2    0    0  0.00000000000E+00  0.14210854715E-13  0.18770394899E+04  0.21276022082E+04  0.10017055005E+04 0.  0.
         25    2    3    3    0    0 -0.10214869298E+02  0.93145154376E+02  0.13570467928E+03  0.20714620723E+03  0.12535321238E+03 0.  0.
         35    2    3    3    0    0  0.10214869298E+02 -0.93145154376E+02  0.17413348106E+04  0.19204560009E+04  0.80444015665E+03 0.  0.
         22    1    5    5    0    0 -0.34268456348E+03 -0.20408882979E+03  0.12019922141E+04  0.12664399880E+04  0.00000000000E+00 0.  1.
         22    1    5    5    0    0  0.35289943278E+03  0.11094367542E+03  0.53934259651E+03  0.65401601294E+03  0.00000000000E+00 0.  1.
          5    1    4    4  502    0 -0.48519405318E+02  0.33609605784E+02  0.12096965262E+03  0.13468290592E+03  0.47000000000E+01 0.  1.
         -5    1    4    4    0  502  0.38304536021E+02  0.59535548592E+02  0.14735026662E+02  0.72463301309E+02  0.47000000000E+01 0.  1.
<mgrwt>
<rscale>  0 0.10017055E+04</rscale>
<asrwt>0</asrwt>
<pdfrwt beam="1">  1        1 0.30804934E+00 0.10017055E+04</pdfrwt>
<pdfrwt beam="2">  1       -1 0.19274057E-01 0.10017055E+04</pdfrwt>
<totfact> 0.67441904E+01</totfact>
</mgrwt>
</event>
<event>
 9    1  0.4412976E-036  0.9945355E+03  0.7818608E-02  0.8686259E-01
         -1   -1    0    0    0  501 -0.00000000000E+00  0.00000000000E+00  0.92953668634E+02  0.92953668634E+02  0.00000000000E+00 0. -1.
          1   -1    0    0  501    0  0.00000000000E+00 -0.00000000000E+00 -0.26601987369E+04  0.26601987369E+04  0.00000000000E+00 0. -1.
         36    2    1    2    0    0 -0.14210854715E-13 -0.31974423109E-13 -0.25672450682E+04  0.27531524055E+04  0.99453553358E+03 0.  0.
         25    2    3    3    0    0  0.81504815722E+02 -0.26868781689E+02 -0.75304307579E+03  0.76835310953E+03  0.12620483553E+03 0.  0.
         35    2    3    3    0    0 -0.81504815722E+02  0.26868781689E+02 -0.18142019924E+04  0.19847992960E+04  0.80045887433E+03 0.  0.
         22    1    5    5    0    0 -0.14930244187E+03 -0.32468740418E+03 -0.45133388512E+03  0.57568689879E+03  0.00000000000E+00 0. -1.
         22    1    5    5    0    0  0.67797626150E+02  0.35155618587E+03 -0.13628681073E+04  0.14091123972E+04  0.00000000000E+00 0. -1.
          5    1    4    4  502    0  0.43771322466E+02 -0.32334894665E+02 -0.70371056961E+03  0.70582726630E+03  0.47000000000E+01 0. -1.
         -5    1    4    4    0  502  0.37733493257E+02  0.54661129762E+01 -0.49332506186E+02  0.62525843226E+02  0.47000000000E+01 0. -1.
<mgrwt>
<rscale>  0 0.99453553E+03</rscale>
<asrwt>0</asrwt>
<pdfrwt beam="1">  1        1 0.40926130E+00 0.99453553E+03</pdfrwt>
<pdfrwt beam="2">  1       -1 0.14300566E-01 0.99453553E+03</pdfrwt>
<totfact> 0.37856109E+01</totfact>
</mgrwt>
</event>
<event>
 9    1  0.4412976E-036  0.1000136E+04  0.7818608E-02  0.8680908E-01
         -1   -1    0    0    0  501 -0.00000000000E+00  0.00000000000E+00  0.28591624020E+03  0.28591624020E+03  0.00000000000E+00 0. -1.
          1   -1    0    0  501    0  0.00000000000E+00 -0.00000000000E+00 -0.87461974844E+03  0.87461974844E+03  0.00000000000E+00 0. -1.
         36    2    1    2    0    0  0.42632564146E-13  0.00000000000E+00 -0.58870350824E+03  0.11605359886E+04  0.10001359709E+04 0.  0.
         25    2    3    3    0    0  0.20204829087E+02  0.10947620950E+03 -0.17826974298E+02  0.17061734148E+03  0.12805936371E+03 0.  0.
         35    2    3    3    0    0 -0.20204829087E+02 -0.10947620950E+03 -0.57087653395E+03  0.98991864717E+03  0.80102786184E+03 0.  0.
         22    1    5    5    0    0 -0.30388404078E+03  0.65326043961E+02  0.20101624636E+02  0.31147564523E+03  0.00000000000E+00 0. -1.
         22    1    5    5    0    0  0.28367921169E+03 -0.17480225346E+03 -0.59097815858E+03  0.67844300194E+03  0.00000000000E+00 0. -1.
          5    1    4    4  502    0  0.61653125849E+01  0.54686774054E+02 -0.72948964895E+02  0.91500250354E+02  0.47000000000E+01 0.  1.
         -5    1    4    4    0  502  0.14039516502E+02  0.54789435446E+02  0.55121990597E+02  0.79117091121E+02  0.47000000000E+01 0.  1.
<mgrwt>
<rscale>  0 0.10001360E+04</rscale>
<asrwt>0</asrwt>
<pdfrwt beam="1">  1        1 0.13455688E+00 0.10001360E+04</pdfrwt>
<pdfrwt beam="2">  1       -1 0.43987114E-01 0.10001360E+04</pdfrwt>
<totfact> 0.11037797E+02</totfact>
</mgrwt>
</event>
<event>
 9    1  0.4412976E-036  0.1000056E+04  0.7818608E-02  0.8680985E-01
         -2   -1    0    0    0  501 -0.00000000000E+00  0.00000000000E+00  0.12116414018E+03  0.12116414018E+03  0.00000000000E+00 0.  1.
          2   -1    0    0  501    0  0.00000000000E+00 -0.00000000000E+00 -0.20635466219E+04  0.20635466219E+04  0.00000000000E+00 0.  1.
         36    2    1    2    0    0  0.14210854715E-13 -0.28421709430E-13 -0.19423824817E+04  0.21847107621E+04  0.10000557028E+04 0.  0.
         25    2    3    3    0    0  0.81575381091E+02  0.44332267459E+02 -0.61694403184E+03  0.63493902988E+03  0.11793108368E+03 0.  0.
         35    2    3    3    0    0 -0.81575381091E+02 -0.44332267459E+02 -0.13254384499E+04  0.15497717322E+04  0.79773770427E+03 0.  0.
         22    1    5    5    0    0 -0.94116951292E+02 -0.19409554240E+03 -0.13747734684E+04  0.13915937516E+04  0.00000000000E+00 0. -1.
         22    1    5    5    0    0  0.12541570200E+02  0.14976327494E+03  0.49335018505E+02  0.15817798062E+03  0.00000000000E+00 0. -1.
          5    1    4    4  502    0  0.74910533645E+01  0.67258334376E+02 -0.36634103164E+03  0.37256897467E+03  0.47000000000E+01 0. -1.
         -5    1    4    4    0  502  0.74084327727E+02 -0.22926066916E+02 -0.25060300020E+03  0.26237005520E+03  0.47000000000E+01 0. -1.
<mgrwt>
<rscale>  0 0.10000557E+04</rscale>
<asrwt>0</asrwt>
<pdfrwt beam="1">  1        2 0.31746869E+00 0.10000557E+04</pdfrwt>
<pdfrwt beam="2">  1       -2 0.18640638E-01 0.10000557E+04</pdfrwt>
<totfact> 0.17407575E+02</totfact>
</mgrwt>
</event>
<event>
 9    1  0.4412976E-036  0.9983313E+03  0.7818608E-02  0.8682629E-01
         -2   -1    0    0    0  501 -0.00000000000E+00  0.00000000000E+00  0.24497505197E+03  0.24497505197E+03  0.00000000000E+00 0.  1.
          2   -1    0    0  501    0  0.00000000000E+00 -0.00000000000E+00 -0.10171090373E+04  0.10171090373E+04  0.00000000000E+00 0.  1.
         36    2    1    2    0    0  0.00000000000E+00 -0.35527136788E-14 -0.77213398536E+03  0.12620840893E+04  0.99833128626E+03 0.  0.
         25    2    3    3    0    0  0.11084256361E+03 -0.12953740371E+01 -0.25213297564E+03  0.30216833165E+03  0.12428560393E+03 0.  0.
         35    2    3    3    0    0 -0.11084256361E+03  0.12953740371E+01 -0.52000100972E+03  0.95991575766E+03  0.79921803019E+03 0.  0.
         22    1    5    5    0    0  0.10873643757E+03  0.66366338780E+02  0.18163205259E+03  0.22185199189E+03  0.00000000000E+00 0.  1.
         22    1    5    5    0    0 -0.21957900118E+03 -0.65070964743E+02 -0.70163306231E+03  0.73806376577E+03  0.00000000000E+00 0.  1.
          5    1    4    4  502    0  0.13274430052E+03  0.18498239914E+02 -0.22424097589E+03  0.26128402069E+03  0.47000000000E+01 0. -1.
         -5    1    4    4    0  502 -0.21901736904E+02 -0.19793613951E+02 -0.27891999757E+02  0.40884310965E+02  0.47000000000E+01 0. -1.
<mgrwt>
<rscale>  0 0.99833129E+03</rscale>
<asrwt>0</asrwt>
<pdfrwt beam="1">  1        2 0.15647831E+00 0.99833129E+03</pdfrwt>
<pdfrwt beam="2">  1       -2 0.37688469E-01 0.99833129E+03</pdfrwt>
<totfact> 0.19710557E+02</totfact>
</mgrwt>
</event>
<event>
 9    1  0.4412976E-036  0.9945797E+03  0.7818608E-02  0.8686217E-01
          2   -1    0    0  501    0  0.00000000000E+00  0.00000000000E+00  0.46020760152E+03  0.46020760152E+03  0.00000000000E+00 0. -1.
         -2   -1    0    0    0  501 -0.00000000000E+00 -0.00000000000E+00 -0.53736006375E+03  0.53736006375E+03  0.00000000000E+00 0. -1.
         36    2    1    2    0    0  0.17763568394E-14  0.00000000000E+00 -0.77152462237E+02  0.99756766527E+03  0.99457968226E+03 0.  0.
         25    2    3    3    0    0  0.61976835382E+01 -0.79559882668E+02 -0.12070036144E+03  0.19223489929E+03  0.12656023483E+03 0.  0.
         35    2    3    3    0    0 -0.61976835382E+01  0.79559882668E+02  0.43547899203E+02  0.80533276598E+03  0.80018513997E+03 0.  0.
         22    1    5    5    0    0 -0.23926284345E+03  0.35125725161E+03 -0.67958032525E+02  0.43040290339E+03  0.00000000000E+00 0.  1.
         22    1    5    5    0    0  0.23306515991E+03 -0.27169736894E+03  0.11150593173E+03  0.37492986259E+03  0.00000000000E+00 0.  1.
          5    1    4    4  502    0  0.14888161149E+02 -0.91441817037E+02 -0.13973105890E+03  0.16772036867E+03  0.47000000000E+01 0.  1.
         -5    1    4    4    0  502 -0.86904776104E+01  0.11881934368E+02  0.19030697462E+02  0.24514530616E+02  0.47000000000E+01 0.  1.
<mgrwt>
<rscale>  0 0.99457968E+03</rscale>
<asrwt>0</asrwt>
<pdfrwt beam="1">  1        2 0.70801169E-01 0.99457968E+03</pdfrwt>
<pdfrwt beam="2">  1       -2 0.82670780E-01 0.99457968E+03</pdfrwt>
<totfact> 0.10457448E+02</totfact>
</mgrwt>
</event>
<event>
 9    1  0.4412976E-036  0.9988984E+03  0.7818608E-02  0.8682088E-01
          2   -1    0    0  501    0  0.00000000000E+00  0.00000000000E+00  0.49988880079E+03  0.49988880079E+03  0.00000000000E+00 0.  1.
         -2   -1    0    0    0  501 -0.00000000000E+00 -0.00000000000E+00 -0.49900993759E+03  0.49900993759E+03  0.00000000000E+00 0.  1.
         36    2    1    2    0    0  0.00000000000E+00  0.24868995752E-13  0.87886319692E+00  0.99889873837E+03  0.99889835175E+03 0.  0.
         25    2    3    3    0    0 -0.39425476510E+02  0.48456032547E+00  0.13379811854E+03  0.18758131587E+03  0.12542013611E+03 0.  0.
         35    2    3    3    0    0  0.39425476510E+02 -0.48456032547E+00 -0.13291925535E+03  0.81131742250E+03  0.79938340527E+03 0.  0.
         22    1    5    5    0    0 -0.42502343850E+02 -0.36738479053E+03  0.81250602703E+02  0.37865511219E+03  0.00000000000E+00 0.  1.
         22    1    5    5    0    0  0.81927820360E+02  0.36690023020E+03 -0.21416985805E+03  0.43266231032E+03  0.00000000000E+00 0.  1.
          5    1    4    4  502    0  0.45342963821E+02 -0.46046731773E+01  0.38464442000E+02  0.59822994588E+02  0.47000000000E+01 0. -1.
         -5    1    4    4    0  502 -0.84768440332E+02  0.50892335028E+01  0.95333676542E+02  0.12775832128E+03  0.47000000000E+01 0. -1.
<mgrwt>
<rscale>  0 0.99889835E+03</rscale>
<asrwt>0</asrwt>
<pdfrwt beam="1">  1        2 0.76905969E-01 0.99889835E+03</pdfrwt>
<pdfrwt beam="2">  1       -2 0.76770760E-01 0.99889835E+03</pdfrwt>
<totfact> 0.11272251E+02</totfact>
</mgrwt>
</event>
<event>
 9    1  0.4412976E-036  0.1000311E+04  0.7818608E-02  0.8680742E-01
         -2   -1    0    0    0  501 -0.00000000000E+00  0.00000000000E+00  0.14746736141E+04  0.14746736141E+04  0.00000000000E+00 0.  1.
          2   -1    0    0  501    0  0.00000000000E+00 -0.00000000000E+00 -0.16963445774E+03  0.16963445774E+03  0.00000000000E+00 0.  1.
         36    2    1    2    0    0  0.14210854715E-13 -0.56843418861E-13  0.13050391563E+04  0.16443080718E+04  0.10003108694E+04 0.  0.
         25    2    3    3    0    0  0.90688022433E+02  0.10759123990E+03  0.17503280929E+03  0.25232190055E+03  0.11502028018E+03 0.  0.
         35    2    3    3    0    0 -0.90688022433E+02 -0.10759123990E+03  0.11300063470E+04  0.13919861713E+04  0.80056915025E+03 0.  0.
         22    1    5    5    0    0 -0.15017884352E+03  0.31655206777E+03  0.71189047603E+03  0.79343994512E+03  0.00000000000E+00 0. -1.
         22    1    5    5    0    0  0.59490821087E+02 -0.42414330768E+03  0.41811587100E+03  0.59854622614E+03  0.00000000000E+00 0. -1.
          5    1    4    4  502    0  0.97610341467E+02  0.12718756367E+03  0.15614738666E+03  0.22384939463E+03  0.47000000000E+01 0.  1.
         -5    1    4    4    0  502 -0.69223190336E+01 -0.19596323764E+02  0.18885422623E+02  0.28472505923E+02  0.47000000000E+01 0.  1.
<mgrwt>
<rscale>  0 0.10003109E+04</rscale>
<asrwt>0</asrwt>
<pdfrwt beam="1">  1        2 0.26097610E-01 0.10003109E+04</pdfrwt>
<pdfrwt beam="2">  1       -2 0.22687286E+00 0.10003109E+04</pdfrwt>
<totfact> 0.20094962E+01</totfact>
</mgrwt>
</event>
<event>
 9    1  0.4412976E-036  0.1000590E+04  0.7818608E-02  0.8680476E-01
         -2   -1    0    0    0  501 -0.00000000000E+00  0.00000000000E+00  0.18247717308E+03  0.18247717308E+03  0.00000000000E+00 0.  1.
          2   -1    0    0  501    0  0.00000000000E+00 -0.00000000000E+00 -0.13716519415E+04  0.13716519415E+04  0.00000000000E+00 0.  1.
         36    2    1    2    0    0 -0.14210854715E-13  0.71054273576E-14 -0.11891747684E+04  0.15541291146E+04  0.10005901633E+04 0.  0.
         25    2    3    3    0    0  0.96416414124E+02  0.49867923162E+02 -0.35938172358E+03  0.39576470676E+03  0.12526589800E+03 0.  0.
         35    2    3    3    0    0 -0.96416414124E+02 -0.49867923162E+02 -0.82979304486E+03  0.11583644079E+04  0.80091739237E+03 0.  0.
         22    1    5    5    0    0  0.33901049711E+03  0.14916547315E+02 -0.21322140238E+03  0.40076674883E+03  0.00000000000E+00 0.  1.
         22    1    5    5    0    0 -0.43542691123E+03 -0.64784470477E+02 -0.61657164248E+03  0.75759765902E+03  0.00000000000E+00 0.  1.
          5    1    4    4  502    0  0.60283846315E+00 -0.28026790369E+02 -0.20470983106E+02  0.35028781622E+02  0.47000000000E+01 0.  1.
         -5    1    4    4    0  502  0.95813575660E+02  0.77894713531E+02 -0.33891074048E+03  0.36073592514E+03  0.47000000000E+01 0.  1.
<mgrwt>
<rscale>  0 0.10005902E+04</rscale>
<asrwt>0</asrwt>
<pdfrwt beam="1">  1        2 0.21102338E+00 0.10005902E+04</pdfrwt>
<pdfrwt beam="2">  1       -2 0.28073411E-01 0.10005902E+04</pdfrwt>
<totfact> 0.20899952E+02</totfact>
</mgrwt>
</event>
<event>
 9    1  0.4412976E-036  0.9993621E+03  0.7818608E-02  0.8681646E-01
         -2   -1    0    0    0  501 -0.00000000000E+00  0.00000000000E+00  0.17560525889E+03  0.17560525889E+03  0.00000000000E+00 0.  1.
          2   -1    0    0  501    0  0.00000000000E+00 -0.00000000000E+00 -0.14218317224E+04  0.14218317224E+04  0.00000000000E+00 0.  1.
         36    2    1    2    0    0  0.00000000000E+00  0.00000000000E+00 -0.12462264635E+04  0.15974369813E+04  0.99936205191E+03 0.  0.
         25    2    3    3    0    0 -0.10033796719E+03 -0.98503094253E+02 -0.22026951453E+03  0.28866475390E+03  0.12262998767E+03 0.  0.
         35    2    3    3    0    0  0.10033796719E+03  0.98503094253E+02 -0.10259569489E+04  0.13087722274E+04  0.80032900407E+03 0.  0.
         22    1    5    5    0    0 -0.32787075474E+02  0.40084020789E+03 -0.27172795593E+03  0.48536990699E+03  0.00000000000E+00 0. -1.
         22    1    5    5    0    0  0.13312504266E+03 -0.30233711364E+03 -0.75422899302E+03  0.82340232036E+03  0.00000000000E+00 0. -1.
          5    1    4    4  502    0  0.14541326234E+02 -0.32023275209E+02 -0.51565538696E+01  0.35855548685E+02  0.47000000000E+01 0.  1.
         -5    1    4    4    0  502 -0.11487929342E+03 -0.66479819044E+02 -0.21511296066E+03  0.25280920521E+03  0.47000000000E+01 0.  1.
<mgrwt>
<rscale>  0 0.99936205E+03</rscale>
<asrwt>0</asrwt>
<pdfrwt beam="1">  1        2 0.21874335E+00 0.99936205E+03</pdfrwt>
<pdfrwt beam="2">  1       -2 0.27016193E-01 0.99936205E+03</pdfrwt>
<totfact> 0.20963162E+02</totfact>
</mgrwt>
</event>
<event>
 9    1  0.4412976E-036  0.9989801E+03  0.7818608E-02  0.8682010E-01
          2   -1    0    0  501    0  0.00000000000E+00  0.00000000000E+00  0.11113774787E+04  0.11113774787E+04  0.00000000000E+00 0.  1.
         -2   -1    0    0    0  501 -0.00000000000E+00 -0.00000000000E+00 -0.22448748372E+03  0.22448748372E+03  0.00000000000E+00 0.  1.
         36    2    1    2    0    0 -0.28421709430E-13  0.00000000000E+00  0.88688999495E+03  0.13358649624E+04  0.99898014724E+03 0.  0.
         25    2    3    3    0    0 -0.85894730427E+02 -0.45085069213E+02  0.33051262042E+02  0.16146036016E+03  0.12476575572E+03 0.  0.
         35    2    3    3    0    0  0.85894730427E+02  0.45085069213E+02  0.85383873291E+03  0.11744046022E+04  0.80048424078E+03 0.  0.
         22    1    5    5    0    0 -0.17774830779E+03  0.27732866299E+02 -0.85091512375E+02  0.19900788496E+03  0.00000000000E+00 0. -1.
         22    1    5    5    0    0  0.26364303822E+03  0.17352202915E+02  0.93893024528E+03  0.97539671727E+03  0.00000000000E+00 0. -1.
          5    1    4    4  502    0 -0.88214129159E+02 -0.78429172713E+02  0.61376389128E+01  0.11829044056E+03  0.47000000000E+01 0. -1.
         -5    1    4    4    0  502  0.23193987314E+01  0.33344103500E+02  0.26913623129E+02  0.43169919604E+02  0.47000000000E+01 0. -1.
<mgrwt>
<rscale>  0 0.99898015E+03</rscale>
<asrwt>0</asrwt>
<pdfrwt beam="1">  1        2 0.17098115E+00 0.99898015E+03</pdfrwt>
<pdfrwt beam="2">  1       -2 0.34536537E-01 0.99898015E+03</pdfrwt>
<totfact> 0.20323739E+02</totfact>
</mgrwt>
</event>
<event>
 9    1  0.4412976E-036  0.1002769E+04  0.7818608E-02  0.8678406E-01
          2   -1    0    0  501    0  0.00000000000E+00  0.00000000000E+00  0.21483837037E+03  0.21483837037E+03  0.00000000000E+00 0. -1.
         -2   -1    0    0    0  501 -0.00000000000E+00 -0.00000000000E+00 -0.11701182838E+04  0.11701182838E+04  0.00000000000E+00 0. -1.
         36    2    1    2    0    0  0.21316282073E-13  0.00000000000E+00 -0.95527991346E+03  0.13849566542E+04  0.10027687774E+04 0.  0.
         25    2    3    3    0    0 -0.43543350087E+02 -0.36747494161E+02  0.21586726482E+01  0.13653087597E+03  0.12405490140E+03 0.  0.
         35    2    3    3    0    0  0.43543350087E+02  0.36747494161E+02 -0.95743858611E+03  0.12484257782E+04  0.79914446500E+03 0.  0.
         22    1    5    5    0    0 -0.37311239805E+03 -0.20562665594E+00 -0.35502477231E+03  0.51502960382E+03  0.00000000000E+00 0.  1.
         22    1    5    5    0    0  0.41665574814E+03  0.36953120817E+02 -0.60241381380E+03  0.73339617442E+03  0.00000000000E+00 0.  1.
          5    1    4    4  502    0 -0.63878469804E+02 -0.43602833941E+01  0.45387791572E+02  0.78623231932E+02  0.47000000000E+01 0.  1.
         -5    1    4    4    0  502  0.20335119717E+02 -0.32387210767E+02 -0.43229118924E+02  0.57907644038E+02  0.47000000000E+01 0.  1.
<mgrwt>
<rscale>  0 0.10027688E+04</rscale>
<asrwt>0</asrwt>
<pdfrwt beam="1">  1        2 0.33052056E-01 0.10027688E+04</pdfrwt>
<pdfrwt beam="2">  1       -2 0.18001820E+00 0.10027688E+04</pdfrwt>
<totfact> 0.31918449E+01</totfact>
</mgrwt>
</event>
<event>
 9    1  0.4412976E-036  0.9988500E+03  0.7818608E-02  0.8682134E-01
          2   -1    0    0  501    0  0.00000000000E+00  0.00000000000E+00  0.14010177891E+04  0.14010177891E+04  0.00000000000E+00 0.  1.
         -2   -1    0    0    0  501 -0.00000000000E+00 -0.00000000000E+00 -0.17803152561E+03  0.17803152561E+03  0.00000000000E+00 0.  1.
         36    2    1    2    0    0  0.28421709430E-13  0.00000000000E+00  0.12229862635E+04  0.15790493148E+04  0.99885000757E+03 0.  0.
         25    2    3    3    0    0 -0.81105967200E+02 -0.95038580185E+02  0.19824639051E+03  0.26548573577E+03  0.12478194945E+03 0.  0.
         35    2    3    3    0    0  0.81105967200E+02  0.95038580185E+02  0.10247398730E+04  0.13135635790E+04  0.81224808958E+03 0.  0.
         22    1    5    5    0    0 -0.32380696833E+03  0.26812013813E+02  0.17321116829E+03  0.36820095823E+03  0.00000000000E+00 0. -1.
         22    1    5    5    0    0  0.40491293553E+03  0.68226566372E+02  0.85152870474E+03  0.94536262075E+03  0.00000000000E+00 0. -1.
          5    1    4    4  502    0 -0.10396205136E+03 -0.10518627615E+03  0.14863823129E+03  0.20973238809E+03  0.47000000000E+01 0.  1.
         -5    1    4    4    0  502  0.22856084158E+02  0.10147695964E+02  0.49608159220E+02  0.55753347681E+02  0.47000000000E+01 0.  1.
<mgrwt>
<rscale>  0 0.99885001E+03</rscale>
<asrwt>0</asrwt>
<pdfrwt beam="1">  1        2 0.21554119E+00 0.99885001E+03</pdfrwt>
<pdfrwt beam="2">  1       -2 0.27389466E-01 0.99885001E+03</pdfrwt>
<totfact> 0.21020226E+02</totfact>
</mgrwt>
</event>
<event>
 9    1  0.4412976E-036  0.1000109E+04  0.7818608E-02  0.8680934E-01
          2   -1    0    0  501    0  0.00000000000E+00  0.00000000000E+00  0.10514850240E+04  0.10514850240E+04  0.00000000000E+00 0. -1.
         -2   -1    0    0    0  501 -0.00000000000E+00 -0.00000000000E+00 -0.23781071240E+03  0.23781071240E+03  0.00000000000E+00 0. -1.
         36    2    1    2    0    0  0.00000000000E+00  0.35527136788E-14  0.81367431156E+03  0.12892957364E+04  0.10001087993E+04 0.  0.
         25    2    3    3    0    0 -0.14032315925E+03  0.33505673050E+01  0.16779340962E+03  0.25146398860E+03  0.12400683016E+03 0.  0.
         35    2    3    3    0    0  0.14032315925E+03 -0.33505673050E+01  0.64588090194E+03  0.10378317478E+04  0.80014422566E+03 0.  0.
         22    1    5    5    0    0  0.29514095441E+03  0.91554644623E+02 -0.54944772652E+02  0.31386201421E+03  0.00000000000E+00 0.  1.
         22    1    5    5    0    0 -0.15481779515E+03 -0.94905211928E+02  0.70082567459E+03  0.72396973356E+03  0.00000000000E+00 0.  1.
          5    1    4    4  502    0 -0.25383661699E+01  0.23456916212E+02  0.87311988688E+02  0.90565686602E+02  0.47000000000E+01 0. -1.
         -5    1    4    4    0  502 -0.13778479308E+03 -0.20106348906E+02  0.80481420934E+02  0.16089830200E+03  0.47000000000E+01 0. -1.
<mgrwt>
<rscale>  0 0.10001088E+04</rscale>
<asrwt>0</asrwt>
<pdfrwt beam="1">  1        2 0.16176692E+00 0.10001088E+04</pdfrwt>
<pdfrwt beam="2">  1       -2 0.36586264E-01 0.10001088E+04</pdfrwt>
<totfact> 0.19846804E+02</totfact>
</mgrwt>
</event>
<event>
 9    1  0.4412976E-036  0.9991691E+03  0.7818608E-02  0.8681830E-01
          2   -1    0    0  501    0  0.00000000000E+00  0.00000000000E+00  0.13126831688E+03  0.13126831688E+03  0.00000000000E+00 0. -1.
         -2   -1    0    0    0  501 -0.00000000000E+00 -0.00000000000E+00 -0.19013323553E+04  0.19013323553E+04  0.00000000000E+00 0. -1.
         36    2    1    2    0    0  0.28421709430E-13  0.00000000000E+00 -0.17700640384E+04  0.20326006722E+04  0.99916905099E+03 0.  0.
         25    2    3    3    0    0  0.49929179818E+02 -0.10440889175E+03 -0.17289504687E+03  0.24278553291E+03  0.12513184280E+03 0.  0.
         35    2    3    3    0    0 -0.49929179818E+02  0.10440889175E+03 -0.15971689915E+04  0.17898151393E+04  0.79943436600E+03 0.  0.
         22    1    5    5    0    0  0.28896121539E+03 -0.18374708203E+03 -0.89861136101E+03  0.96164647990E+03  0.00000000000E+00 0. -1.
         22    1    5    5    0    0 -0.33889039521E+03  0.28815597379E+03 -0.69855763052E+03  0.82816865936E+03  0.00000000000E+00 0. -1.
          5    1    4    4  502    0 -0.36252478413E+02 -0.66760491605E+02 -0.71918720450E+02  0.10471675024E+03  0.47000000000E+01 0.  1.
         -5    1    4    4    0  502  0.86181658231E+02 -0.37648400147E+02 -0.10097632642E+03  0.13806878267E+03  0.47000000000E+01 0.  1.
<mgrwt>
<rscale>  0 0.99916905E+03</rscale>
<asrwt>0</asrwt>
<pdfrwt beam="1">  1        2 0.20195126E-01 0.99916905E+03</pdfrwt>
<pdfrwt beam="2">  1       -2 0.29251266E+00 0.99916905E+03</pdfrwt>
<totfact> 0.10795863E+01</totfact>
</mgrwt>
</event>
<event>
 9    1  0.4412976E-036  0.9965590E+03  0.7818608E-02  0.8684322E-01
          2   -1    0    0  501    0  0.00000000000E+00  0.00000000000E+00  0.58664635336E+03  0.58664635336E+03  0.00000000000E+00 0. -1.
         -2   -1    0    0    0  501 -0.00000000000E+00 -0.00000000000E+00 -0.42322336315E+03  0.42322336315E+03  0.00000000000E+00 0. -1.
         36    2    1    2    0    0 -0.71054273576E-14  0.14210854715E-13  0.16342299021E+03  0.10098697165E+04  0.99655896494E+03 0.  0.
         25    2    3    3    0    0  0.60198962811E+01  0.77205902824E+02  0.14217309476E+03  0.20522852716E+03  0.12612917547E+03 0.  0.
         35    2    3    3    0    0 -0.60198962811E+01 -0.77205902824E+02  0.21249895453E+02  0.80464118935E+03  0.80062406594E+03 0.  0.
         22    1    5    5    0    0  0.36609486541E+03 -0.71340019548E+02  0.16214669592E+03  0.40670185624E+03  0.00000000000E+00 0. -1.
         22    1    5    5    0    0 -0.37211476170E+03 -0.58658832762E+01 -0.14089680047E+03  0.39793933311E+03  0.00000000000E+00 0. -1.
          5    1    4    4  502    0 -0.25594168545E+02  0.10892562200E+02 -0.14796408440E+02  0.31854875255E+02  0.47000000000E+01 0. -1.
         -5    1    4    4    0  502  0.31614064826E+02  0.66313340624E+02  0.15696950320E+03  0.17337365190E+03  0.47000000000E+01 0. -1.
<mgrwt>
<rscale>  0 0.99655896E+03</rscale>
<asrwt>0</asrwt>
<pdfrwt beam="1">  1        2 0.90253285E-01 0.99655896E+03</pdfrwt>
<pdfrwt beam="2">  1       -2 0.65111287E-01 0.99655896E+03</pdfrwt>
<totfact> 0.13411032E+02</totfact>
</mgrwt>
</event>
<event>
 9    1  0.4412976E-036  0.1000558E+04  0.7818608E-02  0.8680506E-01
          2   -1    0    0  501    0  0.00000000000E+00  0.00000000000E+00  0.24481596206E+03  0.24481596206E+03  0.00000000000E+00 0. -1.
         -2   -1    0    0    0  501 -0.00000000000E+00 -0.00000000000E+00 -0.10223161483E+04  0.10223161483E+04  0.00000000000E+00 0. -1.
         36    2    1    2    0    0  0.14210854715E-13 -0.71054273576E-14 -0.77750018622E+03  0.12671321103E+04  0.10005584668E+04 0.  0.
         25    2    3    3    0    0  0.12604539013E+03  0.21802176834E+02 -0.24377682330E+03  0.30281902698E+03  0.12613266126E+03 0.  0.
         35    2    3    3    0    0 -0.12604539013E+03 -0.21802176834E+02 -0.53372336292E+03  0.96431308336E+03  0.79289111442E+03 0.  0.
         22    1    5    5    0    0 -0.87550115638E+02 -0.25184086804E+03  0.10329785246E+03  0.28593581777E+03  0.00000000000E+00 0.  1.
         22    1    5    5    0    0 -0.38495274487E+02  0.23003869120E+03 -0.63702121539E+03  0.67837726558E+03  0.00000000000E+00 0.  1.
          5    1    4    4  502    0  0.29217527327E+02 -0.42824474031E+02 -0.31985687691E+02  0.61096429488E+02  0.47000000000E+01 0. -1.
         -5    1    4    4    0  502  0.96827862798E+02  0.64626650865E+02 -0.21179113561E+03  0.24172259749E+03  0.47000000000E+01 0. -1.
<mgrwt>
<rscale>  0 0.10005585E+04</rscale>
<asrwt>0</asrwt>
<pdfrwt beam="1">  1        2 0.37663994E-01 0.10005585E+04</pdfrwt>
<pdfrwt beam="2">  1       -2 0.15727941E+00 0.10005585E+04</pdfrwt>
<totfact> 0.40891911E+01</totfact>
</mgrwt>
</event>
<event>
 9    1  0.4412976E-036  0.9999365E+03  0.7818608E-02  0.8681098E-01
         -2   -1    0    0    0  501 -0.00000000000E+00  0.00000000000E+00  0.32245335333E+03  0.32245335333E+03  0.00000000000E+00 0.  1.
          2   -1    0    0  501    0  0.00000000000E+00 -0.00000000000E+00 -0.77520754528E+03  0.77520754528E+03  0.00000000000E+00 0.  1.
         36    2    1    2    0    0 -0.14210854715E-13 -0.14210854715E-13 -0.45275419195E+03  0.10976608986E+04  0.99993654298E+03 0.  0.
         25    2    3    3    0    0 -0.71050954850E+02 -0.10701391232E+03 -0.11496432465E+03  0.21928119308E+03  0.13552575430E+03 0.  0.
         35    2    3    3    0    0  0.71050954850E+02  0.10701391232E+03 -0.33778986730E+03  0.87837970553E+03  0.80059271606E+03 0.  0.
         22    1    5    5    0    0  0.24208323253E+03 -0.27251827609E+03 -0.40334580202E+02  0.36673884528E+03  0.00000000000E+00 0. -1.
         22    1    5    5    0    0 -0.17103227768E+03  0.37953218842E+03 -0.29745528710E+03  0.51164086025E+03  0.00000000000E+00 0. -1.
          5    1    4    4  502    0 -0.26963044743E+02  0.30234740066E+02 -0.38263584536E+02  0.55922599995E+02  0.47000000000E+01 0.  1.
         -5    1    4    4    0  502 -0.44087910107E+02 -0.13724865239E+03 -0.76700740114E+02  0.16335859308E+03  0.47000000000E+01 0.  1.
<mgrwt>
<rscale>  0 0.99993654E+03</rscale>
<asrwt>0</asrwt>
<pdfrwt beam="1">  1        2 0.11926270E+00 0.99993654E+03</pdfrwt>
<pdfrwt beam="2">  1       -2 0.49608208E-01 0.99993654E+03</pdfrwt>
<totfact> 0.16715785E+02</totfact>
</mgrwt>
</event>
<event>
 9    1  0.4412976E-036  0.9995556E+03  0.7818608E-02  0.8681461E-01
          1   -1    0    0  501    0  0.00000000000E+00  0.00000000000E+00  0.13079691687E+04  0.13079691687E+04  0.00000000000E+00 0. -1.
         -1   -1    0    0    0  501 -0.00000000000E+00 -0.00000000000E+00 -0.19096615628E+03  0.19096615628E+03  0.00000000000E+00 0. -1.
         36    2    1    2    0    0  0.00000000000E+00 -0.28421709430E-13  0.11170030124E+04  0.14989353250E+04  0.99955559062E+03 0.  0.
         25    2    3    3    0    0  0.79106934416E+02 -0.33180977602E+02  0.43307748188E+02  0.15764708247E+03  0.12497262585E+03 0.  0.
         35    2    3    3    0    0 -0.79106934416E+02  0.33180977602E+02  0.10736952643E+04  0.13412882425E+04  0.79929578051E+03 0.  0.
         22    1    5    5    0    0  0.14691430085E+03 -0.26782497867E+03  0.85045153510E+03  0.90364918223E+03  0.00000000000E+00 0.  1.
         22    1    5    5    0    0 -0.22602123526E+03  0.30100595627E+03  0.22324372916E+03  0.43763906031E+03  0.00000000000E+00 0.  1.
          5    1    4    4  502    0 -0.25955372262E+02 -0.37576216774E+02  0.18545650216E+02  0.49514488367E+02  0.47000000000E+01 0. -1.
         -5    1    4    4    0  502  0.10506230668E+03  0.43952391715E+01  0.24762097972E+02  0.10813259410E+03  0.47000000000E+01 0. -1.
<mgrwt>
<rscale>  0 0.99955559E+03</rscale>
<asrwt>0</asrwt>
<pdfrwt beam="1">  1        1 0.20122602E+00 0.99955559E+03</pdfrwt>
<pdfrwt beam="2">  1       -1 0.29379410E-01 0.99955559E+03</pdfrwt>
<totfact> 0.10337443E+02</totfact>
</mgrwt>
</event>
<event>
 9    1  0.4412976E-036  0.1000363E+04  0.7818608E-02  0.8680692E-01
         -2   -1    0    0    0  501 -0.00000000000E+00  0.00000000000E+00  0.18364490952E+03  0.18364490952E+03  0.00000000000E+00 0. -1.
          2   -1    0    0  501    0  0.00000000000E+00 -0.00000000000E+00 -0.13623115269E+04  0.13623115269E+04  0.00000000000E+00 0. -1.
         36    2    1    2    0    0 -0.71054273576E-14  0.00000000000E+00 -0.11786666174E+04  0.15459564364E+04  0.10003630883E+04 0.  0.
         25    2    3    3    0    0  0.15736966859E+02  0.13933058917E+03 -0.24165376000E+03  0.30640533744E+03  0.12580550817E+03 0.  0.
         35    2    3    3    0    0 -0.15736966859E+02 -0.13933058917E+03 -0.93701285736E+03  0.12395510990E+04  0.79927039659E+03 0.  0.
         22    1    5    5    0    0  0.16748112251E+03  0.29510161559E+03 -0.36734647457E+03  0.50007831617E+03  0.00000000000E+00 0. -1.
         22    1    5    5    0    0 -0.18321808937E+03 -0.43443220476E+03 -0.56966638279E+03  0.73947278279E+03  0.00000000000E+00 0. -1.
          5    1    4    4  502    0 -0.40227511175E+02  0.11190486881E+03 -0.11663209722E+03  0.16663159491E+03  0.47000000000E+01 0.  1.
         -5    1    4    4    0  502  0.55964478034E+02  0.27425720361E+02 -0.12502166278E+03  0.13977374253E+03  0.47000000000E+01 0.  1.
<mgrwt>
<rscale>  0 0.10003631E+04</rscale>
<asrwt>0</asrwt>
<pdfrwt beam="1">  1        2 0.20958639E+00 0.10003631E+04</pdfrwt>
<pdfrwt beam="2">  1       -2 0.28253063E-01 0.10003631E+04</pdfrwt>
<totfact> 0.20916972E+02</totfact>
</mgrwt>
</event>
<event>
 9    1  0.4412976E-036  0.1000961E+04  0.7818608E-02  0.8680123E-01
          2   -1    0    0  501    0  0.00000000000E+00  0.00000000000E+00  0.18109006676E+04  0.18109006676E+04  0.00000000000E+00 0. -1.
         -2   -1    0    0    0  501 -0.00000000000E+00 -0.00000000000E+00 -0.13831834306E+03  0.13831834306E+03  0.00000000000E+00 0. -1.
         36    2    1    2    0    0 -0.28421709430E-13  0.14210854715E-13  0.16725823245E+04  0.19492190107E+04  0.10009610977E+04 0.  0.
         25    2    3    3    0    0  0.11241385908E+03 -0.96080786437E+02  0.35277568540E+03  0.40124258094E+03  0.12114673464E+03 0.  0.
         35    2    3    3    0    0 -0.11241385908E+03  0.96080786437E+02  0.13198066391E+04  0.15479764297E+04  0.79528175450E+03 0.  0.
         22    1    5    5    0    0 -0.11538646717E+03  0.12011142469E+03  0.14277086352E+04  0.14373909482E+04  0.00000000000E+00 0.  1.
         22    1    5    5    0    0  0.29726080930E+01 -0.24030638252E+02 -0.10790199602E+03  0.11058548150E+03  0.00000000000E+00 0.  1.
          5    1    4    4  502    0  0.70236113621E+02 -0.11470163892E+03  0.19596300170E+03  0.23772497904E+03  0.47000000000E+01 0.  1.
         -5    1    4    4    0  502  0.42177745455E+02  0.18620852486E+02  0.15681268370E+03  0.16351760189E+03  0.47000000000E+01 0.  1.
<mgrwt>
<rscale>  0 0.10009611E+04</rscale>
<asrwt>0</asrwt>
<pdfrwt beam="1">  1        2 0.27860009E+00 0.10009611E+04</pdfrwt>
<pdfrwt beam="2">  1       -2 0.21279746E-01 0.10009611E+04</pdfrwt>
<totfact> 0.19264302E+02</totfact>
</mgrwt>
</event>
<event>
 9    1  0.4412976E-036  0.9997795E+03  0.7818608E-02  0.8681248E-01
          1   -1    0    0  501    0  0.00000000000E+00  0.00000000000E+00  0.76803543182E+03  0.76803543182E+03  0.00000000000E+00 0. -1.
         -1   -1    0    0    0  501 -0.00000000000E+00 -0.00000000000E+00 -0.32536225181E+03  0.32536225181E+03  0.00000000000E+00 0. -1.
         36    2    1    2    0    0  0.00000000000E+00  0.00000000000E+00  0.44267318001E+03  0.10933976836E+04  0.99977945080E+03 0.  0.
         25    2    3    3    0    0 -0.27348625038E+01 -0.13713848107E+03  0.11777172522E+03  0.21956232158E+03  0.12459129717E+03 0.  0.
         35    2    3    3    0    0  0.27348625038E+01  0.13713848107E+03  0.32490145479E+03  0.87383536204E+03  0.79950787499E+03 0.  0.
         22    1    5    5    0    0 -0.34979652237E+03  0.83806638815E+02  0.36812578147E+03  0.51468218422E+03  0.00000000000E+00 0.  1.
         22    1    5    5    0    0  0.35253138488E+03  0.53331842259E+02 -0.43224326684E+02  0.35915317782E+03  0.00000000000E+00 0.  1.
          5    1    4    4  502    0 -0.58379880413E+02 -0.43675169610E+02  0.27269199918E+02  0.77983524809E+02  0.47000000000E+01 0.  1.
         -5    1    4    4    0  502  0.55645017909E+02 -0.93463311465E+02  0.90502525307E+02  0.14157879677E+03  0.47000000000E+01 0.  1.
<mgrwt>
<rscale>  0 0.99977945E+03</rscale>
<asrwt>0</asrwt>
<pdfrwt beam="1">  1        1 0.11815930E+00 0.99977945E+03</pdfrwt>
<pdfrwt beam="2">  1       -1 0.50055731E-01 0.99977945E+03</pdfrwt>
<totfact> 0.10795623E+02</totfact>
</mgrwt>
</event>
<event>
 9    1  0.4412976E-036  0.1000794E+04  0.7818608E-02  0.8680282E-01
         -1   -1    0    0    0  501 -0.00000000000E+00  0.00000000000E+00  0.13570274716E+04  0.13570274716E+04  0.00000000000E+00 0.  1.
          1   -1    0    0  501    0  0.00000000000E+00 -0.00000000000E+00 -0.18451875203E+03  0.18451875203E+03  0.00000000000E+00 0.  1.
         36    2    1    2    0    0  0.00000000000E+00  0.00000000000E+00  0.11725087196E+04  0.15415462237E+04  0.10007937161E+04 0.  0.
         25    2    3    3    0    0 -0.36981631562E+02  0.13378783482E+03  0.26676713180E+03  0.32559211295E+03  0.12481464491E+03 0.  0.
         35    2    3    3    0    0  0.36981631562E+02 -0.13378783482E+03  0.90574158778E+03  0.12159541107E+04  0.79931830311E+03 0.  0.
         22    1    5    5    0    0  0.24250848246E+03 -0.40026554867E+03  0.60289657407E+03  0.76322156190E+03  0.00000000000E+00 0.  1.
         22    1    5    5    0    0 -0.20552685090E+03  0.26647771385E+03  0.30284501371E+03  0.45273254881E+03  0.00000000000E+00 0.  1.
          5    1    4    4  502    0 -0.81076717721E+02  0.77275019103E+02  0.18883674358E+03  0.21960480063E+03  0.47000000000E+01 0. -1.
         -5    1    4    4    0  502  0.44095086159E+02  0.56512815717E+02  0.77930388225E+02  0.10598731232E+03  0.47000000000E+01 0. -1.
<mgrwt>
<rscale>  0 0.10007937E+04</rscale>
<asrwt>0</asrwt>
<pdfrwt beam="1">  1        1 0.28387501E-01 0.10007937E+04</pdfrwt>
<pdfrwt beam="2">  1       -1 0.20877345E+00 0.10007937E+04</pdfrwt>
<totfact> 0.21657664E+01</totfact>
</mgrwt>
</event>
<event>
 9    1  0.4412976E-036  0.9992376E+03  0.7818608E-02  0.8681764E-01
          2   -1    0    0  501    0  0.00000000000E+00  0.00000000000E+00  0.21158491184E+04  0.21158491184E+04  0.00000000000E+00 0.  1.
         -2   -1    0    0    0  501 -0.00000000000E+00 -0.00000000000E+00 -0.11797578538E+03  0.11797578538E+03  0.00000000000E+00 0.  1.
         36    2    1    2    0    0 -0.71054273576E-14  0.28421709430E-13  0.19978733330E+04  0.22338249038E+04  0.99923763240E+03 0.  0.
         25    2    3    3    0    0  0.15890484779E+02  0.13653243957E+03  0.39877549977E+03  0.44012659191E+03  0.12568175336E+03 0.  0.
         35    2    3    3    0    0 -0.15890484779E+02 -0.13653243957E+03  0.15990978333E+04  0.17936983119E+04  0.80084089505E+03 0.  0.
         22    1    5    5    0    0 -0.17952821467E+03 -0.27124887850E+03  0.15395467116E+04  0.15735343692E+04  0.00000000000E+00 0.  1.
         22    1    5    5    0    0  0.16363772989E+03  0.13471643893E+03  0.59551121674E+02  0.22016394268E+03  0.00000000000E+00 0.  1.
          5    1    4    4  502    0  0.68336397433E+02  0.67040067009E+02  0.16781262499E+03  0.19325475649E+03  0.47000000000E+01 0.  1.
         -5    1    4    4    0  502 -0.52445912654E+02  0.69492372557E+02  0.23096287477E+03  0.24687183542E+03  0.47000000000E+01 0.  1.
<mgrwt>
<rscale>  0 0.99923763E+03</rscale>
<asrwt>0</asrwt>
<pdfrwt beam="1">  1        2 0.32551522E+00 0.99923763E+03</pdfrwt>
<pdfrwt beam="2">  1       -2 0.18150122E-01 0.99923763E+03</pdfrwt>
<totfact> 0.17004837E+02</totfact>
</mgrwt>
</event>
<event>
 9    1  0.4412976E-036  0.9999761E+03  0.7818608E-02  0.8681061E-01
          2   -1    0    0  501    0  0.00000000000E+00  0.00000000000E+00  0.21019684477E+03  0.21019684477E+03  0.00000000000E+00 0.  1.
         -2   -1    0    0    0  501 -0.00000000000E+00 -0.00000000000E+00 -0.11893044534E+04  0.11893044534E+04  0.00000000000E+00 0.  1.
         36    2    1    2    0    0  0.28421709430E-13 -0.10658141036E-13 -0.97910760865E+03  0.13995012982E+04  0.99997608687E+03 0.  0.
         25    2    3    3    0    0 -0.55848333473E+02  0.23211913315E+02 -0.75281426214E+01  0.13886108056E+03  0.12477138090E+03 0.  0.
         35    2    3    3    0    0  0.55848333473E+02 -0.23211913315E+02 -0.97157946603E+03  0.12606402176E+04  0.80099267801E+03 0.  0.
         22    1    5    5    0    0  0.28799180595E+03  0.20047210936E+03 -0.84382298376E+03  0.91387393816E+03  0.00000000000E+00 0.  1.
         22    1    5    5    0    0 -0.23214347248E+03 -0.22368402267E+03 -0.12775648227E+03  0.34676627946E+03  0.00000000000E+00 0.  1.
          5    1    4    4  502    0  0.34080247554E+02 -0.15108916767E+02 -0.15554513669E+02  0.40666639088E+02  0.47000000000E+01 0.  1.
         -5    1    4    4    0  502 -0.89928581027E+02  0.38320830081E+02  0.80263710473E+01  0.98194441471E+02  0.47000000000E+01 0.  1.
<mgrwt>
<rscale>  0 0.99997609E+03</rscale>
<asrwt>0</asrwt>
<pdfrwt beam="1">  1        2 0.32337977E-01 0.99997609E+03</pdfrwt>
<pdfrwt beam="2">  1       -2 0.18296991E+00 0.99997609E+03</pdfrwt>
<totfact> 0.31164601E+01</totfact>
</mgrwt>
</event>
<event>
 9    1  0.4412976E-036  0.9984708E+03  0.7818608E-02  0.8682496E-01
         -2   -1    0    0    0  501 -0.00000000000E+00  0.00000000000E+00  0.10964153769E+03  0.10964153769E+03  0.00000000000E+00 0.  1.
          2   -1    0    0  501    0  0.00000000000E+00 -0.00000000000E+00 -0.22731892671E+04  0.22731892671E+04  0.00000000000E+00 0.  1.
         36    2    1    2    0    0  0.00000000000E+00  0.00000000000E+00 -0.21635477294E+04  0.23828308048E+04  0.99847076414E+03 0.  0.
         25    2    3    3    0    0 -0.42086771575E+02  0.11280557507E+03 -0.56511206841E+03  0.59123756496E+03  0.12535475358E+03 0.  0.
         35    2    3    3    0    0  0.42086771575E+02 -0.11280557507E+03 -0.15984356610E+04  0.17915932398E+04  0.80019583888E+03 0.  0.
         22    1    5    5    0    0 -0.23175153578E+03 -0.29084056684E+03 -0.12893413365E+04  0.13419009246E+04  0.00000000000E+00 0. -1.
         22    1    5    5    0    0  0.27383830736E+03  0.17803499177E+03 -0.30909432450E+03  0.44969231516E+03  0.00000000000E+00 0. -1.
          5    1    4    4  502    0 -0.66249897378E+02  0.11991673732E+03 -0.53195802601E+03  0.54933642172E+03  0.47000000000E+01 0.  1.
         -5    1    4    4    0  502  0.24163125803E+02 -0.71111622486E+01 -0.33154042397E+02  0.41901143235E+02  0.47000000000E+01 0.  1.
<mgrwt>
<rscale>  0 0.99847076E+03</rscale>
<asrwt>0</asrwt>
<pdfrwt beam="1">  1        2 0.34972142E+00 0.99847076E+03</pdfrwt>
<pdfrwt beam="2">  1       -2 0.16867929E-01 0.99847076E+03</pdfrwt>
<totfact> 0.15607670E+02</totfact>
</mgrwt>
</event>
<event>
 9    1  0.4412976E-036  0.9990945E+03  0.7818608E-02  0.8681901E-01
         -2   -1    0    0    0  501 -0.00000000000E+00  0.00000000000E+00  0.26109040148E+03  0.26109040148E+03  0.00000000000E+00 0. -1.
          2   -1    0    0  501    0  0.00000000000E+00 -0.00000000000E+00 -0.95578948480E+03  0.95578948480E+03  0.00000000000E+00 0. -1.
         36    2    1    2    0    0  0.71054273576E-14  0.00000000000E+00 -0.69469908332E+03  0.12168798863E+04  0.99909451068E+03 0.  0.
         25    2    3    3    0    0  0.29375888773E+02  0.24554231987E+02 -0.29293680094E+03  0.32072285919E+03  0.12484121881E+03 0.  0.
         35    2    3    3    0    0 -0.29375888773E+02 -0.24554231987E+02 -0.40176228238E+03  0.89615702709E+03  0.80013663365E+03 0.  0.
         22    1    5    5    0    0 -0.25401092426E+03 -0.15784497038E+03  0.11237282705E+03  0.31947493888E+03  0.00000000000E+00 0.  1.
         22    1    5    5    0    0  0.22463503549E+03  0.13329073839E+03 -0.51413510943E+03  0.57668208821E+03  0.00000000000E+00 0.  1.
          5    1    4    4  502    0  0.59640762343E+02 -0.27417400152E+02 -0.11095696939E+03  0.12900493564E+03  0.47000000000E+01 0.  1.
         -5    1    4    4    0  502 -0.30264873570E+02  0.51971632139E+02 -0.18197983155E+03  0.19171792355E+03  0.47000000000E+01 0.  1.
<mgrwt>
<rscale>  0 0.99909451E+03</rscale>
<asrwt>0</asrwt>
<pdfrwt beam="1">  1        2 0.14704453E+00 0.99909451E+03</pdfrwt>
<pdfrwt beam="2">  1       -2 0.40167754E-01 0.99909451E+03</pdfrwt>
<totfact> 0.19088170E+02</totfact>
</mgrwt>
</event>
<event>
 9    1  0.4412976E-036  0.1000164E+04  0.7818608E-02  0.8680882E-01
         -1   -1    0    0    0  501 -0.00000000000E+00  0.00000000000E+00  0.60097183105E+02  0.60097183105E+02  0.00000000000E+00 0. -1.
          1   -1    0    0  501    0  0.00000000000E+00 -0.00000000000E+00 -0.41612937020E+04  0.41612937020E+04  0.00000000000E+00 0. -1.
         36    2    1    2    0    0  0.14210854715E-13  0.71054273576E-14 -0.41011965189E+04  0.42213908851E+04  0.10001640457E+04 0.  0.
         25    2    3    3    0    0 -0.12665790065E+03  0.54996742965E+02 -0.89858041609E+03  0.91770981234E+03  0.12521050255E+03 0.  0.
         35    2    3    3    0    0  0.12665790065E+03 -0.54996742965E+02 -0.32026161028E+04  0.33036810728E+04  0.79905685848E+03 0.  0.
         22    1    5    5    0    0 -0.20806326597E+03 -0.29817298877E+03 -0.10368639664E+04  0.10987649151E+04  0.00000000000E+00 0. -1.
         22    1    5    5    0    0  0.33472116662E+03  0.24317624580E+03 -0.21657521364E+04  0.22049161577E+04  0.00000000000E+00 0. -1.
          5    1    4    4  502    0 -0.12105570652E+03  0.85081121382E+02 -0.62068233045E+03  0.63809241229E+03  0.47000000000E+01 0.  1.
         -5    1    4    4    0  502 -0.56021941246E+01 -0.30084378417E+02 -0.27789808564E+03  0.27961740005E+03  0.47000000000E+01 0.  1.
<mgrwt>
<rscale>  0 0.10001640E+04</rscale>
<asrwt>0</asrwt>
<pdfrwt beam="1">  1        1 0.64019902E+00 0.10001640E+04</pdfrwt>
<pdfrwt beam="2">  1       -1 0.92457207E-02 0.10001640E+04</pdfrwt>
<totfact> 0.59136526E+00</totfact>
</mgrwt>
</event>
<event>
 9    1  0.4412976E-036  0.9999322E+03  0.7818608E-02  0.8681103E-01
          4   -1    0    0  501    0  0.00000000000E+00  0.00000000000E+00  0.10582813002E+04  0.10582813002E+04  0.00000000000E+00 0. -1.
         -4   -1    0    0    0  501 -0.00000000000E+00 -0.00000000000E+00 -0.23620003491E+03  0.23620003491E+03  0.00000000000E+00 0. -1.
         36    2    1    2    0    0  0.00000000000E+00  0.14210854715E-13  0.82208126533E+03  0.12944813351E+04  0.99993215781E+03 0.  0.
         25    2    3    3    0    0 -0.12688371790E+03  0.59397449472E+02  0.12993499864E+03  0.22903135772E+03  0.12627242009E+03 0.  0.
         35    2    3    3    0    0  0.12688371790E+03 -0.59397449472E+02  0.69214626669E+03  0.10654499774E+04  0.79780302394E+03 0.  0.
         22    1    5    5    0    0 -0.14148421276E+03  0.14331990782E+03 -0.85041974543E+02  0.21861042032E+03  0.00000000000E+00 0. -1.
         22    1    5    5    0    0  0.26836793067E+03 -0.20271735729E+03  0.77718824124E+03  0.84683955710E+03  0.00000000000E+00 0. -1.
          5    1    4    4  502    0 -0.63892997255E+02  0.30020883243E+02  0.14170100682E+03  0.15838192404E+03  0.47000000000E+01 0. -1.
         -5    1    4    4    0  502 -0.62990720648E+02  0.29376566229E+02 -0.11766008182E+02  0.70649433683E+02  0.47000000000E+01 0. -1.
<mgrwt>
<rscale>  0 0.99993216E+03</rscale>
<asrwt>0</asrwt>
<pdfrwt beam="1">  1        4 0.16281251E+00 0.99993216E+03</pdfrwt>
<pdfrwt beam="2">  1       -4 0.36338467E-01 0.99993216E+03</pdfrwt>
<totfact> 0.34027083E+00</totfact>
</mgrwt>
</event>
<event>
 9    1  0.4412976E-036  0.9997260E+03  0.7818608E-02  0.8681299E-01
          2   -1    0    0  501    0  0.00000000000E+00  0.00000000000E+00  0.34056063430E+03  0.34056063430E+03  0.00000000000E+00 0.  1.
         -2   -1    0    0    0  501 -0.00000000000E+00 -0.00000000000E+00 -0.73368149594E+03  0.73368149594E+03  0.00000000000E+00 0.  1.
         36    2    1    2    0    0  0.00000000000E+00 -0.10658141036E-13 -0.39312086165E+03  0.10742421302E+04  0.99972603373E+03 0.  0.
         25    2    3    3    0    0 -0.11919577338E+03 -0.29332468757E+02  0.27046888343E+01  0.17422983733E+03  0.12361510733E+03 0.  0.
         35    2    3    3    0    0  0.11919577338E+03  0.29332468757E+02 -0.39582555048E+03  0.90001229291E+03  0.79892192038E+03 0.  0.
         22    1    5    5    0    0  0.46109966307E+03  0.19816474621E+02 -0.17889251296E+03  0.49498295237E+03  0.00000000000E+00 0.  1.
         22    1    5    5    0    0 -0.34190388969E+03  0.95159941364E+01 -0.21693303753E+03  0.40502934054E+03  0.00000000000E+00 0.  1.
          5    1    4    4  502    0 -0.76502055609E+02  0.41497702880E+02 -0.17653863042E+02  0.88929032025E+02  0.47000000000E+01 0.  1.
         -5    1    4    4    0  502 -0.42693717768E+02 -0.70830171638E+02  0.20358551877E+02  0.85300805305E+02  0.47000000000E+01 0.  1.
<mgrwt>
<rscale>  0 0.99972603E+03</rscale>
<asrwt>0</asrwt>
<pdfrwt beam="1">  1        2 0.52393944E-01 0.99972603E+03</pdfrwt>
<pdfrwt beam="2">  1       -2 0.11287408E+00 0.99972603E+03</pdfrwt>
<totfact> 0.69102057E+01</totfact>
</mgrwt>
</event>
<event>
 9    1  0.4412976E-036  0.1000455E+04  0.7818608E-02  0.8680605E-01
          2   -1    0    0  501    0  0.00000000000E+00  0.00000000000E+00  0.11856694243E+04  0.11856694243E+04  0.00000000000E+00 0. -1.
         -2   -1    0    0    0  501 -0.00000000000E+00 -0.00000000000E+00 -0.21104309810E+03  0.21104309810E+03  0.00000000000E+00 0. -1.
         36    2    1    2    0    0  0.00000000000E+00  0.14210854715E-13  0.97462632622E+03  0.13967125224E+04  0.10004545939E+04 0.  0.
         25    2    3    3    0    0 -0.73444669653E+02 -0.92809787608E+02  0.77930336614E+02  0.18899352617E+03  0.12505054735E+03 0.  0.
         35    2    3    3    0    0  0.73444669653E+02  0.92809787608E+02  0.89669598961E+03  0.12077189962E+04  0.80032099807E+03 0.  0.
         22    1    5    5    0    0  0.18897547454E+03  0.41849298229E+03  0.44959329309E+03  0.64263693902E+03  0.00000000000E+00 0. -1.
         22    1    5    5    0    0 -0.11553080488E+03 -0.32568319468E+03  0.44710269652E+03  0.56508205723E+03  0.00000000000E+00 0. -1.
          5    1    4    4  502    0 -0.15176813968E+02  0.31221725585E+02  0.14450947292E+02  0.37895272903E+02  0.47000000000E+01 0.  1.
         -5    1    4    4    0  502 -0.58267855685E+02 -0.12403151319E+03  0.63479389323E+02  0.15109825327E+03  0.47000000000E+01 0.  1.
<mgrwt>
<rscale>  0 0.10004546E+04</rscale>
<asrwt>0</asrwt>
<pdfrwt beam="1">  1        2 0.18241068E+00 0.10004546E+04</pdfrwt>
<pdfrwt beam="2">  1       -2 0.32468170E-01 0.10004546E+04</pdfrwt>
<totfact> 0.20570005E+02</totfact>
</mgrwt>
</event>
<event>
 9    1  0.4412976E-036  0.9985630E+03  0.7818608E-02  0.8682408E-01
          2   -1    0    0  501    0  0.00000000000E+00  0.00000000000E+00  0.19415669397E+04  0.19415669397E+04  0.00000000000E+00 0.  1.
         -2   -1    0    0    0  501 -0.00000000000E+00 -0.00000000000E+00 -0.12839217869E+03  0.12839217869E+03  0.00000000000E+00 0.  1.
         36    2    1    2    0    0  0.49737991503E-13  0.14210854715E-13  0.18131747610E+04  0.20699591184E+04  0.99856298642E+03 0.  0.
         25    2    3    3    0    0  0.44729685778E+01  0.60379960823E+02  0.75961916420E+02  0.15594978999E+03  0.12200154562E+03 0.  0.
         35    2    3    3    0    0 -0.44729685778E+01 -0.60379960823E+02  0.17372128446E+04  0.19140093284E+04  0.80116009306E+03 0.  0.
         22    1    5    5    0    0  0.33644077012E+03  0.12820416133E+03  0.11828895281E+04  0.12364693018E+04  0.00000000000E+00 0.  1.
         22    1    5    5    0    0 -0.34091373870E+03 -0.18858412215E+03  0.55432331652E+03  0.67754002656E+03  0.00000000000E+00 0.  1.
          5    1    4    4  502    0 -0.52666013193E+02  0.55987851151E+02  0.31236345979E+02  0.83103235390E+02  0.47000000000E+01 0.  1.
         -5    1    4    4    0  502  0.57138981771E+02  0.43921096718E+01  0.44725570440E+02  0.72846554595E+02  0.47000000000E+01 0.  1.
<mgrwt>
<rscale>  0 0.99856299E+03</rscale>
<asrwt>0</asrwt>
<pdfrwt beam="1">  1        2 0.29870259E+00 0.99856299E+03</pdfrwt>
<pdfrwt beam="2">  1       -2 0.19752644E-01 0.99856299E+03</pdfrwt>
<totfact> 0.18489342E+02</totfact>
</mgrwt>
</event>
<event>
 9    1  0.4412976E-036  0.9997329E+03  0.7818608E-02  0.8681292E-01
         -2   -1    0    0    0  501 -0.00000000000E+00  0.00000000000E+00  0.13142556917E+03  0.13142556917E+03  0.00000000000E+00 0.  1.
          2   -1    0    0  501    0  0.00000000000E+00 -0.00000000000E+00 -0.19012013483E+04  0.19012013483E+04  0.00000000000E+00 0.  1.
         36    2    1    2    0    0  0.15987211555E-13 -0.14210854715E-13 -0.17697757791E+04  0.20326269175E+04  0.99973290294E+03 0.  0.
         25    2    3    3    0    0  0.25418614991E+01  0.12697324899E+02 -0.49087460581E+02  0.13501902838E+03  0.12511145478E+03 0.  0.
         35    2    3    3    0    0 -0.25418614991E+01 -0.12697324899E+02 -0.17206883185E+04  0.18976078891E+04  0.79998732992E+03 0.  0.
         22    1    5    5    0    0 -0.31235875745E+03  0.24311295725E+03 -0.77906645271E+03  0.87385149830E+03  0.00000000000E+00 0. -1.
         22    1    5    5    0    0  0.30981689595E+03 -0.25581028215E+03 -0.94162186583E+03  0.10237563908E+04  0.00000000000E+00 0. -1.
          5    1    4    4  502    0 -0.84216437497E+01 -0.38103529084E+02 -0.68801132472E+02  0.79236915901E+02  0.47000000000E+01 0. -1.
         -5    1    4    4    0  502  0.10963505249E+02  0.50800853983E+02  0.19713671890E+02  0.55782112475E+02  0.47000000000E+01 0. -1.
<mgrwt>
<rscale>  0 0.99973290E+03</rscale>
<asrwt>0</asrwt>
<pdfrwt beam="1">  1        2 0.29249253E+00 0.99973290E+03</pdfrwt>
<pdfrwt beam="2">  1       -2 0.20219317E-01 0.99973290E+03</pdfrwt>
<totfact> 0.18718564E+02</totfact>
</mgrwt>
</event>
<event>
 9    1  0.4412976E-036  0.1000277E+04  0.7818608E-02  0.8680774E-01
          1   -1    0    0  501    0  0.00000000000E+00  0.00000000000E+00  0.67405173297E+03  0.67405173297E+03  0.00000000000E+00 0.  1.
         -1   -1    0    0    0  501 -0.00000000000E+00 -0.00000000000E+00 -0.37109697586E+03  0.37109697586E+03  0.00000000000E+00 0.  1.
         36    2    1    2    0    0  0.00000000000E+00  0.71054273576E-14  0.30295475712E+03  0.10451487088E+04  0.10002770810E+04 0.  0.
         25    2    3    3    0    0 -0.13620293137E+03 -0.34119521598E+02  0.89720648808E+02  0.20796347360E+03  0.12443324017E+03 0.  0.
         35    2    3    3    0    0  0.13620293137E+03  0.34119521598E+02  0.21323410831E+03  0.83718523523E+03  0.79730480550E+03 0.  0.
         22    1    5    5    0    0  0.14595699943E+02  0.24856957186E+03  0.43783421355E+03  0.50368508521E+03  0.00000000000E+00 0. -1.
         22    1    5    5    0    0  0.12160723143E+03 -0.21445005026E+03 -0.22460010524E+03  0.33350015002E+03  0.00000000000E+00 0. -1.
          5    1    4    4  502    0 -0.11212740985E+03 -0.20166893661E+02  0.12071073913E+03  0.16604948714E+03  0.47000000000E+01 0.  1.
         -5    1    4    4    0  502 -0.24075521525E+02 -0.13952627937E+02 -0.30990090317E+02  0.41913986460E+02  0.47000000000E+01 0.  1.
<mgrwt>
<rscale>  0 0.10002771E+04</rscale>
<asrwt>0</asrwt>
<pdfrwt beam="1">  1        1 0.10370027E+00 0.10002771E+04</pdfrwt>
<pdfrwt beam="2">  1       -1 0.57091842E-01 0.10002771E+04</pdfrwt>
<totfact> 0.10334952E+02</totfact>
</mgrwt>
</event>
<event>
 9    1  0.4412976E-036  0.1000643E+04  0.7818608E-02  0.8680426E-01
          2   -1    0    0  501    0  0.00000000000E+00  0.00000000000E+00  0.52538217241E+03  0.52538217241E+03  0.00000000000E+00 0. -1.
         -2   -1    0    0    0  501 -0.00000000000E+00 -0.00000000000E+00 -0.47645611930E+03  0.47645611930E+03  0.00000000000E+00 0. -1.
         36    2    1    2    0    0 -0.71054273576E-14 -0.56843418861E-13  0.48926053110E+02  0.10018382917E+04  0.10006428954E+04 0.  0.
         25    2    3    3    0    0 -0.46088890710E+02 -0.13581722595E+03  0.14376434928E+02  0.19087292409E+03  0.12512108758E+03 0.  0.
         35    2    3    3    0    0  0.46088890710E+02  0.13581722595E+03  0.34549618181E+02  0.81096536762E+03  0.79743378825E+03 0.  0.
         22    1    5    5    0    0  0.15084127822E+03  0.28170398114E+03  0.33371208062E+03  0.46203244145E+03  0.00000000000E+00 0.  1.
         22    1    5    5    0    0 -0.10475238751E+03 -0.14588675518E+03 -0.29916246244E+03  0.34893292616E+03  0.00000000000E+00 0.  1.
          5    1    4    4  502    0 -0.24251385329E+02 -0.12357123243E+03 -0.38846439796E+02  0.13186779387E+03  0.47000000000E+01 0. -1.
         -5    1    4    4    0  502 -0.21837505381E+02 -0.12245993524E+02  0.53222874724E+02  0.59005130222E+02  0.47000000000E+01 0. -1.
<mgrwt>
<rscale>  0 0.10006429E+04</rscale>
<asrwt>0</asrwt>
<pdfrwt beam="1">  1        2 0.80828027E-01 0.10006429E+04</pdfrwt>
<pdfrwt beam="2">  1       -2 0.73300941E-01 0.10006429E+04</pdfrwt>
<totfact> 0.11800074E+02</totfact>
</mgrwt>
</event>
<event>
 9    1  0.4412976E-036  0.9996373E+03  0.7818608E-02  0.8681383E-01
          1   -1    0    0  501    0  0.00000000000E+00  0.00000000000E+00  0.37598304314E+03  0.37598304314E+03  0.00000000000E+00 0.  1.
         -1   -1    0    0    0  501 -0.00000000000E+00 -0.00000000000E+00 -0.66444140875E+03  0.66444140875E+03  0.00000000000E+00 0.  1.
         36    2    1    2    0    0  0.00000000000E+00  0.00000000000E+00 -0.28845836560E+03  0.10404244519E+04  0.99963733994E+03 0.  0.
         25    2    3    3    0    0  0.57267967603E+02 -0.11382366683E+03 -0.10459593021E+03  0.20695796750E+03  0.12512331698E+03 0.  0.
         35    2    3    3    0    0 -0.57267967603E+02  0.11382366683E+03 -0.18386243539E+03  0.83346648439E+03  0.80288575664E+03 0.  0.
         22    1    5    5    0    0  0.71154867820E+02 -0.15739991811E+03 -0.41836169080E+03  0.45261932545E+03  0.00000000000E+00 0.  1.
         22    1    5    5    0    0 -0.12842283542E+03  0.27122358494E+03  0.23449925541E+03  0.38084715894E+03  0.00000000000E+00 0.  1.
          5    1    4    4  502    0  0.86940581027E+02 -0.10223501055E+03 -0.49454276459E+02  0.14310303096E+03  0.47000000000E+01 0. -1.
         -5    1    4    4    0  502 -0.29672613423E+02 -0.11588656282E+02 -0.55141653749E+02  0.63854936536E+02  0.47000000000E+01 0. -1.
<mgrwt>
<rscale>  0 0.99963734E+03</rscale>
<asrwt>0</asrwt>
<pdfrwt beam="1">  1        1 0.57843545E-01 0.99963734E+03</pdfrwt>
<pdfrwt beam="2">  1       -1 0.10222176E+00 0.99963734E+03</pdfrwt>
<totfact> 0.70800519E+01</totfact>
</mgrwt>
</event>
<event>
 9    1  0.4412976E-036  0.9997754E+03  0.7818608E-02  0.8681252E-01
         -2   -1    0    0    0  501 -0.00000000000E+00  0.00000000000E+00  0.64305574008E+03  0.64305574008E+03  0.00000000000E+00 0.  1.
          2   -1    0    0  501    0  0.00000000000E+00 -0.00000000000E+00 -0.38859419720E+03  0.38859419720E+03  0.00000000000E+00 0.  1.
         36    2    1    2    0    0 -0.28421709430E-13 -0.14210854715E-13  0.25446154288E+03  0.10316499373E+04  0.99977543293E+03 0.  0.
         25    2    3    3    0    0  0.11165191163E+03  0.41378690849E+02 -0.22247811930E+02  0.17631444837E+03  0.12811508163E+03 0.  0.
         35    2    3    3    0    0 -0.11165191163E+03 -0.41378690849E+02  0.27670935481E+03  0.85533548891E+03  0.80053256406E+03 0.  0.
         22    1    5    5    0    0 -0.43647925730E+03 -0.10858820703E+03  0.26787589922E+03  0.52351030376E+03  0.00000000000E+00 0. -1.
         22    1    5    5    0    0  0.32482734567E+03  0.67209516186E+02  0.88334555958E+01  0.33182518515E+03  0.00000000000E+00 0. -1.
          5    1    4    4  502    0  0.67678680270E+01  0.62119794057E+02 -0.29070751888E+02  0.69078733823E+02  0.47000000000E+01 0. -1.
         -5    1    4    4    0  502  0.10488404360E+03 -0.20741103208E+02  0.68229399582E+01  0.10723571454E+03  0.47000000000E+01 0. -1.
<mgrwt>
<rscale>  0 0.99977543E+03</rscale>
<asrwt>0</asrwt>
<pdfrwt beam="1">  1        2 0.59783723E-01 0.99977543E+03</pdfrwt>
<pdfrwt beam="2">  1       -2 0.98931652E-01 0.99977543E+03</pdfrwt>
<totfact> 0.82760180E+01</totfact>
</mgrwt>
</event>
<event>
 9    1  0.4412976E-036  0.9986481E+03  0.7818608E-02  0.8682326E-01
         -1   -1    0    0    0  501 -0.00000000000E+00  0.00000000000E+00  0.27937853896E+03  0.27937853896E+03  0.00000000000E+00 0. -1.
          1   -1    0    0  501    0  0.00000000000E+00 -0.00000000000E+00 -0.89242542221E+03  0.89242542221E+03  0.00000000000E+00 0. -1.
         36    2    1    2    0    0  0.42632564146E-13 -0.35527136788E-14 -0.61304688325E+03  0.11718039612E+04  0.99864810737E+03 0.  0.
         25    2    3    3    0    0  0.24823003641E+02 -0.31512412480E+02 -0.27009369563E+03  0.30041588687E+03  0.12525927916E+03 0.  0.
         35    2    3    3    0    0 -0.24823003641E+02  0.31512412480E+02 -0.34295318762E+03  0.87138807429E+03  0.80005691890E+03 0.  0.
         22    1    5    5    0    0  0.28739960480E+03 -0.14315388292E+03  0.66253270804E+02  0.32784304618E+03  0.00000000000E+00 0. -1.
         22    1    5    5    0    0 -0.31222260845E+03  0.17466629540E+03 -0.40920645842E+03  0.54354502811E+03  0.00000000000E+00 0. -1.
          5    1    4    4  502    0 -0.99436390838E+01 -0.43881620457E+02 -0.23398639662E+02  0.50931904639E+02  0.47000000000E+01 0.  1.
         -5    1    4    4    0  502  0.34766642724E+02  0.12369207976E+02 -0.24669505597E+03  0.24948398223E+03  0.47000000000E+01 0.  1.
<mgrwt>
<rscale>  0 0.99864811E+03</rscale>
<asrwt>0</asrwt>
<pdfrwt beam="1">  1        1 0.13729622E+00 0.99864811E+03</pdfrwt>
<pdfrwt beam="2">  1       -1 0.42981314E-01 0.99864811E+03</pdfrwt>
<totfact> 0.11120454E+02</totfact>
</mgrwt>
</event>
<event>
 9    1  0.4412976E-036  0.1013252E+04  0.7818608E-02  0.8668519E-01
          1   -1    0    0  501    0  0.00000000000E+00  0.00000000000E+00  0.13923119934E+04  0.13923119934E+04  0.00000000000E+00 0.  1.
         -1   -1    0    0    0  501 -0.00000000000E+00 -0.00000000000E+00 -0.18434811296E+03  0.18434811296E+03  0.00000000000E+00 0.  1.
         36    2    1    2    0    0  0.17763568394E-13  0.14210854715E-13  0.12079638805E+04  0.15766601064E+04  0.10132523647E+04 0.  0.
         25    2    3    3    0    0  0.17199234805E+02  0.13331809795E+02  0.47588521613E+03  0.49270734073E+03  0.12577851107E+03 0.  0.
         35    2    3    3    0    0 -0.17199234805E+02 -0.13331809795E+02  0.73207866434E+03  0.10839527657E+04  0.79908752749E+03 0.  0.
         22    1    5    5    0    0 -0.23584236052E+03 -0.96988541277E+02 -0.56643580581E+02  0.26122191978E+03  0.00000000000E+00 0. -1.
         22    1    5    5    0    0  0.21864312571E+03  0.83656731482E+02  0.78872224492E+03  0.82273084589E+03  0.00000000000E+00 0. -1.
          5    1    4    4  502    0 -0.47988597863E+01  0.46112316948E+02  0.42773247189E+03  0.43026332906E+03  0.47000000000E+01 0. -1.
         -5    1    4    4    0  502  0.21998094591E+02 -0.32780507153E+02  0.48152744247E+02  0.62444011670E+02  0.47000000000E+01 0. -1.
<mgrwt>
<rscale>  0 0.10132524E+04</rscale>
<asrwt>0</asrwt>
<pdfrwt beam="1">  1        1 0.21420184E+00 0.10132524E+04</pdfrwt>
<pdfrwt beam="2">  1       -1 0.28361249E-01 0.10132524E+04</pdfrwt>
<totfact> 0.95256331E+01</totfact>
</mgrwt>
</event>
<event>
 9    1  0.4412976E-036  0.9973636E+03  0.7818608E-02  0.8683553E-01
          2   -1    0    0  501    0  0.00000000000E+00  0.00000000000E+00  0.17558900023E+04  0.17558900023E+04  0.00000000000E+00 0.  1.
         -2   -1    0    0    0  501 -0.00000000000E+00 -0.00000000000E+00 -0.14162821124E+03  0.14162821124E+03  0.00000000000E+00 0.  1.
         36    2    1    2    0    0 -0.49737991503E-13  0.00000000000E+00  0.16142617911E+04  0.18975182136E+04  0.99736364513E+03 0.  0.
         25    2    3    3    0    0 -0.62446324952E+02  0.12150534977E+03  0.32113424481E+03  0.37040202081E+03  0.12412638845E+03 0.  0.
         35    2    3    3    0    0  0.62446324952E+02 -0.12150534977E+03  0.12931275463E+04  0.15271161928E+04  0.80077582487E+03 0.  0.
         22    1    5    5    0    0 -0.22547035550E+03  0.14483590682E+03  0.12653123237E+03  0.29635194259E+03  0.00000000000E+00 0. -1.
         22    1    5    5    0    0  0.28791668045E+03 -0.26634125659E+03  0.11665963139E+04  0.12307642502E+04  0.00000000000E+00 0. -1.
          5    1    4    4  502    0  0.11910711265E+02  0.47031781190E+02  0.21651752783E+03  0.22193643988E+03  0.47000000000E+01 0.  1.
         -5    1    4    4    0  502 -0.74357036217E+02  0.74473568578E+02  0.10461671697E+03  0.14846558093E+03  0.47000000000E+01 0.  1.
<mgrwt>
<rscale>  0 0.99736365E+03</rscale>
<asrwt>0</asrwt>
<pdfrwt beam="1">  1        2 0.27013691E+00 0.99736365E+03</pdfrwt>
<pdfrwt beam="2">  1       -2 0.21788957E-01 0.99736365E+03</pdfrwt>
<totfact> 0.19855448E+02</totfact>
</mgrwt>
</event>
<event>
 9    1  0.4412976E-036  0.1000201E+04  0.7818608E-02  0.8680847E-01
          2   -1    0    0  501    0  0.00000000000E+00  0.00000000000E+00  0.51805334628E+03  0.51805334628E+03  0.00000000000E+00 0. -1.
         -2   -1    0    0    0  501 -0.00000000000E+00 -0.00000000000E+00 -0.48276939160E+03  0.48276939160E+03  0.00000000000E+00 0. -1.
         36    2    1    2    0    0 -0.28421709430E-13 -0.14210854715E-13  0.35283954676E+02  0.10008227379E+04  0.10002005775E+04 0.  0.
         25    2    3    3    0    0  0.11327218232E+03  0.19751518403E+02  0.89752394964E+02  0.19198660681E+03  0.12483050519E+03 0.  0.
         35    2    3    3    0    0 -0.11327218232E+03 -0.19751518403E+02 -0.54468440288E+02  0.80883613107E+03  0.79876677833E+03 0.  0.
         22    1    5    5    0    0  0.21916796785E+03  0.16436085122E+03 -0.25923359799E+03  0.37716196239E+03  0.00000000000E+00 0.  1.
         22    1    5    5    0    0 -0.33244015018E+03 -0.18411236963E+03  0.20476515770E+03  0.43167416868E+03  0.00000000000E+00 0.  1.
          5    1    4    4  502    0  0.52257790222E+02  0.59339515157E+02  0.38107583186E+01  0.79301113340E+02  0.47000000000E+01 0.  1.
         -5    1    4    4    0  502  0.61014392102E+02 -0.39587996753E+02  0.85941636645E+02  0.11268549347E+03  0.47000000000E+01 0.  1.
<mgrwt>
<rscale>  0 0.10002006E+04</rscale>
<asrwt>0</asrwt>
<pdfrwt beam="1">  1        2 0.79700515E-01 0.10002006E+04</pdfrwt>
<pdfrwt beam="2">  1       -2 0.74272214E-01 0.10002006E+04</pdfrwt>
<totfact> 0.11648697E+02</totfact>
</mgrwt>
</event>
<event>
 9    1  0.4412976E-036  0.1000159E+04  0.7818608E-02  0.8680886E-01
          2   -1    0    0  501    0  0.00000000000E+00  0.00000000000E+00  0.11921849524E+04  0.11921849524E+04  0.00000000000E+00 0.  1.
         -2   -1    0    0    0  501 -0.00000000000E+00 -0.00000000000E+00 -0.20976576120E+03  0.20976576120E+03  0.00000000000E+00 0.  1.
         36    2    1    2    0    0  0.00000000000E+00  0.00000000000E+00  0.98241919122E+03  0.14019507136E+04  0.10001591554E+04 0.  0.
         25    2    3    3    0    0 -0.19628370024E+02  0.49336289238E+02  0.26853614344E+01  0.13627185477E+03  0.12547296478E+03 0.  0.
         35    2    3    3    0    0  0.19628370024E+02 -0.49336289238E+02  0.97973382978E+03  0.12656788588E+04  0.79952814469E+03 0.  0.
         22    1    5    5    0    0  0.21560813052E+02 -0.17416689427E+03 -0.84056320348E+02  0.19458787400E+03  0.00000000000E+00 0. -1.
         22    1    5    5    0    0 -0.19324430274E+01  0.12483060503E+03  0.10637901501E+04  0.10710909848E+04  0.00000000000E+00 0. -1.
          5    1    4    4  502    0  0.29358058649E+01 -0.40839245861E+02 -0.98028919149E+01  0.42363305448E+02  0.47000000000E+01 0.  1.
         -5    1    4    4    0  502 -0.22564175889E+02  0.90175535099E+02  0.12488253349E+02  0.93908549321E+02  0.47000000000E+01 0.  1.
<mgrwt>
<rscale>  0 0.10001592E+04</rscale>
<asrwt>0</asrwt>
<pdfrwt beam="1">  1        2 0.18341307E+00 0.10001592E+04</pdfrwt>
<pdfrwt beam="2">  1       -2 0.32271656E-01 0.10001592E+04</pdfrwt>
<totfact> 0.20617289E+02</totfact>
</mgrwt>
</event>
<event>
 9    1  0.4412976E-036  0.1001365E+04  0.7818608E-02  0.8679739E-01
          1   -1    0    0  501    0  0.00000000000E+00  0.00000000000E+00  0.11343246031E+04  0.11343246031E+04  0.00000000000E+00 0.  1.
         -1   -1    0    0    0  501 -0.00000000000E+00 -0.00000000000E+00 -0.22099760189E+03  0.22099760189E+03  0.00000000000E+00 0.  1.
         36    2    1    2    0    0  0.28421709430E-13 -0.71054273576E-14  0.91332700117E+03  0.13553222050E+04  0.10013651023E+04 0.  0.
         25    2    3    3    0    0 -0.12005539364E+03 -0.58589962805E+02  0.23361516837E+03  0.29672816464E+03  0.12500190206E+03 0.  0.
         35    2    3    3    0    0  0.12005539364E+03  0.58589962805E+02  0.67971183281E+03  0.10585940403E+04  0.80047928471E+03 0.  0.
         22    1    5    5    0    0 -0.19247888100E+03  0.10323818629E+03  0.70866604476E+03  0.74156173427E+03  0.00000000000E+00 0. -1.
         22    1    5    5    0    0  0.31253427464E+03 -0.44648223488E+02 -0.28954211953E+02  0.31703230605E+03  0.00000000000E+00 0. -1.
          5    1    4    4  502    0 -0.71913663219E+02 -0.17377489530E+02  0.24353126233E+02  0.78030230406E+02  0.47000000000E+01 0.  1.
         -5    1    4    4    0  502 -0.48141730419E+02 -0.41212473275E+02  0.20926204213E+03  0.21869793424E+03  0.47000000000E+01 0.  1.
<mgrwt>
<rscale>  0 0.10013651E+04</rscale>
<asrwt>0</asrwt>
<pdfrwt beam="1">  1        1 0.17451147E+00 0.10013651E+04</pdfrwt>
<pdfrwt beam="2">  1       -1 0.33999632E-01 0.10013651E+04</pdfrwt>
<totfact> 0.10819988E+02</totfact>
</mgrwt>
</event>
<event>
 9    1  0.4412976E-036  0.1002166E+04  0.7818608E-02  0.8678978E-01
          1   -1    0    0  501    0  0.00000000000E+00  0.00000000000E+00  0.53735516304E+03  0.53735516304E+03  0.00000000000E+00 0. -1.
         -1   -1    0    0    0  501 -0.00000000000E+00 -0.00000000000E+00 -0.46725943325E+03  0.46725943325E+03  0.00000000000E+00 0. -1.
         36    2    1    2    0    0  0.14210854715E-13  0.14210854715E-13  0.70095729790E+02  0.10046145963E+04  0.10021661917E+04 0.  0.
         25    2    3    3    0    0  0.10575638263E+03  0.93972224551E+02  0.31969730579E+02  0.19111192379E+03  0.12444481623E+03 0.  0.
         35    2    3    3    0    0 -0.10575638263E+03 -0.93972224551E+02  0.38125999210E+02  0.81350267250E+03  0.80019860966E+03 0.  0.
         22    1    5    5    0    0 -0.75071284394E+02 -0.11685542974E+03 -0.37433395542E+03  0.39927033371E+03  0.00000000000E+00 0.  1.
         22    1    5    5    0    0 -0.30685098235E+02  0.22883205188E+02  0.41245995463E+03  0.41423233880E+03  0.00000000000E+00 0.  1.
          5    1    4    4  502    0 -0.19908281904E+02  0.50342304961E+02  0.52544599136E+00  0.54342004478E+02  0.47000000000E+01 0. -1.
         -5    1    4    4    0  502  0.12566466453E+03  0.43629919589E+02  0.31444284588E+02  0.13676991931E+03  0.47000000000E+01 0. -1.
<mgrwt>
<rscale>  0 0.10021662E+04</rscale>
<asrwt>0</asrwt>
<pdfrwt beam="1">  1        1 0.82670026E-01 0.10021662E+04</pdfrwt>
<pdfrwt beam="2">  1       -1 0.71886066E-01 0.10021662E+04</pdfrwt>
<totfact> 0.91936943E+01</totfact>
</mgrwt>
</event>
<event>
 9    1  0.4412976E-036  0.1000004E+04  0.7818608E-02  0.8681034E-01
          1   -1    0    0  501    0  0.00000000000E+00  0.00000000000E+00  0.13275416786E+04  0.13275416786E+04  0.00000000000E+00 0.  1.
         -1   -1    0    0    0  501 -0.00000000000E+00 -0.00000000000E+00 -0.18831946786E+03  0.18831946786E+03  0.00000000000E+00 0.  1.
         36    2    1    2    0    0  0.00000000000E+00  0.00000000000E+00  0.11392222107E+04  0.15158611464E+04  0.10000038849E+04 0.  0.
         25    2    3    3    0    0  0.71289082810E+02 -0.91200055667E+02  0.95234259586E+02  0.19542052394E+03  0.12537955773E+03 0.  0.
         35    2    3    3    0    0 -0.71289082810E+02  0.91200055667E+02  0.10439879511E+04  0.13204406225E+04  0.80015811685E+03 0.  0.
         22    1    5    5    0    0  0.24602918147E+03 -0.23783195680E+03  0.35041685910E+03  0.48978196470E+03  0.00000000000E+00 0.  1.
         22    1    5    5    0    0 -0.31731826428E+03  0.32903201247E+03  0.69357109202E+03  0.83065865779E+03  0.00000000000E+00 0.  1.
          5    1    4    4  502    0  0.10244242304E+03 -0.83636387968E+02  0.95203731739E+02  0.16301943432E+03  0.47000000000E+01 0. -1.
         -5    1    4    4    0  502 -0.31153340228E+02 -0.75636676991E+01  0.30527846944E-01  0.32401089617E+02  0.47000000000E+01 0. -1.
<mgrwt>
<rscale>  0 0.10000039E+04</rscale>
<asrwt>0</asrwt>
<pdfrwt beam="1">  1        1 0.20423718E+00 0.10000039E+04</pdfrwt>
<pdfrwt beam="2">  1       -1 0.28972227E-01 0.10000039E+04</pdfrwt>
<totfact> 0.10244115E+02</totfact>
</mgrwt>
</event>
<event>
 9    1  0.4412976E-036  0.1000386E+04  0.7818608E-02  0.8680670E-01
         -2   -1    0    0    0  501 -0.00000000000E+00  0.00000000000E+00  0.48370537797E+03  0.48370537797E+03  0.00000000000E+00 0.  1.
          2   -1    0    0  501    0  0.00000000000E+00 -0.00000000000E+00 -0.51724279497E+03  0.51724279497E+03  0.00000000000E+00 0.  1.
         36    2    1    2    0    0  0.00000000000E+00  0.00000000000E+00 -0.33537416994E+02  0.10009481729E+04  0.10003861687E+04 0.  0.
         25    2    3    3    0    0  0.16368936697E+02  0.12572648886E+03  0.54021164474E+02  0.18613796686E+03  0.12511580398E+03 0.  0.
         35    2    3    3    0    0 -0.16368936697E+02 -0.12572648886E+03 -0.87558581468E+02  0.81481020608E+03  0.80010878926E+03 0.  0.
         22    1    5    5    0    0  0.82078770253E+02 -0.45698460286E+03 -0.59527244053E+02  0.46809758017E+03  0.00000000000E+00 0.  1.
         22    1    5    5    0    0 -0.98447706950E+02  0.33125811399E+03 -0.28031337415E+02  0.34671262591E+03  0.00000000000E+00 0.  1.
          5    1    4    4  502    0  0.39859657891E+02  0.10763174892E+03 -0.10121923778E+02  0.11531664686E+03  0.47000000000E+01 0.  1.
         -5    1    4    4    0  502 -0.23490721194E+02  0.18094739943E+02  0.64143088252E+02  0.70821319999E+02  0.47000000000E+01 0.  1.
<mgrwt>
<rscale>  0 0.10003862E+04</rscale>
<asrwt>0</asrwt>
<pdfrwt beam="1">  1        2 0.79575815E-01 0.10003862E+04</pdfrwt>
<pdfrwt beam="2">  1       -2 0.74416211E-01 0.10003862E+04</pdfrwt>
<totfact> 0.11619582E+02</totfact>
</mgrwt>
</event>
<event>
 9    1  0.4412976E-036  0.9975710E+03  0.7818608E-02  0.8683355E-01
          2   -1    0    0  501    0  0.00000000000E+00  0.00000000000E+00  0.20106709245E+04  0.20106709245E+04  0.00000000000E+00 0.  1.
         -2   -1    0    0    0  501 -0.00000000000E+00 -0.00000000000E+00 -0.12373330179E+03  0.12373330179E+03  0.00000000000E+00 0.  1.
         36    2    1    2    0    0 -0.14210854715E-13  0.00000000000E+00  0.18869376227E+04  0.21344042263E+04  0.99757095446E+03 0.  0.
         25    2    3    3    0    0 -0.89460698628E+02  0.12261675432E+02  0.13103791092E+03  0.20287437410E+03  0.12583128501E+03 0.  0.
         35    2    3    3    0    0  0.89460698628E+02 -0.12261675432E+02  0.17558997118E+04  0.19315298522E+04  0.79966881064E+03 0.  0.
         22    1    5    5    0    0  0.40421852648E+03 -0.12436650772E+03  0.12946528662E+04  0.13619785935E+04  0.00000000000E+00 0. -1.
         22    1    5    5    0    0 -0.31475782785E+03  0.11210483229E+03  0.46124684563E+03  0.56955125864E+03  0.00000000000E+00 0. -1.
          5    1    4    4  502    0  0.51765556954E+01  0.48227202295E+02  0.67507135735E+02  0.83258411858E+02  0.47000000000E+01 0.  1.
         -5    1    4    4    0  502 -0.94637254323E+02 -0.35965526863E+02  0.63530775180E+02  0.11961596224E+03  0.47000000000E+01 0.  1.
<mgrwt>
<rscale>  0 0.99757095E+03</rscale>
<asrwt>0</asrwt>
<pdfrwt beam="1">  1        2 0.30933396E+00 0.99757095E+03</pdfrwt>
<pdfrwt beam="2">  1       -2 0.19035894E-01 0.99757095E+03</pdfrwt>
<totfact> 0.18001340E+02</totfact>
</mgrwt>
</event>
<event>
 9    1  0.4412976E-036  0.1000544E+04  0.7818608E-02  0.8680520E-01
         -2   -1    0    0    0  501 -0.00000000000E+00  0.00000000000E+00  0.15220233857E+03  0.15220233857E+03  0.00000000000E+00 0.  1.
          2   -1    0    0  501    0  0.00000000000E+00 -0.00000000000E+00 -0.16443373801E+04  0.16443373801E+04  0.00000000000E+00 0.  1.
         36    2    1    2    0    0  0.00000000000E+00 -0.35527136788E-14 -0.14921350416E+04  0.17965397187E+04  0.10005438414E+04 0.  0.
         25    2    3    3    0    0 -0.52370941482E+02 -0.28420404048E+02 -0.50849792495E+03  0.52693488430E+03  0.12465872509E+03 0.  0.
         35    2    3    3    0    0  0.52370941482E+02  0.28420404048E+02 -0.98363711661E+03  0.12696048344E+04  0.80050235695E+03 0.  0.
         22    1    5    5    0    0  0.36645773861E+03  0.74874255011E+02 -0.84319105573E+03  0.92242538164E+03  0.00000000000E+00 0. -1.
         22    1    5    5    0    0 -0.31408679712E+03 -0.46453850964E+02 -0.14044606089E+03  0.34717945276E+03  0.00000000000E+00 0. -1.
          5    1    4    4  502    0 -0.51309353081E+02  0.13712708718E+02 -0.45755344859E+03  0.46064947239E+03  0.47000000000E+01 0. -1.
         -5    1    4    4    0  502 -0.10615884007E+01 -0.42133112765E+02 -0.50944476354E+02  0.66285411911E+02  0.47000000000E+01 0. -1.
<mgrwt>
<rscale>  0 0.10005438E+04</rscale>
<asrwt>0</asrwt>
<pdfrwt beam="1">  1        2 0.25297499E+00 0.10005438E+04</pdfrwt>
<pdfrwt beam="2">  1       -2 0.23415744E-01 0.10005438E+04</pdfrwt>
<totfact> 0.20225585E+02</totfact>
</mgrwt>
</event>
<event>
 9    1  0.4412976E-036  0.9994083E+03  0.7818608E-02  0.8681602E-01
          1   -1    0    0  501    0  0.00000000000E+00  0.00000000000E+00  0.14076302188E+04  0.14076302188E+04  0.00000000000E+00 0. -1.
         -1   -1    0    0    0  501 -0.00000000000E+00 -0.00000000000E+00 -0.17739335635E+03  0.17739335635E+03  0.00000000000E+00 0. -1.
         36    2    1    2    0    0  0.00000000000E+00  0.71054273576E-14  0.12302368624E+04  0.15850235751E+04  0.99940832298E+03 0.  0.
         25    2    3    3    0    0 -0.83864700822E+02  0.63048870448E+02  0.84507425712E+02  0.18404497421E+03  0.12538978994E+03 0.  0.
         35    2    3    3    0    0  0.83864700822E+02 -0.63048870448E+02  0.11457294367E+04  0.14009786009E+04  0.79939767949E+03 0.  0.
         22    1    5    5    0    0  0.11410888194E+03  0.32967619315E+02  0.12502407384E+04  0.12558700589E+04  0.00000000000E+00 0. -1.
         22    1    5    5    0    0 -0.30244181115E+02 -0.96016489763E+02 -0.10451130167E+03  0.14510854205E+03  0.00000000000E+00 0. -1.
          5    1    4    4  502    0  0.22494915309E+02  0.40578418265E+02  0.53359156169E+02  0.70865497887E+02  0.47000000000E+01 0.  1.
         -5    1    4    4    0  502 -0.10635961613E+03  0.22470452183E+02  0.31148269543E+02  0.11317947632E+03  0.47000000000E+01 0.  1.
<mgrwt>
<rscale>  0 0.99940832E+03</rscale>
<asrwt>0</asrwt>
<pdfrwt beam="1">  1        1 0.21655849E+00 0.99940832E+03</pdfrwt>
<pdfrwt beam="2">  1       -1 0.27291287E-01 0.99940832E+03</pdfrwt>
<totfact> 0.99253182E+01</totfact>
</mgrwt>
</event>
<event>
 9    1  0.4412976E-036  0.9995458E+03  0.7818608E-02  0.8681471E-01
          2   -1    0    0  501    0  0.00000000000E+00  0.00000000000E+00  0.80012397204E+03  0.80012397204E+03  0.00000000000E+00 0. -1.
         -2   -1    0    0    0  501 -0.00000000000E+00 -0.00000000000E+00 -0.31216779025E+03  0.31216779025E+03  0.00000000000E+00 0. -1.
         36    2    1    2    0    0 -0.14210854715E-13  0.00000000000E+00  0.48795618179E+03  0.11122917623E+04  0.99954576139E+03 0.  0.
         25    2    3    3    0    0  0.10613509825E+03 -0.73804955473E+02  0.29247946947E+02  0.18324485402E+03  0.12653617502E+03 0.  0.
         35    2    3    3    0    0 -0.10613509825E+03  0.73804955473E+02  0.45870823484E+03  0.92904690828E+03  0.79749801412E+03 0.  0.
         22    1    5    5    0    0 -0.31220220686E+03  0.40111235525E+02 -0.10187126111E+03  0.33084268621E+03  0.00000000000E+00 0.  1.
         22    1    5    5    0    0  0.20606710860E+03  0.33693719948E+02  0.56057949595E+03  0.59820422206E+03  0.00000000000E+00 0.  1.
          5    1    4    4  502    0  0.82431394299E+02 -0.10592361305E+03  0.13326913858E+01  0.13430790235E+03  0.47000000000E+01 0.  1.
         -5    1    4    4    0  502  0.23703703956E+02  0.32118657574E+02  0.27915255562E+02  0.48936951669E+02  0.47000000000E+01 0.  1.
<mgrwt>
<rscale>  0 0.99954576E+03</rscale>
<asrwt>0</asrwt>
<pdfrwt beam="1">  1        2 0.12309599E+00 0.99954576E+03</pdfrwt>
<pdfrwt beam="2">  1       -2 0.48025814E-01 0.99954576E+03</pdfrwt>
<totfact> 0.17120792E+02</totfact>
</mgrwt>
</event>
<event>
 9    1  0.4412976E-036  0.9998273E+03  0.7818608E-02  0.8681202E-01
         -2   -1    0    0    0  501 -0.00000000000E+00  0.00000000000E+00  0.11624771108E+03  0.11624771108E+03  0.00000000000E+00 0.  1.
          2   -1    0    0  501    0  0.00000000000E+00 -0.00000000000E+00 -0.21498372717E+04  0.21498372717E+04  0.00000000000E+00 0.  1.
         36    2    1    2    0    0  0.28421709430E-13 -0.35527136788E-13 -0.20335895606E+04  0.22660849828E+04  0.99982730914E+03 0.  0.
         25    2    3    3    0    0 -0.12605385961E+03 -0.58248454922E+02 -0.40557536296E+03  0.44669511181E+03  0.12554955140E+03 0.  0.
         35    2    3    3    0    0  0.12605385961E+03  0.58248454922E+02 -0.16280141977E+04  0.18193898710E+04  0.80029170729E+03 0.  0.
         22    1    5    5    0    0  0.29833778790E+03  0.29180069828E+03 -0.13662355944E+04  0.14285491880E+04  0.00000000000E+00 0.  1.
         22    1    5    5    0    0 -0.17228392829E+03 -0.23355224336E+03 -0.26177860332E+03  0.39084068300E+03  0.00000000000E+00 0.  1.
          5    1    4    4  502    0 -0.84072805922E+02 -0.82446848664E+01 -0.86589661492E+02  0.12106226085E+03  0.47000000000E+01 0. -1.
         -5    1    4    4    0  502 -0.41981053684E+02 -0.50003770055E+02 -0.31898570147E+03  0.32563285097E+03  0.47000000000E+01 0. -1.
<mgrwt>
<rscale>  0 0.99982731E+03</rscale>
<asrwt>0</asrwt>
<pdfrwt beam="1">  1        2 0.33074419E+00 0.99982731E+03</pdfrwt>
<pdfrwt beam="2">  1       -2 0.17884264E-01 0.99982731E+03</pdfrwt>
<totfact> 0.16669102E+02</totfact>
</mgrwt>
</event>
<event>
 9    1  0.4412976E-036  0.9995933E+03  0.7818608E-02  0.8681425E-01
          2   -1    0    0  501    0  0.00000000000E+00  0.00000000000E+00  0.75895345142E+03  0.75895345142E+03  0.00000000000E+00 0.  1.
         -2   -1    0    0    0  501 -0.00000000000E+00 -0.00000000000E+00 -0.32913306558E+03  0.32913306558E+03  0.00000000000E+00 0.  1.
         36    2    1    2    0    0  0.00000000000E+00  0.00000000000E+00  0.42982038584E+03  0.10880865170E+04  0.99959326948E+03 0.  0.
         25    2    3    3    0    0 -0.55820090604E+02  0.12460557794E+03  0.98988656720E+02  0.21185780496E+03  0.12822847887E+03 0.  0.
         35    2    3    3    0    0  0.55820090604E+02 -0.12460557794E+03  0.33083172912E+03  0.87622871203E+03  0.79980290712E+03 0.  0.
         22    1    5    5    0    0  0.43933394230E+02  0.23924198852E+03  0.43429145651E+03  0.49777097283E+03  0.00000000000E+00 0. -1.
         22    1    5    5    0    0  0.11886696374E+02 -0.36384756646E+03 -0.10345972739E+03  0.37845773920E+03  0.00000000000E+00 0. -1.
          5    1    4    4  502    0  0.24850206981E+02  0.98297261212E+02  0.63757757368E+02  0.11986252948E+03  0.47000000000E+01 0.  1.
         -5    1    4    4    0  502 -0.80670297585E+02  0.26308316731E+02  0.35230899352E+02  0.91995275481E+02  0.47000000000E+01 0.  1.
<mgrwt>
<rscale>  0 0.99959327E+03</rscale>
<asrwt>0</asrwt>
<pdfrwt beam="1">  1        2 0.11676207E+00 0.99959327E+03</pdfrwt>
<pdfrwt beam="2">  1       -2 0.50635856E-01 0.99959327E+03</pdfrwt>
<totfact> 0.16481294E+02</totfact>
</mgrwt>
</event>
<event>
 9    1  0.4412976E-036  0.1000061E+04  0.7818608E-02  0.8680980E-01
          1   -1    0    0  501    0  0.00000000000E+00  0.00000000000E+00  0.56392401547E+03  0.56392401547E+03  0.00000000000E+00 0. -1.
         -1   -1    0    0    0  501 -0.00000000000E+00 -0.00000000000E+00 -0.44337580110E+03  0.44337580110E+03  0.00000000000E+00 0. -1.
         36    2    1    2    0    0  0.00000000000E+00  0.00000000000E+00  0.12054821437E+03  0.10072998166E+04  0.10000605224E+04 0.  0.
         25    2    3    3    0    0 -0.14052533384E+03  0.18258124249E+02  0.19401667930E+02  0.18944309434E+03  0.12422372045E+03 0.  0.
         35    2    3    3    0    0  0.14052533384E+03 -0.18258124249E+02  0.10114654644E+03  0.81785672222E+03  0.79911092201E+03 0.  0.
         22    1    5    5    0    0  0.33350662076E+03 -0.31119296620E+03  0.13781434555E+02  0.45635255696E+03  0.00000000000E+00 0. -1.
         22    1    5    5    0    0 -0.19298128692E+03  0.29293484195E+03  0.87365111888E+02  0.36150416527E+03  0.00000000000E+00 0. -1.
          5    1    4    4  502    0 -0.88246058261E+02  0.45060024145E+02 -0.38891495951E+02  0.10654769370E+03  0.47000000000E+01 0.  1.
         -5    1    4    4    0  502 -0.52279275577E+02 -0.26801899896E+02  0.58293163881E+02  0.82895400646E+02  0.47000000000E+01 0.  1.
<mgrwt>
<rscale>  0 0.10000605E+04</rscale>
<asrwt>0</asrwt>
<pdfrwt beam="1">  1        1 0.86757541E-01 0.10000605E+04</pdfrwt>
<pdfrwt beam="2">  1       -1 0.68211662E-01 0.10000605E+04</pdfrwt>
<totfact> 0.95281210E+01</totfact>
</mgrwt>
</event>
<event>
 9    1  0.4412976E-036  0.1000167E+04  0.7818608E-02  0.8680879E-01
          2   -1    0    0  501    0  0.00000000000E+00  0.00000000000E+00  0.26183328648E+03  0.26183328648E+03  0.00000000000E+00 0. -1.
         -2   -1    0    0    0  501 -0.00000000000E+00 -0.00000000000E+00 -0.95512562846E+03  0.95512562846E+03  0.00000000000E+00 0. -1.
         36    2    1    2    0    0 -0.71054273576E-14  0.00000000000E+00 -0.69329234198E+03  0.12169589149E+04  0.10001673506E+04 0.  0.
         25    2    3    3    0    0  0.20457346382E+02  0.69531914606E+02 -0.27726141434E+03  0.31217599339E+03  0.12380132794E+03 0.  0.
         35    2    3    3    0    0 -0.20457346382E+02 -0.69531914606E+02 -0.41603092764E+03  0.90478292154E+03  0.80018573606E+03 0.  0.
         22    1    5    5    0    0  0.10940575473E+03  0.28876195119E+03 -0.42287586470E+03  0.52361921333E+03  0.00000000000E+00 0. -1.
         22    1    5    5    0    0 -0.12986310112E+03 -0.35829386579E+03  0.68449370557E+01  0.38116370821E+03  0.00000000000E+00 0. -1.
          5    1    4    4  502    0 -0.37659192108E+02  0.71014092002E+01 -0.17365105405E+03  0.17789160558E+03  0.47000000000E+01 0.  1.
         -5    1    4    4    0  502  0.58116538490E+02  0.62430505406E+02 -0.10361036028E+03  0.13428438781E+03  0.47000000000E+01 0.  1.
<mgrwt>
<rscale>  0 0.10001674E+04</rscale>
<asrwt>0</asrwt>
<pdfrwt beam="1">  1        2 0.40282044E-01 0.10001674E+04</pdfrwt>
<pdfrwt beam="2">  1       -2 0.14694240E+00 0.10001674E+04</pdfrwt>
<totfact> 0.45916169E+01</totfact>
</mgrwt>
</event>
<event>
 9    1  0.4412976E-036  0.9998546E+03  0.7818608E-02  0.8681176E-01
         -2   -1    0    0    0  501 -0.00000000000E+00  0.00000000000E+00  0.11123983794E+03  0.11123983794E+03  0.00000000000E+00 0. -1.
          2   -1    0    0  501    0  0.00000000000E+00 -0.00000000000E+00 -0.22467429073E+04  0.22467429073E+04  0.00000000000E+00 0. -1.
         36    2    1    2    0    0  0.00000000000E+00  0.00000000000E+00 -0.21355030694E+04  0.23579827453E+04  0.99985462326E+03 0.  0.
         25    2    3    3    0    0 -0.91305198914E+02 -0.92590510169E+02 -0.27849063786E+03  0.33185609931E+03  0.12514708686E+03 0.  0.
         35    2    3    3    0    0  0.91305198914E+02  0.92590510169E+02 -0.18570124315E+04  0.20261266460E+04  0.79986522160E+03 0.  0.
         22    1    5    5    0    0 -0.19803268846E+03  0.18402174933E+03 -0.18685292023E+03  0.32862587196E+03  0.00000000000E+00 0. -1.
         22    1    5    5    0    0  0.28933788738E+03 -0.91431239159E+02 -0.16701595113E+04  0.16975007740E+04  0.00000000000E+00 0. -1.
          5    1    4    4  502    0 -0.11684439841E+03 -0.67074428976E+02 -0.16729193520E+03  0.21484942179E+03  0.47000000000E+01 0. -1.
         -5    1    4    4    0  502  0.25539199492E+02 -0.25516081193E+02 -0.11119870266E+03  0.11700667752E+03  0.47000000000E+01 0. -1.
<mgrwt>
<rscale>  0 0.99985462E+03</rscale>
<asrwt>0</asrwt>
<pdfrwt beam="1">  1        2 0.34565275E+00 0.99985462E+03</pdfrwt>
<pdfrwt beam="2">  1       -2 0.17113822E-01 0.99985462E+03</pdfrwt>
<totfact> 0.15782049E+02</totfact>
</mgrwt>
</event>
<event>
 9    1  0.4412976E-036  0.9996744E+03  0.7818608E-02  0.8681348E-01
         -2   -1    0    0    0  501 -0.00000000000E+00  0.00000000000E+00  0.54302280306E+03  0.54302280306E+03  0.00000000000E+00 0.  1.
          2   -1    0    0  501    0  0.00000000000E+00 -0.00000000000E+00 -0.46008603743E+03  0.46008603743E+03  0.00000000000E+00 0.  1.
         36    2    1    2    0    0  0.28421709430E-13  0.14210854715E-13  0.82936765629E+02  0.10031088405E+04  0.99967436637E+03 0.  0.
         25    2    3    3    0    0 -0.60783812004E+02  0.31213617490E+02 -0.10677333955E+03  0.17801484539E+03  0.12497910794E+03 0.  0.
         35    2    3    3    0    0  0.60783812004E+02 -0.31213617490E+02  0.18971010518E+03  0.82509399509E+03  0.80007575580E+03 0.  0.
         22    1    5    5    0    0  0.27170912266E+03  0.15177635317E+03  0.37699585239E+03  0.48886376572E+03  0.00000000000E+00 0.  1.
         22    1    5    5    0    0 -0.21092531066E+03 -0.18298997066E+03 -0.18728574720E+03  0.33623022937E+03  0.00000000000E+00 0.  1.
          5    1    4    4  502    0  0.13591586303E+02  0.34520756401E+01  0.22092089070E+02  0.26585681183E+02  0.47000000000E+01 0. -1.
         -5    1    4    4    0  502 -0.74375398308E+02  0.27761541850E+02 -0.12886542862E+03  0.15142916421E+03  0.47000000000E+01 0. -1.
<mgrwt>
<rscale>  0 0.99967437E+03</rscale>
<asrwt>0</asrwt>
<pdfrwt beam="1">  1        2 0.70782467E-01 0.99967437E+03</pdfrwt>
<pdfrwt beam="2">  1       -2 0.83541969E-01 0.99967437E+03</pdfrwt>
<totfact> 0.10204990E+02</totfact>
</mgrwt>
</event>
<event>
 9    1  0.4412976E-036  0.9996383E+03  0.7818608E-02  0.8681382E-01
          3   -1    0    0  501    0  0.00000000000E+00  0.00000000000E+00  0.36843893289E+03  0.36843893289E+03  0.00000000000E+00 0. -1.
         -3   -1    0    0    0  501 -0.00000000000E+00 -0.00000000000E+00 -0.67804772940E+03  0.67804772940E+03  0.00000000000E+00 0. -1.
         36    2    1    2    0    0  0.00000000000E+00  0.00000000000E+00 -0.30960879651E+03  0.10464866623E+04  0.99963829833E+03 0.  0.
         25    2    3    3    0    0  0.13594101918E+03  0.23834353917E+02 -0.68090935230E+02  0.20052518968E+03  0.12855325399E+03 0.  0.
         35    2    3    3    0    0 -0.13594101918E+03 -0.23834353917E+02 -0.24151786128E+03  0.84596147261E+03  0.79891920662E+03 0.  0.
         22    1    5    5    0    0 -0.64350682325E+02 -0.41147547072E+03 -0.12999107466E+03  0.43629204991E+03  0.00000000000E+00 0. -1.
         22    1    5    5    0    0 -0.71590336860E+02  0.38764111680E+03 -0.11152678662E+03  0.40966942271E+03  0.00000000000E+00 0. -1.
          5    1    4    4  502    0 -0.11580782573E+02 -0.28511139397E+02 -0.42937972484E+01  0.31424931019E+02  0.47000000000E+01 0.  1.
         -5    1    4    4    0  502  0.14752180176E+03  0.52345493314E+02 -0.63797137982E+02  0.16910025866E+03  0.47000000000E+01 0.  1.
<mgrwt>
<rscale>  0 0.99963830E+03</rscale>
<asrwt>0</asrwt>
<pdfrwt beam="1">  1        3 0.56682913E-01 0.99963830E+03</pdfrwt>
<pdfrwt beam="2">  1       -3 0.10431503E+00 0.99963830E+03</pdfrwt>
<totfact> 0.88668994E+00</totfact>
</mgrwt>
</event>
<event>
 9    1  0.4412976E-036  0.1001578E+04  0.7818608E-02  0.8679537E-01
         -2   -1    0    0    0  501 -0.00000000000E+00  0.00000000000E+00  0.25482537905E+03  0.25482537905E+03  0.00000000000E+00 0.  1.
          2   -1    0    0  501    0  0.00000000000E+00 -0.00000000000E+00 -0.98416243574E+03  0.98416243574E+03  0.00000000000E+00 0.  1.
         36    2    1    2    0    0  0.00000000000E+00  0.00000000000E+00 -0.72933705669E+03  0.12389878148E+04  0.10015778866E+04 0.  0.
         25    2    3    3    0    0  0.41373049923E+02  0.51871240916E+02  0.17639523833E+02  0.14212480984E+03  0.12444257261E+03 0.  0.
         35    2    3    3    0    0 -0.41373049923E+02 -0.51871240916E+02 -0.74697658052E+03  0.10968630049E+04  0.80045742228E+03 0.  0.
         22    1    5    5    0    0  0.20297880682E+03 -0.80952835693E+02  0.81028814600E+02  0.23306528360E+03  0.00000000000E+00 0.  1.
         22    1    5    5    0    0 -0.24435185675E+03  0.29081594777E+02 -0.82800539512E+03  0.86379772135E+03  0.00000000000E+00 0.  1.
          5    1    4    4  502    0  0.75370601297E+02  0.27030456021E+02 -0.22975231500E+02  0.83434551327E+02  0.47000000000E+01 0.  1.
         -5    1    4    4    0  502 -0.33997551374E+02  0.24840784895E+02  0.40614755333E+02  0.58690258514E+02  0.47000000000E+01 0.  1.
<mgrwt>
<rscale>  0 0.10015779E+04</rscale>
<asrwt>0</asrwt>
<pdfrwt beam="1">  1        2 0.15140961E+00 0.10015779E+04</pdfrwt>
<pdfrwt beam="2">  1       -2 0.39203905E-01 0.10015779E+04</pdfrwt>
<totfact> 0.19180440E+02</totfact>
</mgrwt>
</event>
<event>
 9    1  0.4412976E-036  0.1000510E+04  0.7818608E-02  0.8680552E-01
          2   -1    0    0  501    0  0.00000000000E+00  0.00000000000E+00  0.65652804902E+03  0.65652804902E+03  0.00000000000E+00 0. -1.
         -2   -1    0    0    0  501 -0.00000000000E+00 -0.00000000000E+00 -0.38117977118E+03  0.38117977118E+03  0.00000000000E+00 0. -1.
         36    2    1    2    0    0 -0.14210854715E-13 -0.28421709430E-13  0.27534827784E+03  0.10377078202E+04  0.10005102928E+04 0.  0.
         25    2    3    3    0    0 -0.90146085409E+02  0.90793580921E+02  0.62934738871E+02  0.18981605614E+03  0.12529789608E+03 0.  0.
         35    2    3    3    0    0  0.90146085409E+02 -0.90793580921E+02  0.21241353897E+03  0.84789176405E+03  0.81082127560E+03 0.  0.
         22    1    5    5    0    0  0.30215929791E+03 -0.36487211689E+03  0.13869557785E+03  0.49362776088E+03  0.00000000000E+00 0. -1.
         22    1    5    5    0    0 -0.21201321250E+03  0.27407853597E+03  0.73717961118E+02  0.35426400317E+03  0.00000000000E+00 0. -1.
          5    1    4    4  502    0  0.19340284379E+02  0.47060892397E+02 -0.86269327370E+01  0.51819766128E+02  0.47000000000E+01 0.  1.
         -5    1    4    4    0  502 -0.10948636979E+03  0.43732688524E+02  0.71561671608E+02  0.13799629002E+03  0.47000000000E+01 0.  1.
<mgrwt>
<rscale>  0 0.10005103E+04</rscale>
<asrwt>0</asrwt>
<pdfrwt beam="1">  1        2 0.10100432E+00 0.10005103E+04</pdfrwt>
<pdfrwt beam="2">  1       -2 0.58643042E-01 0.10005103E+04</pdfrwt>
<totfact> 0.14605418E+02</totfact>
</mgrwt>
</event>
<event>
 9    1  0.4412976E-036  0.1000582E+04  0.7818608E-02  0.8680484E-01
         -2   -1    0    0    0  501 -0.00000000000E+00  0.00000000000E+00  0.18294729157E+03  0.18294729157E+03  0.00000000000E+00 0.  1.
          2   -1    0    0  501    0  0.00000000000E+00 -0.00000000000E+00 -0.13681056930E+04  0.13681056930E+04  0.00000000000E+00 0.  1.
         36    2    1    2    0    0  0.00000000000E+00  0.21316282073E-13 -0.11851584014E+04  0.15510529845E+04  0.10005822927E+04 0.  0.
         25    2    3    3    0    0  0.10353287870E+03  0.61085870037E+02 -0.11138331091E+03  0.20731684681E+03  0.12697831520E+03 0.  0.
         35    2    3    3    0    0 -0.10353287870E+03 -0.61085870037E+02 -0.10737750905E+04  0.13437361377E+04  0.79886376960E+03 0.  0.
         22    1    5    5    0    0 -0.40806004584E+03  0.15214881974E+03 -0.60491535817E+03  0.74537564684E+03  0.00000000000E+00 0.  1.
         22    1    5    5    0    0  0.30452716714E+03 -0.21323468978E+03 -0.46885973231E+03  0.59836049087E+03  0.00000000000E+00 0.  1.
          5    1    4    4  502    0  0.11520686965E+03  0.68189710619E+02 -0.12801078662E+03  0.18528710409E+03  0.47000000000E+01 0. -1.
         -5    1    4    4    0  502 -0.11673990954E+02 -0.71038405824E+01  0.16627475711E+02  0.22029742721E+02  0.47000000000E+01 0. -1.
<mgrwt>
<rscale>  0 0.10005823E+04</rscale>
<asrwt>0</asrwt>
<pdfrwt beam="1">  1        2 0.21047780E+00 0.10005823E+04</pdfrwt>
<pdfrwt beam="2">  1       -2 0.28145738E-01 0.10005823E+04</pdfrwt>
<totfact> 0.20900699E+02</totfact>
</mgrwt>
</event>
<event>
 9    1  0.4412976E-036  0.1000488E+04  0.7818608E-02  0.8680574E-01
         -2   -1    0    0    0  501 -0.00000000000E+00  0.00000000000E+00  0.17208962813E+03  0.17208962813E+03  0.00000000000E+00 0. -1.
          2   -1    0    0  501    0  0.00000000000E+00 -0.00000000000E+00 -0.14541491516E+04  0.14541491516E+04  0.00000000000E+00 0. -1.
         36    2    1    2    0    0  0.00000000000E+00  0.00000000000E+00 -0.12820595234E+04  0.16262387797E+04  0.10004878545E+04 0.  0.
         25    2    3    3    0    0  0.92244013386E+02  0.41456856457E+02 -0.83356396183E+02  0.18105555975E+03  0.12492076681E+03 0.  0.
         35    2    3    3    0    0 -0.92244013386E+02 -0.41456856457E+02 -0.11987031272E+04  0.14451832199E+04  0.80089807278E+03 0.  0.
         22    1    5    5    0    0 -0.98640594815E+02  0.23270781023E+03 -0.41754503370E+02  0.25617636588E+03  0.00000000000E+00 0.  1.
         22    1    5    5    0    0  0.63965814296E+01 -0.27416466668E+03 -0.11569486239E+04  0.11890068541E+04  0.00000000000E+00 0.  1.
          5    1    4    4  502    0  0.73934168888E+02  0.78985790687E+02 -0.28546339519E+02  0.11199107089E+03  0.47000000000E+01 0.  1.
         -5    1    4    4    0  502  0.18309844498E+02 -0.37528934230E+02 -0.54810056664E+02  0.69064488860E+02  0.47000000000E+01 0.  1.
<mgrwt>
<rscale>  0 0.10004879E+04</rscale>
<asrwt>0</asrwt>
<pdfrwt beam="1">  1        2 0.22371524E+00 0.10004879E+04</pdfrwt>
<pdfrwt beam="2">  1       -2 0.26475329E-01 0.10004879E+04</pdfrwt>
<totfact> 0.20834605E+02</totfact>
</mgrwt>
</event>
<event>
 9    1  0.4412976E-036  0.1000294E+04  0.7818608E-02  0.8680758E-01
         -1   -1    0    0    0  501 -0.00000000000E+00  0.00000000000E+00  0.32067930730E+03  0.32067930730E+03  0.00000000000E+00 0. -1.
          1   -1    0    0  501    0  0.00000000000E+00 -0.00000000000E+00 -0.78005341470E+03  0.78005341470E+03  0.00000000000E+00 0. -1.
         36    2    1    2    0    0  0.00000000000E+00 -0.21316282073E-13 -0.45937410740E+03  0.11007327220E+04  0.10002939342E+04 0.  0.
         25    2    3    3    0    0 -0.25663510308E+02  0.37236969475E+02 -0.23362612602E+03  0.26832296752E+03  0.12397919374E+03 0.  0.
         35    2    3    3    0    0  0.25663510308E+02 -0.37236969475E+02 -0.22574798138E+03  0.83240975449E+03  0.79993664787E+03 0.  0.
         22    1    5    5    0    0 -0.15435053158E+03  0.20503956316E+03 -0.40639523930E+03  0.48064789565E+03  0.00000000000E+00 0. -1.
         22    1    5    5    0    0  0.18001404189E+03 -0.24227653264E+03  0.18064725792E+03  0.35176185884E+03  0.00000000000E+00 0. -1.
          5    1    4    4  502    0  0.16681356528E+02  0.30354715467E+02 -0.45871827016E+01  0.35253491343E+02  0.47000000000E+01 0.  1.
         -5    1    4    4    0  502 -0.42344866836E+02  0.68822540075E+01 -0.22903894332E+03  0.23306947617E+03  0.47000000000E+01 0.  1.
<mgrwt>
<rscale>  0 0.10002939E+04</rscale>
<asrwt>0</asrwt>
<pdfrwt beam="1">  1        1 0.12000822E+00 0.10002939E+04</pdfrwt>
<pdfrwt beam="2">  1       -1 0.49335278E-01 0.10002939E+04</pdfrwt>
<totfact> 0.10815608E+02</totfact>
</mgrwt>
</event>
<event>
 9    1  0.4412976E-036  0.9979526E+03  0.7818608E-02  0.8682990E-01
          1   -1    0    0  501    0  0.00000000000E+00  0.00000000000E+00  0.13027339813E+04  0.13027339813E+04  0.00000000000E+00 0.  1.
         -1   -1    0    0    0  501 -0.00000000000E+00 -0.00000000000E+00 -0.19111909958E+03  0.19111909958E+03  0.00000000000E+00 0.  1.
         36    2    1    2    0    0  0.00000000000E+00  0.00000000000E+00  0.11116148817E+04  0.14938530809E+04  0.99795259508E+03 0.  0.
         25    2    3    3    0    0  0.14660120941E+02 -0.10455268940E+03  0.77308799045E+02  0.18064047283E+03  0.12453170684E+03 0.  0.
         35    2    3    3    0    0 -0.14660120941E+02  0.10455268940E+03  0.10343060827E+04  0.13132126081E+04  0.80224191943E+03 0.  0.
         22    1    5    5    0    0  0.64161033298E+02  0.38946061932E+03  0.23121989340E+03  0.45744819521E+03  0.00000000000E+00 0. -1.
         22    1    5    5    0    0 -0.78821154240E+02 -0.28490792992E+03  0.80308618929E+03  0.85576441286E+03  0.00000000000E+00 0. -1.
          5    1    4    4  502    0 -0.38801197728E+02 -0.99105145261E+02  0.35169000241E+02  0.11218873090E+03  0.47000000000E+01 0. -1.
         -5    1    4    4    0  502  0.53461318669E+02 -0.54475441371E+01  0.42139798804E+02  0.68451741937E+02  0.47000000000E+01 0. -1.
<mgrwt>
<rscale>  0 0.99795260E+03</rscale>
<asrwt>0</asrwt>
<pdfrwt beam="1">  1        1 0.20042061E+00 0.99795260E+03</pdfrwt>
<pdfrwt beam="2">  1       -1 0.29402939E-01 0.99795260E+03</pdfrwt>
<totfact> 0.10416054E+02</totfact>
</mgrwt>
</event>
<event>
 9    1  0.4412976E-036  0.1000181E+04  0.7818608E-02  0.8680866E-01
          2   -1    0    0  501    0  0.00000000000E+00  0.00000000000E+00  0.58122544814E+03  0.58122544814E+03  0.00000000000E+00 0.  1.
         -2   -1    0    0    0  501 -0.00000000000E+00 -0.00000000000E+00 -0.43028125061E+03  0.43028125061E+03  0.00000000000E+00 0.  1.
         36    2    1    2    0    0  0.28421709430E-13 -0.71054273576E-14  0.15094419753E+03  0.10115066987E+04  0.10001808091E+04 0.  0.
         25    2    3    3    0    0 -0.11382626536E+03  0.26390436348E+02  0.10395458668E+03  0.20151847460E+03  0.12708369563E+03 0.  0.
         35    2    3    3    0    0  0.11382626536E+03 -0.26390436348E+02  0.46989610856E+02  0.80998822415E+03  0.80013750438E+03 0.  0.
         22    1    5    5    0    0  0.44131033391E+03 -0.13444811313E+03  0.57958805864E+02  0.46496271798E+03  0.00000000000E+00 0.  1.
         22    1    5    5    0    0 -0.32748406855E+03  0.10805767679E+03 -0.10969195008E+02  0.34502550616E+03  0.00000000000E+00 0.  1.
          5    1    4    4  502    0  0.12792188319E+02 -0.23100592817E+02 -0.49402138240E+01  0.27272205322E+02  0.47000000000E+01 0. -1.
         -5    1    4    4    0  502 -0.12661845368E+03  0.49491029165E+02  0.10889480050E+03  0.17424626927E+03  0.47000000000E+01 0. -1.
<mgrwt>
<rscale>  0 0.10001808E+04</rscale>
<asrwt>0</asrwt>
<pdfrwt beam="1">  1        2 0.89419300E-01 0.10001808E+04</pdfrwt>
<pdfrwt beam="2">  1       -2 0.66197115E-01 0.10001808E+04</pdfrwt>
<totfact> 0.13087255E+02</totfact>
</mgrwt>
</event>
<event>
 9    1  0.4412976E-036  0.9996443E+03  0.7818608E-02  0.8681377E-01
          1   -1    0    0  501    0  0.00000000000E+00  0.00000000000E+00  0.12194081334E+04  0.12194081334E+04  0.00000000000E+00 0. -1.
         -1   -1    0    0    0  501 -0.00000000000E+00 -0.00000000000E+00 -0.20487166885E+03  0.20487166885E+03  0.00000000000E+00 0. -1.
         36    2    1    2    0    0  0.00000000000E+00 -0.71054273576E-13  0.10145364646E+04  0.14242798023E+04  0.99964429534E+03 0.  0.
         25    2    3    3    0    0  0.40409212398E+02  0.10472286673E+03  0.78882541596E+02  0.18607992159E+03  0.12571196676E+03 0.  0.
         35    2    3    3    0    0 -0.40409212398E+02 -0.10472286673E+03  0.93565392298E+03  0.12381998807E+04  0.80317550864E+03 0.  0.
         22    1    5    5    0    0  0.17613729184E+03 -0.37484301284E+03  0.71911426514E+03  0.82985357514E+03  0.00000000000E+00 0.  1.
         22    1    5    5    0    0 -0.21654650424E+03  0.27012014611E+03  0.21653965785E+03  0.40834630555E+03  0.00000000000E+00 0.  1.
          5    1    4    4  502    0 -0.10359922313E+02  0.33997917759E+02  0.91231246166E+02  0.98022531488E+02  0.47000000000E+01 0.  1.
         -5    1    4    4    0  502  0.50769134711E+02  0.70724948971E+02 -0.12348704570E+02  0.88057390097E+02  0.47000000000E+01 0.  1.
<mgrwt>
<rscale>  0 0.99964430E+03</rscale>
<asrwt>0</asrwt>
<pdfrwt beam="1">  1        1 0.18760125E+00 0.99964430E+03</pdfrwt>
<pdfrwt beam="2">  1       -1 0.31518719E-01 0.99964430E+03</pdfrwt>
<totfact> 0.10647944E+02</totfact>
</mgrwt>
</event>
<event>
 9    1  0.4412976E-036  0.9985947E+03  0.7818608E-02  0.8682377E-01
         -2   -1    0    0    0  501 -0.00000000000E+00  0.00000000000E+00  0.15502998293E+03  0.15502998293E+03  0.00000000000E+00 0. -1.
          2   -1    0    0  501    0  0.00000000000E+00 -0.00000000000E+00 -0.16080622721E+04  0.16080622721E+04  0.00000000000E+00 0. -1.
         36    2    1    2    0    0  0.00000000000E+00  0.00000000000E+00 -0.14530322891E+04  0.17630922550E+04  0.99859474579E+03 0.  0.
         25    2    3    3    0    0 -0.13058445945E+03  0.75773363322E+01 -0.19123535878E+03  0.26367170777E+03  0.12586536439E+03 0.  0.
         35    2    3    3    0    0  0.13058445945E+03 -0.75773363322E+01 -0.12617969304E+04  0.14994205472E+04  0.79938774503E+03 0.  0.
         22    1    5    5    0    0 -0.16175906743E+03  0.23428137708E+03 -0.99669874791E+03  0.10365626627E+04  0.00000000000E+00 0.  1.
         22    1    5    5    0    0  0.29234352688E+03 -0.24185871341E+03 -0.26509818244E+03  0.46285788456E+03  0.00000000000E+00 0.  1.
          5    1    4    4  502    0 -0.97534618835E+02 -0.19304900158E+02 -0.41360954641E+02  0.10778914421E+03  0.47000000000E+01 0. -1.
         -5    1    4    4    0  502 -0.33049840614E+02  0.26882236490E+02 -0.14987440414E+03  0.15588256355E+03  0.47000000000E+01 0. -1.
<mgrwt>
<rscale>  0 0.99859475E+03</rscale>
<asrwt>0</asrwt>
<pdfrwt beam="1">  1        2 0.24739419E+00 0.99859475E+03</pdfrwt>
<pdfrwt beam="2">  1       -2 0.23850768E-01 0.99859475E+03</pdfrwt>
<totfact> 0.20523701E+02</totfact>
</mgrwt>
</event>
<event>
 9    1  0.4412976E-036  0.1000083E+04  0.7818608E-02  0.8680959E-01
          1   -1    0    0  501    0  0.00000000000E+00  0.00000000000E+00  0.18988839661E+04  0.18988839661E+04  0.00000000000E+00 0.  1.
         -1   -1    0    0    0  501 -0.00000000000E+00 -0.00000000000E+00 -0.13167819943E+03  0.13167819943E+03  0.00000000000E+00 0.  1.
         36    2    1    2    0    0 -0.28421709430E-13  0.00000000000E+00  0.17672057667E+04  0.20305621656E+04  0.10000832397E+04 0.  0.
         25    2    3    3    0    0  0.83181376839E+02 -0.42902649647E+01  0.56202835199E+03  0.58175872406E+03  0.12501918555E+03 0.  0.
         35    2    3    3    0    0 -0.83181376839E+02  0.42902649647E+01  0.12051774147E+04  0.14488034415E+04  0.79977575818E+03 0.  0.
         22    1    5    5    0    0 -0.39095333069E+03  0.47052892468E+02  0.30977572887E+03  0.50101844643E+03  0.00000000000E+00 0.  1.
         22    1    5    5    0    0  0.30777195385E+03 -0.42762627503E+02  0.89540168585E+03  0.94778499509E+03  0.00000000000E+00 0.  1.
          5    1    4    4  502    0  0.34294307935E+02  0.59739040464E+02  0.23598758232E+03  0.24588021784E+03  0.47000000000E+01 0. -1.
         -5    1    4    4    0  502  0.48887068904E+02 -0.64029305429E+02  0.32604076966E+03  0.33587850622E+03  0.47000000000E+01 0. -1.
<mgrwt>
<rscale>  0 0.10000832E+04</rscale>
<asrwt>0</asrwt>
<pdfrwt beam="1">  1        1 0.29213598E+00 0.10000832E+04</pdfrwt>
<pdfrwt beam="2">  1       -1 0.20258186E-01 0.10000832E+04</pdfrwt>
<totfact> 0.73413082E+01</totfact>
</mgrwt>
</event>
<event>
 9    1  0.4412976E-036  0.9997729E+03  0.7818608E-02  0.8681254E-01
         -2   -1    0    0    0  501 -0.00000000000E+00  0.00000000000E+00  0.94408644267E+03  0.94408644267E+03  0.00000000000E+00 0. -1.
          2   -1    0    0  501    0  0.00000000000E+00 -0.00000000000E+00 -0.26468601719E+03  0.26468601719E+03  0.00000000000E+00 0. -1.
         36    2    1    2    0    0  0.00000000000E+00  0.28421709430E-13  0.67940042548E+03  0.12087724599E+04  0.99977293501E+03 0.  0.
         25    2    3    3    0    0 -0.99205929026E+02 -0.95961484732E+02  0.16864983324E+03  0.25077053885E+03  0.12406721564E+03 0.  0.
         35    2    3    3    0    0  0.99205929026E+02  0.95961484732E+02  0.51075059225E+03  0.95800192101E+03  0.79865580213E+03 0.  0.
         22    1    5    5    0    0 -0.23351754194E+03  0.31722698970E+03  0.15601477414E+03  0.42367914173E+03  0.00000000000E+00 0. -1.
         22    1    5    5    0    0  0.33272347096E+03 -0.22126550497E+03  0.35473581810E+03  0.53432277929E+03  0.00000000000E+00 0. -1.
          5    1    4    4  502    0  0.41402125742E+01 -0.37402121284E+02  0.11360613580E+03  0.11976854398E+03  0.47000000000E+01 0.  1.
         -5    1    4    4    0  502 -0.10334614160E+03 -0.58559363448E+02  0.55043697437E+02  0.13100199487E+03  0.47000000000E+01 0.  1.
<mgrwt>
<rscale>  0 0.99977294E+03</rscale>
<asrwt>0</asrwt>
<pdfrwt beam="1">  1        2 0.40720926E-01 0.99977294E+03</pdfrwt>
<pdfrwt beam="2">  1       -2 0.14524407E+00 0.99977294E+03</pdfrwt>
<totfact> 0.46846391E+01</totfact>
</mgrwt>
</event>
<event>
 9    1  0.4412976E-036  0.9996057E+03  0.7818608E-02  0.8681414E-01
         -2   -1    0    0    0  501 -0.00000000000E+00  0.00000000000E+00  0.16748358931E+03  0.16748358931E+03  0.00000000000E+00 0.  1.
          2   -1    0    0  501    0  0.00000000000E+00 -0.00000000000E+00 -0.14915067168E+04  0.14915067168E+04  0.00000000000E+00 0.  1.
         36    2    1    2    0    0  0.42632564146E-13  0.14210854715E-13 -0.13240231275E+04  0.16589903062E+04  0.99960571909E+03 0.  0.
         25    2    3    3    0    0  0.59485355232E+02  0.68540848988E+02 -0.82061555746E+02  0.17470260087E+03  0.12470182177E+03 0.  0.
         35    2    3    3    0    0 -0.59485355232E+02 -0.68540848988E+02 -0.12419615718E+04  0.14842877053E+04  0.80771597159E+03 0.  0.
         22    1    5    5    0    0  0.24210485570E+03 -0.68614147718E+01 -0.42434766190E+02  0.24589133687E+03  0.00000000000E+00 0. -1.
         22    1    5    5    0    0 -0.30159021093E+03 -0.61679434216E+02 -0.11995268056E+04  0.12383963684E+04  0.00000000000E+00 0. -1.
          5    1    4    4  502    0 -0.31328317281E+02  0.20203638788E+02 -0.57734966839E+02  0.68884445848E+02  0.47000000000E+01 0. -1.
         -5    1    4    4    0  502  0.90813672513E+02  0.48337210200E+02 -0.24326588908E+02  0.10581815503E+03  0.47000000000E+01 0. -1.
<mgrwt>
<rscale>  0 0.99960572E+03</rscale>
<asrwt>0</asrwt>
<pdfrwt beam="1">  1        2 0.22946258E+00 0.99960572E+03</pdfrwt>
<pdfrwt beam="2">  1       -2 0.25766705E-01 0.99960572E+03</pdfrwt>
<totfact> 0.20827164E+02</totfact>
</mgrwt>
</event>
<event>
 9    1  0.4412976E-036  0.1000154E+04  0.7818608E-02  0.8680891E-01
          2   -1    0    0  501    0  0.00000000000E+00  0.00000000000E+00  0.11412542894E+04  0.11412542894E+04  0.00000000000E+00 0. -1.
         -2   -1    0    0    0  501 -0.00000000000E+00 -0.00000000000E+00 -0.21912475056E+03  0.21912475056E+03  0.00000000000E+00 0. -1.
         36    2    1    2    0    0  0.00000000000E+00 -0.14210854715E-13  0.92212953886E+03  0.13603790400E+04  0.10001541111E+04 0.  0.
         25    2    3    3    0    0 -0.11320913687E+03 -0.60947539706E+02  0.25066693376E+03  0.30832972323E+03  0.12530919871E+03 0.  0.
         35    2    3    3    0    0  0.11320913687E+03  0.60947539706E+02  0.67146260510E+03  0.10520493168E+04  0.79963418109E+03 0.  0.
         22    1    5    5    0    0 -0.73041056138E+01 -0.80382530349E+02  0.81395784900E+03  0.81794992579E+03  0.00000000000E+00 0.  1.
         22    1    5    5    0    0  0.12051324249E+03  0.14133007005E+03 -0.14249524390E+03  0.23409939097E+03  0.00000000000E+00 0.  1.
          5    1    4    4  502    0 -0.13491809343E+03 -0.33895790761E+02  0.22630535803E+03  0.26568406358E+03  0.47000000000E+01 0. -1.
         -5    1    4    4    0  502  0.21708956553E+02 -0.27051748945E+02  0.24361575722E+02  0.42645659653E+02  0.47000000000E+01 0. -1.
<mgrwt>
<rscale>  0 0.10001541E+04</rscale>
<asrwt>0</asrwt>
<pdfrwt beam="1">  1        2 0.17557758E+00 0.10001541E+04</pdfrwt>
<pdfrwt beam="2">  1       -2 0.33711501E-01 0.10001541E+04</pdfrwt>
<totfact> 0.20395800E+02</totfact>
</mgrwt>
</event>
<event>
 9    1  0.4412976E-036  0.9992802E+03  0.7818608E-02  0.8681724E-01
          2   -1    0    0  501    0  0.00000000000E+00  0.00000000000E+00  0.57801619015E+03  0.57801619015E+03  0.00000000000E+00 0.  1.
         -2   -1    0    0    0  501 -0.00000000000E+00 -0.00000000000E+00 -0.43189141742E+03  0.43189141742E+03  0.00000000000E+00 0.  1.
         36    2    1    2    0    0  0.00000000000E+00  0.00000000000E+00  0.14612477273E+03  0.10099076076E+04  0.99928020426E+03 0.  0.
         25    2    3    3    0    0 -0.31481534555E+02 -0.13815041844E+03  0.30894482059E+02  0.19147282037E+03  0.12502298504E+03 0.  0.
         35    2    3    3    0    0  0.31481534555E+02  0.13815041844E+03  0.11523029067E+03  0.81843478720E+03  0.79779750305E+03 0.  0.
         22    1    5    5    0    0  0.34569781312E+03 -0.49323605400E+02 -0.13583407038E+03  0.37468745738E+03  0.00000000000E+00 0.  1.
         22    1    5    5    0    0 -0.31421627856E+03  0.18747402384E+03  0.25106436105E+03  0.44374732982E+03  0.00000000000E+00 0.  1.
          5    1    4    4  502    0  0.17146471983E+02 -0.64709381102E+02 -0.40160821842E+02  0.78206694823E+02  0.47000000000E+01 0.  1.
         -5    1    4    4    0  502 -0.48628006538E+02 -0.73441037337E+02  0.71055303901E+02  0.11326612555E+03  0.47000000000E+01 0.  1.
<mgrwt>
<rscale>  0 0.99928020E+03</rscale>
<asrwt>0</asrwt>
<pdfrwt beam="1">  1        2 0.88925567E-01 0.99928020E+03</pdfrwt>
<pdfrwt beam="2">  1       -2 0.66444834E-01 0.99928020E+03</pdfrwt>
<totfact> 0.13068272E+02</totfact>
</mgrwt>
</event>
<event>
 9    1  0.4412976E-036  0.1000502E+04  0.7818608E-02  0.8680560E-01
         -1   -1    0    0    0  501 -0.00000000000E+00  0.00000000000E+00  0.12276276330E+03  0.12276276330E+03  0.00000000000E+00 0.  1.
          1   -1    0    0  501    0  0.00000000000E+00 -0.00000000000E+00 -0.20384934654E+04  0.20384934654E+04  0.00000000000E+00 0.  1.
         36    2    1    2    0    0  0.00000000000E+00 -0.14210854715E-13 -0.19157307021E+04  0.21612562287E+04  0.10005020555E+04 0.  0.
         25    2    3    3    0    0 -0.92710067681E+02 -0.96639661488E+02 -0.47227094944E+03  0.50506657778E+03  0.11881926397E+03 0.  0.
         35    2    3    3    0    0  0.92710067681E+02  0.96639661488E+02 -0.14434597527E+04  0.16561896509E+04  0.80090806052E+03 0.  0.
         22    1    5    5    0    0  0.25355038674E+03 -0.18080082591E+03 -0.19551662073E+03  0.36770026685E+03  0.00000000000E+00 0.  1.
         22    1    5    5    0    0 -0.16084031905E+03  0.27744048740E+03 -0.12479431320E+04  0.12884893841E+04  0.00000000000E+00 0.  1.
          5    1    4    4  502    0 -0.88188364853E+02 -0.35920618785E+02 -0.15501707005E+03  0.18198862755E+03  0.47000000000E+01 0. -1.
         -5    1    4    4    0  502 -0.45217028281E+01 -0.60719042702E+02 -0.31725387938E+03  0.32307795023E+03  0.47000000000E+01 0. -1.
<mgrwt>
<rscale>  0 0.10005021E+04</rscale>
<asrwt>0</asrwt>
<pdfrwt beam="1">  1        1 0.31361435E+00 0.10005021E+04</pdfrwt>
<pdfrwt beam="2">  1       -1 0.18886581E-01 0.10005021E+04</pdfrwt>
<totfact> 0.65784392E+01</totfact>
</mgrwt>
</event>
<event>
 9    1  0.4412976E-036  0.9988788E+03  0.7818608E-02  0.8682106E-01
         -1   -1    0    0    0  501 -0.00000000000E+00  0.00000000000E+00  0.26299000317E+03  0.26299000317E+03  0.00000000000E+00 0. -1.
          1   -1    0    0  501    0  0.00000000000E+00 -0.00000000000E+00 -0.94847596783E+03  0.94847596783E+03  0.00000000000E+00 0. -1.
         36    2    1    2    0    0  0.00000000000E+00 -0.14210854715E-13 -0.68548596466E+03  0.12114659710E+04  0.99887876699E+03 0.  0.
         25    2    3    3    0    0  0.61136940151E+02  0.87648127223E+02 -0.22342639258E+03  0.27694116057E+03  0.12392390351E+03 0.  0.
         35    2    3    3    0    0 -0.61136940151E+02 -0.87648127223E+02 -0.46205957208E+03  0.93452481043E+03  0.80524384723E+03 0.  0.
         22    1    5    5    0    0 -0.10684785046E+03  0.10686661694E+03 -0.64569556706E+03  0.66314380212E+03  0.00000000000E+00 0.  1.
         22    1    5    5    0    0  0.45710910307E+02 -0.19451474416E+03  0.18363599498E+03  0.27138100831E+03  0.00000000000E+00 0.  1.
          5    1    4    4  502    0  0.24442055367E+02  0.11018325635E+03 -0.19427450358E+03  0.22472747227E+03  0.47000000000E+01 0. -1.
         -5    1    4    4    0  502  0.36694884784E+02 -0.22535129125E+02 -0.29151888997E+02  0.52213688302E+02  0.47000000000E+01 0. -1.
<mgrwt>
<rscale>  0 0.99887877E+03</rscale>
<asrwt>0</asrwt>
<pdfrwt beam="1">  1        1 0.14591938E+00 0.99887877E+03</pdfrwt>
<pdfrwt beam="2">  1       -1 0.40460001E-01 0.99887877E+03</pdfrwt>
<totfact> 0.11142351E+02</totfact>
</mgrwt>
</event>
<event>
 9    1  0.4412976E-036  0.1000279E+04  0.7818608E-02  0.8680773E-01
          1   -1    0    0  501    0  0.00000000000E+00  0.00000000000E+00  0.82612633008E+03  0.82612633008E+03  0.00000000000E+00 0.  1.
         -1   -1    0    0    0  501 -0.00000000000E+00 -0.00000000000E+00 -0.30278589206E+03  0.30278589206E+03  0.00000000000E+00 0.  1.
         36    2    1    2    0    0  0.71054273576E-14  0.14210854715E-13  0.52334043802E+03  0.11289122221E+04  0.10002787568E+04 0.  0.
         25    2    3    3    0    0  0.20366193510E+02 -0.11601722175E+03  0.15012114589E+02  0.17241557969E+03  0.12500796356E+03 0.  0.
         35    2    3    3    0    0 -0.20366193510E+02  0.11601722175E+03  0.50832832343E+03  0.95649664246E+03  0.80163168915E+03 0.  0.
         22    1    5    5    0    0 -0.22410755494E+03 -0.90192326659E+02 -0.11612593095E+03  0.26803746718E+03  0.00000000000E+00 0.  1.
         22    1    5    5    0    0  0.20374136143E+03  0.20620954841E+03  0.62445425438E+03  0.68845917528E+03  0.00000000000E+00 0.  1.
          5    1    4    4  502    0  0.49799482196E+02 -0.96236581203E+02  0.52586389947E+02  0.12053583034E+03  0.47000000000E+01 0.  1.
         -5    1    4    4    0  502 -0.29433288686E+02 -0.19780640545E+02 -0.37574275358E+02  0.51879749343E+02  0.47000000000E+01 0.  1.
<mgrwt>
<rscale>  0 0.10002788E+04</rscale>
<asrwt>0</asrwt>
<pdfrwt beam="1">  1        1 0.12709636E+00 0.10002788E+04</pdfrwt>
<pdfrwt beam="2">  1       -1 0.46582445E-01 0.10002788E+04</pdfrwt>
<totfact> 0.10943742E+02</totfact>
</mgrwt>
</event>
<event>
 9    1  0.4412976E-036  0.1000003E+04  0.7818608E-02  0.8681035E-01
          2   -1    0    0  501    0  0.00000000000E+00  0.00000000000E+00  0.19103111233E+04  0.19103111233E+04  0.00000000000E+00 0.  1.
         -2   -1    0    0    0  501 -0.00000000000E+00 -0.00000000000E+00 -0.13086957793E+03  0.13086957793E+03  0.00000000000E+00 0.  1.
         36    2    1    2    0    0  0.14210854715E-13  0.00000000000E+00  0.17794415453E+04  0.20411807012E+04  0.10000032208E+04 0.  0.
         25    2    3    3    0    0 -0.84874795559E+02 -0.10135655638E+03  0.42921867552E+03  0.46616499685E+03  0.12491697412E+03 0.  0.
         35    2    3    3    0    0  0.84874795559E+02  0.10135655638E+03  0.13502228698E+04  0.15750157043E+04  0.80005986548E+03 0.  0.
         22    1    5    5    0    0 -0.23791936060E+03  0.18758903637E+03  0.11415934858E+04  0.11811142856E+04  0.00000000000E+00 0. -1.
         22    1    5    5    0    0  0.32279415616E+03 -0.86232479990E+02  0.20862938399E+03  0.39390141878E+03  0.00000000000E+00 0. -1.
          5    1    4    4  502    0 -0.27421557300E+02 -0.11768550949E+03  0.30963568233E+03  0.33241264525E+03  0.47000000000E+01 0. -1.
         -5    1    4    4    0  502 -0.57453238258E+02  0.16328953114E+02  0.11958299320E+03  0.13375235160E+03  0.47000000000E+01 0. -1.
<mgrwt>
<rscale>  0 0.10000032E+04</rscale>
<asrwt>0</asrwt>
<pdfrwt beam="1">  1        2 0.29389400E+00 0.10000032E+04</pdfrwt>
<pdfrwt beam="2">  1       -2 0.20133783E-01 0.10000032E+04</pdfrwt>
<totfact> 0.18633581E+02</totfact>
</mgrwt>
</event>
<event>
 9    1  0.4412976E-036  0.9996712E+03  0.7818608E-02  0.8681351E-01
         -2   -1    0    0    0  501 -0.00000000000E+00  0.00000000000E+00  0.59048153606E+03  0.59048153606E+03  0.00000000000E+00 0.  1.
          2   -1    0    0  501    0  0.00000000000E+00 -0.00000000000E+00 -0.42310491338E+03  0.42310491338E+03  0.00000000000E+00 0.  1.
         36    2    1    2    0    0 -0.14210854715E-13 -0.71054273576E-14  0.16737662268E+03  0.10135864494E+04  0.99967122428E+03 0.  0.
         25    2    3    3    0    0  0.11334599291E+03 -0.32071345331E+02  0.10926215191E+03  0.20381487563E+03  0.12540494563E+03 0.  0.
         35    2    3    3    0    0 -0.11334599291E+03  0.32071345331E+02  0.58114470772E+02  0.80977157380E+03  0.79904744836E+03 0.  0.
         22    1    5    5    0    0 -0.20884054127E+03  0.35491802028E+03  0.18306440326E+03  0.45065923772E+03  0.00000000000E+00 0. -1.
         22    1    5    5    0    0  0.95494548360E+02 -0.32284667495E+03 -0.12494993249E+03  0.35911233608E+03  0.00000000000E+00 0. -1.
          5    1    4    4  502    0  0.81323448809E+00 -0.64112488054E+01 -0.25263938534E+02  0.26497585774E+02  0.47000000000E+01 0.  1.
         -5    1    4    4    0  502  0.11253275843E+03 -0.25660096526E+02  0.13452609044E+03  0.17731728986E+03  0.47000000000E+01 0.  1.
<mgrwt>
<rscale>  0 0.99967122E+03</rscale>
<asrwt>0</asrwt>
<pdfrwt beam="1">  1        2 0.65093064E-01 0.99967122E+03</pdfrwt>
<pdfrwt beam="2">  1       -2 0.90843313E-01 0.99967122E+03</pdfrwt>
<totfact> 0.92191282E+01</totfact>
</mgrwt>
</event>
<event>
 9    1  0.4412976E-036  0.1000328E+04  0.7818608E-02  0.8680726E-01
          1   -1    0    0  501    0  0.00000000000E+00  0.00000000000E+00  0.20971247297E+03  0.20971247297E+03  0.00000000000E+00 0. -1.
         -1   -1    0    0    0  501 -0.00000000000E+00 -0.00000000000E+00 -0.11928896441E+04  0.11928896441E+04  0.00000000000E+00 0. -1.
         36    2    1    2    0    0 -0.24868995752E-13  0.00000000000E+00 -0.98317717111E+03  0.14026021170E+04  0.10003276208E+04 0.  0.
         25    2    3    3    0    0  0.27201539733E+02  0.75120398548E+02 -0.22037029633E+02  0.15002694069E+03  0.12505780350E+03 0.  0.
         35    2    3    3    0    0 -0.27201539733E+02 -0.75120398548E+02 -0.96114014147E+03  0.12525751764E+04  0.79923163277E+03 0.  0.
         22    1    5    5    0    0  0.15820591454E+03 -0.39555317131E+03 -0.43142604786E+03  0.60631663139E+03  0.00000000000E+00 0.  1.
         22    1    5    5    0    0 -0.18540745427E+03  0.32043277277E+03 -0.52971409362E+03  0.64625854496E+03  0.00000000000E+00 0.  1.
          5    1    4    4  502    0 -0.14298423320E+02  0.94142140193E+02 -0.36229624365E+02  0.10198952471E+03  0.47000000000E+01 0.  1.
         -5    1    4    4    0  502  0.41499963052E+02 -0.19021741646E+02  0.14192594732E+02  0.48037415978E+02  0.47000000000E+01 0.  1.
<mgrwt>
<rscale>  0 0.10003276E+04</rscale>
<asrwt>0</asrwt>
<pdfrwt beam="1">  1        1 0.32263458E-01 0.10003276E+04</pdfrwt>
<pdfrwt beam="2">  1       -1 0.18352148E+00 0.10003276E+04</pdfrwt>
<totfact> 0.30002046E+01</totfact>
</mgrwt>
</event>
<event>
 9    1  0.4412976E-036  0.1003425E+04  0.7818608E-02  0.8677783E-01
          2   -1    0    0  501    0  0.00000000000E+00  0.00000000000E+00  0.61894143889E+03  0.61894143889E+03  0.00000000000E+00 0.  1.
         -2   -1    0    0    0  501 -0.00000000000E+00 -0.00000000000E+00 -0.40668686278E+03  0.40668686278E+03  0.00000000000E+00 0.  1.
         36    2    1    2    0    0  0.00000000000E+00  0.71054273576E-14  0.21225457611E+03  0.10256283017E+04  0.10034248393E+04 0.  0.
         25    2    3    3    0    0  0.93378628672E+02 -0.17331012983E+02  0.14924020679E+03  0.21704492633E+03  0.12576139479E+03 0.  0.
         35    2    3    3    0    0 -0.93378628672E+02  0.17331012983E+02  0.63014369323E+02  0.80858337534E+03  0.80051004480E+03 0.  0.
         22    1    5    5    0    0  0.18897808582E+03  0.24101313818E+03  0.25667715081E+03  0.39960381560E+03  0.00000000000E+00 0.  1.
         22    1    5    5    0    0 -0.28235671449E+03 -0.22368212520E+03 -0.19366278149E+03  0.40897955974E+03  0.00000000000E+00 0.  1.
          5    1    4    4  502    0  0.19543089561E+02 -0.56221060338E+02  0.10899528332E+03  0.12427711681E+03  0.47000000000E+01 0. -1.
         -5    1    4    4    0  502  0.73835539111E+02  0.38890047354E+02  0.40244923462E+02  0.92767809522E+02  0.47000000000E+01 0. -1.
<mgrwt>
<rscale>  0 0.10034248E+04</rscale>
<asrwt>0</asrwt>
<pdfrwt beam="1">  1        2 0.95221760E-01 0.10034248E+04</pdfrwt>
<pdfrwt beam="2">  1       -2 0.62567210E-01 0.10034248E+04</pdfrwt>
<totfact> 0.13690937E+02</totfact>
</mgrwt>
</event>
<event>
 9    1  0.4412976E-036  0.9993179E+03  0.7818608E-02  0.8681688E-01
         -1   -1    0    0    0  501 -0.00000000000E+00  0.00000000000E+00  0.63684894305E+03  0.63684894305E+03  0.00000000000E+00 0.  1.
          1   -1    0    0  501    0  0.00000000000E+00 -0.00000000000E+00 -0.39202243812E+03  0.39202243812E+03  0.00000000000E+00 0.  1.
         36    2    1    2    0    0  0.00000000000E+00 -0.14210854715E-13  0.24482650494E+03  0.10288713812E+04  0.99931791812E+03 0.  0.
         25    2    3    3    0    0  0.10166199644E+02 -0.10035754490E+03 -0.52822496996E+02  0.16913423962E+03  0.12506472880E+03 0.  0.
         35    2    3    3    0    0 -0.10166199644E+02  0.10035754490E+03  0.29764900194E+03  0.85973714155E+03  0.80023623748E+03 0.  0.
         22    1    5    5    0    0  0.52037978272E+02  0.37585034891E+03 -0.80380120379E+02  0.38785615854E+03  0.00000000000E+00 0. -1.
         22    1    5    5    0    0 -0.62204177916E+02 -0.27549280402E+03  0.37802912231E+03  0.47188098302E+03  0.00000000000E+00 0. -1.
          5    1    4    4  502    0 -0.50911427240E+02 -0.26407589892E+02 -0.44506636737E+02  0.72747954893E+02  0.47000000000E+01 0. -1.
         -5    1    4    4    0  502  0.61077626884E+02 -0.73949955006E+02 -0.83158602594E+01  0.96386284724E+02  0.47000000000E+01 0. -1.
<mgrwt>
<rscale>  0 0.99931792E+03</rscale>
<asrwt>0</asrwt>
<pdfrwt beam="1">  1        1 0.60311145E-01 0.99931792E+03</pdfrwt>
<pdfrwt beam="2">  1       -1 0.97976760E-01 0.99931792E+03</pdfrwt>
<totfact> 0.73661936E+01</totfact>
</mgrwt>
</event>
<event>
 9    1  0.4412976E-036  0.1001662E+04  0.7818608E-02  0.8679457E-01
          1   -1    0    0  501    0  0.00000000000E+00  0.00000000000E+00  0.81799131731E+03  0.81799131731E+03  0.00000000000E+00 0. -1.
         -1   -1    0    0    0  501 -0.00000000000E+00 -0.00000000000E+00 -0.30664327724E+03  0.30664327724E+03  0.00000000000E+00 0. -1.
         36    2    1    2    0    0  0.00000000000E+00  0.00000000000E+00  0.51134804007E+03  0.11246345946E+04  0.10016616960E+04 0.  0.
         25    2    3    3    0    0  0.81022350661E+02  0.56611648377E+02  0.21218231681E+03  0.26466592832E+03  0.12352011177E+03 0.  0.
         35    2    3    3    0    0 -0.81022350661E+02 -0.56611648377E+02  0.29916572327E+03  0.85996866623E+03  0.80017277940E+03 0.  0.
         22    1    5    5    0    0 -0.38214984621E+03 -0.17037316794E+03 -0.30695251274E+01  0.41841957805E+03  0.00000000000E+00 0. -1.
         22    1    5    5    0    0  0.30112749555E+03  0.11376151956E+03  0.30223524839E+03  0.44154908819E+03  0.00000000000E+00 0. -1.
          5    1    4    4  502    0 -0.13315738553E+02  0.57104672619E+02  0.51042356535E+02  0.77882377267E+02  0.47000000000E+01 0.  1.
         -5    1    4    4    0  502  0.94338089213E+02 -0.49302424146E+00  0.16113996027E+03  0.18678355106E+03  0.47000000000E+01 0.  1.
<mgrwt>
<rscale>  0 0.10016617E+04</rscale>
<asrwt>0</asrwt>
<pdfrwt beam="1">  1        1 0.12584482E+00 0.10016617E+04</pdfrwt>
<pdfrwt beam="2">  1       -1 0.47175889E-01 0.10016617E+04</pdfrwt>
<totfact> 0.10868099E+02</totfact>
</mgrwt>
</event>
<event>
 9    1  0.4412976E-036  0.1000048E+04  0.7818608E-02  0.8680992E-01
         -1   -1    0    0    0  501 -0.00000000000E+00  0.00000000000E+00  0.54600746261E+03  0.54600746261E+03  0.00000000000E+00 0.  1.
          1   -1    0    0  501    0  0.00000000000E+00 -0.00000000000E+00 -0.45791348598E+03  0.45791348598E+03  0.00000000000E+00 0.  1.
         36    2    1    2    0    0 -0.14210854715E-13 -0.71054273576E-14  0.88093976633E+02  0.10039209486E+04  0.10000483600E+04 0.  0.
         25    2    3    3    0    0 -0.12234968982E+02  0.12518159334E+02  0.16375890587E+03  0.20039087806E+03  0.11416271711E+03 0.  0.
         35    2    3    3    0    0  0.12234968982E+02 -0.12518159334E+02 -0.75664929238E+02  0.80353007052E+03  0.79976808760E+03 0.  0.
         22    1    5    5    0    0  0.35534817879E+03  0.93666702068E+02 -0.20619141390E+03  0.42137949453E+03  0.00000000000E+00 0. -1.
         22    1    5    5    0    0 -0.34311320981E+03 -0.10618486140E+03  0.13052648466E+03  0.38215057599E+03  0.00000000000E+00 0. -1.
          5    1    4    4  502    0  0.22462446186E+02  0.44099190118E+02  0.28847345549E+02  0.57476598742E+02  0.47000000000E+01 0.  1.
         -5    1    4    4    0  502 -0.34697415167E+02 -0.31581030784E+02  0.13491156032E+03  0.14291427932E+03  0.47000000000E+01 0.  1.
<mgrwt>
<rscale>  0 0.10000484E+04</rscale>
<asrwt>0</asrwt>
<pdfrwt beam="1">  1        1 0.70448228E-01 0.10000484E+04</pdfrwt>
<pdfrwt beam="2">  1       -1 0.84001148E-01 0.10000484E+04</pdfrwt>
<totfact> 0.83268273E+01</totfact>
</mgrwt>
</event>
<event>
 9    1  0.4412976E-036  0.9994958E+03  0.7818608E-02  0.8681518E-01
          2   -1    0    0  501    0  0.00000000000E+00  0.00000000000E+00  0.22130844659E+03  0.22130844659E+03  0.00000000000E+00 0. -1.
         -2   -1    0    0    0  501 -0.00000000000E+00 -0.00000000000E+00 -0.11285062688E+04  0.11285062688E+04  0.00000000000E+00 0. -1.
         36    2    1    2    0    0  0.00000000000E+00 -0.28421709430E-13 -0.90719782220E+03  0.13498147154E+04  0.99949581151E+03 0.  0.
         25    2    3    3    0    0 -0.72262495242E+02  0.69471806311E+02 -0.30178344649E+03  0.34162872479E+03  0.12485486348E+03 0.  0.
         35    2    3    3    0    0  0.72262495242E+02 -0.69471806311E+02 -0.60541437571E+03  0.10081859906E+04  0.79991513625E+03 0.  0.
         22    1    5    5    0    0 -0.12965476329E+03  0.29970103288E+03 -0.45766269932E+03  0.56221545079E+03  0.00000000000E+00 0. -1.
         22    1    5    5    0    0  0.20191725853E+03 -0.36917283920E+03 -0.14775167639E+03  0.44597053980E+03  0.00000000000E+00 0. -1.
          5    1    4    4  502    0 -0.27039841211E+02  0.21514822327E+02 -0.23086416322E+01  0.34949397973E+02  0.47000000000E+01 0. -1.
         -5    1    4    4    0  502 -0.45222654031E+02  0.47956983984E+02 -0.29947480486E+03  0.30667932681E+03  0.47000000000E+01 0. -1.
<mgrwt>
<rscale>  0 0.99949581E+03</rscale>
<asrwt>0</asrwt>
<pdfrwt beam="1">  1        2 0.34047453E-01 0.99949581E+03</pdfrwt>
<pdfrwt beam="2">  1       -2 0.17361635E+00 0.99949581E+03</pdfrwt>
<totfact> 0.34397159E+01</totfact>
</mgrwt>
</event>
<event>
 9    1  0.4412976E-036  0.1000336E+04  0.7818608E-02  0.8680718E-01
          1   -1    0    0  501    0  0.00000000000E+00  0.00000000000E+00  0.18829588893E+04  0.18829588893E+04  0.00000000000E+00 0.  1.
         -1   -1    0    0    0  501 -0.00000000000E+00 -0.00000000000E+00 -0.13285907528E+03  0.13285907528E+03  0.00000000000E+00 0.  1.
         36    2    1    2    0    0  0.28421709430E-13  0.00000000000E+00  0.17500998140E+04  0.20158179646E+04  0.10003362971E+04 0.  0.
         25    2    3    3    0    0 -0.13702481485E+03 -0.60859809119E+01  0.31062497289E+03  0.36224941939E+03  0.12619005117E+03 0.  0.
         35    2    3    3    0    0  0.13702481485E+03  0.60859809119E+01  0.14394748411E+04  0.16535685452E+04  0.80211487727E+03 0.  0.
         22    1    5    5    0    0  0.46362558425E+03  0.85012019167E+02  0.73646201883E+03  0.87438665987E+03  0.00000000000E+00 0.  1.
         22    1    5    5    0    0 -0.32660076941E+03 -0.78926038255E+02  0.70301282230E+03  0.77918188532E+03  0.00000000000E+00 0.  1.
          5    1    4    4  502    0 -0.37556619582E+02 -0.33510377058E+02  0.21711209950E+03  0.22291971378E+03  0.47000000000E+01 0. -1.
         -5    1    4    4    0  502 -0.99468195264E+02  0.27424396146E+02  0.93512873396E+02  0.13932970560E+03  0.47000000000E+01 0. -1.
<mgrwt>
<rscale>  0 0.10003363E+04</rscale>
<asrwt>0</asrwt>
<pdfrwt beam="1">  1        1 0.28968596E+00 0.10003363E+04</pdfrwt>
<pdfrwt beam="2">  1       -1 0.20439859E-01 0.10003363E+04</pdfrwt>
<totfact> 0.74220105E+01</totfact>
</mgrwt>
</event>
<event>
 9    1  0.4412976E-036  0.9993374E+03  0.7818608E-02  0.8681669E-01
         -2   -1    0    0    0  501 -0.00000000000E+00  0.00000000000E+00  0.72075040191E+02  0.72075040191E+02  0.00000000000E+00 0.  1.
          2   -1    0    0  501    0  0.00000000000E+00 -0.00000000000E+00 -0.34640119539E+04  0.34640119539E+04  0.00000000000E+00 0.  1.
         36    2    1    2    0    0  0.14210854715E-13  0.71054273576E-14 -0.33919369137E+04  0.35360869941E+04  0.99933738206E+03 0.  0.
         25    2    3    3    0    0  0.64835011589E+02  0.52575889324E+01 -0.10473267714E+04  0.10579350495E+04  0.13454360557E+03 0.  0.
         35    2    3    3    0    0 -0.64835011589E+02 -0.52575889324E+01 -0.23446101422E+04  0.24781519446E+04  0.79988069130E+03 0.  0.
         22    1    5    5    0    0 -0.18767718940E+03  0.34205301833E+03 -0.16067105674E+04  0.16534031094E+04  0.00000000000E+00 0. -1.
         22    1    5    5    0    0  0.12284217781E+03 -0.34731060727E+03 -0.73789957486E+03  0.82474883519E+03  0.00000000000E+00 0. -1.
          5    1    4    4  502    0 -0.28091937701E+02  0.40412006338E+02 -0.39122207004E+03  0.39433372326E+03  0.47000000000E+01 0.  1.
         -5    1    4    4    0  502  0.92926949290E+02 -0.35154417405E+02 -0.65610470139E+03  0.66360132621E+03  0.47000000000E+01 0.  1.
<mgrwt>
<rscale>  0 0.99933738E+03</rscale>
<asrwt>0</asrwt>
<pdfrwt beam="1">  1        2 0.53292486E+00 0.99933738E+03</pdfrwt>
<pdfrwt beam="2">  1       -2 0.11088469E-01 0.99933738E+03</pdfrwt>
<totfact> 0.51907677E+01</totfact>
</mgrwt>
</event>
<event>
 9    1  0.4412976E-036  0.1001135E+04  0.7818608E-02  0.8679958E-01
          1   -1    0    0  501    0  0.00000000000E+00  0.00000000000E+00  0.23660909969E+03  0.23660909969E+03  0.00000000000E+00 0. -1.
         -1   -1    0    0    0  501 -0.00000000000E+00 -0.00000000000E+00 -0.10589948949E+04  0.10589948949E+04  0.00000000000E+00 0. -1.
         36    2    1    2    0    0 -0.14210854715E-13  0.28421709430E-13 -0.82238579524E+03  0.12956039946E+04  0.10011350132E+04 0.  0.
         25    2    3    3    0    0 -0.11779266106E+03 -0.72871929780E+02 -0.19972107186E+03  0.27210844620E+03  0.12234815406E+03 0.  0.
         35    2    3    3    0    0  0.11779266106E+03  0.72871929780E+02 -0.62266472339E+03  0.10234955484E+04  0.80040386727E+03 0.  0.
         22    1    5    5    0    0 -0.21139009242E+03  0.32462926649E+03 -0.38304889994E+03  0.54479022713E+03  0.00000000000E+00 0. -1.
         22    1    5    5    0    0  0.32918275348E+03 -0.25175733671E+03 -0.23961582345E+03  0.47870532128E+03  0.00000000000E+00 0. -1.
          5    1    4    4  502    0 -0.31079549369E+02 -0.34879959238E+02 -0.16436785412E+03  0.17094277233E+03  0.47000000000E+01 0. -1.
         -5    1    4    4    0  502 -0.86713111692E+02 -0.37991970542E+02 -0.35353217740E+02  0.10116567387E+03  0.47000000000E+01 0. -1.
<mgrwt>
<rscale>  0 0.10011350E+04</rscale>
<asrwt>0</asrwt>
<pdfrwt beam="1">  1        1 0.36401399E-01 0.10011350E+04</pdfrwt>
<pdfrwt beam="2">  1       -1 0.16292229E+00 0.10011350E+04</pdfrwt>
<totfact> 0.38147962E+01</totfact>
</mgrwt>
</event>
<event>
 9    1  0.4412976E-036  0.1000947E+04  0.7818608E-02  0.8680137E-01
         -2   -1    0    0    0  501 -0.00000000000E+00  0.00000000000E+00  0.56113099847E+03  0.56113099847E+03  0.00000000000E+00 0.  1.
          2   -1    0    0  501    0  0.00000000000E+00 -0.00000000000E+00 -0.44637309490E+03  0.44637309490E+03  0.00000000000E+00 0.  1.
         36    2    1    2    0    0 -0.71054273576E-14 -0.71054273576E-14  0.11475790357E+03  0.10075040934E+04  0.10009471124E+04 0.  0.
         25    2    3    3    0    0 -0.16361931867E+02 -0.32344431830E+02 -0.11622487379E+03  0.17527022894E+03  0.12608551376E+03 0.  0.
         35    2    3    3    0    0  0.16361931867E+02  0.32344431830E+02  0.23098277737E+03  0.83223386443E+03  0.79871539773E+03 0.  0.
         22    1    5    5    0    0  0.16696100972E+03 -0.15213838099E+03 -0.22436306189E+03  0.31837218673E+03  0.00000000000E+00 0. -1.
         22    1    5    5    0    0 -0.15059907785E+03  0.18448281282E+03  0.45534583926E+03  0.51386167770E+03  0.00000000000E+00 0. -1.
          5    1    4    4  502    0  0.34031440229E+02 -0.60651277885E+02 -0.43144568720E+02  0.81977193433E+02  0.47000000000E+01 0.  1.
         -5    1    4    4    0  502 -0.50393372096E+02  0.28306846055E+02 -0.73080305075E+02  0.93293035510E+02  0.47000000000E+01 0.  1.
<mgrwt>
<rscale>  0 0.10009471E+04</rscale>
<asrwt>0</asrwt>
<pdfrwt beam="1">  1        2 0.68672784E-01 0.10009471E+04</pdfrwt>
<pdfrwt beam="2">  1       -2 0.86327846E-01 0.10009471E+04</pdfrwt>
<totfact> 0.97804572E+01</totfact>
</mgrwt>
</event>
<event>
 9    1  0.4412976E-036  0.1001650E+04  0.7818608E-02  0.8679469E-01
          1   -1    0    0  501    0  0.00000000000E+00  0.00000000000E+00  0.16369237249E+04  0.16369237249E+04  0.00000000000E+00 0. -1.
         -1   -1    0    0    0  501 -0.00000000000E+00 -0.00000000000E+00 -0.15322981628E+03  0.15322981628E+03  0.00000000000E+00 0. -1.
         36    2    1    2    0    0 -0.71054273576E-14  0.00000000000E+00  0.14836939087E+04  0.17901535412E+04  0.10016496826E+04 0.  0.
         25    2    3    3    0    0  0.41360730490E+02  0.13203702625E+03  0.33692966538E+03  0.38561906985E+03  0.12663325508E+03 0.  0.
         35    2    3    3    0    0 -0.41360730490E+02 -0.13203702625E+03  0.11467642433E+04  0.14045344714E+04  0.79906468154E+03 0.  0.
         22    1    5    5    0    0  0.41472821204E+02 -0.18743658738E+03  0.12478840060E+04  0.12625636466E+04  0.00000000000E+00 0.  1.
         22    1    5    5    0    0 -0.82833551694E+02  0.55399561128E+02 -0.10111976277E+03  0.14197082476E+03  0.00000000000E+00 0.  1.
          5    1    4    4  502    0  0.78322479202E+02  0.69666378481E+02  0.13476893152E+03  0.17079979492E+03  0.47000000000E+01 0. -1.
         -5    1    4    4    0  502 -0.36961748712E+02  0.62370647767E+02  0.20216073386E+03  0.21481927494E+03  0.47000000000E+01 0. -1.
<mgrwt>
<rscale>  0 0.10016497E+04</rscale>
<asrwt>0</asrwt>
<pdfrwt beam="1">  1        1 0.25183441E+00 0.10016497E+04</pdfrwt>
<pdfrwt beam="2">  1       -1 0.23573819E-01 0.10016497E+04</pdfrwt>
<totfact> 0.87195293E+01</totfact>
</mgrwt>
</event>
<event>
 9    1  0.4412976E-036  0.9990596E+03  0.7818608E-02  0.8681934E-01
         -1   -1    0    0    0  501 -0.00000000000E+00  0.00000000000E+00  0.73079030334E+03  0.73079030334E+03  0.00000000000E+00 0.  1.
          1   -1    0    0  501    0  0.00000000000E+00 -0.00000000000E+00 -0.34145230379E+03  0.34145230379E+03  0.00000000000E+00 0.  1.
         36    2    1    2    0    0  0.00000000000E+00  0.00000000000E+00  0.38933799955E+03  0.10722426071E+04  0.99905962317E+03 0.  0.
         25    2    3    3    0    0  0.73401535371E+02 -0.11235856551E+03  0.10405035626E+03  0.21181622641E+03  0.12659938584E+03 0.  0.
         35    2    3    3    0    0 -0.73401535371E+02  0.11235856551E+03  0.28528764329E+03  0.86042638072E+03  0.80058246582E+03 0.  0.
         22    1    5    5    0    0 -0.43127888992E+03  0.13827803163E+03  0.16314170039E+03  0.48139122274E+03  0.00000000000E+00 0.  1.
         22    1    5    5    0    0  0.35787735455E+03 -0.25919466112E+02  0.12214594289E+03  0.37903515798E+03  0.00000000000E+00 0.  1.
          5    1    4    4  502    0  0.55070060763E+02 -0.13146712036E+01  0.78993058843E+02  0.96418013348E+02  0.47000000000E+01 0.  1.
         -5    1    4    4    0  502  0.18331474609E+02 -0.11104389431E+03  0.25057297420E+02  0.11539821307E+03  0.47000000000E+01 0.  1.
<mgrwt>
<rscale>  0 0.99905962E+03</rscale>
<asrwt>0</asrwt>
<pdfrwt beam="1">  1        1 0.52531124E-01 0.99905962E+03</pdfrwt>
<pdfrwt beam="2">  1       -1 0.11242928E+00 0.99905962E+03</pdfrwt>
<totfact> 0.64501369E+01</totfact>
</mgrwt>
</event>
<event>
 9    1  0.4412976E-036  0.1000879E+04  0.7818608E-02  0.8680201E-01
         -2   -1    0    0    0  501 -0.00000000000E+00  0.00000000000E+00  0.18535300970E+03  0.18535300970E+03  0.00000000000E+00 0. -1.
          2   -1    0    0  501    0  0.00000000000E+00 -0.00000000000E+00 -0.13511502134E+04  0.13511502134E+04  0.00000000000E+00 0. -1.
         36    2    1    2    0    0 -0.71054273576E-14 -0.71054273576E-14 -0.11657972037E+04  0.15365032231E+04  0.10008791308E+04 0.  0.
         25    2    3    3    0    0 -0.37847557963E+02 -0.18614840185E+02 -0.12296723552E+02  0.13233803712E+03  0.12483267497E+03 0.  0.
         35    2    3    3    0    0  0.37847557963E+02  0.18614840185E+02 -0.11535004802E+04  0.14041651860E+04  0.79958586899E+03 0.  0.
         22    1    5    5    0    0  0.73814421549E+02  0.12517199909E+03 -0.12485118904E+04  0.12569401492E+04  0.00000000000E+00 0.  1.
         22    1    5    5    0    0 -0.35966863586E+02 -0.10655715891E+03  0.95011410221E+02  0.14722503681E+03  0.00000000000E+00 0.  1.
          5    1    4    4  502    0 -0.33244879412E+02 -0.70888244160E+02 -0.94500960685E+00  0.78443280212E+02  0.47000000000E+01 0.  1.
         -5    1    4    4    0  502 -0.46026785506E+01  0.52273403975E+02 -0.11351713945E+02  0.53894756911E+02  0.47000000000E+01 0.  1.
<mgrwt>
<rscale>  0 0.10008791E+04</rscale>
<asrwt>0</asrwt>
<pdfrwt beam="1">  1        2 0.20786926E+00 0.10008791E+04</pdfrwt>
<pdfrwt beam="2">  1       -2 0.28515848E-01 0.10008791E+04</pdfrwt>
<totfact> 0.20875670E+02</totfact>
</mgrwt>
</event>
<event>
 9    1  0.4412976E-036  0.1000434E+04  0.7818608E-02  0.8680625E-01
         -1   -1    0    0    0  501 -0.00000000000E+00  0.00000000000E+00  0.24259236989E+03  0.24259236989E+03  0.00000000000E+00 0. -1.
          1   -1    0    0  501    0  0.00000000000E+00 -0.00000000000E+00 -0.10314300232E+04  0.10314300232E+04  0.00000000000E+00 0. -1.
         36    2    1    2    0    0  0.00000000000E+00  0.31974423109E-13 -0.78883765330E+03  0.12740223931E+04  0.10004340132E+04 0.  0.
         25    2    3    3    0    0 -0.95194969616E+02  0.13985022320E+02 -0.28065223884E+03  0.32167170597E+03  0.12429539078E+03 0.  0.
         35    2    3    3    0    0  0.95194969616E+02 -0.13985022320E+02 -0.50818541446E+03  0.95235068711E+03  0.79966352466E+03 0.  0.
         22    1    5    5    0    0  0.23065087910E+03 -0.28669253486E+03 -0.53208202557E+03  0.64691863438E+03  0.00000000000E+00 0.  1.
         22    1    5    5    0    0 -0.13545590948E+03  0.27270751254E+03  0.23896611114E+02  0.30543205273E+03  0.00000000000E+00 0.  1.
          5    1    4    4  502    0 -0.59354469223E+02  0.37140703731E+02 -0.26782841714E+03  0.27686916751E+03  0.47000000000E+01 0. -1.
         -5    1    4    4    0  502 -0.35840500393E+02 -0.23155681411E+02 -0.12823821703E+02  0.44802538467E+02  0.47000000000E+01 0. -1.
<mgrwt>
<rscale>  0 0.10004340E+04</rscale>
<asrwt>0</asrwt>
<pdfrwt beam="1">  1        1 0.15868154E+00 0.10004340E+04</pdfrwt>
<pdfrwt beam="2">  1       -1 0.37321903E-01 0.10004340E+04</pdfrwt>
<totfact> 0.11037107E+02</totfact>
</mgrwt>
</event>
<event>
 9    1  0.4412976E-036  0.1000152E+04  0.7818608E-02  0.8680893E-01
         -2   -1    0    0    0  501 -0.00000000000E+00  0.00000000000E+00  0.78884599374E+02  0.78884599374E+02  0.00000000000E+00 0.  1.
          2   -1    0    0  501    0  0.00000000000E+00 -0.00000000000E+00 -0.31701490778E+04  0.31701490778E+04  0.00000000000E+00 0.  1.
         36    2    1    2    0    0 -0.17763568394E-14  0.00000000000E+00 -0.30912644784E+04  0.32490336772E+04  0.10001518684E+04 0.  0.
         25    2    3    3    0    0 -0.76801219075E+01  0.11714994864E+03 -0.34247016187E+03  0.38327423629E+03  0.12581825663E+03 0.  0.
         35    2    3    3    0    0  0.76801219075E+01 -0.11714994864E+03 -0.27487943166E+04  0.28657594409E+04  0.80182534476E+03 0.  0.
         22    1    5    5    0    0 -0.20962834361E+03  0.16562306705E+03 -0.21666716414E+04  0.21830806317E+04  0.00000000000E+00 0.  1.
         22    1    5    5    0    0  0.21730846552E+03 -0.28277301568E+03 -0.58212267513E+03  0.68267880916E+03  0.00000000000E+00 0.  1.
          5    1    4    4  502    0 -0.43429346258E+00  0.11694388260E+03 -0.35168158836E+03  0.37064550433E+03  0.47000000000E+01 0. -1.
         -5    1    4    4    0  502 -0.72458284449E+01  0.20606603488E+00  0.92114264918E+01  0.12628731966E+02  0.47000000000E+01 0. -1.
<mgrwt>
<rscale>  0 0.10001519E+04</rscale>
<asrwt>0</asrwt>
<pdfrwt beam="1">  1        2 0.48771523E+00 0.10001519E+04</pdfrwt>
<pdfrwt beam="2">  1       -2 0.12136092E-01 0.10001519E+04</pdfrwt>
<totfact> 0.72879386E+01</totfact>
</mgrwt>
</event>
<event>
 9    1  0.4412976E-036  0.9994592E+03  0.7818608E-02  0.8681553E-01
         -2   -1    0    0    0  501 -0.00000000000E+00  0.00000000000E+00  0.22135562318E+03  0.22135562318E+03  0.00000000000E+00 0.  1.
          2   -1    0    0  501    0  0.00000000000E+00 -0.00000000000E+00 -0.11281831639E+04  0.11281831639E+04  0.00000000000E+00 0.  1.
         36    2    1    2    0    0 -0.14210854715E-13  0.00000000000E+00 -0.90682754068E+03  0.13495387870E+04  0.99945922837E+03 0.  0.
         25    2    3    3    0    0  0.41591804649E+02 -0.22108384724E+02 -0.34769839971E+03  0.37254495843E+03  0.12520746785E+03 0.  0.
         35    2    3    3    0    0 -0.41591804649E+02  0.22108384724E+02 -0.55912914097E+03  0.97699382860E+03  0.79979552759E+03 0.  0.
         22    1    5    5    0    0  0.17490301550E+02 -0.13659025731E+03 -0.72618177984E+03  0.73912298464E+03  0.00000000000E+00 0. -1.
         22    1    5    5    0    0 -0.59082106199E+02  0.15869864203E+03  0.16705263887E+03  0.23787084397E+03  0.00000000000E+00 0. -1.
          5    1    4    4  502    0  0.83336261629E+02  0.49872271489E+01 -0.20846061589E+03  0.22460570633E+03  0.47000000000E+01 0.  1.
         -5    1    4    4    0  502 -0.41744456980E+02 -0.27095611872E+02 -0.13923778382E+03  0.14793925211E+03  0.47000000000E+01 0.  1.
<mgrwt>
<rscale>  0 0.99945923E+03</rscale>
<asrwt>0</asrwt>
<pdfrwt beam="1">  1        2 0.17356664E+00 0.99945923E+03</pdfrwt>
<pdfrwt beam="2">  1       -2 0.34054711E-01 0.99945923E+03</pdfrwt>
<totfact> 0.20380855E+02</totfact>
</mgrwt>
</event>
<event>
 9    1  0.4412976E-036  0.9998218E+03  0.7818608E-02  0.8681208E-01
          1   -1    0    0  501    0  0.00000000000E+00  0.00000000000E+00  0.21585840221E+04  0.21585840221E+04  0.00000000000E+00 0.  1.
         -1   -1    0    0    0  501 -0.00000000000E+00 -0.00000000000E+00 -0.11577538191E+03  0.11577538191E+03  0.00000000000E+00 0.  1.
         36    2    1    2    0    0  0.31086244690E-13  0.00000000000E+00  0.20428086402E+04  0.22743594040E+04  0.99982176319E+03 0.  0.
         25    2    3    3    0    0 -0.18823890697E+01  0.10407652832E+03  0.14425681164E+03  0.21176580169E+03  0.11488803213E+03 0.  0.
         35    2    3    3    0    0  0.18823890697E+01 -0.10407652832E+03  0.18985518285E+04  0.20625936023E+04  0.79934839430E+03 0.  0.
         22    1    5    5    0    0 -0.36019441054E+03 -0.10847598295E+03  0.13784368075E+04  0.14288439679E+04  0.00000000000E+00 0.  1.
         22    1    5    5    0    0  0.36207679961E+03  0.43994546281E+01  0.52011502098E+03  0.63374963437E+03  0.00000000000E+00 0.  1.
          5    1    4    4  502    0 -0.78832376792E+01  0.10373021799E+03  0.16192531026E+03  0.19252012794E+03  0.47000000000E+01 0. -1.
         -5    1    4    4    0  502  0.60008486095E+01  0.34631033364E+00 -0.17668498617E+02  0.19245673755E+02  0.47000000000E+01 0. -1.
<mgrwt>
<rscale>  0 0.99982176E+03</rscale>
<asrwt>0</asrwt>
<pdfrwt beam="1">  1        1 0.33208982E+00 0.99982176E+03</pdfrwt>
<pdfrwt beam="2">  1       -1 0.17811599E-01 0.99982176E+03</pdfrwt>
<totfact> 0.59658009E+01</totfact>
</mgrwt>
</event>
<event>
 9    1  0.4412976E-036  0.9995783E+03  0.7818608E-02  0.8681440E-01
          1   -1    0    0  501    0  0.00000000000E+00  0.00000000000E+00  0.10790993374E+04  0.10790993374E+04  0.00000000000E+00 0.  1.
         -1   -1    0    0    0  501 -0.00000000000E+00 -0.00000000000E+00 -0.23147934505E+03  0.23147934505E+03  0.00000000000E+00 0.  1.
         36    2    1    2    0    0  0.00000000000E+00  0.28421709430E-13  0.84761999238E+03  0.13105786825E+04  0.99957832683E+03 0.  0.
         25    2    3    3    0    0  0.82255417381E+02  0.34781360875E+02  0.17688926113E+02  0.15433551429E+03  0.12462285550E+03 0.  0.
         35    2    3    3    0    0 -0.82255417381E+02 -0.34781360875E+02  0.82993106627E+03  0.11562431682E+04  0.80008561570E+03 0.  0.
         22    1    5    5    0    0 -0.15186859434E+03  0.29174092345E+03  0.84682291149E+02  0.33962910181E+03  0.00000000000E+00 0.  1.
         22    1    5    5    0    0  0.69613176960E+02 -0.32652228433E+03  0.74524877512E+03  0.81661406637E+03  0.00000000000E+00 0.  1.
          5    1    4    4  502    0 -0.33236470470E+02  0.75679914032E+01  0.69368703767E+01  0.35101960541E+02  0.47000000000E+01 0.  1.
         -5    1    4    4    0  502  0.11549188785E+03  0.27213369472E+02  0.10752055736E+02  0.11923355375E+03  0.47000000000E+01 0.  1.
<mgrwt>
<rscale>  0 0.99957833E+03</rscale>
<asrwt>0</asrwt>
<pdfrwt beam="1">  1        1 0.16601528E+00 0.99957833E+03</pdfrwt>
<pdfrwt beam="2">  1       -1 0.35612207E-01 0.99957833E+03</pdfrwt>
<totfact> 0.11002546E+02</totfact>
</mgrwt>
</event>
<event>
 9    1  0.4412976E-036  0.9995854E+03  0.7818608E-02  0.8681433E-01
          4   -1    0    0  501    0  0.00000000000E+00  0.00000000000E+00  0.58364171598E+03  0.58364171598E+03  0.00000000000E+00 0.  1.
         -4   -1    0    0    0  501 -0.00000000000E+00 -0.00000000000E+00 -0.42798986712E+03  0.42798986712E+03  0.00000000000E+00 0.  1.
         36    2    1    2    0    0 -0.28421709430E-13 -0.14210854715E-13  0.15565184887E+03  0.10116315831E+04  0.99958539499E+03 0.  0.
         25    2    3    3    0    0 -0.12383203471E+03  0.31315659849E+02 -0.27628679677E+02  0.18134695340E+03  0.12573118227E+03 0.  0.
         35    2    3    3    0    0  0.12383203471E+03 -0.31315659849E+02  0.18328052855E+03  0.83028462970E+03  0.79966603704E+03 0.  0.
         22    1    5    5    0    0  0.41134231138E+03 -0.19081056157E+03  0.21139308842E+03  0.50029811650E+03  0.00000000000E+00 0.  1.
         22    1    5    5    0    0 -0.28751027667E+03  0.15949490172E+03 -0.28112559878E+02  0.32998651319E+03  0.00000000000E+00 0.  1.
          5    1    4    4  502    0 -0.12280708464E+03  0.45476567242E+02  0.18969973561E+02  0.13240713011E+03  0.47000000000E+01 0.  1.
         -5    1    4    4    0  502 -0.10249500708E+01 -0.14160907393E+02 -0.46598653238E+02  0.48939823298E+02  0.47000000000E+01 0.  1.
<mgrwt>
<rscale>  0 0.99958539E+03</rscale>
<asrwt>0</asrwt>
<pdfrwt beam="1">  1        4 0.89791034E-01 0.99958539E+03</pdfrwt>
<pdfrwt beam="2">  1       -4 0.65844595E-01 0.99958539E+03</pdfrwt>
<totfact> 0.51805256E+00</totfact>
</mgrwt>
</event>
<event>
 9    1  0.4412976E-036  0.1002345E+04  0.7818608E-02  0.8678808E-01
          1   -1    0    0  501    0  0.00000000000E+00  0.00000000000E+00  0.16225781385E+04  0.16225781385E+04  0.00000000000E+00 0. -1.
         -1   -1    0    0    0  501 -0.00000000000E+00 -0.00000000000E+00 -0.15479915794E+03  0.15479915794E+03  0.00000000000E+00 0. -1.
         36    2    1    2    0    0 -0.56843418861E-13 -0.24868995752E-13  0.14677789806E+04  0.17773772965E+04  0.10023447103E+04 0.  0.
         25    2    3    3    0    0  0.14096764991E+03 -0.55424572968E+01  0.23368114902E+03  0.30006131854E+03  0.12460866072E+03 0.  0.
         35    2    3    3    0    0 -0.14096764991E+03  0.55424572968E+01  0.12340978316E+04  0.14773159779E+04  0.79972648050E+03 0.  0.
         22    1    5    5    0    0  0.14091216864E+03  0.14324151495E+03  0.11285844639E+04  0.11463320911E+04  0.00000000000E+00 0. -1.
         22    1    5    5    0    0 -0.28187981855E+03 -0.13769905765E+03  0.10551336763E+03  0.33098388681E+03  0.00000000000E+00 0. -1.
          5    1    4    4  502    0  0.10328893865E+03  0.69534842417E+01  0.23826489031E+03  0.25982533314E+03  0.47000000000E+01 0. -1.
         -5    1    4    4    0  502  0.37678711260E+02 -0.12495941539E+02 -0.45837412888E+01  0.40235985403E+02  0.47000000000E+01 0. -1.
<mgrwt>
<rscale>  0 0.10023447E+04</rscale>
<asrwt>0</asrwt>
<pdfrwt beam="1">  1        1 0.24962739E+00 0.10023447E+04</pdfrwt>
<pdfrwt beam="2">  1       -1 0.23815256E-01 0.10023447E+04</pdfrwt>
<totfact> 0.87742164E+01</totfact>
</mgrwt>
</event>
<event>
 9    1  0.4412976E-036  0.1000558E+04  0.7818608E-02  0.8680506E-01
         -2   -1    0    0    0  501 -0.00000000000E+00  0.00000000000E+00  0.72638342771E+03  0.72638342771E+03  0.00000000000E+00 0. -1.
          2   -1    0    0  501    0  0.00000000000E+00 -0.00000000000E+00 -0.34455533762E+03  0.34455533762E+03  0.00000000000E+00 0. -1.
         36    2    1    2    0    0  0.71054273576E-14  0.00000000000E+00  0.38182809009E+03  0.10709387653E+04  0.10005584184E+04 0.  0.
         25    2    3    3    0    0 -0.22458517965E+02  0.13790361132E+03  0.97783490223E+02  0.21109987295E+03  0.12441766094E+03 0.  0.
         35    2    3    3    0    0  0.22458517965E+02 -0.13790361132E+03  0.28404459987E+03  0.85983889238E+03  0.79944968265E+03 0.  0.
         22    1    5    5    0    0  0.33846681840E+03 -0.69500062274E+02  0.38862558485E+03  0.52001912562E+03  0.00000000000E+00 0. -1.
         22    1    5    5    0    0 -0.31600830043E+03 -0.68403549047E+02 -0.10458098498E+03  0.33981976676E+03  0.00000000000E+00 0. -1.
          5    1    4    4  502    0  0.15697266501E+02  0.14616056986E+03  0.69544421322E+02  0.16268937548E+03  0.47000000000E+01 0. -1.
         -5    1    4    4    0  502 -0.38155784466E+02 -0.82569585420E+01  0.28239068901E+02  0.48410497467E+02  0.47000000000E+01 0. -1.
<mgrwt>
<rscale>  0 0.10005584E+04</rscale>
<asrwt>0</asrwt>
<pdfrwt beam="1">  1        2 0.53008514E-01 0.10005584E+04</pdfrwt>
<pdfrwt beam="2">  1       -2 0.11175130E+00 0.10005584E+04</pdfrwt>
<totfact> 0.69960297E+01</totfact>
</mgrwt>
</event>
<event>
 9    1  0.4412976E-036  0.9977573E+03  0.7818608E-02  0.8683177E-01
         -2   -1    0    0    0  501 -0.00000000000E+00  0.00000000000E+00  0.28234863581E+03  0.28234863581E+03  0.00000000000E+00 0.  1.
          2   -1    0    0  501    0  0.00000000000E+00 -0.00000000000E+00 -0.88146318011E+03  0.88146318011E+03  0.00000000000E+00 0.  1.
         36    2    1    2    0    0  0.00000000000E+00  0.14210854715E-13 -0.59911454430E+03  0.11638118159E+04  0.99775733807E+03 0.  0.
         25    2    3    3    0    0 -0.11576671303E+03  0.63884051208E+02 -0.15722641099E+03  0.24026800004E+03  0.12460121863E+03 0.  0.
         35    2    3    3    0    0  0.11576671303E+03 -0.63884051208E+02 -0.44188813331E+03  0.92354381588E+03  0.80011558767E+03 0.  0.
         22    1    5    5    0    0  0.46860393692E+02 -0.27266630429E+03  0.13378668241E+03  0.30731366123E+03  0.00000000000E+00 0. -1.
         22    1    5    5    0    0  0.68906319342E+02  0.20878225308E+03 -0.57567481571E+03  0.61623015464E+03  0.00000000000E+00 0. -1.
          5    1    4    4  502    0 -0.11546485915E+03  0.77231206459E+00 -0.12111636886E+03  0.16740368864E+03  0.47000000000E+01 0.  1.
         -5    1    4    4    0  502 -0.30185388457E+00  0.63111739143E+02 -0.36110042139E+02  0.72864311406E+02  0.47000000000E+01 0.  1.
<mgrwt>
<rscale>  0 0.99775734E+03</rscale>
<asrwt>0</asrwt>
<pdfrwt beam="1">  1        2 0.13560972E+00 0.99775734E+03</pdfrwt>
<pdfrwt beam="2">  1       -2 0.43438252E-01 0.99775734E+03</pdfrwt>
<totfact> 0.18351199E+02</totfact>
</mgrwt>
</event>
<event>
 9    1  0.4412976E-036  0.1000307E+04  0.7818608E-02  0.8680746E-01
          2   -1    0    0  501    0  0.00000000000E+00  0.00000000000E+00  0.89250357560E+03  0.89250357560E+03  0.00000000000E+00 0.  1.
         -2   -1    0    0    0  501 -0.00000000000E+00 -0.00000000000E+00 -0.28028279533E+03  0.28028279533E+03  0.00000000000E+00 0.  1.
         36    2    1    2    0    0 -0.71054273576E-14  0.00000000000E+00  0.61222078027E+03  0.11727863709E+04  0.10003067470E+04 0.  0.
         25    2    3    3    0    0 -0.20564197920E+02  0.11817987636E+03  0.20951221136E+03  0.27010050303E+03  0.12111789963E+03 0.  0.
         35    2    3    3    0    0  0.20564197920E+02 -0.11817987636E+03  0.40270856890E+03  0.90268586790E+03  0.79892315977E+03 0.  0.
         22    1    5    5    0    0 -0.20063854099E+03 -0.39652484699E+03  0.16052185570E+03  0.47249872440E+03  0.00000000000E+00 0. -1.
         22    1    5    5    0    0  0.22120273891E+03  0.27834497063E+03  0.24218671321E+03  0.43018714350E+03  0.00000000000E+00 0. -1.
          5    1    4    4  502    0 -0.57421185831E+02  0.14491605773E+02  0.87081838835E+02  0.10541601337E+03  0.47000000000E+01 0. -1.
         -5    1    4    4    0  502  0.36856987911E+02  0.10368827059E+03  0.12243037253E+03  0.16468448966E+03  0.47000000000E+01 0. -1.
<mgrwt>
<rscale>  0 0.10003067E+04</rscale>
<asrwt>0</asrwt>
<pdfrwt beam="1">  1        2 0.13730824E+00 0.10003067E+04</pdfrwt>
<pdfrwt beam="2">  1       -2 0.43120431E-01 0.10003067E+04</pdfrwt>
<totfact> 0.18302953E+02</totfact>
</mgrwt>
</event>
<event>
 9    1  0.4412976E-036  0.1000900E+04  0.7818608E-02  0.8680182E-01
         -2   -1    0    0    0  501 -0.00000000000E+00  0.00000000000E+00  0.10568016624E+03  0.10568016624E+03  0.00000000000E+00 0.  1.
          2   -1    0    0  501    0  0.00000000000E+00 -0.00000000000E+00 -0.23698866342E+04  0.23698866342E+04  0.00000000000E+00 0.  1.
         36    2    1    2    0    0 -0.71054273576E-14  0.00000000000E+00 -0.22642064679E+04  0.24755668004E+04  0.10008996223E+04 0.  0.
         25    2    3    3    0    0 -0.41013610569E+01 -0.45052364121E+02 -0.90976391738E+02  0.16096089890E+03  0.12484058012E+03 0.  0.
         35    2    3    3    0    0  0.41013610569E+01  0.45052364121E+02 -0.21732300762E+04  0.23146059015E+04  0.79525151905E+03 0.  0.
         22    1    5    5    0    0  0.24448470758E+03 -0.22479990716E+03 -0.16207165866E+04  0.16543971786E+04  0.00000000000E+00 0.  1.
         22    1    5    5    0    0 -0.24038334653E+03  0.26985227128E+03 -0.55251348954E+03  0.66020872285E+03  0.00000000000E+00 0.  1.
          5    1    4    4  502    0 -0.58151049819E+02 -0.33933851383E+02 -0.79709981853E+02  0.10444530660E+03  0.47000000000E+01 0. -1.
         -5    1    4    4    0  502  0.54049688762E+02 -0.11118512738E+02 -0.11266409885E+02  0.56515592295E+02  0.47000000000E+01 0. -1.
<mgrwt>
<rscale>  0 0.10008996E+04</rscale>
<asrwt>0</asrwt>
<pdfrwt beam="1">  1        2 0.36459795E+00 0.10008996E+04</pdfrwt>
<pdfrwt beam="2">  1       -2 0.16258487E-01 0.10008996E+04</pdfrwt>
<totfact> 0.14562042E+02</totfact>
</mgrwt>
</event>
<event>
 9    1  0.4412976E-036  0.1000807E+04  0.7818608E-02  0.8680270E-01
          2   -1    0    0  501    0  0.00000000000E+00  0.00000000000E+00  0.61233035670E+03  0.61233035670E+03  0.00000000000E+00 0. -1.
         -2   -1    0    0    0  501 -0.00000000000E+00 -0.00000000000E+00 -0.40893523265E+03  0.40893523265E+03  0.00000000000E+00 0. -1.
         36    2    1    2    0    0  0.00000000000E+00 -0.14210854715E-13  0.20339512405E+03  0.10212655893E+04  0.10008065885E+04 0.  0.
         25    2    3    3    0    0  0.46082473722E+02 -0.12267892885E+03  0.10888037059E+03  0.21147569544E+03  0.12527298470E+03 0.  0.
         35    2    3    3    0    0 -0.46082473722E+02  0.12267892885E+03  0.94514753460E+02  0.80978989391E+03  0.79350672315E+03 0.  0.
         22    1    5    5    0    0 -0.85721814790E+01  0.10425902079E+03  0.44484312253E+03  0.45697793095E+03  0.00000000000E+00 0. -1.
         22    1    5    5    0    0 -0.37510292243E+02  0.18419908060E+02 -0.35032836907E+03  0.35281196296E+03  0.00000000000E+00 0. -1.
          5    1    4    4  502    0 -0.13437766407E+02  0.70264344753E+01  0.57618216293E+02  0.59765317671E+02  0.47000000000E+01 0. -1.
         -5    1    4    4    0  502  0.59520240129E+02 -0.12970536332E+03  0.51262154295E+02  0.15171037777E+03  0.47000000000E+01 0. -1.
<mgrwt>
<rscale>  0 0.10008066E+04</rscale>
<asrwt>0</asrwt>
<pdfrwt beam="1">  1        2 0.94204670E-01 0.10008066E+04</pdfrwt>
<pdfrwt beam="2">  1       -2 0.62913113E-01 0.10008066E+04</pdfrwt>
<totfact> 0.13707958E+02</totfact>
</mgrwt>
</event>
<event>
 9    1  0.4412976E-036  0.9996637E+03  0.7818608E-02  0.8681358E-01
         -4   -1    0    0    0  501 -0.00000000000E+00  0.00000000000E+00  0.29175558525E+03  0.29175558525E+03  0.00000000000E+00 0.  1.
          4   -1    0    0  501    0  0.00000000000E+00 -0.00000000000E+00 -0.85630540291E+03  0.85630540291E+03  0.00000000000E+00 0.  1.
         36    2    1    2    0    0  0.28421709430E-13 -0.14210854715E-13 -0.56454981766E+03  0.11480609882E+04  0.99966371140E+03 0.  0.
         25    2    3    3    0    0 -0.97604288375E+01  0.98154885756E+02  0.93550894731E+01  0.15908599176E+03  0.12446359912E+03 0.  0.
         35    2    3    3    0    0  0.97604288375E+01 -0.98154885756E+02 -0.57390490714E+03  0.98897499639E+03  0.79935915175E+03 0.  0.
         22    1    5    5    0    0 -0.29164655473E+03 -0.18670793031E+03 -0.57915218237E+03  0.67478501352E+03  0.00000000000E+00 0.  1.
         22    1    5    5    0    0  0.30140698357E+03  0.88553044551E+02  0.52472752302E+01  0.31418998288E+03  0.00000000000E+00 0.  1.
          5    1    4    4  502    0  0.48617498311E+02  0.71154132206E+02 -0.19424648767E+02  0.88464561558E+02  0.47000000000E+01 0. -1.
         -5    1    4    4    0  502 -0.58377927148E+02  0.27000753550E+02  0.28779738240E+02  0.70621430200E+02  0.47000000000E+01 0. -1.
<mgrwt>
<rscale>  0 0.99966371E+03</rscale>
<asrwt>0</asrwt>
<pdfrwt beam="1">  1        4 0.13173929E+00 0.99966371E+03</pdfrwt>
<pdfrwt beam="2">  1       -4 0.44885475E-01 0.99966371E+03</pdfrwt>
<totfact> 0.42180391E+00</totfact>
</mgrwt>
</event>
<event>
 9    1  0.4412976E-036  0.1000316E+04  0.7818608E-02  0.8680737E-01
          3   -1    0    0  501    0  0.00000000000E+00  0.00000000000E+00  0.23165269439E+03  0.23165269439E+03  0.00000000000E+00 0. -1.
         -3   -1    0    0    0  501 -0.00000000000E+00 -0.00000000000E+00 -0.10798845845E+04  0.10798845845E+04  0.00000000000E+00 0. -1.
         36    2    1    2    0    0  0.00000000000E+00  0.28421709430E-13 -0.84823189009E+03  0.13115372789E+04  0.10003162972E+04 0.  0.
         25    2    3    3    0    0  0.57451776206E+02 -0.99876792866E+02 -0.26189816963E+03  0.31242528265E+03  0.12547041739E+03 0.  0.
         35    2    3    3    0    0 -0.57451776206E+02  0.99876792866E+02 -0.58633372046E+03  0.99911199622E+03  0.80072558902E+03 0.  0.
         22    1    5    5    0    0  0.12001611145E+03 -0.31963580021E+03 -0.33745665452E+03  0.48004989893E+03  0.00000000000E+00 0. -1.
         22    1    5    5    0    0 -0.17746788766E+03  0.41951259307E+03 -0.24887706593E+03  0.51906209729E+03  0.00000000000E+00 0. -1.
          5    1    4    4  502    0  0.22976925588E+00 -0.61612141239E+02 -0.22669640911E+03  0.23496693521E+03  0.47000000000E+01 0. -1.
         -5    1    4    4    0  502  0.57222006950E+02 -0.38264651626E+02 -0.35201760523E+02  0.77458347435E+02  0.47000000000E+01 0. -1.
<mgrwt>
<rscale>  0 0.10003163E+04</rscale>
<asrwt>0</asrwt>
<pdfrwt beam="1">  1        3 0.35638877E-01 0.10003163E+04</pdfrwt>
<pdfrwt beam="2">  1       -3 0.16613609E+00 0.10003163E+04</pdfrwt>
<totfact> 0.58703779E+00</totfact>
</mgrwt>
</event>
<event>
 9    1  0.4412976E-036  0.9998379E+03  0.7818608E-02  0.8681192E-01
          2   -1    0    0  501    0  0.00000000000E+00  0.00000000000E+00  0.26249849254E+03  0.26249849254E+03  0.00000000000E+00 0.  1.
         -2   -1    0    0    0  501 -0.00000000000E+00 -0.00000000000E+00 -0.95207773099E+03  0.95207773099E+03  0.00000000000E+00 0.  1.
         36    2    1    2    0    0  0.00000000000E+00 -0.28421709430E-13 -0.68957923846E+03  0.12145762235E+04  0.99983792519E+03 0.  0.
         25    2    3    3    0    0  0.13172616864E+03 -0.52143253488E+02 -0.12692927475E+03  0.22706496616E+03  0.12400304706E+03 0.  0.
         35    2    3    3    0    0 -0.13172616864E+03  0.52143253488E+02 -0.56264996371E+03  0.98751125737E+03  0.79908247346E+03 0.  0.
         22    1    5    5    0    0  0.62892597410E+02  0.32090316279E+03  0.83281165306E+01  0.32711416390E+03  0.00000000000E+00 0.  1.
         22    1    5    5    0    0 -0.19461876605E+03 -0.26875990930E+03 -0.57097808024E+03  0.66039709347E+03  0.00000000000E+00 0.  1.
          5    1    4    4  502    0  0.67755925559E+02 -0.32917927338E+02  0.85327047498E+01  0.75956253455E+02  0.47000000000E+01 0. -1.
         -5    1    4    4    0  502  0.63970243085E+02 -0.19225326150E+02 -0.13546197950E+03  0.15110871271E+03  0.47000000000E+01 0. -1.
<mgrwt>
<rscale>  0 0.99983793E+03</rscale>
<asrwt>0</asrwt>
<pdfrwt beam="1">  1        2 0.40384384E-01 0.99983793E+03</pdfrwt>
<pdfrwt beam="2">  1       -2 0.14647350E+00 0.99983793E+03</pdfrwt>
<totfact> 0.46194422E+01</totfact>
</mgrwt>
</event>
<event>
 9    1  0.4412976E-036  0.9998207E+03  0.7818608E-02  0.8681209E-01
         -2   -1    0    0    0  501 -0.00000000000E+00  0.00000000000E+00  0.10303994193E+03  0.10303994193E+03  0.00000000000E+00 0.  1.
          2   -1    0    0  501    0  0.00000000000E+00 -0.00000000000E+00 -0.24253738381E+04  0.24253738381E+04  0.00000000000E+00 0.  1.
         36    2    1    2    0    0  0.00000000000E+00  0.35527136788E-13 -0.23223338962E+04  0.25284137800E+04  0.99982074279E+03 0.  0.
         25    2    3    3    0    0 -0.96523138010E+02  0.48377488321E+02 -0.66187554417E+03  0.68215316123E+03  0.12488635573E+03 0.  0.
         35    2    3    3    0    0  0.96523138010E+02 -0.48377488321E+02 -0.16604583520E+04  0.18462606188E+04  0.79993702018E+03 0.  0.
         22    1    5    5    0    0  0.11929821366E+03  0.22971966280E+03 -0.12829912153E+03  0.28890111084E+03  0.00000000000E+00 0.  1.
         22    1    5    5    0    0 -0.22775075645E+02 -0.27809715112E+03 -0.15321592305E+04  0.15573595079E+04  0.00000000000E+00 0.  1.
          5    1    4    4  502    0 -0.10724775885E+03  0.30666279070E+02 -0.30747005191E+03  0.32711225179E+03  0.47000000000E+01 0.  1.
         -5    1    4    4    0  502  0.10724620842E+02  0.17711209251E+02 -0.35440549227E+03  0.35504090944E+03  0.47000000000E+01 0.  1.
<mgrwt>
<rscale>  0 0.99982074E+03</rscale>
<asrwt>0</asrwt>
<pdfrwt beam="1">  1        2 0.37313441E+00 0.99982074E+03</pdfrwt>
<pdfrwt beam="2">  1       -2 0.15852300E-01 0.99982074E+03</pdfrwt>
<totfact> 0.14079152E+02</totfact>
</mgrwt>
</event>
<event>
 9    1  0.4412976E-036  0.1000157E+04  0.7818608E-02  0.8680888E-01
          2   -1    0    0  501    0  0.00000000000E+00  0.00000000000E+00  0.19881841771E+04  0.19881841771E+04  0.00000000000E+00 0. -1.
         -2   -1    0    0    0  501 -0.00000000000E+00 -0.00000000000E+00 -0.12578236990E+03  0.12578236990E+03  0.00000000000E+00 0. -1.
         36    2    1    2    0    0  0.21316282073E-13  0.00000000000E+00  0.18624018072E+04  0.21139665470E+04  0.10001570229E+04 0.  0.
         25    2    3    3    0    0 -0.21640792779E+02  0.13574228821E+03  0.42146130649E+03  0.46068050131E+03  0.12531001035E+03 0.  0.
         35    2    3    3    0    0  0.21640792779E+02 -0.13574228821E+03  0.14409405007E+04  0.16532860457E+04  0.79884349505E+03 0.  0.
         22    1    5    5    0    0 -0.23268418361E+03 -0.27704732356E+03  0.12594275036E+04  0.13103643714E+04  0.00000000000E+00 0. -1.
         22    1    5    5    0    0  0.25432497638E+03  0.14130503535E+03  0.18151299709E+03  0.34292167435E+03  0.00000000000E+00 0. -1.
          5    1    4    4  502    0  0.47212999434E+02  0.38217726090E+02  0.93131134534E+02  0.11128863429E+03  0.47000000000E+01 0. -1.
         -5    1    4    4    0  502 -0.68853792214E+02  0.97524562121E+02  0.32833017196E+03  0.34939186701E+03  0.47000000000E+01 0. -1.
<mgrwt>
<rscale>  0 0.10001570E+04</rscale>
<asrwt>0</asrwt>
<pdfrwt beam="1">  1        2 0.30587447E+00 0.10001570E+04</pdfrwt>
<pdfrwt beam="2">  1       -2 0.19351135E-01 0.10001570E+04</pdfrwt>
<totfact> 0.18022917E+02</totfact>
</mgrwt>
</event>
<event>
 9    1  0.4412976E-036  0.9999460E+03  0.7818608E-02  0.8681089E-01
         -2   -1    0    0    0  501 -0.00000000000E+00  0.00000000000E+00  0.16505717694E+03  0.16505717694E+03  0.00000000000E+00 0.  1.
          2   -1    0    0  501    0  0.00000000000E+00 -0.00000000000E+00 -0.15144631420E+04  0.15144631420E+04  0.00000000000E+00 0.  1.
         36    2    1    2    0    0  0.00000000000E+00  0.71054273576E-14 -0.13494059650E+04  0.16795203189E+04  0.99994602015E+03 0.  0.
         25    2    3    3    0    0  0.34657332001E+02  0.42424165009E+02 -0.47210312102E+03  0.49139090605E+03  0.12483078641E+03 0.  0.
         35    2    3    3    0    0 -0.34657332001E+02 -0.42424165009E+02 -0.87730284401E+03  0.11881294129E+04  0.79936867663E+03 0.  0.
         22    1    5    5    0    0 -0.14359101015E+03 -0.58784251670E+02  0.11285696902E+03  0.19186104841E+03  0.00000000000E+00 0.  1.
         22    1    5    5    0    0  0.10893367815E+03  0.16360086661E+02 -0.99015981303E+03  0.99626836446E+03  0.00000000000E+00 0.  1.
          5    1    4    4  502    0 -0.31090481483E+01  0.79637406093E+02 -0.22866263769E+03  0.24219924547E+03  0.47000000000E+01 0.  1.
         -5    1    4    4    0  502  0.37766380149E+02 -0.37213241084E+02 -0.24344048333E+03  0.24919166058E+03  0.47000000000E+01 0.  1.
<mgrwt>
<rscale>  0 0.99994602E+03</rscale>
<asrwt>0</asrwt>
<pdfrwt beam="1">  1        2 0.23299433E+00 0.99994602E+03</pdfrwt>
<pdfrwt beam="2">  1       -2 0.25393412E-01 0.99994602E+03</pdfrwt>
<totfact> 0.20745006E+02</totfact>
</mgrwt>
</event>
<event>
 9    1  0.4412976E-036  0.9999113E+03  0.7818608E-02  0.8681122E-01
         -2   -1    0    0    0  501 -0.00000000000E+00  0.00000000000E+00  0.22829464212E+03  0.22829464212E+03  0.00000000000E+00 0. -1.
          2   -1    0    0  501    0  0.00000000000E+00 -0.00000000000E+00 -0.10948817730E+04  0.10948817730E+04  0.00000000000E+00 0. -1.
         36    2    1    2    0    0 -0.35527136788E-13 -0.28421709430E-13 -0.86658713086E+03  0.13231764151E+04  0.99991128111E+03 0.  0.
         25    2    3    3    0    0  0.16615217079E+02  0.11892090473E+03 -0.25719344626E+03  0.31033339028E+03  0.12545954449E+03 0.  0.
         35    2    3    3    0    0 -0.16615217079E+02 -0.11892090473E+03 -0.60939368460E+03  0.10128430248E+04  0.80004505065E+03 0.  0.
         22    1    5    5    0    0 -0.40314848297E+03 -0.10267872742E+03 -0.37768628320E+03  0.56188837762E+03  0.00000000000E+00 0. -1.
         22    1    5    5    0    0  0.38653326589E+03 -0.16242177308E+02 -0.23170740140E+03  0.45095464720E+03  0.00000000000E+00 0. -1.
          5    1    4    4  502    0 -0.55950120145E+01  0.14137178134E+03 -0.20433444338E+03  0.24857984526E+03  0.47000000000E+01 0. -1.
         -5    1    4    4    0  502  0.22210229093E+02 -0.22450876608E+02 -0.52859002884E+02  0.61753545021E+02  0.47000000000E+01 0. -1.
<mgrwt>
<rscale>  0 0.99991128E+03</rscale>
<asrwt>0</asrwt>
<pdfrwt beam="1">  1        2 0.16844335E+00 0.99991128E+03</pdfrwt>
<pdfrwt beam="2">  1       -2 0.35122252E-01 0.99991128E+03</pdfrwt>
<totfact> 0.20154684E+02</totfact>
</mgrwt>
</event>
<event>
 9    1  0.4412976E-036  0.9995651E+03  0.7818608E-02  0.8681452E-01
         -2   -1    0    0    0  501 -0.00000000000E+00  0.00000000000E+00  0.42093538267E+03  0.42093538267E+03  0.00000000000E+00 0.  1.
          2   -1    0    0  501    0  0.00000000000E+00 -0.00000000000E+00 -0.59339893523E+03  0.59339893523E+03  0.00000000000E+00 0.  1.
         36    2    1    2    0    0  0.28421709430E-13  0.56843418861E-13 -0.17246355256E+03  0.10143343179E+04  0.99956512120E+03 0.  0.
         25    2    3    3    0    0  0.12135396827E+03  0.66409573362E+02 -0.50326899751E+02  0.19346712149E+03  0.12553769637E+03 0.  0.
         35    2    3    3    0    0 -0.12135396827E+03 -0.66409573362E+02 -0.12213665281E+03  0.82086719641E+03  0.79985534638E+03 0.  0.
         22    1    5    5    0    0 -0.11251484114E+03  0.33182581499E+03 -0.21601686105E+03  0.41162026825E+03  0.00000000000E+00 0. -1.
         22    1    5    5    0    0 -0.88391271307E+01 -0.39823538836E+03  0.93880208244E+02  0.40924692816E+03  0.00000000000E+00 0. -1.
          5    1    4    4  502    0  0.12337545974E+03  0.74180274249E+02 -0.17903463995E+01  0.14404691074E+03  0.47000000000E+01 0. -1.
         -5    1    4    4    0  502 -0.20214914611E+01 -0.77707008869E+01 -0.48536553352E+02  0.49420210757E+02  0.47000000000E+01 0. -1.
<mgrwt>
<rscale>  0 0.99956512E+03</rscale>
<asrwt>0</asrwt>
<pdfrwt beam="1">  1        2 0.91292144E-01 0.99956512E+03</pdfrwt>
<pdfrwt beam="2">  1       -2 0.64759290E-01 0.99956512E+03</pdfrwt>
<totfact> 0.13383402E+02</totfact>
</mgrwt>
</event>
<event>
 9    1  0.4412976E-036  0.1000242E+04  0.7818608E-02  0.8680808E-01
          1   -1    0    0  501    0  0.00000000000E+00  0.00000000000E+00  0.47560784815E+04  0.47560784815E+04  0.00000000000E+00 0.  1.
         -1   -1    0    0    0  501 -0.00000000000E+00 -0.00000000000E+00 -0.52589756883E+02  0.52589756883E+02  0.00000000000E+00 0.  1.
         36    2    1    2    0    0  0.14210854715E-13  0.00000000000E+00  0.47034887247E+04  0.48086682384E+04  0.10002419928E+04 0.  0.
         25    2    3    3    0    0  0.12699505624E+03  0.77630102515E+01  0.11364364825E+04  0.11503353306E+04  0.12488188663E+03 0.  0.
         35    2    3    3    0    0 -0.12699505624E+03 -0.77630102515E+01  0.35670522422E+04  0.36583329078E+04  0.80209099047E+03 0.  0.
         22    1    5    5    0    0 -0.90674030254E+02 -0.15470711827E+03  0.34781911231E+04  0.34828105836E+04  0.00000000000E+00 0.  1.
         22    1    5    5    0    0 -0.36321025990E+02  0.14694410802E+03  0.88861119090E+02  0.17552232421E+03  0.00000000000E+00 0.  1.
          5    1    4    4  502    0  0.35576912536E+02 -0.44849104919E+02  0.20373846810E+03  0.21168044856E+03  0.47000000000E+01 0.  1.
         -5    1    4    4    0  502  0.91418143708E+02  0.52612115170E+02  0.93269801435E+03  0.93865488207E+03  0.47000000000E+01 0.  1.
<mgrwt>
<rscale>  0 0.10002420E+04</rscale>
<asrwt>0</asrwt>
<pdfrwt beam="1">  1        1 0.73170404E+00 0.10002420E+04</pdfrwt>
<pdfrwt beam="2">  1       -1 0.80907356E-02 0.10002420E+04</pdfrwt>
<totfact> 0.22077017E+00</totfact>
</mgrwt>
</event>
<event>
 9    1  0.4412976E-036  0.1001493E+04  0.7818608E-02  0.8679617E-01
          1   -1    0    0  501    0  0.00000000000E+00  0.00000000000E+00  0.88349858983E+03  0.88349858983E+03  0.00000000000E+00 0.  1.
         -1   -1    0    0    0  501 -0.00000000000E+00 -0.00000000000E+00 -0.28381161605E+03  0.28381161605E+03  0.00000000000E+00 0.  1.
         36    2    1    2    0    0  0.00000000000E+00  0.00000000000E+00  0.59968697378E+03  0.11673102059E+04  0.10014932103E+04 0.  0.
         25    2    3    3    0    0 -0.44204312538E+02  0.11177775312E+03  0.23303468955E+02  0.17527816796E+03  0.12542367065E+03 0.  0.
         35    2    3    3    0    0  0.44204312538E+02 -0.11177775312E+03  0.57638350482E+03  0.99203203791E+03  0.79841175610E+03 0.  0.
         22    1    5    5    0    0  0.23887998656E+03 -0.29119494211E+03  0.61830653204E+03  0.72398971668E+03  0.00000000000E+00 0.  1.
         22    1    5    5    0    0 -0.19467567403E+03  0.17941718899E+03 -0.41923027220E+02  0.26804232123E+03  0.00000000000E+00 0.  1.
          5    1    4    4  502    0  0.31234395355E+02  0.14039373263E+02  0.37393667247E+02  0.50922174001E+02  0.47000000000E+01 0. -1.
         -5    1    4    4    0  502 -0.75438707893E+02  0.97738379862E+02 -0.14090198292E+02  0.12435599396E+03  0.47000000000E+01 0. -1.
<mgrwt>
<rscale>  0 0.10014932E+04</rscale>
<asrwt>0</asrwt>
<pdfrwt beam="1">  1        1 0.13592286E+00 0.10014932E+04</pdfrwt>
<pdfrwt beam="2">  1       -1 0.43663326E-01 0.10014932E+04</pdfrwt>
<totfact> 0.10994029E+02</totfact>
</mgrwt>
</event>
<event>
 9    1  0.4412976E-036  0.1000195E+04  0.7818608E-02  0.8680852E-01
         -1   -1    0    0    0  501 -0.00000000000E+00  0.00000000000E+00  0.15660921673E+03  0.15660921673E+03  0.00000000000E+00 0.  1.
          1   -1    0    0  501    0  0.00000000000E+00 -0.00000000000E+00 -0.15969531087E+04  0.15969531087E+04  0.00000000000E+00 0.  1.
         36    2    1    2    0    0 -0.14210854715E-13  0.35527136788E-14 -0.14403438919E+04  0.17535623254E+04  0.10001951320E+04 0.  0.
         25    2    3    3    0    0 -0.10419696378E+03 -0.25438610992E+02 -0.10929257144E+03  0.19720039287E+03  0.12425376688E+03 0.  0.
         35    2    3    3    0    0  0.10419696378E+03  0.25438610992E+02 -0.13310513205E+04  0.15563619325E+04  0.79941273260E+03 0.  0.
         22    1    5    5    0    0 -0.32330169840E+03  0.62851434160E+01 -0.30440640077E+03  0.44410218199E+03  0.00000000000E+00 0.  1.
         22    1    5    5    0    0  0.42749866217E+03  0.19153467576E+02 -0.10266449197E+04  0.11122597505E+04  0.00000000000E+00 0.  1.
          5    1    4    4  502    0 -0.49974525900E+02 -0.59290083324E+02 -0.90377265242E+01  0.78208297004E+02  0.47000000000E+01 0. -1.
         -5    1    4    4    0  502 -0.54222437876E+02  0.33851472333E+02 -0.10025484492E+03  0.11899209586E+03  0.47000000000E+01 0. -1.
<mgrwt>
<rscale>  0 0.10001951E+04</rscale>
<asrwt>0</asrwt>
<pdfrwt beam="1">  1        1 0.24568509E+00 0.10001951E+04</pdfrwt>
<pdfrwt beam="2">  1       -1 0.24093726E-01 0.10001951E+04</pdfrwt>
<totfact> 0.89730539E+01</totfact>
</mgrwt>
</event>
<event>
 9    1  0.4412976E-036  0.9984071E+03  0.7818608E-02  0.8682556E-01
          2   -1    0    0  501    0  0.00000000000E+00  0.00000000000E+00  0.13941808553E+04  0.13941808553E+04  0.00000000000E+00 0.  1.
         -2   -1    0    0    0  501 -0.00000000000E+00 -0.00000000000E+00 -0.17874593592E+03  0.17874593592E+03  0.00000000000E+00 0.  1.
         36    2    1    2    0    0 -0.35527136788E-13  0.14210854715E-13  0.12154349194E+04  0.15729267912E+04  0.99840705492E+03 0.  0.
         25    2    3    3    0    0 -0.63923980063E+02  0.89989004943E+02  0.94426582435E+02  0.19140615222E+03  0.12464204507E+03 0.  0.
         35    2    3    3    0    0  0.63923980063E+02 -0.89989004943E+02  0.11210083369E+04  0.13815206390E+04  0.79984704055E+03 0.  0.
         22    1    5    5    0    0  0.31732242808E+03  0.23175847156E+03  0.47283168717E+03  0.61479697210E+03  0.00000000000E+00 0.  1.
         22    1    5    5    0    0 -0.25339844802E+03 -0.32174747651E+03  0.64817664976E+03  0.76672366691E+03  0.00000000000E+00 0.  1.
          5    1    4    4  502    0 -0.58825279140E+02  0.22295582733E+02 -0.12838768728E+02  0.64377251089E+02  0.47000000000E+01 0. -1.
         -5    1    4    4    0  502 -0.50987009228E+01  0.67693422211E+02  0.10726535116E+03  0.12702890113E+03  0.47000000000E+01 0. -1.
<mgrwt>
<rscale>  0 0.99840705E+03</rscale>
<asrwt>0</asrwt>
<pdfrwt beam="1">  1        2 0.21448936E+00 0.99840705E+03</pdfrwt>
<pdfrwt beam="2">  1       -2 0.27499376E-01 0.99840705E+03</pdfrwt>
<totfact> 0.21058091E+02</totfact>
</mgrwt>
</event>
<event>
 9    1  0.4412976E-036  0.9994564E+03  0.7818608E-02  0.8681556E-01
          1   -1    0    0  501    0  0.00000000000E+00  0.00000000000E+00  0.13857049390E+04  0.13857049390E+04  0.00000000000E+00 0. -1.
         -1   -1    0    0    0  501 -0.00000000000E+00 -0.00000000000E+00 -0.18021748989E+03  0.18021748989E+03  0.00000000000E+00 0. -1.
         36    2    1    2    0    0  0.71054273576E-14 -0.14210854715E-13  0.12054874491E+04  0.15659224289E+04  0.99945638390E+03 0.  0.
         25    2    3    3    0    0  0.39560760353E+02 -0.49960654508E+02  0.40959555005E+03  0.43313238436E+03  0.12559469335E+03 0.  0.
         35    2    3    3    0    0 -0.39560760353E+02  0.49960654508E+02  0.79589189904E+03  0.11327900445E+04  0.80355973594E+03 0.  0.
         22    1    5    5    0    0 -0.20136407025E+03  0.38474136618E+03  0.42971115253E+03  0.61092150253E+03  0.00000000000E+00 0.  1.
         22    1    5    5    0    0  0.16180330989E+03 -0.33478071167E+03  0.36618074651E+03  0.52186854199E+03  0.00000000000E+00 0.  1.
          5    1    4    4  502    0  0.22790204194E+02 -0.91819243840E+02  0.25492652658E+03  0.27195549434E+03  0.47000000000E+01 0.  1.
         -5    1    4    4    0  502  0.16770556159E+02  0.41858589332E+02  0.15466902347E+03  0.16117689002E+03  0.47000000000E+01 0.  1.
<mgrwt>
<rscale>  0 0.99945638E+03</rscale>
<asrwt>0</asrwt>
<pdfrwt beam="1">  1        1 0.21318537E+00 0.99945638E+03</pdfrwt>
<pdfrwt beam="2">  1       -1 0.27725769E-01 0.99945638E+03</pdfrwt>
<totfact> 0.10020579E+02</totfact>
</mgrwt>
</event>
<event>
 9    1  0.4412976E-036  0.9957155E+03  0.7818608E-02  0.8685129E-01
         -2   -1    0    0    0  501 -0.00000000000E+00  0.00000000000E+00  0.67600867138E+02  0.67600867138E+02  0.00000000000E+00 0. -1.
          2   -1    0    0  501    0  0.00000000000E+00 -0.00000000000E+00 -0.36665555167E+04  0.36665555167E+04  0.00000000000E+00 0. -1.
         36    2    1    2    0    0  0.00000000000E+00  0.00000000000E+00 -0.35989546496E+04  0.37341563839E+04  0.99571548615E+03 0.  0.
         25    2    3    3    0    0  0.12070568315E+03  0.50331726224E+01 -0.90543599106E+03  0.92198815626E+03  0.12511047760E+03 0.  0.
         35    2    3    3    0    0 -0.12070568315E+03 -0.50331726224E+01 -0.26935186586E+04  0.28121682276E+04  0.79915716961E+03 0.  0.
         22    1    5    5    0    0  0.10152485131E+03 -0.24519399926E+03 -0.22246055150E+04  0.22403787828E+04  0.00000000000E+00 0.  1.
         22    1    5    5    0    0 -0.22223053447E+03  0.24016082664E+03 -0.46891314352E+03  0.57178944487E+03  0.00000000000E+00 0.  1.
          5    1    4    4  502    0  0.18733555934E+02 -0.52528981774E+02 -0.33435266356E+03  0.33900447442E+03  0.47000000000E+01 0. -1.
         -5    1    4    4    0  502  0.10197212722E+03  0.57562154397E+02 -0.57108332749E+03  0.58298368183E+03  0.47000000000E+01 0. -1.
<mgrwt>
<rscale>  0 0.99571549E+03</rscale>
<asrwt>0</asrwt>
<pdfrwt beam="1">  1        2 0.56408562E+00 0.99571549E+03</pdfrwt>
<pdfrwt beam="2">  1       -2 0.10400131E-01 0.99571549E+03</pdfrwt>
<totfact> 0.40252400E+01</totfact>
</mgrwt>
</event>
<event>
 9    1  0.4412976E-036  0.1000711E+04  0.7818608E-02  0.8680361E-01
          1   -1    0    0  501    0  0.00000000000E+00  0.00000000000E+00  0.17719949467E+04  0.17719949467E+04  0.00000000000E+00 0.  1.
         -1   -1    0    0    0  501 -0.00000000000E+00 -0.00000000000E+00 -0.14128455585E+03  0.14128455585E+03  0.00000000000E+00 0.  1.
         36    2    1    2    0    0  0.00000000000E+00  0.00000000000E+00  0.16307103908E+04  0.19132795025E+04  0.10007107854E+04 0.  0.
         25    2    3    3    0    0 -0.11662828960E+03  0.74872705665E+02  0.26943069778E+03  0.32800804375E+03  0.12565148573E+03 0.  0.
         35    2    3    3    0    0  0.11662828960E+03 -0.74872705665E+02  0.13612796931E+04  0.15852714588E+04  0.80049679283E+03 0.  0.
         22    1    5    5    0    0 -0.19092101418E+03 -0.62308819052E+02  0.11849011828E+02  0.20118056981E+03  0.00000000000E+00 0.  1.
         22    1    5    5    0    0  0.30754930379E+03 -0.12563886612E+02  0.13494306812E+04  0.13840908890E+04  0.00000000000E+00 0.  1.
          5    1    4    4  502    0 -0.10614694773E+03  0.54958091299E+02  0.27864749702E+03  0.30323931788E+03  0.47000000000E+01 0.  1.
         -5    1    4    4    0  502 -0.10481341866E+02  0.19914614366E+02 -0.92167992402E+01  0.24768725863E+02  0.47000000000E+01 0.  1.
<mgrwt>
<rscale>  0 0.10007108E+04</rscale>
<asrwt>0</asrwt>
<pdfrwt beam="1">  1        1 0.27261459E+00 0.10007108E+04</pdfrwt>
<pdfrwt beam="2">  1       -1 0.21736087E-01 0.10007108E+04</pdfrwt>
<totfact> 0.80187342E+01</totfact>
</mgrwt>
</event>
<event>
 9    1 -0.4412976E-036  0.1000154E+04  0.7818608E-02  0.8680891E-01
          1   -1    0    0  501    0  0.00000000000E+00  0.00000000000E+00  0.71059870607E+02  0.71059870607E+02  0.00000000000E+00 0.  1.
         -1   -1    0    0    0  501 -0.00000000000E+00 -0.00000000000E+00 -0.35192460771E+04  0.35192460771E+04  0.00000000000E+00 0.  1.
         36    2    1    2    0    0  0.28421709430E-13  0.00000000000E+00 -0.34481862065E+04  0.35903059477E+04  0.10001543298E+04 0.  0.
         25    2    3    3    0    0  0.40167977943E+02 -0.10759318446E+03 -0.37566701298E+03  0.41342291496E+03  0.12885279266E+03 0.  0.
         35    2    3    3    0    0 -0.40167977943E+02  0.10759318446E+03 -0.30725191935E+04  0.31768830328E+04  0.79938842216E+03 0.  0.
         22    1    5    5    0    0  0.20055656653E+03  0.17824962356E+03 -0.27739776920E+04  0.27869244878E+04  0.00000000000E+00 0.  1.
         22    1    5    5    0    0 -0.24072454447E+03 -0.70656439094E+02 -0.29854150151E+03  0.38995854500E+03  0.00000000000E+00 0.  1.
          5    1    4    4  502    0  0.37942013808E+02 -0.12046622795E+03 -0.19597409251E+03  0.23319443266E+03  0.47000000000E+01 0.  1.
         -5    1    4    4    0  502  0.22259641357E+01  0.12873043483E+02 -0.17969292048E+03  0.18022848230E+03  0.47000000000E+01 0.  1.
<mgrwt>
<rscale>  0 0.10001543E+04</rscale>
<asrwt>0</asrwt>
<pdfrwt beam="1">  1        1 0.10932288E-01 0.10001543E+04</pdfrwt>
<pdfrwt beam="2">  1       -1 0.54142244E+00 0.10001543E+04</pdfrwt>
<totfact>-0.27279725E+00</totfact>
</mgrwt>
</event>
<event>
 9    1  0.4412976E-036  0.1000786E+04  0.7818608E-02  0.8680290E-01
         -2   -1    0    0    0  501 -0.00000000000E+00  0.00000000000E+00  0.10761330344E+03  0.10761330344E+03  0.00000000000E+00 0.  1.
          2   -1    0    0  501    0  0.00000000000E+00 -0.00000000000E+00 -0.23267842930E+04  0.23267842930E+04  0.00000000000E+00 0.  1.
         36    2    1    2    0    0  0.00000000000E+00 -0.21316282073E-13 -0.22191709896E+04  0.24343975964E+04  0.10007855797E+04 0.  0.
         25    2    3    3    0    0 -0.87995487842E+02  0.51943437201E+02 -0.65766099069E+03  0.67711425682E+03  0.12459699658E+03 0.  0.
         35    2    3    3    0    0  0.87995487842E+02 -0.51943437201E+02 -0.15615099989E+04  0.17572833396E+04  0.79955608470E+03 0.  0.
         22    1    5    5    0    0  0.27003112486E+03  0.26988401355E+03 -0.47395553917E+03  0.60859513823E+03  0.00000000000E+00 0. -1.
         22    1    5    5    0    0 -0.18203563702E+03 -0.32182745075E+03 -0.10875544597E+04  0.11486882014E+04  0.00000000000E+00 0. -1.
          5    1    4    4  502    0  0.51934501443E+01  0.59715614032E+02 -0.36268293231E+03  0.36763286833E+03  0.47000000000E+01 0. -1.
         -5    1    4    4    0  502 -0.93188937986E+02 -0.77721768307E+01 -0.29497805838E+03  0.30948138849E+03  0.47000000000E+01 0. -1.
<mgrwt>
<rscale>  0 0.10007856E+04</rscale>
<asrwt>0</asrwt>
<pdfrwt beam="1">  1        2 0.35796679E+00 0.10007856E+04</pdfrwt>
<pdfrwt beam="2">  1       -2 0.16555894E-01 0.10007856E+04</pdfrwt>
<totfact> 0.14979249E+02</totfact>
</mgrwt>
</event>
<event>
 9    1  0.4412976E-036  0.1000007E+04  0.7818608E-02  0.8681031E-01
          2   -1    0    0  501    0  0.00000000000E+00  0.00000000000E+00  0.15995377327E+04  0.15995377327E+04  0.00000000000E+00 0.  1.
         -2   -1    0    0    0  501 -0.00000000000E+00 -0.00000000000E+00 -0.15629739430E+03  0.15629739430E+03  0.00000000000E+00 0.  1.
         36    2    1    2    0    0  0.28421709430E-13  0.71054273576E-14  0.14432403384E+04  0.17558351270E+04  0.10000071594E+04 0.  0.
         25    2    3    3    0    0 -0.13548159105E+03  0.23544705974E+02  0.22481413472E+03  0.29184166173E+03  0.12538160016E+03 0.  0.
         35    2    3    3    0    0  0.13548159105E+03 -0.23544705974E+02  0.12184262037E+04  0.14639934653E+04  0.79987801436E+03 0.  0.
         22    1    5    5    0    0  0.12680002091E+03 -0.66473676105E+02 -0.80554747344E+02  0.16427435051E+03  0.00000000000E+00 0. -1.
         22    1    5    5    0    0  0.86815701461E+01  0.42928970131E+02  0.12989809510E+04  0.12997191148E+04  0.00000000000E+00 0. -1.
          5    1    4    4  502    0 -0.26002415444E+02 -0.37429497951E+02  0.11984812566E+03  0.12830727240E+03  0.47000000000E+01 0.  1.
         -5    1    4    4    0  502 -0.10947917561E+03  0.60974203925E+02  0.10496600905E+03  0.16353438933E+03  0.47000000000E+01 0.  1.
<mgrwt>
<rscale>  0 0.10000072E+04</rscale>
<asrwt>0</asrwt>
<pdfrwt beam="1">  1        2 0.24608272E+00 0.10000072E+04</pdfrwt>
<pdfrwt beam="2">  1       -2 0.24045754E-01 0.10000072E+04</pdfrwt>
<totfact> 0.20455772E+02</totfact>
</mgrwt>
</event>
<event>
 9    1  0.4412976E-036  0.9994539E+03  0.7818608E-02  0.8681558E-01
          1   -1    0    0  501    0  0.00000000000E+00  0.00000000000E+00  0.82133802101E+03  0.82133802101E+03  0.00000000000E+00 0.  1.
         -1   -1    0    0    0  501 -0.00000000000E+00 -0.00000000000E+00 -0.30404903148E+03  0.30404903148E+03  0.00000000000E+00 0.  1.
         36    2    1    2    0    0  0.00000000000E+00  0.71054273576E-14  0.51728898954E+03  0.11253870525E+04  0.99945391050E+03 0.  0.
         25    2    3    3    0    0 -0.48691782575E+02 -0.27039637622E+02  0.23794620294E+03  0.27466712790E+03  0.12538582042E+03 0.  0.
         35    2    3    3    0    0  0.48691782575E+02  0.27039637622E+02  0.27934278659E+03  0.85071992459E+03  0.80161709436E+03 0.  0.
         22    1    5    5    0    0 -0.32270966773E+03  0.68091058108E+02 -0.72264626608E+02  0.33763900560E+03  0.00000000000E+00 0. -1.
         22    1    5    5    0    0  0.37140145031E+03 -0.41051420486E+02  0.35160741320E+03  0.51308091899E+03  0.00000000000E+00 0. -1.
          5    1    4    4  502    0  0.12289863569E+02 -0.47610761005E+02  0.18413513087E+03  0.19064538214E+03  0.47000000000E+01 0.  1.
         -5    1    4    4    0  502 -0.60981646144E+02  0.20571123384E+02  0.53811072071E+02  0.84021745763E+02  0.47000000000E+01 0.  1.
<mgrwt>
<rscale>  0 0.99945391E+03</rscale>
<asrwt>0</asrwt>
<pdfrwt beam="1">  1        1 0.12635969E+00 0.99945391E+03</pdfrwt>
<pdfrwt beam="2">  1       -1 0.46776774E-01 0.99945391E+03</pdfrwt>
<totfact> 0.10966369E+02</totfact>
</mgrwt>
</event>
<event>
 9    1  0.4412976E-036  0.9997143E+03  0.7818608E-02  0.8681310E-01
          2   -1    0    0  501    0  0.00000000000E+00  0.00000000000E+00  0.13512301715E+04  0.13512301715E+04  0.00000000000E+00 0.  1.
         -2   -1    0    0    0  501 -0.00000000000E+00 -0.00000000000E+00 -0.18491087496E+03  0.18491087496E+03  0.00000000000E+00 0.  1.
         36    2    1    2    0    0  0.14210854715E-13 -0.42632564146E-13  0.11663192966E+04  0.15361410465E+04  0.99971426576E+03 0.  0.
         25    2    3    3    0    0  0.11996034472E+03  0.14095289227E+02  0.11071617003E+03  0.20596786823E+03  0.12480196693E+03 0.  0.
         35    2    3    3    0    0 -0.11996034472E+03 -0.14095289227E+02  0.10556031265E+04  0.13301731783E+04  0.80029592148E+03 0.  0.
         22    1    5    5    0    0  0.23003614456E+03 -0.27330282470E+03  0.34439293370E+03  0.49620313842E+03  0.00000000000E+00 0. -1.
         22    1    5    5    0    0 -0.34999648929E+03  0.25920753548E+03  0.71121019283E+03  0.83397003984E+03  0.00000000000E+00 0. -1.
          5    1    4    4  502    0  0.12625718937E+03  0.49922725396E+02  0.96474571114E+02  0.16662109486E+03  0.47000000000E+01 0.  1.
         -5    1    4    4    0  502 -0.62968446477E+01 -0.35827436169E+02  0.14241598918E+02  0.39346773371E+02  0.47000000000E+01 0.  1.
<mgrwt>
<rscale>  0 0.99971427E+03</rscale>
<asrwt>0</asrwt>
<pdfrwt beam="1">  1        2 0.20788156E+00 0.99971427E+03</pdfrwt>
<pdfrwt beam="2">  1       -2 0.28447828E-01 0.99971427E+03</pdfrwt>
<totfact> 0.20963899E+02</totfact>
</mgrwt>
</event>
<event>
 9    1  0.4412976E-036  0.1000184E+04  0.7818608E-02  0.8680863E-01
          2   -1    0    0  501    0  0.00000000000E+00  0.00000000000E+00  0.30263797621E+03  0.30263797621E+03  0.00000000000E+00 0. -1.
         -2   -1    0    0    0  501 -0.00000000000E+00 -0.00000000000E+00 -0.82637388566E+03  0.82637388566E+03  0.00000000000E+00 0. -1.
         36    2    1    2    0    0 -0.71054273576E-14  0.00000000000E+00 -0.52373590945E+03  0.11290118619E+04  0.10001842237E+04 0.  0.
         25    2    3    3    0    0 -0.15397803549E+02  0.70212016461E+02 -0.23470056341E+03  0.27544631270E+03  0.12497798649E+03 0.  0.
         35    2    3    3    0    0  0.15397803549E+02 -0.70212016461E+02 -0.28903534604E+03  0.85356554916E+03  0.79991618051E+03 0.  0.
         22    1    5    5    0    0  0.17043217338E+03  0.30720377728E+03 -0.27355085827E+03  0.44525426282E+03  0.00000000000E+00 0. -1.
         22    1    5    5    0    0 -0.15503436983E+03 -0.37741579374E+03 -0.15484487767E+02  0.40831128634E+03  0.00000000000E+00 0. -1.
          5    1    4    4  502    0  0.26261636804E+02  0.92779410960E+02 -0.15951939054E+03  0.18645701548E+03  0.47000000000E+01 0. -1.
         -5    1    4    4    0  502 -0.41659440352E+02 -0.22567394499E+02 -0.75181172876E+02  0.88989297222E+02  0.47000000000E+01 0. -1.
<mgrwt>
<rscale>  0 0.10001842E+04</rscale>
<asrwt>0</asrwt>
<pdfrwt beam="1">  1        2 0.46559689E-01 0.10001842E+04</pdfrwt>
<pdfrwt beam="2">  1       -2 0.12713444E+00 0.10001842E+04</pdfrwt>
<totfact> 0.57847077E+01</totfact>
</mgrwt>
</event>
<event>
 9    1  0.4412976E-036  0.1000358E+04  0.7818608E-02  0.8680697E-01
          1   -1    0    0  501    0  0.00000000000E+00  0.00000000000E+00  0.79242315111E+03  0.79242315111E+03  0.00000000000E+00 0.  1.
         -1   -1    0    0    0  501 -0.00000000000E+00 -0.00000000000E+00 -0.31571387550E+03  0.31571387550E+03  0.00000000000E+00 0.  1.
         36    2    1    2    0    0 -0.21316282073E-13  0.00000000000E+00  0.47670927561E+03  0.11081370266E+04  0.10003579041E+04 0.  0.
         25    2    3    3    0    0 -0.10511010173E+02 -0.13310577738E+03  0.38938870081E+02  0.18686873907E+03  0.12480408940E+03 0.  0.
         35    2    3    3    0    0  0.10511010173E+02  0.13310577738E+03  0.43777040552E+03  0.92126828755E+03  0.79954030566E+03 0.  0.
         22    1    5    5    0    0 -0.24943658455E+03 -0.17346052089E+02 -0.12786580627E+03  0.28083653546E+03  0.00000000000E+00 0.  1.
         22    1    5    5    0    0  0.25994759472E+03  0.15045182947E+03  0.56563621179E+03  0.64043175209E+03  0.00000000000E+00 0.  1.
          5    1    4    4  502    0 -0.60749629126E+02 -0.11134955122E+03  0.18645331178E+02  0.12829254994E+03  0.47000000000E+01 0.  1.
         -5    1    4    4    0  502  0.50238618953E+02 -0.21756226161E+02  0.20293538904E+02  0.58576189124E+02  0.47000000000E+01 0.  1.
<mgrwt>
<rscale>  0 0.10003579E+04</rscale>
<asrwt>0</asrwt>
<pdfrwt beam="1">  1        1 0.12191125E+00 0.10003579E+04</pdfrwt>
<pdfrwt beam="2">  1       -1 0.48571366E-01 0.10003579E+04</pdfrwt>
<totfact> 0.10851743E+02</totfact>
</mgrwt>
</event>
<event>
 9    1  0.4412976E-036  0.1001224E+04  0.7818608E-02  0.8679873E-01
          2   -1    0    0  501    0  0.00000000000E+00  0.00000000000E+00  0.17696607695E+04  0.17696607695E+04  0.00000000000E+00 0.  1.
         -2   -1    0    0    0  501 -0.00000000000E+00 -0.00000000000E+00 -0.14161599253E+03  0.14161599253E+03  0.00000000000E+00 0.  1.
         36    2    1    2    0    0  0.00000000000E+00  0.14210854715E-13  0.16280447769E+04  0.19112767620E+04  0.10012237838E+04 0.  0.
         25    2    3    3    0    0  0.63311118610E+00  0.12649429604E+03  0.18467155315E+03  0.25632738750E+03  0.12489571361E+03 0.  0.
         35    2    3    3    0    0 -0.63311118610E+00 -0.12649429604E+03  0.14433732238E+04  0.16549493745E+04  0.79970617184E+03 0.  0.
         22    1    5    5    0    0 -0.19730807744E+03  0.16744355065E+02  0.13923366496E+04  0.14063471110E+04  0.00000000000E+00 0.  1.
         22    1    5    5    0    0  0.19667496626E+03 -0.14323865111E+03  0.51036574224E+02  0.24860226353E+03  0.00000000000E+00 0.  1.
          5    1    4    4  502    0  0.55661627282E+02  0.62304642939E+02  0.13298123159E+03  0.15711837333E+03  0.47000000000E+01 0. -1.
         -5    1    4    4    0  502 -0.55028516096E+02  0.64189653101E+02  0.51690321564E+02  0.99209014169E+02  0.47000000000E+01 0. -1.
<mgrwt>
<rscale>  0 0.10012238E+04</rscale>
<asrwt>0</asrwt>
<pdfrwt beam="1">  1        2 0.27225549E+00 0.10012238E+04</pdfrwt>
<pdfrwt beam="2">  1       -2 0.21787077E-01 0.10012238E+04</pdfrwt>
<totfact> 0.19506552E+02</totfact>
</mgrwt>
</event>
<event>
 9    1  0.4412976E-036  0.9999958E+03  0.7818608E-02  0.8681042E-01
          2   -1    0    0  501    0  0.00000000000E+00  0.00000000000E+00  0.21713350645E+04  0.21713350645E+04  0.00000000000E+00 0.  1.
         -2   -1    0    0    0  501 -0.00000000000E+00 -0.00000000000E+00 -0.11513557791E+03  0.11513557791E+03  0.00000000000E+00 0.  1.
         36    2    1    2    0    0  0.71054273576E-14  0.00000000000E+00  0.20561994866E+04  0.22864706424E+04  0.99999583494E+03 0.  0.
         25    2    3    3    0    0  0.44294998641E+02 -0.12389640382E+03  0.50003416327E+03  0.53218190447E+03  0.12598035251E+03 0.  0.
         35    2    3    3    0    0 -0.44294998641E+02  0.12389640382E+03  0.15561653233E+04  0.17542887379E+04  0.79910330794E+03 0.  0.
         22    1    5    5    0    0 -0.19956421489E+03  0.20193095755E+03  0.15548000466E+04  0.15805078843E+04  0.00000000000E+00 0.  1.
         22    1    5    5    0    0  0.15526921625E+03 -0.78034553729E+02  0.13652766811E+01  0.17378085358E+03  0.00000000000E+00 0.  1.
          5    1    4    4  502    0  0.12954035585E+01 -0.15031687450E+02  0.29966933483E+03  0.30008570431E+03  0.47000000000E+01 0. -1.
         -5    1    4    4    0  502  0.42999595083E+02 -0.10886471637E+03  0.20036482845E+03  0.23209620016E+03  0.47000000000E+01 0. -1.
<mgrwt>
<rscale>  0 0.99999583E+03</rscale>
<asrwt>0</asrwt>
<pdfrwt beam="1">  1        2 0.33405152E+00 0.99999583E+03</pdfrwt>
<pdfrwt beam="2">  1       -2 0.17713167E-01 0.99999583E+03</pdfrwt>
<totfact> 0.16466234E+02</totfact>
</mgrwt>
</event>
<event>
 9    1  0.4412976E-036  0.9995880E+03  0.7818608E-02  0.8681430E-01
          1   -1    0    0  501    0  0.00000000000E+00  0.00000000000E+00  0.56613384248E+03  0.56613384248E+03  0.00000000000E+00 0. -1.
         -1   -1    0    0    0  501 -0.00000000000E+00 -0.00000000000E+00 -0.44122786281E+03  0.44122786281E+03  0.00000000000E+00 0. -1.
         36    2    1    2    0    0  0.14210854715E-13 -0.14210854715E-13  0.12490597967E+03  0.10073617053E+04  0.99958796588E+03 0.  0.
         25    2    3    3    0    0  0.10300765829E+03 -0.94023687988E+02  0.36476311659E+02  0.19049467267E+03  0.12452577016E+03 0.  0.
         35    2    3    3    0    0 -0.10300765829E+03  0.94023687988E+02  0.88429668013E+02  0.81686703262E+03  0.80000056952E+03 0.  0.
         22    1    5    5    0    0 -0.21270693410E+03  0.71270923609E+02 -0.32143021564E+03  0.39197087633E+03  0.00000000000E+00 0.  1.
         22    1    5    5    0    0  0.10969927581E+03  0.22752764379E+02  0.40985988365E+03  0.42489615629E+03  0.00000000000E+00 0.  1.
          5    1    4    4  502    0  0.93870689791E+02 -0.33527983801E+02  0.68733867453E+02  0.12117040330E+03  0.47000000000E+01 0.  1.
         -5    1    4    4    0  502  0.91369684985E+01 -0.60495704186E+02 -0.32257555794E+02  0.69324269373E+02  0.47000000000E+01 0.  1.
<mgrwt>
<rscale>  0 0.99958797E+03</rscale>
<asrwt>0</asrwt>
<pdfrwt beam="1">  1        1 0.87097514E-01 0.99958797E+03</pdfrwt>
<pdfrwt beam="2">  1       -1 0.67881210E-01 0.99958797E+03</pdfrwt>
<totfact> 0.95663571E+01</totfact>
</mgrwt>
</event>
<event>
 9    1  0.4412976E-036  0.1000027E+04  0.7818608E-02  0.8681012E-01
         -1   -1    0    0    0  501 -0.00000000000E+00  0.00000000000E+00  0.48447241318E+03  0.48447241318E+03  0.00000000000E+00 0.  1.
          1   -1    0    0  501    0  0.00000000000E+00 -0.00000000000E+00 -0.51605335670E+03  0.51605335670E+03  0.00000000000E+00 0.  1.
         36    2    1    2    0    0  0.00000000000E+00 -0.35527136788E-13 -0.31580943522E+02  0.10005257699E+04  0.10000272297E+04 0.  0.
         25    2    3    3    0    0  0.12778428269E+03 -0.26446366164E+02  0.42903269150E+02  0.18665036087E+03  0.12637022403E+03 0.  0.
         35    2    3    3    0    0 -0.12778428269E+03  0.26446366164E+02 -0.74484212673E+02  0.81387540901E+03  0.79988564825E+03 0.  0.
         22    1    5    5    0    0 -0.14330518751E+03 -0.37872078175E+03 -0.42515183088E+02  0.40715273312E+03  0.00000000000E+00 0.  1.
         22    1    5    5    0    0  0.15520904821E+02  0.40516714791E+03 -0.31969029585E+02  0.40672267589E+03  0.00000000000E+00 0.  1.
          5    1    4    4  502    0  0.19176751564E+02 -0.60998318118E+02 -0.17897249185E+01  0.64139190275E+02  0.47000000000E+01 0.  1.
         -5    1    4    4    0  502  0.10860753113E+03  0.34551951954E+02  0.44692994069E+02  0.12251117059E+03  0.47000000000E+01 0.  1.
<mgrwt>
<rscale>  0 0.10000272E+04</rscale>
<asrwt>0</asrwt>
<pdfrwt beam="1">  1        1 0.79392824E-01 0.10000272E+04</pdfrwt>
<pdfrwt beam="2">  1       -1 0.74534217E-01 0.10000272E+04</pdfrwt>
<totfact> 0.90497975E+01</totfact>
</mgrwt>
</event>
<event>
 9    1  0.4412976E-036  0.9998641E+03  0.7818608E-02  0.8681167E-01
          2   -1    0    0  501    0  0.00000000000E+00  0.00000000000E+00  0.17714977180E+04  0.17714977180E+04  0.00000000000E+00 0.  1.
         -2   -1    0    0    0  501 -0.00000000000E+00 -0.00000000000E+00 -0.14108516069E+03  0.14108516069E+03  0.00000000000E+00 0.  1.
         36    2    1    2    0    0 -0.14210854715E-13 -0.35527136788E-13  0.16304125573E+04  0.19125828787E+04  0.99986407118E+03 0.  0.
         25    2    3    3    0    0 -0.73245753962E+02  0.57115472224E+02  0.10368436911E+03  0.18669274815E+03  0.12440504882E+03 0.  0.
         35    2    3    3    0    0  0.73245753962E+02 -0.57115472224E+02  0.15267281882E+04  0.17258901305E+04  0.79948149725E+03 0.  0.
         22    1    5    5    0    0  0.24127543492E+03 -0.31484104688E+03  0.12523020285E+04  0.13136206038E+04  0.00000000000E+00 0. -1.
         22    1    5    5    0    0 -0.16802968096E+03  0.25772557466E+03  0.27442615973E+03  0.41226952672E+03  0.00000000000E+00 0. -1.
          5    1    4    4  502    0 -0.48515563140E+02  0.76850072242E+02  0.12014432332E+03  0.15071974621E+03  0.47000000000E+01 0. -1.
         -5    1    4    4    0  502 -0.24730190822E+02 -0.19734600017E+02 -0.16459954209E+02  0.35973001939E+02  0.47000000000E+01 0. -1.
<mgrwt>
<rscale>  0 0.99986407E+03</rscale>
<asrwt>0</asrwt>
<pdfrwt beam="1">  1        2 0.27253809E+00 0.99986407E+03</pdfrwt>
<pdfrwt beam="2">  1       -2 0.21705411E-01 0.99986407E+03</pdfrwt>
<totfact> 0.19588076E+02</totfact>
</mgrwt>
</event>
<event>
 9    1  0.4412976E-036  0.9993184E+03  0.7818608E-02  0.8681687E-01
          2   -1    0    0  501    0  0.00000000000E+00  0.00000000000E+00  0.26615053154E+04  0.26615053154E+04  0.00000000000E+00 0.  1.
         -2   -1    0    0    0  501 -0.00000000000E+00 -0.00000000000E+00 -0.93803806578E+02  0.93803806578E+02  0.00000000000E+00 0.  1.
         36    2    1    2    0    0 -0.71054273576E-14  0.00000000000E+00  0.25677015088E+04  0.27553091220E+04  0.99931842736E+03 0.  0.
         25    2    3    3    0    0  0.60334981187E+02 -0.10961117005E+03  0.64966308837E+03  0.67337818372E+03  0.12538393587E+03 0.  0.
         35    2    3    3    0    0 -0.60334981187E+02  0.10961117005E+03  0.19180384205E+04  0.20819309383E+04  0.79994382976E+03 0.  0.
         22    1    5    5    0    0 -0.72146750720E+02  0.23299952568E+03  0.10648972065E+03  0.26614656340E+03  0.00000000000E+00 0. -1.
         22    1    5    5    0    0  0.11811769533E+02 -0.12338835563E+03  0.18115486998E+04  0.18157843749E+04  0.00000000000E+00 0. -1.
          5    1    4    4  502    0 -0.28419645282E+01  0.18252000477E+02  0.21603857681E+03  0.21687777422E+03  0.47000000000E+01 0.  1.
         -5    1    4    4    0  502  0.63176945715E+02 -0.12786317052E+03  0.43362451156E+03  0.45650040950E+03  0.47000000000E+01 0.  1.
<mgrwt>
<rscale>  0 0.99931843E+03</rscale>
<asrwt>0</asrwt>
<pdfrwt beam="1">  1        2 0.40946230E+00 0.99931843E+03</pdfrwt>
<pdfrwt beam="2">  1       -2 0.14431357E-01 0.99931843E+03</pdfrwt>
<totfact> 0.11809949E+02</totfact>
</mgrwt>
</event>
<event>
 9    1  0.4412976E-036  0.9997272E+03  0.7818608E-02  0.8681298E-01
         -1   -1    0    0    0  501 -0.00000000000E+00  0.00000000000E+00  0.18671377043E+03  0.18671377043E+03  0.00000000000E+00 0.  1.
          1   -1    0    0  501    0  0.00000000000E+00 -0.00000000000E+00 -0.13382175393E+04  0.13382175393E+04  0.00000000000E+00 0.  1.
         36    2    1    2    0    0 -0.14210854715E-13  0.21316282073E-13 -0.11515037688E+04  0.15249313097E+04  0.99972724762E+03 0.  0.
         25    2    3    3    0    0  0.11566107107E+03 -0.46829840215E+02 -0.12168497931E+03  0.21511918548E+03  0.12608930358E+03 0.  0.
         35    2    3    3    0    0 -0.11566107107E+03  0.46829840215E+02 -0.10298187895E+04  0.13098121242E+04  0.79969403159E+03 0.  0.
         22    1    5    5    0    0 -0.22150474832E+03  0.38978710278E+03 -0.52451917648E+03  0.69001355459E+03  0.00000000000E+00 0. -1.
         22    1    5    5    0    0  0.10584367725E+03 -0.34295726256E+03 -0.50529961305E+03  0.61979856962E+03  0.00000000000E+00 0. -1.
          5    1    4    4  502    0  0.10270120419E+03 -0.49220053335E+02 -0.24058067439E+02  0.11649477071E+03  0.47000000000E+01 0.  1.
         -5    1    4    4    0  502  0.12959866877E+02  0.23902131201E+01 -0.97626911873E+02  0.98624414777E+02  0.47000000000E+01 0.  1.
<mgrwt>
<rscale>  0 0.99972725E+03</rscale>
<asrwt>0</asrwt>
<pdfrwt beam="1">  1        1 0.20587963E+00 0.99972725E+03</pdfrwt>
<pdfrwt beam="2">  1       -1 0.28725194E-01 0.99972725E+03</pdfrwt>
<totfact> 0.10210900E+02</totfact>
</mgrwt>
</event>
<event>
 9    1  0.4412976E-036  0.1001148E+04  0.7818608E-02  0.8679946E-01
          2   -1    0    0  501    0  0.00000000000E+00  0.00000000000E+00  0.13758466107E+04  0.13758466107E+04  0.00000000000E+00 0.  1.
         -2   -1    0    0    0  501 -0.00000000000E+00 -0.00000000000E+00 -0.18212363567E+03  0.18212363567E+03  0.00000000000E+00 0.  1.
         36    2    1    2    0    0  0.42632564146E-13  0.42632564146E-13  0.11937229750E+04  0.15579702464E+04  0.10011477151E+04 0.  0.
         25    2    3    3    0    0 -0.11708171867E+03  0.55200639202E+02  0.12900541758E+03  0.21977559671E+03  0.12208061160E+03 0.  0.
         35    2    3    3    0    0  0.11708171867E+03 -0.55200639202E+02  0.10647175574E+04  0.13381946497E+04  0.80024134100E+03 0.  0.
         22    1    5    5    0    0 -0.14493490465E+03  0.31977530878E+03  0.41490795587E+03  0.54351723665E+03  0.00000000000E+00 0.  1.
         22    1    5    5    0    0  0.26201662331E+03 -0.37497594798E+03  0.64980960157E+03  0.79467741301E+03  0.00000000000E+00 0.  1.
          5    1    4    4  502    0  0.26654183300E+01 -0.29594641094E+02  0.13479350012E+02  0.32965589834E+02  0.47000000000E+01 0.  1.
         -5    1    4    4    0  502 -0.11974713700E+03  0.84795280296E+02  0.11552606757E+03  0.18681000687E+03  0.47000000000E+01 0.  1.
<mgrwt>
<rscale>  0 0.10011477E+04</rscale>
<asrwt>0</asrwt>
<pdfrwt beam="1">  1        2 0.21166870E+00 0.10011477E+04</pdfrwt>
<pdfrwt beam="2">  1       -2 0.28019022E-01 0.10011477E+04</pdfrwt>
<totfact> 0.20857417E+02</totfact>
</mgrwt>
</event>
<event>
 9    1  0.4412976E-036  0.9982306E+03  0.7818608E-02  0.8682725E-01
          2   -1    0    0  501    0  0.00000000000E+00  0.00000000000E+00  0.36506580353E+04  0.36506580353E+04  0.00000000000E+00 0.  1.
         -2   -1    0    0    0  501 -0.00000000000E+00 -0.00000000000E+00 -0.68238673410E+02  0.68238673410E+02  0.00000000000E+00 0.  1.
         36    2    1    2    0    0 -0.28421709430E-13 -0.49737991503E-13  0.35824193618E+04  0.37188967087E+04  0.99823055734E+03 0.  0.
         25    2    3    3    0    0  0.14213018536E+02 -0.52964592561E+01  0.15453330402E+03  0.19894788181E+03  0.12437706881E+03 0.  0.
         35    2    3    3    0    0 -0.14213018536E+02  0.52964592561E+01  0.34278860578E+04  0.35199488269E+04  0.79962919901E+03 0.  0.
         22    1    5    5    0    0  0.25193619157E+03  0.30227778158E+03  0.14625561859E+04  0.15145673635E+04  0.00000000000E+00 0. -1.
         22    1    5    5    0    0 -0.26614921011E+03 -0.29698132233E+03  0.19653298719E+04  0.20053814633E+04  0.00000000000E+00 0. -1.
          5    1    4    4  502    0  0.12972673117E+02  0.10353541610E+02 -0.18410501468E+02  0.25229400230E+02  0.47000000000E+01 0.  1.
         -5    1    4    4    0  502  0.12403454194E+01 -0.15650000866E+02  0.17294380549E+03  0.17371848158E+03  0.47000000000E+01 0.  1.
<mgrwt>
<rscale>  0 0.99823056E+03</rscale>
<asrwt>0</asrwt>
<pdfrwt beam="1">  1        2 0.56163955E+00 0.99823056E+03</pdfrwt>
<pdfrwt beam="2">  1       -2 0.10498260E-01 0.99823056E+03</pdfrwt>
<totfact> 0.40797774E+01</totfact>
</mgrwt>
</event>
<event>
 9    1  0.4412976E-036  0.1000231E+04  0.7818608E-02  0.8680818E-01
         -1   -1    0    0    0  501 -0.00000000000E+00  0.00000000000E+00  0.35325001972E+03  0.35325001972E+03  0.00000000000E+00 0.  1.
          1   -1    0    0  501    0  0.00000000000E+00 -0.00000000000E+00 -0.70804174590E+03  0.70804174590E+03  0.00000000000E+00 0.  1.
         36    2    1    2    0    0  0.00000000000E+00 -0.35527136788E-13 -0.35479172618E+03  0.10612917656E+04  0.10002314946E+04 0.  0.
         25    2    3    3    0    0 -0.13135475889E+03  0.48511337422E+02 -0.76042398028E+02  0.20230213168E+03  0.12464462941E+03 0.  0.
         35    2    3    3    0    0  0.13135475889E+03 -0.48511337422E+02 -0.27874932815E+03  0.85898963395E+03  0.80034653791E+03 0.  0.
         22    1    5    5    0    0  0.13382177262E+01 -0.40638691859E+03 -0.37232893844E+02  0.40809117463E+03  0.00000000000E+00 0.  1.
         22    1    5    5    0    0  0.13001654117E+03  0.35787558117E+03 -0.24151643431E+03  0.45089845932E+03  0.00000000000E+00 0.  1.
          5    1    4    4  502    0 -0.51843707959E+02 -0.42007475993E+02 -0.26650941719E+02  0.72005283061E+02  0.47000000000E+01 0. -1.
         -5    1    4    4    0  502 -0.79511050935E+02  0.90518813415E+02 -0.49391456309E+02  0.13029684862E+03  0.47000000000E+01 0. -1.
<mgrwt>
<rscale>  0 0.10002315E+04</rscale>
<asrwt>0</asrwt>
<pdfrwt beam="1">  1        1 0.10892950E+00 0.10002315E+04</pdfrwt>
<pdfrwt beam="2">  1       -1 0.54346157E-01 0.10002315E+04</pdfrwt>
<totfact> 0.10521839E+02</totfact>
</mgrwt>
</event>
<event>
 9    1  0.4412976E-036  0.9994538E+03  0.7818608E-02  0.8681558E-01
         -1   -1    0    0    0  501 -0.00000000000E+00  0.00000000000E+00  0.20579943476E+03  0.20579943476E+03  0.00000000000E+00 0. -1.
          1   -1    0    0  501    0  0.00000000000E+00 -0.00000000000E+00 -0.12134482639E+04  0.12134482639E+04  0.00000000000E+00 0. -1.
         36    2    1    2    0    0  0.00000000000E+00 -0.14210854715E-13 -0.10076488291E+04  0.14192476987E+04  0.99945378448E+03 0.  0.
         25    2    3    3    0    0 -0.11560916566E+03  0.67381518519E+02 -0.24363547685E+03  0.30482462843E+03  0.12511618717E+03 0.  0.
         35    2    3    3    0    0  0.11560916566E+03 -0.67381518519E+02 -0.76401335230E+03  0.11144230703E+04  0.80019786852E+03 0.  0.
         22    1    5    5    0    0  0.11564990818E+03  0.21509723014E+01 -0.92858697721E+03  0.93576348625E+03  0.00000000000E+00 0. -1.
         22    1    5    5    0    0 -0.40742514583E-01 -0.69532490821E+02  0.16457362491E+03  0.17865958400E+03  0.00000000000E+00 0. -1.
          5    1    4    4  502    0 -0.12513347614E+03  0.90463980440E+02 -0.22654781849E+03  0.27420452708E+03  0.47000000000E+01 0.  1.
         -5    1    4    4    0  502  0.95243104754E+01 -0.23082461921E+02 -0.17087658359E+02  0.30620101348E+02  0.47000000000E+01 0.  1.
<mgrwt>
<rscale>  0 0.99945378E+03</rscale>
<asrwt>0</asrwt>
<pdfrwt beam="1">  1        1 0.18668435E+00 0.99945378E+03</pdfrwt>
<pdfrwt beam="2">  1       -1 0.31661451E-01 0.99945378E+03</pdfrwt>
<totfact> 0.10674033E+02</totfact>
</mgrwt>
</event>
<event>
 9    1  0.4412976E-036  0.9983078E+03  0.7818608E-02  0.8682651E-01
         -2   -1    0    0    0  501 -0.00000000000E+00  0.00000000000E+00  0.27111562579E+03  0.27111562579E+03  0.00000000000E+00 0. -1.
          2   -1    0    0  501    0  0.00000000000E+00 -0.00000000000E+00 -0.91899754022E+03  0.91899754022E+03  0.00000000000E+00 0. -1.
         36    2    1    2    0    0  0.21316282073E-13  0.14210854715E-13 -0.64788191443E+03  0.11901131660E+04  0.99830775459E+03 0.  0.
         25    2    3    3    0    0 -0.62675297405E+01 -0.11899986278E+03 -0.34777106409E+02  0.17544908608E+03  0.12398663397E+03 0.  0.
         35    2    3    3    0    0  0.62675297405E+01  0.11899986278E+03 -0.61310480802E+03  0.10146640799E+04  0.79965332502E+03 0.  0.
         22    1    5    5    0    0  0.40212611516E+03  0.83772579299E+02 -0.29776018999E+03  0.50733064986E+03  0.00000000000E+00 0. -1.
         22    1    5    5    0    0 -0.39585858542E+03  0.35227283485E+02 -0.31534461803E+03  0.50733343008E+03  0.00000000000E+00 0. -1.
          5    1    4    4  502    0 -0.61678641571E+02 -0.86818541159E+02 -0.11971398179E+02  0.10727123701E+03  0.47000000000E+01 0.  1.
         -5    1    4    4    0  502  0.55411111831E+02 -0.32181321626E+02 -0.22805708231E+02  0.68177849070E+02  0.47000000000E+01 0.  1.
<mgrwt>
<rscale>  0 0.99830775E+03</rscale>
<asrwt>0</asrwt>
<pdfrwt beam="1">  1        2 0.14138424E+00 0.99830775E+03</pdfrwt>
<pdfrwt beam="2">  1       -2 0.41710095E-01 0.99830775E+03</pdfrwt>
<totfact> 0.18753651E+02</totfact>
</mgrwt>
</event>
<event>
 9    1  0.4412976E-036  0.9958143E+03  0.7818608E-02  0.8685034E-01
          2   -1    0    0  501    0  0.00000000000E+00  0.00000000000E+00  0.21165030040E+03  0.21165030040E+03  0.00000000000E+00 0. -1.
         -2   -1    0    0    0  501 -0.00000000000E+00 -0.00000000000E+00 -0.11713261039E+04  0.11713261039E+04  0.00000000000E+00 0. -1.
         36    2    1    2    0    0  0.42632564146E-13  0.00000000000E+00 -0.95967580354E+03  0.13829764044E+04  0.99581428343E+03 0.  0.
         25    2    3    3    0    0  0.62082414810E+02 -0.74998279715E+02 -0.45790523203E+02  0.16527549003E+03  0.12546014267E+03 0.  0.
         35    2    3    3    0    0 -0.62082414810E+02  0.74998279715E+02 -0.91388528034E+03  0.12177009143E+04  0.79883054707E+03 0.  0.
         22    1    5    5    0    0 -0.42099714962E+03  0.49909627904E+02 -0.63018217421E+03  0.75951243811E+03  0.00000000000E+00 0. -1.
         22    1    5    5    0    0  0.35891473481E+03  0.25088651810E+02 -0.28370310613E+03  0.45818847622E+03  0.00000000000E+00 0. -1.
          5    1    4    4  502    0  0.76337676716E+02 -0.73069486672E+02 -0.76835870626E+02  0.13073802731E+03  0.47000000000E+01 0. -1.
         -5    1    4    4    0  502 -0.14255261906E+02 -0.19287930421E+01  0.31045347423E+02  0.34537462721E+02  0.47000000000E+01 0. -1.
<mgrwt>
<rscale>  0 0.99581428E+03</rscale>
<asrwt>0</asrwt>
<pdfrwt beam="1">  1        2 0.32561584E-01 0.99581428E+03</pdfrwt>
<pdfrwt beam="2">  1       -2 0.18020402E+00 0.99581428E+03</pdfrwt>
<totfact> 0.32385038E+01</totfact>
</mgrwt>
</event>
<event>
 9    1  0.4412976E-036  0.1000774E+04  0.7818608E-02  0.8680301E-01
          2   -1    0    0  501    0  0.00000000000E+00  0.00000000000E+00  0.44132227262E+03  0.44132227262E+03  0.00000000000E+00 0. -1.
         -2   -1    0    0    0  501 -0.00000000000E+00 -0.00000000000E+00 -0.56735706082E+03  0.56735706082E+03  0.00000000000E+00 0. -1.
         36    2    1    2    0    0  0.00000000000E+00 -0.14210854715E-13 -0.12603478820E+03  0.10086793334E+04  0.10007743152E+04 0.  0.
         25    2    3    3    0    0 -0.10583881323E+03 -0.91958045475E+02 -0.11882202455E+02  0.18812044715E+03  0.12485983897E+03 0.  0.
         35    2    3    3    0    0  0.10583881323E+03  0.91958045475E+02 -0.11415258575E+03  0.82055888629E+03  0.80039236411E+03 0.  0.
         22    1    5    5    0    0 -0.14361178960E+03  0.25626729200E+03  0.22396189537E+03  0.36939978566E+03  0.00000000000E+00 0. -1.
         22    1    5    5    0    0  0.24945060282E+03 -0.16430924653E+03 -0.33811448112E+03  0.45115910064E+03  0.00000000000E+00 0. -1.
          5    1    4    4  502    0 -0.11657214423E+03 -0.90568280874E+02 -0.43831780505E+02  0.15406165419E+03  0.47000000000E+01 0. -1.
         -5    1    4    4    0  502  0.10733331003E+02 -0.13897646016E+01  0.31949578049E+02  0.34058792955E+02  0.47000000000E+01 0. -1.
<mgrwt>
<rscale>  0 0.10007743E+04</rscale>
<asrwt>0</asrwt>
<pdfrwt beam="1">  1        2 0.67895735E-01 0.10007743E+04</pdfrwt>
<pdfrwt beam="2">  1       -2 0.87285701E-01 0.10007743E+04</pdfrwt>
<totfact> 0.96546045E+01</totfact>
</mgrwt>
</event>
<event>
 9    1  0.4412976E-036  0.9891221E+03  0.7818608E-02  0.8691467E-01
         -2   -1    0    0    0  501 -0.00000000000E+00  0.00000000000E+00  0.18341565880E+03  0.18341565880E+03  0.00000000000E+00 0. -1.
          2   -1    0    0  501    0  0.00000000000E+00 -0.00000000000E+00 -0.13335317992E+04  0.13335317992E+04  0.00000000000E+00 0. -1.
         36    2    1    2    0    0  0.71054273576E-14  0.00000000000E+00 -0.11501161404E+04  0.15169474580E+04  0.98912206222E+03 0.  0.
         25    2    3    3    0    0 -0.36781259451E+01  0.11525535476E+03 -0.30087524267E+03  0.34568188135E+03  0.12519075856E+03 0.  0.
         35    2    3    3    0    0  0.36781259451E+01 -0.11525535476E+03 -0.84924089777E+03  0.11712655767E+04  0.79834555382E+03 0.  0.
         22    1    5    5    0    0 -0.88052343485E+02 -0.10129760322E+03  0.13046373061E+03  0.18717693399E+03  0.00000000000E+00 0. -1.
         22    1    5    5    0    0  0.91730469430E+02 -0.13957751543E+02 -0.97970462838E+03  0.98408864271E+03  0.00000000000E+00 0. -1.
          5    1    4    4  502    0 -0.29006958612E+02  0.71941701169E+02 -0.56284543283E+02  0.95953383617E+02  0.47000000000E+01 0.  1.
         -5    1    4    4    0  502  0.25328832667E+02  0.43313653595E+02 -0.24459069939E+03  0.24972849773E+03  0.47000000000E+01 0.  1.
<mgrwt>
<rscale>  0 0.98912206E+03</rscale>
<asrwt>0</asrwt>
<pdfrwt beam="1">  1        2 0.20515874E+00 0.98912206E+03</pdfrwt>
<pdfrwt beam="2">  1       -2 0.28217793E-01 0.98912206E+03</pdfrwt>
<totfact> 0.21779478E+02</totfact>
</mgrwt>
</event>
<event>
 9    1  0.4412976E-036  0.9997887E+03  0.7818608E-02  0.8681239E-01
         -2   -1    0    0    0  501 -0.00000000000E+00  0.00000000000E+00  0.52251514324E+03  0.52251514324E+03  0.00000000000E+00 0.  1.
          2   -1    0    0  501    0  0.00000000000E+00 -0.00000000000E+00 -0.47825284430E+03  0.47825284430E+03  0.00000000000E+00 0.  1.
         36    2    1    2    0    0 -0.14210854715E-13 -0.14210854715E-13  0.44262298938E+02  0.10007679875E+04  0.99978868456E+03 0.  0.
         25    2    3    3    0    0  0.11355069380E+03 -0.25510170068E+02  0.84247748244E+02  0.19097025485E+03  0.12580709962E+03 0.  0.
         35    2    3    3    0    0 -0.11355069380E+03  0.25510170068E+02 -0.39985449306E+02  0.80979773269E+03  0.80039303025E+03 0.  0.
         22    1    5    5    0    0  0.13964300383E+03 -0.28415579113E+03 -0.20490325363E+03  0.37713396227E+03  0.00000000000E+00 0.  1.
         22    1    5    5    0    0 -0.25319369763E+03  0.30966596120E+03  0.16491780432E+03  0.43266377041E+03  0.00000000000E+00 0.  1.
          5    1    4    4  502    0  0.79627235751E+02  0.32853978814E+02  0.45048049858E+01  0.86384395959E+02  0.47000000000E+01 0.  1.
         -5    1    4    4    0  502  0.33923458053E+02 -0.58364148882E+02  0.79742943258E+02  0.10458585889E+03  0.47000000000E+01 0.  1.
<mgrwt>
<rscale>  0 0.99978868E+03</rscale>
<asrwt>0</asrwt>
<pdfrwt beam="1">  1        2 0.73577360E-01 0.99978868E+03</pdfrwt>
<pdfrwt beam="2">  1       -2 0.80386946E-01 0.99978868E+03</pdfrwt>
<totfact> 0.10678315E+02</totfact>
</mgrwt>
</event>
<event>
 9    1  0.4412976E-036  0.1000080E+04  0.7818608E-02  0.8680962E-01
          2   -1    0    0  501    0  0.00000000000E+00  0.00000000000E+00  0.67693801069E+03  0.67693801069E+03  0.00000000000E+00 0.  1.
         -2   -1    0    0    0  501 -0.00000000000E+00 -0.00000000000E+00 -0.36936892960E+03  0.36936892960E+03  0.00000000000E+00 0.  1.
         36    2    1    2    0    0  0.14210854715E-13  0.00000000000E+00  0.30756908109E+03  0.10463069403E+04  0.10000797337E+04 0.  0.
         25    2    3    3    0    0  0.99596678512E+02  0.80374238825E+02 -0.55549365089E-01  0.17982696831E+03  0.12632584379E+03 0.  0.
         35    2    3    3    0    0 -0.99596678512E+02 -0.80374238825E+02  0.30762463046E+03  0.86647997198E+03  0.79985943261E+03 0.  0.
         22    1    5    5    0    0 -0.12313949837E+03  0.20652413851E+03 -0.17990939884E+03  0.30030475793E+03  0.00000000000E+00 0.  1.
         22    1    5    5    0    0  0.23542819853E+02 -0.28689837733E+03  0.48753402930E+03  0.56617521405E+03  0.00000000000E+00 0.  1.
          5    1    4    4  502    0  0.91687204510E+02  0.11215078259E+03  0.99169794646E+01  0.14527483605E+03  0.47000000000E+01 0.  1.
         -5    1    4    4    0  502  0.79094740020E+01 -0.31776543769E+02 -0.99725288296E+01  0.34552132266E+02  0.47000000000E+01 0.  1.
<mgrwt>
<rscale>  0 0.10000797E+04</rscale>
<asrwt>0</asrwt>
<pdfrwt beam="1">  1        2 0.10414431E+00 0.10000797E+04</pdfrwt>
<pdfrwt beam="2">  1       -2 0.56825989E-01 0.10000797E+04</pdfrwt>
<totfact> 0.15019886E+02</totfact>
</mgrwt>
</event>
<event>
 9    1  0.4412976E-036  0.1000094E+04  0.7818608E-02  0.8680949E-01
         -2   -1    0    0    0  501 -0.00000000000E+00  0.00000000000E+00  0.25403214802E+03  0.25403214802E+03  0.00000000000E+00 0.  1.
          2   -1    0    0  501    0  0.00000000000E+00 -0.00000000000E+00 -0.98431223427E+03  0.98431223427E+03  0.00000000000E+00 0.  1.
         36    2    1    2    0    0  0.35527136788E-14  0.14210854715E-13 -0.73028008625E+03  0.12383443823E+04  0.10000938980E+04 0.  0.
         25    2    3    3    0    0 -0.37161067550E+01  0.30142487955E+02 -0.31246977737E+03  0.33776679670E+03  0.12460605182E+03 0.  0.
         35    2    3    3    0    0  0.37161067550E+01 -0.30142487955E+02 -0.41781030888E+03  0.90057758560E+03  0.79721524976E+03 0.  0.
         22    1    5    5    0    0 -0.60684004774E+02  0.35502950943E+03 -0.49117277552E+02  0.36351204651E+03  0.00000000000E+00 0.  1.
         22    1    5    5    0    0  0.64400111529E+02 -0.38517199738E+03 -0.36869303132E+03  0.53706553909E+03  0.00000000000E+00 0.  1.
          5    1    4    4  502    0 -0.71513780398E+01 -0.27951909410E+02 -0.25207567784E+03  0.25376502676E+03  0.47000000000E+01 0.  1.
         -5    1    4    4    0  502  0.34352712848E+01  0.58094397366E+02 -0.60394099532E+02  0.84001769936E+02  0.47000000000E+01 0.  1.
<mgrwt>
<rscale>  0 0.10000939E+04</rscale>
<asrwt>0</asrwt>
<pdfrwt beam="1">  1        2 0.15143265E+00 0.10000939E+04</pdfrwt>
<pdfrwt beam="2">  1       -2 0.39081869E-01 0.10000939E+04</pdfrwt>
<totfact> 0.19290842E+02</totfact>
</mgrwt>
</event>
<event>
 9    1  0.4412976E-036  0.1001107E+04  0.7818608E-02  0.8679984E-01
         -1   -1    0    0    0  501 -0.00000000000E+00  0.00000000000E+00  0.63867066919E+03  0.63867066919E+03  0.00000000000E+00 0.  1.
          1   -1    0    0  501    0  0.00000000000E+00 -0.00000000000E+00 -0.39230527458E+03  0.39230527458E+03  0.00000000000E+00 0.  1.
         36    2    1    2    0    0  0.00000000000E+00 -0.28421709430E-13  0.24636539461E+03  0.10309759438E+04  0.10011071316E+04 0.  0.
         25    2    3    3    0    0 -0.23935909207E+02  0.88681846956E+02  0.15730696424E+03  0.22091468901E+03  0.12498168303E+03 0.  0.
         35    2    3    3    0    0  0.23935909207E+02 -0.88681846956E+02  0.89058430366E+02  0.81006125476E+03  0.79989401468E+03 0.  0.
         22    1    5    5    0    0  0.21314983044E+03 -0.38547937686E+03  0.12052467658E+03  0.45667646958E+03  0.00000000000E+00 0. -1.
         22    1    5    5    0    0 -0.18921392123E+03  0.29679752991E+03 -0.31466246215E+02  0.35338478518E+03  0.00000000000E+00 0. -1.
          5    1    4    4  502    0  0.27367537835E+02  0.98637704140E+02  0.10876816904E+03  0.14943554932E+03  0.47000000000E+01 0.  1.
         -5    1    4    4    0  502 -0.51303447042E+02 -0.99558571838E+01  0.48538795202E+02  0.71479139686E+02  0.47000000000E+01 0.  1.
<mgrwt>
<rscale>  0 0.10011071E+04</rscale>
<asrwt>0</asrwt>
<pdfrwt beam="1">  1        1 0.60354658E-01 0.10011071E+04</pdfrwt>
<pdfrwt beam="2">  1       -1 0.98257026E-01 0.10011071E+04</pdfrwt>
<totfact> 0.73110172E+01</totfact>
</mgrwt>
</event>
<event>
 9    1  0.4412976E-036  0.9941383E+03  0.7818608E-02  0.8686640E-01
         -2   -1    0    0    0  501 -0.00000000000E+00  0.00000000000E+00  0.10581109611E+03  0.10581109611E+03  0.00000000000E+00 0. -1.
          2   -1    0    0  501    0  0.00000000000E+00 -0.00000000000E+00 -0.23350834109E+04  0.23350834109E+04  0.00000000000E+00 0. -1.
         36    2    1    2    0    0  0.28421709430E-13  0.14210854715E-13 -0.22292723148E+04  0.24408945071E+04  0.99413829062E+03 0.  0.
         25    2    3    3    0    0  0.99323222563E+02  0.64968558466E+02 -0.25666711964E+03  0.30910275934E+03  0.12482183062E+03 0.  0.
         35    2    3    3    0    0 -0.99323222563E+02 -0.64968558466E+02 -0.19726051952E+04  0.21317917477E+04  0.79954911254E+03 0.  0.
         22    1    5    5    0    0 -0.43825751789E+03 -0.14147996083E+03 -0.11538480077E+04  0.12423572176E+04  0.00000000000E+00 0. -1.
         22    1    5    5    0    0  0.33893429533E+03  0.76511402359E+02 -0.81875718748E+03  0.88943453008E+03  0.00000000000E+00 0. -1.
          5    1    4    4  502    0  0.38924116216E+02  0.92091242670E+02 -0.19152447290E+03  0.21610089662E+03  0.47000000000E+01 0.  1.
         -5    1    4    4    0  502  0.60399106347E+02 -0.27122684203E+02 -0.65142646738E+02  0.93001862722E+02  0.47000000000E+01 0.  1.
<mgrwt>
<rscale>  0 0.99413829E+03</rscale>
<asrwt>0</asrwt>
<pdfrwt beam="1">  1        2 0.35924359E+00 0.99413829E+03</pdfrwt>
<pdfrwt beam="2">  1       -2 0.16278631E-01 0.99413829E+03</pdfrwt>
<totfact> 0.15241558E+02</totfact>
</mgrwt>
</event>
<event>
 9    1  0.4412976E-036  0.9994450E+03  0.7818608E-02  0.8681567E-01
          2   -1    0    0  501    0  0.00000000000E+00  0.00000000000E+00  0.19721713999E+03  0.19721713999E+03  0.00000000000E+00 0.  1.
         -2   -1    0    0    0  501 -0.00000000000E+00 -0.00000000000E+00 -0.12662315322E+04  0.12662315322E+04  0.00000000000E+00 0.  1.
         36    2    1    2    0    0 -0.28421709430E-13 -0.14210854715E-13 -0.10690143922E+04  0.14634486722E+04  0.99944496868E+03 0.  0.
         25    2    3    3    0    0 -0.97098533599E+02 -0.99803073507E+02 -0.22795735551E+03  0.29481000477E+03  0.12473814283E+03 0.  0.
         35    2    3    3    0    0  0.97098533599E+02  0.99803073507E+02 -0.84105703671E+03  0.11686386674E+04  0.79934386675E+03 0.  0.
         22    1    5    5    0    0 -0.90065633543E+02  0.39121439075E+03 -0.22060907055E+03  0.45807082409E+03  0.00000000000E+00 0. -1.
         22    1    5    5    0    0  0.18716416714E+03 -0.29141131724E+03 -0.62044796616E+03  0.71056784334E+03  0.00000000000E+00 0. -1.
          5    1    4    4  502    0 -0.37723227286E+02 -0.33488257883E+02 -0.19220810764E+03  0.19877261365E+03  0.47000000000E+01 0. -1.
         -5    1    4    4    0  502 -0.59375306313E+02 -0.66314815624E+02 -0.35749247865E+02  0.96037391124E+02  0.47000000000E+01 0. -1.
<mgrwt>
<rscale>  0 0.99944497E+03</rscale>
<asrwt>0</asrwt>
<pdfrwt beam="1">  1        2 0.30341098E-01 0.99944497E+03</pdfrwt>
<pdfrwt beam="2">  1       -2 0.19480486E+00 0.99944497E+03</pdfrwt>
<totfact> 0.27648358E+01</totfact>
</mgrwt>
</event>
<event>
 9    1  0.4412976E-036  0.9990007E+03  0.7818608E-02  0.8681990E-01
          1   -1    0    0  501    0  0.00000000000E+00  0.00000000000E+00  0.31672260933E+03  0.31672260933E+03  0.00000000000E+00 0. -1.
         -1   -1    0    0    0  501 -0.00000000000E+00 -0.00000000000E+00 -0.78775742942E+03  0.78775742942E+03  0.00000000000E+00 0. -1.
         36    2    1    2    0    0 -0.28421709430E-13 -0.14210854715E-13 -0.47103482008E+03  0.11044800387E+04  0.99900067781E+03 0.  0.
         25    2    3    3    0    0  0.10315395289E+03 -0.79579111710E+02 -0.13682888741E+03  0.22684750278E+03  0.12555505593E+03 0.  0.
         35    2    3    3    0    0 -0.10315395289E+03  0.79579111710E+02 -0.33420593267E+03  0.87763253597E+03  0.80098170375E+03 0.  0.
         22    1    5    5    0    0  0.19721125470E+03 -0.12259586981E+03 -0.44248882327E+03  0.49971830565E+03  0.00000000000E+00 0.  1.
         22    1    5    5    0    0 -0.30036520759E+03  0.20217498152E+03  0.10828289061E+03  0.37791423032E+03  0.00000000000E+00 0.  1.
          5    1    4    4  502    0  0.84959700559E+01  0.28489054882E+02 -0.26517789676E+01  0.30214726326E+02  0.47000000000E+01 0. -1.
         -5    1    4    4    0  502  0.94657982834E+02 -0.10806816659E+03 -0.13417710845E+03  0.19663277645E+03  0.47000000000E+01 0. -1.
<mgrwt>
<rscale>  0 0.99900068E+03</rscale>
<asrwt>0</asrwt>
<pdfrwt beam="1">  1        1 0.48726555E-01 0.99900068E+03</pdfrwt>
<pdfrwt beam="2">  1       -1 0.12119345E+00 0.99900068E+03</pdfrwt>
<totfact> 0.59301744E+01</totfact>
</mgrwt>
</event>
<event>
 9    1  0.4412976E-036  0.1000005E+04  0.7818608E-02  0.8681033E-01
          1   -1    0    0  501    0  0.00000000000E+00  0.00000000000E+00  0.79487616633E+03  0.79487616633E+03  0.00000000000E+00 0.  1.
         -1   -1    0    0    0  501 -0.00000000000E+00 -0.00000000000E+00 -0.31451782715E+03  0.31451782715E+03  0.00000000000E+00 0.  1.
         36    2    1    2    0    0  0.14210854715E-13 -0.14210854715E-13  0.48035833917E+03  0.11093939935E+04  0.10000054494E+04 0.  0.
         25    2    3    3    0    0 -0.73658218116E+02  0.62777045783E+02  0.20805234440E+03  0.26127065102E+03  0.12494032376E+03 0.  0.
         35    2    3    3    0    0  0.73658218116E+02 -0.62777045783E+02  0.27230599478E+03  0.84812334246E+03  0.79736827042E+03 0.  0.
         22    1    5    5    0    0  0.16146004771E+03 -0.35446212302E+03 -0.63606668878E+02  0.39466257992E+03  0.00000000000E+00 0. -1.
         22    1    5    5    0    0 -0.87801829592E+02  0.29168507724E+03  0.33591266366E+03  0.45346076254E+03  0.00000000000E+00 0. -1.
          5    1    4    4  502    0 -0.64457317204E+02  0.44830404959E+02  0.33495984527E+02  0.85490244645E+02  0.47000000000E+01 0. -1.
         -5    1    4    4    0  502 -0.92009009123E+01  0.17946640824E+02  0.17455635987E+03  0.17578040638E+03  0.47000000000E+01 0. -1.
<mgrwt>
<rscale>  0 0.10000054E+04</rscale>
<asrwt>0</asrwt>
<pdfrwt beam="1">  1        1 0.12228864E+00 0.10000054E+04</pdfrwt>
<pdfrwt beam="2">  1       -1 0.48387358E-01 0.10000054E+04</pdfrwt>
<totfact> 0.10873434E+02</totfact>
</mgrwt>
</event>
<event>
 9    1  0.4412976E-036  0.1000328E+04  0.7818608E-02  0.8680726E-01
          2   -1    0    0  501    0  0.00000000000E+00  0.00000000000E+00  0.97528102269E+03  0.97528102269E+03  0.00000000000E+00 0. -1.
         -2   -1    0    0    0  501 -0.00000000000E+00 -0.00000000000E+00 -0.25650443131E+03  0.25650443131E+03  0.00000000000E+00 0. -1.
         36    2    1    2    0    0  0.71054273576E-14  0.28421709430E-13  0.71877659138E+03  0.12317854540E+04  0.10003277545E+04 0.  0.
         25    2    3    3    0    0  0.22066525570E+02  0.75624662961E+02 -0.61175585341E+01  0.14952909902E+03  0.12694686185E+03 0.  0.
         35    2    3    3    0    0 -0.22066525570E+02 -0.75624662961E+02  0.72489414992E+03  0.10822563550E+04  0.79975075374E+03 0.  0.
         22    1    5    5    0    0 -0.13099020928E+02  0.25826518712E+03  0.70124851410E+03  0.74741017504E+03  0.00000000000E+00 0. -1.
         22    1    5    5    0    0 -0.89675046420E+01 -0.33388985008E+03  0.23645635817E+02  0.33484617994E+03  0.00000000000E+00 0. -1.
          5    1    4    4  502    0  0.68151370411E+02  0.47893282493E+02 -0.32377184559E+02  0.89491607857E+02  0.47000000000E+01 0. -1.
         -5    1    4    4    0  502 -0.46084844841E+02  0.27731380468E+02  0.26259626024E+02  0.60037491167E+02  0.47000000000E+01 0. -1.
<mgrwt>
<rscale>  0 0.10003278E+04</rscale>
<asrwt>0</asrwt>
<pdfrwt beam="1">  1        2 0.15004323E+00 0.10003278E+04</pdfrwt>
<pdfrwt beam="2">  1       -2 0.39462221E-01 0.10003278E+04</pdfrwt>
<totfact> 0.19188844E+02</totfact>
</mgrwt>
</event>
<event>
 9    1  0.4412976E-036  0.9997567E+03  0.7818608E-02  0.8681270E-01
          2   -1    0    0  501    0  0.00000000000E+00  0.00000000000E+00  0.24556148360E+04  0.24556148360E+04  0.00000000000E+00 0. -1.
         -2   -1    0    0    0  501 -0.00000000000E+00 -0.00000000000E+00 -0.10175795851E+03  0.10175795851E+03  0.00000000000E+00 0. -1.
         36    2    1    2    0    0 -0.71054273576E-14  0.00000000000E+00  0.23538568774E+04  0.25573727945E+04  0.99975667560E+03 0.  0.
         25    2    3    3    0    0  0.96508350843E+01 -0.13532097110E+03  0.52923748024E+03  0.56053607357E+03  0.12531350861E+03 0.  0.
         35    2    3    3    0    0 -0.96508350843E+01  0.13532097110E+03  0.18246193972E+04  0.19968367209E+04  0.79982250623E+03 0.  0.
         22    1    5    5    0    0  0.63110814980E+01  0.44451890532E+03  0.14161402835E+04  0.14842810345E+04  0.00000000000E+00 0. -1.
         22    1    5    5    0    0 -0.15961916582E+02 -0.30919793421E+03  0.40847911373E+03  0.51255568640E+03  0.00000000000E+00 0. -1.
          5    1    4    4  502    0 -0.56899285209E+02 -0.63475204534E+02  0.27926481798E+03  0.29202321621E+03  0.47000000000E+01 0.  1.
         -5    1    4    4    0  502  0.66550120293E+02 -0.71845766568E+02  0.24997266227E+03  0.26851285735E+03  0.47000000000E+01 0.  1.
<mgrwt>
<rscale>  0 0.99975668E+03</rscale>
<asrwt>0</asrwt>
<pdfrwt beam="1">  1        2 0.37778686E+00 0.99975668E+03</pdfrwt>
<pdfrwt beam="2">  1       -2 0.15655072E-01 0.99975668E+03</pdfrwt>
<totfact> 0.13789048E+02</totfact>
</mgrwt>
</event>
<event>
 9    1  0.4412976E-036  0.9938195E+03  0.7818608E-02  0.8686946E-01
         -1   -1    0    0    0  501 -0.00000000000E+00  0.00000000000E+00  0.31507092778E+03  0.31507092778E+03  0.00000000000E+00 0. -1.
          1   -1    0    0  501    0  0.00000000000E+00 -0.00000000000E+00 -0.78369426255E+03  0.78369426255E+03  0.00000000000E+00 0. -1.
         36    2    1    2    0    0  0.28421709430E-13 -0.28421709430E-13 -0.46862333478E+03  0.10987651903E+04  0.99381945723E+03 0.  0.
         25    2    3    3    0    0 -0.89244820587E+02  0.10600625994E+02  0.22823635263E+02  0.15668267767E+03  0.12629937404E+03 0.  0.
         35    2    3    3    0    0  0.89244820587E+02 -0.10600625994E+02 -0.49144697004E+03  0.94208251266E+03  0.79870039753E+03 0.  0.
         22    1    5    5    0    0 -0.36718182212E+02  0.14815779485E+03  0.18273534106E+03  0.23809905912E+03  0.00000000000E+00 0.  1.
         22    1    5    5    0    0  0.12596300280E+03 -0.15875842085E+03 -0.67418231110E+03  0.70398345354E+03  0.00000000000E+00 0.  1.
          5    1    4    4  502    0 -0.11911246373E+01  0.47969476883E+02 -0.19460308977E+02  0.51993106426E+02  0.47000000000E+01 0.  1.
         -5    1    4    4    0  502 -0.88053695949E+02 -0.37368850890E+02  0.42283944240E+02  0.10468957125E+03  0.47000000000E+01 0.  1.
<mgrwt>
<rscale>  0 0.99381946E+03</rscale>
<asrwt>0</asrwt>
<pdfrwt beam="1">  1        1 0.12056835E+00 0.99381946E+03</pdfrwt>
<pdfrwt beam="2">  1       -1 0.48472450E-01 0.99381946E+03</pdfrwt>
<totfact> 0.11095608E+02</totfact>
</mgrwt>
</event>
<event>
 9    1  0.4412976E-036  0.9998094E+03  0.7818608E-02  0.8681219E-01
         -2   -1    0    0    0  501 -0.00000000000E+00  0.00000000000E+00  0.16500011802E+03  0.16500011802E+03  0.00000000000E+00 0. -1.
          2   -1    0    0  501    0  0.00000000000E+00 -0.00000000000E+00 -0.15145729011E+04  0.15145729011E+04  0.00000000000E+00 0. -1.
         36    2    1    2    0    0  0.00000000000E+00  0.00000000000E+00 -0.13495727831E+04  0.16795730191E+04  0.99980939668E+03 0.  0.
         25    2    3    3    0    0  0.13385571667E+02 -0.87408054352E+02 -0.43475922180E+03  0.46106525523E+03  0.12548405138E+03 0.  0.
         35    2    3    3    0    0 -0.13385571667E+02  0.87408054352E+02 -0.91481356128E+03  0.12185077639E+04  0.80003623495E+03 0.  0.
         22    1    5    5    0    0 -0.24458733556E+02  0.59007383457E+02  0.14490077441E+03  0.15835509266E+03  0.00000000000E+00 0. -1.
         22    1    5    5    0    0  0.11073161889E+02  0.28400670895E+02 -0.10597143357E+04  0.10601526712E+04  0.00000000000E+00 0. -1.
          5    1    4    4  502    0  0.37131061640E+02  0.16786787917E+02 -0.72018968014E+02  0.82881443887E+02  0.47000000000E+01 0.  1.
         -5    1    4    4    0  502 -0.23745489973E+02 -0.10419484227E+03 -0.36274025378E+03  0.37818381135E+03  0.47000000000E+01 0.  1.
<mgrwt>
<rscale>  0 0.99980940E+03</rscale>
<asrwt>0</asrwt>
<pdfrwt beam="1">  1        2 0.23301123E+00 0.99980940E+03</pdfrwt>
<pdfrwt beam="2">  1       -2 0.25384632E-01 0.99980940E+03</pdfrwt>
<totfact> 0.20754804E+02</totfact>
</mgrwt>
</event>
<event>
 9    1  0.4412976E-036  0.9998526E+03  0.7818608E-02  0.8681178E-01
         -1   -1    0    0    0  501 -0.00000000000E+00  0.00000000000E+00  0.16711800643E+03  0.16711800643E+03  0.00000000000E+00 0.  1.
          1   -1    0    0  501    0  0.00000000000E+00 -0.00000000000E+00 -0.14955078591E+04  0.14955078591E+04  0.00000000000E+00 0.  1.
         36    2    1    2    0    0  0.14210854715E-13  0.21316282073E-13 -0.13283898526E+04  0.16626258655E+04  0.99985257313E+03 0.  0.
         25    2    3    3    0    0 -0.23292279932E+02  0.13938411334E+02 -0.47747630869E+03  0.49446612345E+03  0.12560379080E+03 0.  0.
         35    2    3    3    0    0  0.23292279932E+02 -0.13938411334E+02 -0.85091354394E+03  0.11681597420E+04  0.79987906213E+03 0.  0.
         22    1    5    5    0    0  0.32087767150E+03 -0.25334658763E+03 -0.52958887451E+03  0.66903762939E+03  0.00000000000E+00 0.  1.
         22    1    5    5    0    0 -0.29758539156E+03  0.23940817630E+03 -0.32132466943E+03  0.49912211265E+03  0.00000000000E+00 0.  1.
          5    1    4    4  502    0 -0.20011540267E+02 -0.17613763481E+02 -0.15134904170E+02  0.31013895790E+02  0.47000000000E+01 0.  1.
         -5    1    4    4    0  502 -0.32807396644E+01  0.31552174815E+02 -0.46234140452E+03  0.46345222766E+03  0.47000000000E+01 0.  1.
<mgrwt>
<rscale>  0 0.99985257E+03</rscale>
<asrwt>0</asrwt>
<pdfrwt beam="1">  1        1 0.23007814E+00 0.99985257E+03</pdfrwt>
<pdfrwt beam="2">  1       -1 0.25710462E-01 0.99985257E+03</pdfrwt>
<totfact> 0.94980352E+01</totfact>
</mgrwt>
</event>
<event>
 9    1  0.4412976E-036  0.9993175E+03  0.7818608E-02  0.8681688E-01
         -2   -1    0    0    0  501 -0.00000000000E+00  0.00000000000E+00  0.16562860362E+03  0.16562860362E+03  0.00000000000E+00 0. -1.
          2   -1    0    0  501    0  0.00000000000E+00 -0.00000000000E+00 -0.15073414129E+04  0.15073414129E+04  0.00000000000E+00 0. -1.
         36    2    1    2    0    0  0.10658141036E-13  0.00000000000E+00 -0.13417128092E+04  0.16729700165E+04  0.99931747386E+03 0.  0.
         25    2    3    3    0    0  0.15293343975E+02 -0.13941395576E+03 -0.26758680596E+03  0.32675239162E+03  0.12447605902E+03 0.  0.
         35    2    3    3    0    0 -0.15293343975E+02  0.13941395576E+03 -0.10741260033E+04  0.13462176249E+04  0.79930287448E+03 0.  0.
         22    1    5    5    0    0 -0.15362452848E+03  0.42842744610E+03 -0.81768399403E+03  0.93581925948E+03  0.00000000000E+00 0. -1.
         22    1    5    5    0    0  0.13833118450E+03 -0.28901349034E+03 -0.25644200925E+03  0.41039836538E+03  0.00000000000E+00 0. -1.
          5    1    4    4  502    0  0.23126019993E+02 -0.16089990481E+03 -0.21828757568E+03  0.27220423925E+03  0.47000000000E+01 0. -1.
         -5    1    4    4    0  502 -0.78326760181E+01  0.21485949047E+02 -0.49299230286E+02  0.54548152369E+02  0.47000000000E+01 0. -1.
<mgrwt>
<rscale>  0 0.99931747E+03</rscale>
<asrwt>0</asrwt>
<pdfrwt beam="1">  1        2 0.23189868E+00 0.99931747E+03</pdfrwt>
<pdfrwt beam="2">  1       -2 0.25481323E-01 0.99931747E+03</pdfrwt>
<totfact> 0.20810203E+02</totfact>
</mgrwt>
</event>
<event>
 9    1  0.4412976E-036  0.9991196E+03  0.7818608E-02  0.8681877E-01
         -1   -1    0    0    0  501 -0.00000000000E+00  0.00000000000E+00  0.91949882174E+03  0.91949882174E+03  0.00000000000E+00 0.  1.
          1   -1    0    0  501    0  0.00000000000E+00 -0.00000000000E+00 -0.27140874072E+03  0.27140874072E+03  0.00000000000E+00 0.  1.
         36    2    1    2    0    0  0.00000000000E+00 -0.28421709430E-13  0.64809008102E+03  0.11909075625E+04  0.99911964709E+03 0.  0.
         25    2    3    3    0    0 -0.10803731482E+03  0.70327023042E+02  0.17891148064E+03  0.25415513545E+03  0.12636282447E+03 0.  0.
         35    2    3    3    0    0  0.10803731482E+03 -0.70327023042E+02  0.46917860039E+03  0.93675242701E+03  0.80047398388E+03 0.  0.
         22    1    5    5    0    0  0.58998342611E+02  0.16674766075E+03  0.62453458162E+03  0.64909862920E+03  0.00000000000E+00 0. -1.
         22    1    5    5    0    0  0.49038972214E+02 -0.23707468379E+03 -0.15535598123E+03  0.28765379781E+03  0.00000000000E+00 0. -1.
          5    1    4    4  502    0 -0.70741657893E+02 -0.25037324383E+02  0.98247475344E+02  0.12371704080E+03  0.47000000000E+01 0. -1.
         -5    1    4    4    0  502 -0.37295656932E+02  0.95364347425E+02  0.80664005291E+02  0.13043809465E+03  0.47000000000E+01 0. -1.
<mgrwt>
<rscale>  0 0.99911965E+03</rscale>
<asrwt>0</asrwt>
<pdfrwt beam="1">  1        1 0.41755191E-01 0.99911965E+03</pdfrwt>
<pdfrwt beam="2">  1       -1 0.14146136E+00 0.99911965E+03</pdfrwt>
<totfact> 0.48362259E+01</totfact>
</mgrwt>
</event>
<event>
 9    1  0.4412976E-036  0.1013127E+04  0.7818608E-02  0.8668637E-01
          2   -1    0    0  501    0  0.00000000000E+00  0.00000000000E+00  0.15478271920E+04  0.15478271920E+04  0.00000000000E+00 0.  1.
         -2   -1    0    0    0  501 -0.00000000000E+00 -0.00000000000E+00 -0.16578501251E+03  0.16578501251E+03  0.00000000000E+00 0.  1.
         36    2    1    2    0    0  0.00000000000E+00  0.71054273576E-14  0.13820421795E+04  0.17136122045E+04  0.10131269425E+04 0.  0.
         25    2    3    3    0    0  0.12826540281E+03 -0.53810513287E+02  0.37948610959E+03  0.42308141750E+03  0.12506235870E+03 0.  0.
         35    2    3    3    0    0 -0.12826540281E+03  0.53810513287E+02  0.10025560699E+04  0.12905307870E+04  0.80062691312E+03 0.  0.
         22    1    5    5    0    0 -0.46799700096E+03  0.14398056925E+02  0.53003640248E+03  0.70722491819E+03  0.00000000000E+00 0.  1.
         22    1    5    5    0    0  0.33973159815E+03  0.39412456362E+02  0.47251966742E+03  0.58330586882E+03  0.00000000000E+00 0.  1.
          5    1    4    4  502    0 -0.22036562247E+01  0.17429084490E+02  0.31937945184E+01  0.18464003096E+02  0.47000000000E+01 0.  1.
         -5    1    4    4    0  502  0.13046905903E+03 -0.71239597777E+02  0.37629231507E+03  0.40461741440E+03  0.47000000000E+01 0.  1.
<mgrwt>
<rscale>  0 0.10131269E+04</rscale>
<asrwt>0</asrwt>
<pdfrwt beam="1">  1        2 0.23812725E+00 0.10131269E+04</pdfrwt>
<pdfrwt beam="2">  1       -2 0.25505388E-01 0.10131269E+04</pdfrwt>
<totfact> 0.19706853E+02</totfact>
</mgrwt>
</event>
<event>
 9    1  0.4412976E-036  0.1000956E+04  0.7818608E-02  0.8680128E-01
         -2   -1    0    0    0  501 -0.00000000000E+00  0.00000000000E+00  0.14044946706E+03  0.14044946706E+03  0.00000000000E+00 0. -1.
          2   -1    0    0  501    0  0.00000000000E+00 -0.00000000000E+00 -0.17834045391E+04  0.17834045391E+04  0.00000000000E+00 0. -1.
         36    2    1    2    0    0 -0.56843418861E-13  0.00000000000E+00 -0.16429550721E+04  0.19238540062E+04  0.10009559772E+04 0.  0.
         25    2    3    3    0    0 -0.67650438390E+02 -0.12706794429E+03 -0.25106277227E+03  0.31243306227E+03  0.11772450255E+03 0.  0.
         35    2    3    3    0    0  0.67650438390E+02  0.12706794429E+03 -0.13918922998E+04  0.16114209439E+04  0.79911853936E+03 0.  0.
         22    1    5    5    0    0 -0.24235931493E+03  0.11930586170E+03 -0.10852352112E+03  0.29111729733E+03  0.00000000000E+00 0. -1.
         22    1    5    5    0    0  0.31000975332E+03  0.77620825884E+01 -0.12833687787E+04  0.13203036466E+04  0.00000000000E+00 0. -1.
          5    1    4    4  502    0 -0.67395951503E+02 -0.84311650544E+02 -0.24654885250E+03  0.26918227164E+03  0.47000000000E+01 0.  1.
         -5    1    4    4    0  502 -0.25448688729E+00 -0.42756293749E+02 -0.45139197714E+01  0.43250790634E+02  0.47000000000E+01 0.  1.
<mgrwt>
<rscale>  0 0.10009560E+04</rscale>
<asrwt>0</asrwt>
<pdfrwt beam="1">  1        2 0.27436993E+00 0.10009560E+04</pdfrwt>
<pdfrwt beam="2">  1       -2 0.21607611E-01 0.10009560E+04</pdfrwt>
<totfact> 0.19440023E+02</totfact>
</mgrwt>
</event>
<event>
 9    1  0.4412976E-036  0.9995889E+03  0.7818608E-02  0.8681430E-01
          1   -1    0    0  501    0  0.00000000000E+00  0.00000000000E+00  0.20039099103E+03  0.20039099103E+03  0.00000000000E+00 0. -1.
         -1   -1    0    0    0  501 -0.00000000000E+00 -0.00000000000E+00 -0.12465354662E+04  0.12465354662E+04  0.00000000000E+00 0. -1.
         36    2    1    2    0    0 -0.28421709430E-13 -0.21316282073E-13 -0.10461444751E+04  0.14469264572E+04  0.99958887034E+03 0.  0.
         25    2    3    3    0    0 -0.56712323489E+02 -0.61877974210E+02 -0.35099262970E+02  0.15431812089E+03  0.12464731384E+03 0.  0.
         35    2    3    3    0    0  0.56712323489E+02  0.61877974210E+02 -0.10110452122E+04  0.12926083363E+04  0.80098609148E+03 0.  0.
         22    1    5    5    0    0 -0.20255568347E+03 -0.24935806068E+03 -0.73577135382E+03  0.80284975708E+03  0.00000000000E+00 0.  1.
         22    1    5    5    0    0  0.25926800696E+03  0.31123603490E+03 -0.27527385835E+03  0.48975857924E+03  0.00000000000E+00 0.  1.
          5    1    4    4  502    0 -0.14062146598E+02  0.29428940760E+02 -0.41779035460E+02  0.53210753848E+02  0.47000000000E+01 0. -1.
         -5    1    4    4    0  502 -0.42650176890E+02 -0.91306914970E+02  0.66797724899E+01  0.10110736704E+03  0.47000000000E+01 0. -1.
<mgrwt>
<rscale>  0 0.99958887E+03</rscale>
<asrwt>0</asrwt>
<pdfrwt beam="1">  1        1 0.30829384E-01 0.99958887E+03</pdfrwt>
<pdfrwt beam="2">  1       -1 0.19177468E+00 0.99958887E+03</pdfrwt>
<totfact> 0.27125209E+01</totfact>
</mgrwt>
</event>
<event>
 9    1  0.4412976E-036  0.9992565E+03  0.7818608E-02  0.8681746E-01
          1   -1    0    0  501    0  0.00000000000E+00  0.00000000000E+00  0.28515922263E+03  0.28515922263E+03  0.00000000000E+00 0. -1.
         -1   -1    0    0    0  501 -0.00000000000E+00 -0.00000000000E+00 -0.87539996665E+03  0.87539996665E+03  0.00000000000E+00 0. -1.
         36    2    1    2    0    0  0.28421709430E-13  0.71054273576E-14 -0.59024074402E+03  0.11605591893E+04  0.99925647154E+03 0.  0.
         25    2    3    3    0    0 -0.13090760580E+03 -0.44653278780E+02 -0.10154040677E+03  0.21287415308E+03  0.12599299298E+03 0.  0.
         35    2    3    3    0    0  0.13090760580E+03  0.44653278780E+02 -0.48870033726E+03  0.94768503620E+03  0.80009261442E+03 0.  0.
         22    1    5    5    0    0  0.34746333997E+03  0.95099751903E+01  0.63638145442E+02  0.35337094647E+03  0.00000000000E+00 0.  1.
         22    1    5    5    0    0 -0.21655573417E+03  0.35143303589E+02 -0.55233848270E+03  0.59431408974E+03  0.00000000000E+00 0.  1.
          5    1    4    4  502    0 -0.39681377984E+02 -0.64944708508E+02 -0.20321597859E+01  0.76280053718E+02  0.47000000000E+01 0.  1.
         -5    1    4    4    0  502 -0.91226227820E+02  0.20291429728E+02 -0.99508246982E+02  0.13659409936E+03  0.47000000000E+01 0.  1.
<mgrwt>
<rscale>  0 0.99925647E+03</rscale>
<asrwt>0</asrwt>
<pdfrwt beam="1">  1        1 0.43870650E-01 0.99925647E+03</pdfrwt>
<pdfrwt beam="2">  1       -1 0.13467692E+00 0.99925647E+03</pdfrwt>
<totfact> 0.51833433E+01</totfact>
</mgrwt>
</event>
<event>
 9    1  0.4412976E-036  0.9994965E+03  0.7818608E-02  0.8681518E-01
          1   -1    0    0  501    0  0.00000000000E+00  0.00000000000E+00  0.19219486147E+03  0.19219486147E+03  0.00000000000E+00 0. -1.
         -1   -1    0    0    0  501 -0.00000000000E+00 -0.00000000000E+00 -0.12994537379E+04  0.12994537379E+04  0.00000000000E+00 0. -1.
         36    2    1    2    0    0  0.00000000000E+00  0.28421709430E-13 -0.11072588765E+04  0.14916485994E+04  0.99949653557E+03 0.  0.
         25    2    3    3    0    0 -0.71683149353E+02 -0.89304256041E+02 -0.32869716502E+03  0.36967423810E+03  0.12451301930E+03 0.  0.
         35    2    3    3    0    0  0.71683149353E+02  0.89304256041E+02 -0.77856171144E+03  0.11219743613E+04  0.79972145455E+03 0.  0.
         22    1    5    5    0    0  0.50615246357E+02 -0.21949120183E+03  0.55794886664E+02  0.23205895851E+03  0.00000000000E+00 0.  1.
         22    1    5    5    0    0  0.21067902996E+02  0.30879545787E+03 -0.83435659811E+03  0.88991540280E+03  0.00000000000E+00 0.  1.
          5    1    4    4  502    0  0.65859966666E+01 -0.27432106989E+01 -0.18182022477E+03  0.18202083588E+03  0.47000000000E+01 0. -1.
         -5    1    4    4    0  502 -0.78269146020E+02 -0.86561045342E+02 -0.14687694025E+03  0.18765340222E+03  0.47000000000E+01 0. -1.
<mgrwt>
<rscale>  0 0.99949654E+03</rscale>
<asrwt>0</asrwt>
<pdfrwt beam="1">  1        1 0.29568439E-01 0.99949654E+03</pdfrwt>
<pdfrwt beam="2">  1       -1 0.19991597E+00 0.99949654E+03</pdfrwt>
<totfact> 0.24441980E+01</totfact>
</mgrwt>
</event>
<event>
 9    1  0.4412976E-036  0.9992498E+03  0.7818608E-02  0.8681753E-01
         -2   -1    0    0    0  501 -0.00000000000E+00  0.00000000000E+00  0.54921008595E+03  0.54921008595E+03  0.00000000000E+00 0.  1.
          2   -1    0    0  501    0  0.00000000000E+00 -0.00000000000E+00 -0.45451651205E+03  0.45451651205E+03  0.00000000000E+00 0.  1.
         36    2    1    2    0    0  0.28421709430E-13  0.00000000000E+00  0.94693573897E+02  0.10037265980E+04  0.99924982391E+03 0.  0.
         25    2    3    3    0    0 -0.99900789781E+02 -0.60715716683E+02  0.94350977153E+02  0.19579597951E+03  0.12556827884E+03 0.  0.
         35    2    3    3    0    0  0.99900789781E+02  0.60715716683E+02  0.34259674393E+00  0.80793061849E+03  0.79942804609E+03 0.  0.
         22    1    5    5    0    0  0.39555508099E+03 -0.14649512318E+03 -0.99408658233E+02  0.43336673217E+03  0.00000000000E+00 0.  1.
         22    1    5    5    0    0 -0.29565429121E+03  0.20721083987E+03  0.99751254977E+02  0.37456388633E+03  0.00000000000E+00 0.  1.
          5    1    4    4  502    0 -0.11253741454E+03 -0.39004291138E+01  0.68917088699E+02  0.13210426993E+03  0.47000000000E+01 0.  1.
         -5    1    4    4    0  502  0.12636624760E+02 -0.56815287569E+02  0.25433888454E+02  0.63691709576E+02  0.47000000000E+01 0.  1.
<mgrwt>
<rscale>  0 0.99924982E+03</rscale>
<asrwt>0</asrwt>
<pdfrwt beam="1">  1        2 0.69925617E-01 0.99924982E+03</pdfrwt>
<pdfrwt beam="2">  1       -2 0.84493859E-01 0.99924982E+03</pdfrwt>
<totfact> 0.10076625E+02</totfact>
</mgrwt>
</event>
<event>
 9    1  0.4412976E-036  0.1007209E+04  0.7818608E-02  0.8674203E-01
         -2   -1    0    0    0  501 -0.00000000000E+00  0.00000000000E+00  0.33398371263E+03  0.33398371263E+03  0.00000000000E+00 0.  1.
          2   -1    0    0  501    0  0.00000000000E+00 -0.00000000000E+00 -0.75937072106E+03  0.75937072106E+03  0.00000000000E+00 0.  1.
         36    2    1    2    0    0 -0.28421709430E-13  0.00000000000E+00 -0.42538700844E+03  0.10933544337E+04  0.10072089211E+04 0.  0.
         25    2    3    3    0    0 -0.12872185565E+03 -0.71106628967E+02 -0.63790783233E+02  0.20318459825E+03  0.12485691064E+03 0.  0.
         35    2    3    3    0    0  0.12872185565E+03  0.71106628967E+02 -0.36159622521E+03  0.89016983544E+03  0.80001564800E+03 0.  0.
         22    1    5    5    0    0 -0.23355430297E+03  0.17178378618E+03  0.89019056198E+02  0.30328480673E+03  0.00000000000E+00 0.  1.
         22    1    5    5    0    0  0.36227615862E+03 -0.10067715721E+03 -0.45061528140E+03  0.58688502871E+03  0.00000000000E+00 0.  1.
          5    1    4    4  502    0 -0.46956862686E+02 -0.41936968156E+02  0.34513765739E+02  0.71950999137E+02  0.47000000000E+01 0.  1.
         -5    1    4    4    0  502 -0.81764992967E+02 -0.29169660811E+02 -0.98304548971E+02  0.13123359911E+03  0.47000000000E+01 0.  1.
<mgrwt>
<rscale>  0 0.10072089E+04</rscale>
<asrwt>0</asrwt>
<pdfrwt beam="1">  1        2 0.11682626E+00 0.10072089E+04</pdfrwt>
<pdfrwt beam="2">  1       -2 0.51382110E-01 0.10072089E+04</pdfrwt>
<totfact> 0.15989491E+02</totfact>
</mgrwt>
</event>
<event>
 9    1  0.4412976E-036  0.1000171E+04  0.7818608E-02  0.8680875E-01
          2   -1    0    0  501    0  0.00000000000E+00  0.00000000000E+00  0.28481272780E+03  0.28481272780E+03  0.00000000000E+00 0. -1.
         -2   -1    0    0    0  501 -0.00000000000E+00 -0.00000000000E+00 -0.87807061987E+03  0.87807061987E+03  0.00000000000E+00 0. -1.
         36    2    1    2    0    0  0.00000000000E+00 -0.21316282073E-13 -0.59325789208E+03  0.11628833477E+04  0.10001713622E+04 0.  0.
         25    2    3    3    0    0 -0.75151397490E+02  0.30438439092E+02 -0.24483910640E+03  0.28623384281E+03  0.12413457870E+03 0.  0.
         35    2    3    3    0    0  0.75151397490E+02 -0.30438439092E+02 -0.34841878567E+03  0.87664950486E+03  0.80034022330E+03 0.  0.
         22    1    5    5    0    0  0.62120663283E+02 -0.23118309835E+03  0.18759325503E+03  0.30413127281E+03  0.00000000000E+00 0.  1.
         22    1    5    5    0    0  0.13030734207E+02  0.20074465925E+03 -0.53601204070E+03  0.57251823205E+03  0.00000000000E+00 0.  1.
          5    1    4    4  502    0 -0.62952031714E+01 -0.41911877904E+02 -0.11291834971E+03  0.12070161057E+03  0.47000000000E+01 0.  1.
         -5    1    4    4    0  502 -0.68856194318E+02  0.72350316996E+02 -0.13192075669E+03  0.16553223224E+03  0.47000000000E+01 0.  1.
<mgrwt>
<rscale>  0 0.10001714E+04</rscale>
<asrwt>0</asrwt>
<pdfrwt beam="1">  1        2 0.43817342E-01 0.10001714E+04</pdfrwt>
<pdfrwt beam="2">  1       -2 0.13508779E+00 0.10001714E+04</pdfrwt>
<totfact> 0.52630529E+01</totfact>
</mgrwt>
</event>
<event>
 9    1  0.4412976E-036  0.1000362E+04  0.7818608E-02  0.8680694E-01
          2   -1    0    0  501    0  0.00000000000E+00  0.00000000000E+00  0.61230621635E+03  0.61230621635E+03  0.00000000000E+00 0. -1.
         -2   -1    0    0    0  501 -0.00000000000E+00 -0.00000000000E+00 -0.40858788798E+03  0.40858788798E+03  0.00000000000E+00 0. -1.
         36    2    1    2    0    0 -0.21316282073E-13  0.00000000000E+00  0.20371832837E+03  0.10208941043E+04  0.10003617421E+04 0.  0.
         25    2    3    3    0    0 -0.51357108679E+02  0.90480124943E+02 -0.60360763860E+02  0.17261941135E+03  0.12381370578E+03 0.  0.
         35    2    3    3    0    0  0.51357108679E+02 -0.90480124943E+02  0.26407909223E+03  0.84827469299E+03  0.79937974843E+03 0.  0.
         22    1    5    5    0    0 -0.26703218184E+03  0.38639100232E+02  0.39689542426E+03  0.47992201867E+03  0.00000000000E+00 0.  1.
         22    1    5    5    0    0  0.31838929052E+03 -0.12911922518E+03 -0.13281633203E+03  0.36835267432E+03  0.00000000000E+00 0.  1.
          5    1    4    4  502    0 -0.51787591259E+01  0.90697095738E+02 -0.81016472175E+02  0.12181355214E+03  0.47000000000E+01 0. -1.
         -5    1    4    4    0  502 -0.46178349553E+02 -0.21697079502E+00  0.20655708315E+02  0.50805859207E+02  0.47000000000E+01 0. -1.
<mgrwt>
<rscale>  0 0.10003617E+04</rscale>
<asrwt>0</asrwt>
<pdfrwt beam="1">  1        2 0.94200956E-01 0.10003617E+04</pdfrwt>
<pdfrwt beam="2">  1       -2 0.62859675E-01 0.10003617E+04</pdfrwt>
<totfact> 0.13733356E+02</totfact>
</mgrwt>
</event>
<event>
 9    1  0.4412976E-036  0.9981563E+03  0.7818608E-02  0.8682796E-01
          2   -1    0    0  501    0  0.00000000000E+00  0.00000000000E+00  0.84330221942E+03  0.84330221942E+03  0.00000000000E+00 0.  1.
         -2   -1    0    0    0  501 -0.00000000000E+00 -0.00000000000E+00 -0.29536146618E+03  0.29536146618E+03  0.00000000000E+00 0.  1.
         36    2    1    2    0    0  0.71054273576E-14  0.71054273576E-14  0.54794075324E+03  0.11386636856E+04  0.99815626023E+03 0.  0.
         25    2    3    3    0    0 -0.36360850631E+02  0.45309596956E+01  0.25334835496E+03  0.28549549600E+03  0.12641063333E+03 0.  0.
         35    2    3    3    0    0  0.36360850631E+02 -0.45309596956E+01  0.29459239828E+03  0.85316818959E+03  0.79985538540E+03 0.  0.
         22    1    5    5    0    0  0.33028797079E+03 -0.12334892657E+03 -0.80904429934E+02  0.36173281316E+03  0.00000000000E+00 0.  1.
         22    1    5    5    0    0 -0.29392712015E+03  0.11881796688E+03  0.37549682821E+03  0.49143537643E+03  0.00000000000E+00 0.  1.
          5    1    4    4  502    0 -0.38381887711E+02 -0.44057060453E+02  0.52180521301E+02  0.78479874384E+02  0.47000000000E+01 0.  1.
         -5    1    4    4    0  502  0.20210370796E+01  0.48588020149E+02  0.20116783366E+03  0.20701562162E+03  0.47000000000E+01 0.  1.
<mgrwt>
<rscale>  0 0.99815626E+03</rscale>
<asrwt>0</asrwt>
<pdfrwt beam="1">  1        2 0.12973880E+00 0.99815626E+03</pdfrwt>
<pdfrwt beam="2">  1       -2 0.45440226E-01 0.99815626E+03</pdfrwt>
<totfact> 0.17828956E+02</totfact>
</mgrwt>
</event>
<event>
 9    1  0.4412976E-036  0.9997648E+03  0.7818608E-02  0.8681262E-01
         -2   -1    0    0    0  501 -0.00000000000E+00  0.00000000000E+00  0.88491656034E+02  0.88491656034E+02  0.00000000000E+00 0. -1.
          2   -1    0    0  501    0  0.00000000000E+00 -0.00000000000E+00 -0.28237964997E+04  0.28237964997E+04  0.00000000000E+00 0. -1.
         36    2    1    2    0    0  0.00000000000E+00 -0.28421709430E-13 -0.27353048437E+04  0.29122881558E+04  0.99976482948E+03 0.  0.
         25    2    3    3    0    0  0.38786889879E+02  0.11377463833E+03 -0.31006447093E+03  0.35572529409E+03  0.12629892150E+03 0.  0.
         35    2    3    3    0    0 -0.38786889879E+02 -0.11377463833E+03 -0.24252403728E+04  0.25565628617E+04  0.79985855550E+03 0.  0.
         22    1    5    5    0    0 -0.79224844458E+02 -0.45656621182E+03 -0.14232435390E+04  0.14967803623E+04  0.00000000000E+00 0. -1.
         22    1    5    5    0    0  0.40437954578E+02  0.34279157349E+03 -0.10019968338E+04  0.10597824994E+04  0.00000000000E+00 0. -1.
          5    1    4    4  502    0  0.77923487843E+02  0.76728465656E+02 -0.14276555257E+03  0.17989836130E+03  0.47000000000E+01 0. -1.
         -5    1    4    4    0  502 -0.39136597963E+02  0.37046172677E+02 -0.16729891836E+03  0.17582693279E+03  0.47000000000E+01 0. -1.
<mgrwt>
<rscale>  0 0.99976483E+03</rscale>
<asrwt>0</asrwt>
<pdfrwt beam="1">  1        2 0.43443012E+00 0.99976483E+03</pdfrwt>
<pdfrwt beam="2">  1       -2 0.13614104E-01 0.99976483E+03</pdfrwt>
<totfact> 0.10266024E+02</totfact>
</mgrwt>
</event>
<event>
 9    1  0.4412976E-036  0.1000086E+04  0.7818608E-02  0.8680956E-01
         -3   -1    0    0    0  501 -0.00000000000E+00  0.00000000000E+00  0.21158597447E+04  0.21158597447E+04  0.00000000000E+00 0.  1.
          3   -1    0    0  501    0  0.00000000000E+00 -0.00000000000E+00 -0.11817550731E+03  0.11817550731E+03  0.00000000000E+00 0.  1.
         36    2    1    2    0    0  0.14210854715E-13  0.00000000000E+00  0.19976842374E+04  0.22340352520E+04  0.10000855938E+04 0.  0.
         25    2    3    3    0    0  0.79585862149E+02 -0.55618885812E+02  0.60721878923E+03  0.62747462222E+03  0.12482937805E+03 0.  0.
         35    2    3    3    0    0 -0.79585862149E+02  0.55618885812E+02  0.13904654482E+04  0.16065606298E+04  0.79888392444E+03 0.  0.
         22    1    5    5    0    0  0.78493287448E+02  0.16780214875E+01  0.14322373964E+04  0.14343876643E+04  0.00000000000E+00 0.  1.
         22    1    5    5    0    0 -0.15807914960E+03  0.53940864324E+02 -0.41771948220E+02  0.17217296547E+03  0.00000000000E+00 0.  1.
          5    1    4    4  502    0 -0.26200976372E+00 -0.24878242894E+02  0.42878344360E+03  0.42953035647E+03  0.47000000000E+01 0. -1.
         -5    1    4    4    0  502  0.79847871913E+02 -0.30740642917E+02  0.17843534563E+03  0.19794426576E+03  0.47000000000E+01 0. -1.
<mgrwt>
<rscale>  0 0.10000856E+04</rscale>
<asrwt>0</asrwt>
<pdfrwt beam="1">  1        3 0.18180849E-01 0.10000856E+04</pdfrwt>
<pdfrwt beam="2">  1       -3 0.32551686E+00 0.10000856E+04</pdfrwt>
<totfact> 0.11007413E+00</totfact>
</mgrwt>
</event>
<event>
 9    1  0.4412976E-036  0.9999758E+03  0.7818608E-02  0.8681061E-01
         -1   -1    0    0    0  501 -0.00000000000E+00  0.00000000000E+00  0.30145541495E+03  0.30145541495E+03  0.00000000000E+00 0.  1.
          1   -1    0    0  501    0  0.00000000000E+00 -0.00000000000E+00 -0.82926986557E+03  0.82926986557E+03  0.00000000000E+00 0.  1.
         36    2    1    2    0    0  0.00000000000E+00 -0.28421709430E-13 -0.52781445062E+03  0.11307252805E+04  0.99997578258E+03 0.  0.
         25    2    3    3    0    0 -0.10592973781E+03  0.56570029627E+02 -0.18280249909E+03  0.25177506195E+03  0.12471026638E+03 0.  0.
         35    2    3    3    0    0  0.10592973781E+03 -0.56570029627E+02 -0.34501195153E+03  0.87895021858E+03  0.79943665317E+03 0.  0.
         22    1    5    5    0    0  0.20824933224E+03 -0.34286136337E+03 -0.40391475663E+03  0.56927043617E+03  0.00000000000E+00 0.  1.
         22    1    5    5    0    0 -0.10231959444E+03  0.28629133375E+03  0.58902805103E+02  0.30967978241E+03  0.00000000000E+00 0.  1.
          5    1    4    4  502    0 -0.97072052756E+02 -0.91569065632E+01 -0.14644159301E+03  0.17599449573E+03  0.47000000000E+01 0.  1.
         -5    1    4    4    0  502 -0.88576850492E+01  0.65726936190E+02 -0.36360906082E+02  0.75780566219E+02  0.47000000000E+01 0.  1.
<mgrwt>
<rscale>  0 0.99997578E+03</rscale>
<asrwt>0</asrwt>
<pdfrwt beam="1">  1        1 0.12757998E+00 0.99997578E+03</pdfrwt>
<pdfrwt beam="2">  1       -1 0.46377756E-01 0.99997578E+03</pdfrwt>
<totfact> 0.10963225E+02</totfact>
</mgrwt>
</event>
<event>
 9    1  0.4412976E-036  0.9994414E+03  0.7818608E-02  0.8681570E-01
          2   -1    0    0  501    0  0.00000000000E+00  0.00000000000E+00  0.19981391522E+04  0.19981391522E+04  0.00000000000E+00 0.  1.
         -2   -1    0    0    0  501 -0.00000000000E+00 -0.00000000000E+00 -0.12497666495E+03  0.12497666495E+03  0.00000000000E+00 0.  1.
         36    2    1    2    0    0  0.00000000000E+00  0.14210854715E-13  0.18731624873E+04  0.21231158172E+04  0.99944137866E+03 0.  0.
         25    2    3    3    0    0 -0.14687886353E+03 -0.12931207195E+02  0.35543289703E+03  0.40444898467E+03  0.12452236842E+03 0.  0.
         35    2    3    3    0    0  0.14687886353E+03  0.12931207195E+02  0.15177295902E+04  0.17186668325E+04  0.79282529940E+03 0.  0.
         22    1    5    5    0    0 -0.20388981567E+03 -0.26551094051E+03  0.86080139812E+03  0.92360498238E+03  0.00000000000E+00 0. -1.
         22    1    5    5    0    0  0.35076867920E+03  0.27844214770E+03  0.65692819212E+03  0.79506185013E+03  0.00000000000E+00 0. -1.
          5    1    4    4  502    0  0.34901406895E+00 -0.51790743095E+01 -0.89372327857E+01  0.11353798985E+02  0.47000000000E+01 0. -1.
         -5    1    4    4    0  502 -0.14722787760E+03 -0.77521328854E+01  0.36437012982E+03  0.39309518568E+03  0.47000000000E+01 0. -1.
<mgrwt>
<rscale>  0 0.99944138E+03</rscale>
<asrwt>0</asrwt>
<pdfrwt beam="1">  1        2 0.30740600E+00 0.99944138E+03</pdfrwt>
<pdfrwt beam="2">  1       -2 0.19227181E-01 0.99944138E+03</pdfrwt>
<totfact> 0.17987336E+02</totfact>
</mgrwt>
</event>
<event>
 9    1  0.4412976E-036  0.1003736E+04  0.7818608E-02  0.8677488E-01
          2   -1    0    0  501    0  0.00000000000E+00  0.00000000000E+00  0.23290882690E+04  0.23290882690E+04  0.00000000000E+00 0. -1.
         -2   -1    0    0    0  501 -0.00000000000E+00 -0.00000000000E+00 -0.10814170138E+03  0.10814170138E+03  0.00000000000E+00 0. -1.
         36    2    1    2    0    0  0.42632564146E-13  0.00000000000E+00  0.22209465676E+04  0.24372299704E+04  0.10037361567E+04 0.  0.
         25    2    3    3    0    0 -0.58210456274E+02  0.13193071852E+03  0.34523759869E+03  0.39354689108E+03  0.12204910575E+03 0.  0.
         35    2    3    3    0    0  0.58210456274E+02 -0.13193071852E+03  0.18757089689E+04  0.20436830793E+04  0.79847493438E+03 0.  0.
         22    1    5    5    0    0  0.42526962678E+03 -0.15181857585E+02  0.10260047452E+04  0.11107522143E+04  0.00000000000E+00 0.  1.
         22    1    5    5    0    0 -0.36705917051E+03 -0.11674886093E+03  0.84970422367E+03  0.93293086502E+03  0.00000000000E+00 0.  1.
          5    1    4    4  502    0 -0.43933175001E+02  0.33787068633E+02  0.30321539296E+02  0.63349629974E+02  0.47000000000E+01 0. -1.
         -5    1    4    4    0  502 -0.14277281273E+02  0.98143649886E+02  0.31491605940E+03  0.33019726110E+03  0.47000000000E+01 0. -1.
<mgrwt>
<rscale>  0 0.10037362E+04</rscale>
<asrwt>0</asrwt>
<pdfrwt beam="1">  1        2 0.35832123E+00 0.10037362E+04</pdfrwt>
<pdfrwt beam="2">  1       -2 0.16637187E-01 0.10037362E+04</pdfrwt>
<totfact> 0.14808331E+02</totfact>
</mgrwt>
</event>
<event>
 9    1  0.4412976E-036  0.1000247E+04  0.7818608E-02  0.8680803E-01
          2   -1    0    0  501    0  0.00000000000E+00  0.00000000000E+00  0.93964242790E+03  0.93964242790E+03  0.00000000000E+00 0. -1.
         -2   -1    0    0    0  501 -0.00000000000E+00 -0.00000000000E+00 -0.26619011518E+03  0.26619011518E+03  0.00000000000E+00 0. -1.
         36    2    1    2    0    0  0.28421709430E-13  0.00000000000E+00  0.67345231271E+03  0.12058325431E+04  0.10002470217E+04 0.  0.
         25    2    3    3    0    0 -0.80644272173E+02 -0.18484560140E+02 -0.52039499969E+01  0.15393944032E+03  0.12971157463E+03 0.  0.
         35    2    3    3    0    0  0.80644272173E+02  0.18484560140E+02  0.67865626271E+03  0.10518931028E+04  0.79941203339E+03 0.  0.
         22    1    5    5    0    0  0.31568116552E+03 -0.41338856226E+02 -0.13310303029E+02  0.31865445779E+03  0.00000000000E+00 0.  1.
         22    1    5    5    0    0 -0.23503689335E+03  0.59823416366E+02  0.69196656574E+03  0.73323864498E+03  0.00000000000E+00 0.  1.
          5    1    4    4  502    0 -0.41958211454E+02  0.54453991852E+02  0.10691624197E+02  0.69728972207E+02  0.47000000000E+01 0.  1.
         -5    1    4    4    0  502 -0.38686060719E+02 -0.72938551992E+02 -0.15895574194E+02  0.84210468111E+02  0.47000000000E+01 0.  1.
<mgrwt>
<rscale>  0 0.10002470E+04</rscale>
<asrwt>0</asrwt>
<pdfrwt beam="1">  1        2 0.14456037E+00 0.10002470E+04</pdfrwt>
<pdfrwt beam="2">  1       -2 0.40952326E-01 0.10002470E+04</pdfrwt>
<totfact> 0.18837265E+02</totfact>
</mgrwt>
</event>
<event>
 9    1  0.4412976E-036  0.9998652E+03  0.7818608E-02  0.8681166E-01
         -1   -1    0    0    0  501 -0.00000000000E+00  0.00000000000E+00  0.52081386759E+03  0.52081386759E+03  0.00000000000E+00 0. -1.
          1   -1    0    0  501    0  0.00000000000E+00 -0.00000000000E+00 -0.47988852049E+03  0.47988852049E+03  0.00000000000E+00 0. -1.
         36    2    1    2    0    0 -0.21316282073E-13  0.14210854715E-13  0.40925347101E+02  0.10007023881E+04  0.99986518365E+03 0.  0.
         25    2    3    3    0    0  0.21743829307E+02  0.12720826721E+03  0.62980965168E+02  0.19025893301E+03  0.12480834210E+03 0.  0.
         35    2    3    3    0    0 -0.21743829307E+02 -0.12720826721E+03 -0.22055618068E+02  0.81044345507E+03  0.79979835347E+03 0.  0.
         22    1    5    5    0    0  0.34044651557E+03  0.53461599782E+02 -0.16383249543E+03  0.38157968915E+03  0.00000000000E+00 0. -1.
         22    1    5    5    0    0 -0.36219034487E+03 -0.18066986699E+03  0.14177687736E+03  0.42886376592E+03  0.00000000000E+00 0. -1.
          5    1    4    4  502    0  0.91310747686E+01  0.11170281745E+03  0.98467092192E+02  0.14926069207E+03  0.47000000000E+01 0.  1.
         -5    1    4    4    0  502  0.12612754538E+02  0.15505449761E+02 -0.35486127023E+02  0.40998240943E+02  0.47000000000E+01 0.  1.
<mgrwt>
<rscale>  0 0.99986518E+03</rscale>
<asrwt>0</asrwt>
<pdfrwt beam="1">  1        1 0.73829003E-01 0.99986518E+03</pdfrwt>
<pdfrwt beam="2">  1       -1 0.80125210E-01 0.99986518E+03</pdfrwt>
<totfact> 0.86269708E+01</totfact>
</mgrwt>
</event>
<event>
 9    1  0.4412976E-036  0.1001273E+04  0.7818608E-02  0.8679826E-01
         -2   -1    0    0    0  501 -0.00000000000E+00  0.00000000000E+00  0.11220251659E+03  0.11220251659E+03  0.00000000000E+00 0. -1.
          2   -1    0    0  501    0  0.00000000000E+00 -0.00000000000E+00 -0.22337916822E+04  0.22337916822E+04  0.00000000000E+00 0. -1.
         36    2    1    2    0    0 -0.14210854715E-13  0.28421709430E-13 -0.21215891656E+04  0.23459941988E+04  0.10012732859E+04 0.  0.
         25    2    3    3    0    0 -0.96425791133E+01 -0.11486896393E+03 -0.59276811969E+03  0.61659194021E+03  0.12459421656E+03 0.  0.
         35    2    3    3    0    0  0.96425791133E+01  0.11486896393E+03 -0.15288210459E+04  0.17294022586E+04  0.80015656176E+03 0.  0.
         22    1    5    5    0    0 -0.68383475467E+02 -0.28060423630E+03 -0.22922294241E+03  0.36872509336E+03  0.00000000000E+00 0.  1.
         22    1    5    5    0    0  0.78026054581E+02  0.39547320023E+03 -0.12995981035E+04  0.13606771652E+04  0.00000000000E+00 0.  1.
          5    1    4    4  502    0 -0.65629388332E+02 -0.71836481296E+02 -0.38359088276E+03  0.39576729525E+03  0.47000000000E+01 0.  1.
         -5    1    4    4    0  502  0.55986809218E+02 -0.43032482634E+02 -0.20917723693E+03  0.22082464496E+03  0.47000000000E+01 0.  1.
<mgrwt>
<rscale>  0 0.10012733E+04</rscale>
<asrwt>0</asrwt>
<pdfrwt beam="1">  1        2 0.34366021E+00 0.10012733E+04</pdfrwt>
<pdfrwt beam="2">  1       -2 0.17261928E-01 0.10012733E+04</pdfrwt>
<totfact> 0.15825784E+02</totfact>
</mgrwt>
</event>
<event>
 9    1  0.4412976E-036  0.9996262E+03  0.7818608E-02  0.8681394E-01
         -1   -1    0    0    0  501 -0.00000000000E+00  0.00000000000E+00  0.18934944798E+03  0.18934944798E+03  0.00000000000E+00 0. -1.
          1   -1    0    0  501    0  0.00000000000E+00 -0.00000000000E+00 -0.13193233689E+04  0.13193233689E+04  0.00000000000E+00 0. -1.
         36    2    1    2    0    0  0.71054273576E-14 -0.28421709430E-13 -0.11299739210E+04  0.15086728169E+04  0.99962623338E+03 0.  0.
         25    2    3    3    0    0 -0.40732605765E+02  0.12792609067E+03 -0.15426846735E+03  0.23981040811E+03  0.12524392988E+03 0.  0.
         35    2    3    3    0    0  0.40732605765E+02 -0.12792609067E+03 -0.97570545362E+03  0.12688624088E+04  0.79999153148E+03 0.  0.
         22    1    5    5    0    0  0.24685998652E+03  0.26456173631E+03 -0.36252320834E+03  0.51220683502E+03  0.00000000000E+00 0.  1.
         22    1    5    5    0    0 -0.20612738075E+03 -0.39248782698E+03 -0.61318224528E+03  0.75665557379E+03  0.00000000000E+00 0.  1.
          5    1    4    4  502    0 -0.62460156076E+02  0.90694384560E+02 -0.16182238735E+03  0.19579406921E+03  0.47000000000E+01 0. -1.
         -5    1    4    4    0  502  0.21727550312E+02  0.37231706114E+02  0.75539200048E+01  0.44016338900E+02  0.47000000000E+01 0. -1.
<mgrwt>
<rscale>  0 0.99962623E+03</rscale>
<asrwt>0</asrwt>
<pdfrwt beam="1">  1        1 0.20297284E+00 0.99962623E+03</pdfrwt>
<pdfrwt beam="2">  1       -1 0.29130683E-01 0.99962623E+03</pdfrwt>
<totfact> 0.10290383E+02</totfact>
</mgrwt>
</event>
<event>
 9    1  0.4412976E-036  0.9996893E+03  0.7818608E-02  0.8681334E-01
          1   -1    0    0  501    0  0.00000000000E+00  0.00000000000E+00  0.18380082373E+04  0.18380082373E+04  0.00000000000E+00 0. -1.
         -1   -1    0    0    0  501 -0.00000000000E+00 -0.00000000000E+00 -0.13593229379E+03  0.13593229379E+03  0.00000000000E+00 0. -1.
         36    2    1    2    0    0  0.71054273576E-14  0.28421709430E-13  0.17020759435E+04  0.19739405311E+04  0.99968930313E+03 0.  0.
         25    2    3    3    0    0  0.10237605213E+02 -0.11226733272E+03  0.46651485827E+03  0.49607118972E+03  0.12546612982E+03 0.  0.
         35    2    3    3    0    0 -0.10237605213E+02  0.11226733272E+03  0.12355610852E+04  0.14778693414E+04  0.80298059268E+03 0.  0.
         22    1    5    5    0    0  0.24397448793E+03 -0.17314769445E+03  0.96307227040E+03  0.10084700654E+04  0.00000000000E+00 0.  1.
         22    1    5    5    0    0 -0.25421209314E+03  0.28541502717E+03  0.27248881484E+03  0.46939927593E+03  0.00000000000E+00 0.  1.
          5    1    4    4  502    0 -0.46338886939E+02 -0.39495452538E+02  0.92527061880E+02  0.11086266456E+03  0.47000000000E+01 0.  1.
         -5    1    4    4    0  502  0.56576492152E+02 -0.72771880179E+02  0.37398779639E+03  0.38520852516E+03  0.47000000000E+01 0.  1.
<mgrwt>
<rscale>  0 0.99968930E+03</rscale>
<asrwt>0</asrwt>
<pdfrwt beam="1">  1        1 0.28277048E+00 0.99968930E+03</pdfrwt>
<pdfrwt beam="2">  1       -1 0.20912662E-01 0.99968930E+03</pdfrwt>
<totfact> 0.76844634E+01</totfact>
</mgrwt>
</event>
<event>
 9    1  0.4412976E-036  0.9998464E+03  0.7818608E-02  0.8681184E-01
         -2   -1    0    0    0  501 -0.00000000000E+00  0.00000000000E+00  0.90934648046E+02  0.90934648046E+02  0.00000000000E+00 0.  1.
          2   -1    0    0  501    0  0.00000000000E+00 -0.00000000000E+00 -0.27483828162E+04  0.27483828162E+04  0.00000000000E+00 0.  1.
         36    2    1    2    0    0  0.71054273576E-14 -0.14210854715E-13 -0.26574481682E+04  0.28393174643E+04  0.99984643639E+03 0.  0.
         25    2    3    3    0    0  0.58067931246E+02 -0.65458464967E+02 -0.81172601087E+03  0.82591301346E+03  0.12480582442E+03 0.  0.
         35    2    3    3    0    0 -0.58067931246E+02  0.65458464967E+02 -0.18457221573E+04  0.20134044508E+04  0.79965649205E+03 0.  0.
         22    1    5    5    0    0  0.35970119724E+02  0.41239132272E+03 -0.12592104976E+04  0.13255080271E+04  0.00000000000E+00 0.  1.
         22    1    5    5    0    0 -0.94038050970E+02 -0.34693285775E+03 -0.58651165970E+03  0.68789642373E+03  0.00000000000E+00 0.  1.
          5    1    4    4  502    0  0.48456333941E+02 -0.99696071523E+02 -0.69499282742E+03  0.70379289790E+03  0.47000000000E+01 0.  1.
         -5    1    4    4    0  502  0.96115973049E+01  0.34237606556E+02 -0.11673318345E+03  0.12212011556E+03  0.47000000000E+01 0.  1.
<mgrwt>
<rscale>  0 0.99984644E+03</rscale>
<asrwt>0</asrwt>
<pdfrwt beam="1">  1        2 0.42282819E+00 0.99984644E+03</pdfrwt>
<pdfrwt beam="2">  1       -2 0.13989944E-01 0.99984644E+03</pdfrwt>
<totfact> 0.10964082E+02</totfact>
</mgrwt>
</event>
<event>
 9    1  0.4412976E-036  0.1000517E+04  0.7818608E-02  0.8680546E-01
         -1   -1    0    0    0  501 -0.00000000000E+00  0.00000000000E+00  0.32510597164E+03  0.32510597164E+03  0.00000000000E+00 0.  1.
          1   -1    0    0  501    0  0.00000000000E+00 -0.00000000000E+00 -0.76977494934E+03  0.76977494934E+03  0.00000000000E+00 0.  1.
         36    2    1    2    0    0  0.00000000000E+00 -0.28421709430E-13 -0.44466897770E+03  0.10948809210E+04  0.10005167322E+04 0.  0.
         25    2    3    3    0    0 -0.10309745591E+03  0.55710966989E+02  0.59573579614E+01  0.17110590294E+03  0.12453490534E+03 0.  0.
         35    2    3    3    0    0  0.10309745591E+03 -0.55710966989E+02 -0.45062633566E+03  0.92377501803E+03  0.79784922905E+03 0.  0.
         22    1    5    5    0    0  0.35544712453E+03 -0.28919422255E+03 -0.20950622751E+03  0.50385396303E+03  0.00000000000E+00 0.  1.
         22    1    5    5    0    0 -0.25234966862E+03  0.23348325556E+03 -0.24112010815E+03  0.41992105501E+03  0.00000000000E+00 0.  1.
          5    1    4    4  502    0 -0.99436906009E+02 -0.26116262910E+01 -0.27885507886E+02  0.10341281554E+03  0.47000000000E+01 0.  1.
         -5    1    4    4    0  502 -0.36605498990E+01  0.58322593280E+02  0.33842865847E+02  0.67693087396E+02  0.47000000000E+01 0.  1.
<mgrwt>
<rscale>  0 0.10005167E+04</rscale>
<asrwt>0</asrwt>
<pdfrwt beam="1">  1        1 0.11842691E+00 0.10005167E+04</pdfrwt>
<pdfrwt beam="2">  1       -1 0.50016304E-01 0.10005167E+04</pdfrwt>
<totfact> 0.10771663E+02</totfact>
</mgrwt>
</event>
<event>
 9    1  0.4412976E-036  0.9975317E+03  0.7818608E-02  0.8683392E-01
          1   -1    0    0  501    0  0.00000000000E+00  0.00000000000E+00  0.15997453448E+04  0.15997453448E+04  0.00000000000E+00 0. -1.
         -1   -1    0    0    0  501 -0.00000000000E+00 -0.00000000000E+00 -0.15550436039E+03  0.15550436039E+03  0.00000000000E+00 0. -1.
         36    2    1    2    0    0  0.00000000000E+00 -0.71054273576E-14  0.14442409844E+04  0.17552497052E+04  0.99753170701E+03 0.  0.
         25    2    3    3    0    0  0.40855649975E+02 -0.13370502007E+02  0.49876998357E+03  0.51535511810E+03  0.12235786357E+03 0.  0.
         35    2    3    3    0    0 -0.40855649975E+02  0.13370502007E+02  0.94547100085E+03  0.12398945871E+04  0.80098390695E+03 0.  0.
         22    1    5    5    0    0  0.39194917458E+02  0.76949370241E+02  0.10729892718E+04  0.10764587426E+04  0.00000000000E+00 0. -1.
         22    1    5    5    0    0 -0.80050567433E+02 -0.63578868233E+02 -0.12751827096E+03  0.16343584448E+03  0.00000000000E+00 0. -1.
          5    1    4    4  502    0  0.58618316389E+00 -0.31404731860E+02  0.27530636869E+02  0.42031259324E+02  0.47000000000E+01 0. -1.
         -5    1    4    4    0  502  0.40269466811E+02  0.18034229853E+02  0.47123934671E+03  0.47332385878E+03  0.47000000000E+01 0. -1.
<mgrwt>
<rscale>  0 0.99753171E+03</rscale>
<asrwt>0</asrwt>
<pdfrwt beam="1">  1        1 0.24611466E+00 0.99753171E+03</pdfrwt>
<pdfrwt beam="2">  1       -1 0.23923749E-01 0.99753171E+03</pdfrwt>
<totfact> 0.90406268E+01</totfact>
</mgrwt>
</event>
<event>
 9    1  0.4412976E-036  0.9999369E+03  0.7818608E-02  0.8681098E-01
          2   -1    0    0  501    0  0.00000000000E+00  0.00000000000E+00  0.11313983083E+04  0.11313983083E+04  0.00000000000E+00 0.  1.
         -2   -1    0    0    0  501 -0.00000000000E+00 -0.00000000000E+00 -0.22093761541E+03  0.22093761541E+03  0.00000000000E+00 0.  1.
         36    2    1    2    0    0 -0.28421709430E-13  0.71054273576E-14  0.91046069285E+03  0.13523359237E+04  0.99993688661E+03 0.  0.
         25    2    3    3    0    0  0.89434712655E+02  0.14949969058E+02  0.23476424105E+02  0.15458117126E+03  0.12297205624E+03 0.  0.
         35    2    3    3    0    0 -0.89434712655E+02 -0.14949969058E+02  0.88698426875E+03  0.11977547524E+04  0.79978327346E+03 0.  0.
         22    1    5    5    0    0 -0.24968605421E+03 -0.34476044680E+03  0.37044985863E+03  0.56430132828E+03  0.00000000000E+00 0.  1.
         22    1    5    5    0    0  0.16025134155E+03  0.32981047774E+03  0.51653441011E+03  0.63345342412E+03  0.00000000000E+00 0.  1.
          5    1    4    4  502    0  0.15018759917E+02 -0.32420756847E+02  0.50645076134E+02  0.62158526049E+02  0.47000000000E+01 0. -1.
         -5    1    4    4    0  502  0.74415952738E+02  0.47370725905E+02 -0.27168652029E+02  0.92422645211E+02  0.47000000000E+01 0. -1.
<mgrwt>
<rscale>  0 0.99993689E+03</rscale>
<asrwt>0</asrwt>
<pdfrwt beam="1">  1        2 0.17406127E+00 0.99993689E+03</pdfrwt>
<pdfrwt beam="2">  1       -2 0.33990403E-01 0.99993689E+03</pdfrwt>
<totfact> 0.20361695E+02</totfact>
</mgrwt>
</event>
<event>
 9    1  0.4412976E-036  0.9991315E+03  0.7818608E-02  0.8681865E-01
         -1   -1    0    0    0  501 -0.00000000000E+00  0.00000000000E+00  0.66223876211E+03  0.66223876211E+03  0.00000000000E+00 0. -1.
          1   -1    0    0  501    0  0.00000000000E+00 -0.00000000000E+00 -0.37685192735E+03  0.37685192735E+03  0.00000000000E+00 0. -1.
         36    2    1    2    0    0 -0.14210854715E-13 -0.28421709430E-13  0.28538683476E+03  0.10390906895E+04  0.99913153062E+03 0.  0.
         25    2    3    3    0    0  0.10494844929E+03  0.71428583769E+02 -0.55329751194E+01  0.17831080609E+03  0.12509160711E+03 0.  0.
         35    2    3    3    0    0 -0.10494844929E+03 -0.71428583769E+02  0.29091980988E+03  0.86077988337E+03  0.80011964871E+03 0.  0.
         22    1    5    5    0    0  0.18078243542E+03 -0.35713283384E+03  0.19610482517E+03  0.44573899585E+03  0.00000000000E+00 0. -1.
         22    1    5    5    0    0 -0.28573088471E+03  0.28570425007E+03  0.94814984716E+02  0.41504088752E+03  0.00000000000E+00 0. -1.
          5    1    4    4  502    0  0.43437894889E+02  0.81241356249E+02 -0.46807316848E+02  0.10344091834E+03  0.47000000000E+01 0.  1.
         -5    1    4    4    0  502  0.61510554398E+02 -0.98127724797E+01  0.41274341728E+02  0.74869887746E+02  0.47000000000E+01 0.  1.
<mgrwt>
<rscale>  0 0.99913153E+03</rscale>
<asrwt>0</asrwt>
<pdfrwt beam="1">  1        1 0.57977220E-01 0.99913153E+03</pdfrwt>
<pdfrwt beam="2">  1       -1 0.10188289E+00 0.99913153E+03</pdfrwt>
<totfact> 0.71120657E+01</totfact>
</mgrwt>
</event>
<event>
 9    1  0.4412976E-036  0.9917698E+03  0.7818608E-02  0.8688915E-01
          1   -1    0    0  501    0  0.00000000000E+00  0.00000000000E+00  0.20130118824E+04  0.20130118824E+04  0.00000000000E+00 0.  1.
         -1   -1    0    0    0  501 -0.00000000000E+00 -0.00000000000E+00 -0.12215616988E+03  0.12215616988E+03  0.00000000000E+00 0.  1.
         36    2    1    2    0    0  0.28421709430E-13  0.00000000000E+00  0.18908557125E+04  0.21351680523E+04  0.99176977467E+03 0.  0.
         25    2    3    3    0    0  0.98487030091E+02  0.77724731372E+02  0.26572766660E+03  0.31948006398E+03  0.12536143553E+03 0.  0.
         35    2    3    3    0    0 -0.98487030091E+02 -0.77724731372E+02  0.16251280459E+04  0.18156879883E+04  0.79996304684E+03 0.  0.
         22    1    5    5    0    0  0.29540749103E+03 -0.19076112860E+03  0.10657585283E+04  0.11222729769E+04  0.00000000000E+00 0. -1.
         22    1    5    5    0    0 -0.39389452113E+03  0.11303639723E+03  0.55936951763E+03  0.69341501147E+03  0.00000000000E+00 0. -1.
          5    1    4    4  502    0  0.57109546336E+02  0.77737663934E+02  0.69756453660E+02  0.11913310835E+03  0.47000000000E+01 0.  1.
         -5    1    4    4    0  502  0.41377483755E+02 -0.12932561745E-01  0.19597121294E+03  0.20034695563E+03  0.47000000000E+01 0.  1.
<mgrwt>
<rscale>  0 0.99176977E+03</rscale>
<asrwt>0</asrwt>
<pdfrwt beam="1">  1        1 0.30969411E+00 0.99176977E+03</pdfrwt>
<pdfrwt beam="2">  1       -1 0.18793258E-01 0.99176977E+03</pdfrwt>
<totfact> 0.69146031E+01</totfact>
</mgrwt>
</event>
<event>
 9    1  0.4412976E-036  0.1000829E+04  0.7818608E-02  0.8680249E-01
         -1   -1    0    0    0  501 -0.00000000000E+00  0.00000000000E+00  0.93763100621E+03  0.93763100621E+03  0.00000000000E+00 0. -1.
          1   -1    0    0  501    0  0.00000000000E+00 -0.00000000000E+00 -0.26707172208E+03  0.26707172208E+03  0.00000000000E+00 0. -1.
         36    2    1    2    0    0  0.42632564146E-13 -0.28421709430E-13  0.67055928413E+03  0.12047027283E+04  0.10008291113E+04 0.  0.
         25    2    3    3    0    0  0.46372195193E+02 -0.99780771493E+02  0.19470976205E+02  0.16744215964E+03  0.12470435062E+03 0.  0.
         35    2    3    3    0    0 -0.46372195193E+02  0.99780771493E+02  0.65108830793E+03  0.10372605687E+04  0.79992932170E+03 0.  0.
         22    1    5    5    0    0 -0.30932805322E+03  0.28482420952E+03  0.56518490809E+03  0.70444492700E+03  0.00000000000E+00 0.  1.
         22    1    5    5    0    0  0.26295585802E+03 -0.18504343803E+03  0.85903399838E+02  0.33281564166E+03  0.00000000000E+00 0.  1.
          5    1    4    4  502    0  0.39601163930E+02 -0.57973516942E+02 -0.49736364611E+02  0.86168305171E+02  0.47000000000E+01 0. -1.
         -5    1    4    4    0  502  0.67710312627E+01 -0.41807254551E+02  0.69207340816E+02  0.81273854469E+02  0.47000000000E+01 0. -1.
<mgrwt>
<rscale>  0 0.10008291E+04</rscale>
<asrwt>0</asrwt>
<pdfrwt beam="1">  1        1 0.41087958E-01 0.10008291E+04</pdfrwt>
<pdfrwt beam="2">  1       -1 0.14425092E+00 0.10008291E+04</pdfrwt>
<totfact> 0.46757332E+01</totfact>
</mgrwt>
</event>
<event>
 9    1  0.4412976E-036  0.9966345E+03  0.7818608E-02  0.8684250E-01
          1   -1    0    0  501    0  0.00000000000E+00  0.00000000000E+00  0.50093574895E+03  0.50093574895E+03  0.00000000000E+00 0. -1.
         -1   -1    0    0    0  501 -0.00000000000E+00 -0.00000000000E+00 -0.49571241438E+03  0.49571241438E+03  0.00000000000E+00 0. -1.
         36    2    1    2    0    0  0.00000000000E+00 -0.28421709430E-13  0.52233345706E+01  0.99664816332E+03  0.99663447574E+03 0.  0.
         25    2    3    3    0    0 -0.95613131280E+02  0.83878298968E+02  0.50796309950E+02  0.18541061321E+03  0.12497755989E+03 0.  0.
         35    2    3    3    0    0  0.95613131280E+02 -0.83878298968E+02 -0.45572975380E+02  0.81123755011E+03  0.79990751135E+03 0.  0.
         22    1    5    5    0    0  0.38124703775E+03 -0.27165163891E+03 -0.27128360084E+02  0.46891349377E+03  0.00000000000E+00 0. -1.
         22    1    5    5    0    0 -0.28563390647E+03  0.18777333994E+03 -0.18444615295E+02  0.34232405634E+03  0.00000000000E+00 0. -1.
          5    1    4    4  502    0 -0.82507260948E+01  0.11370447438E+02 -0.38268284079E+02  0.41035510504E+02  0.47000000000E+01 0. -1.
         -5    1    4    4    0  502 -0.87362405185E+02  0.72507851530E+02  0.89064594029E+02  0.14437510271E+03  0.47000000000E+01 0. -1.
<mgrwt>
<rscale>  0 0.99663448E+03</rscale>
<asrwt>0</asrwt>
<pdfrwt beam="1">  1        1 0.77067039E-01 0.99663448E+03</pdfrwt>
<pdfrwt beam="2">  1       -1 0.76263448E-01 0.99663448E+03</pdfrwt>
<totfact> 0.90055639E+01</totfact>
</mgrwt>
</event>
<event>
 9    1  0.4412976E-036  0.9991284E+03  0.7818608E-02  0.8681868E-01
          2   -1    0    0  501    0  0.00000000000E+00  0.00000000000E+00  0.22129542276E+04  0.22129542276E+04  0.00000000000E+00 0. -1.
         -2   -1    0    0    0  501 -0.00000000000E+00 -0.00000000000E+00 -0.11277431010E+03  0.11277431010E+03  0.00000000000E+00 0. -1.
         36    2    1    2    0    0 -0.14210854715E-13  0.00000000000E+00  0.21001799175E+04  0.23257285377E+04  0.99912839272E+03 0.  0.
         25    2    3    3    0    0 -0.89756263962E+02  0.75917960256E+02  0.57774626827E+03  0.60256876130E+03  0.12441317451E+03 0.  0.
         35    2    3    3    0    0  0.89756263962E+02 -0.75917960256E+02  0.15224336492E+04  0.17231597764E+04  0.79853345266E+03 0.  0.
         22    1    5    5    0    0 -0.33285813370E+03 -0.16072999970E+03  0.59524011746E+03  0.70067072681E+03  0.00000000000E+00 0. -1.
         22    1    5    5    0    0  0.42261439766E+03  0.84812039442E+02  0.92719353174E+03  0.10224890495E+04  0.00000000000E+00 0. -1.
          5    1    4    4  502    0  0.20272135712E+02  0.35291509109E+02  0.67219401671E+02  0.78720950595E+02  0.47000000000E+01 0. -1.
         -5    1    4    4    0  502 -0.11002839967E+03  0.40626451147E+02  0.51052686660E+03  0.52384781071E+03  0.47000000000E+01 0. -1.
<mgrwt>
<rscale>  0 0.99912839E+03</rscale>
<asrwt>0</asrwt>
<pdfrwt beam="1">  1        2 0.34045446E+00 0.99912839E+03</pdfrwt>
<pdfrwt beam="2">  1       -2 0.17349896E-01 0.99912839E+03</pdfrwt>
<totfact> 0.16135039E+02</totfact>
</mgrwt>
</event>
<event>
 9    1  0.4412976E-036  0.1000813E+04  0.7818608E-02  0.8680264E-01
         -2   -1    0    0    0  501 -0.00000000000E+00  0.00000000000E+00  0.24375434131E+03  0.24375434131E+03  0.00000000000E+00 0.  1.
          2   -1    0    0  501    0  0.00000000000E+00 -0.00000000000E+00 -0.10272916357E+04  0.10272916357E+04  0.00000000000E+00 0.  1.
         36    2    1    2    0    0  0.71054273576E-14 -0.28421709430E-13 -0.78353729443E+03  0.12710459771E+04  0.10008132613E+04 0.  0.
         25    2    3    3    0    0  0.27268173252E+02 -0.11267985101E+03 -0.26081062656E+03  0.31157528145E+03  0.12496667950E+03 0.  0.
         35    2    3    3    0    0 -0.27268173252E+02  0.11267985101E+03 -0.52272666787E+03  0.95947069560E+03  0.79617871381E+03 0.  0.
         22    1    5    5    0    0  0.27879759172E+03  0.32755059243E+03 -0.26309236952E+03  0.50421729706E+03  0.00000000000E+00 0.  1.
         22    1    5    5    0    0 -0.30606576497E+03 -0.21487074142E+03 -0.25963429836E+03  0.45525339855E+03  0.00000000000E+00 0.  1.
          5    1    4    4  502    0  0.69723774090E+01 -0.13762009566E+03 -0.21491054903E+03  0.25533612917E+03  0.47000000000E+01 0.  1.
         -5    1    4    4    0  502  0.20295795843E+02  0.24940244642E+02 -0.45900077527E+02  0.56239152276E+02  0.47000000000E+01 0.  1.
<mgrwt>
<rscale>  0 0.10008133E+04</rscale>
<asrwt>0</asrwt>
<pdfrwt beam="1">  1        2 0.15804487E+00 0.10008133E+04</pdfrwt>
<pdfrwt beam="2">  1       -2 0.37500668E-01 0.10008133E+04</pdfrwt>
<totfact> 0.19608746E+02</totfact>
</mgrwt>
</event>
<event>
 9    1  0.4412976E-036  0.1000258E+04  0.7818608E-02  0.8680792E-01
         -2   -1    0    0    0  501 -0.00000000000E+00  0.00000000000E+00  0.23666415343E+03  0.23666415343E+03  0.00000000000E+00 0. -1.
          2   -1    0    0  501    0  0.00000000000E+00 -0.00000000000E+00 -0.10568948983E+04  0.10568948983E+04  0.00000000000E+00 0. -1.
         36    2    1    2    0    0  0.26645352591E-14  0.14210854715E-13 -0.82023074489E+03  0.12935590517E+04  0.10002582394E+04 0.  0.
         25    2    3    3    0    0 -0.79097660048E+00  0.75235069417E+02 -0.31838483552E+03  0.35042930138E+03  0.12558204675E+03 0.  0.
         35    2    3    3    0    0  0.79097660048E+00 -0.75235069417E+02 -0.50184590937E+03  0.94312975037E+03  0.79497387879E+03 0.  0.
         22    1    5    5    0    0  0.55843249179E+02  0.65860861358E+02 -0.69350003187E+03  0.69885507492E+03  0.00000000000E+00 0. -1.
         22    1    5    5    0    0 -0.55052272579E+02 -0.14109593078E+03  0.19165412249E+03  0.24427467545E+03  0.00000000000E+00 0. -1.
          5    1    4    4  502    0  0.41336959469E+01  0.39258703018E+02 -0.31042382210E+03  0.31295905887E+03  0.47000000000E+01 0. -1.
         -5    1    4    4    0  502 -0.49246725474E+01  0.35976366399E+02 -0.79610134186E+01  0.37470242508E+02  0.47000000000E+01 0. -1.
<mgrwt>
<rscale>  0 0.10002582E+04</rscale>
<asrwt>0</asrwt>
<pdfrwt beam="1">  1        2 0.16259921E+00 0.10002582E+04</pdfrwt>
<pdfrwt beam="2">  1       -2 0.36409870E-01 0.10002582E+04</pdfrwt>
<totfact> 0.19874899E+02</totfact>
</mgrwt>
</event>
<event>
 9    1  0.4412976E-036  0.1000559E+04  0.7818608E-02  0.8680506E-01
          1   -1    0    0  501    0  0.00000000000E+00  0.00000000000E+00  0.47633103837E+03  0.47633103837E+03  0.00000000000E+00 0. -1.
         -1   -1    0    0    0  501 -0.00000000000E+00 -0.00000000000E+00 -0.52543155831E+03  0.52543155831E+03  0.00000000000E+00 0. -1.
         36    2    1    2    0    0  0.35527136788E-14  0.14210854715E-13 -0.49100519931E+02  0.10017625967E+04  0.10005585635E+04 0.  0.
         25    2    3    3    0    0 -0.20393276449E+02  0.68084725576E+02 -0.13237110794E+03  0.19520938182E+03  0.12463216660E+03 0.  0.
         35    2    3    3    0    0  0.20393276449E+02 -0.68084725576E+02  0.83270588011E+02  0.80655321486E+03  0.79908865715E+03 0.  0.
         22    1    5    5    0    0  0.16883346708E+03  0.26811299339E+03  0.24941443073E+03  0.40323302827E+03  0.00000000000E+00 0. -1.
         22    1    5    5    0    0 -0.14844019063E+03 -0.33619771897E+03 -0.16614384272E+03  0.40332018659E+03  0.00000000000E+00 0. -1.
          5    1    4    4  502    0 -0.23327848384E+02  0.10306096068E+03 -0.11325724595E+03  0.15496788018E+03  0.47000000000E+01 0. -1.
         -5    1    4    4    0  502  0.29345719353E+01 -0.34976235103E+02 -0.19113861990E+02  0.40241501644E+02  0.47000000000E+01 0. -1.
<mgrwt>
<rscale>  0 0.10005586E+04</rscale>
<asrwt>0</asrwt>
<pdfrwt beam="1">  1        1 0.73281699E-01 0.10005586E+04</pdfrwt>
<pdfrwt beam="2">  1       -1 0.80835624E-01 0.10005586E+04</pdfrwt>
<totfact> 0.85557359E+01</totfact>
</mgrwt>
</event>
<event>
 9    1  0.4412976E-036  0.1000922E+04  0.7818608E-02  0.8680160E-01
          2   -1    0    0  501    0  0.00000000000E+00  0.00000000000E+00  0.26688236938E+03  0.26688236938E+03  0.00000000000E+00 0. -1.
         -2   -1    0    0    0  501 -0.00000000000E+00 -0.00000000000E+00 -0.93847089470E+03  0.93847089470E+03  0.00000000000E+00 0. -1.
         36    2    1    2    0    0  0.71054273576E-14 -0.71054273576E-14 -0.67158852533E+03  0.12053532641E+04  0.10009222467E+04 0.  0.
         25    2    3    3    0    0 -0.43147088984E+02  0.22563323022E+02  0.33696716177E+02  0.13712787846E+03  0.12368432211E+03 0.  0.
         35    2    3    3    0    0  0.43147088984E+02 -0.22563323022E+02 -0.70528524150E+03  0.10682253856E+04  0.80081672545E+03 0.  0.
         22    1    5    5    0    0  0.85396983766E+02 -0.13338952885E+03 -0.85933344602E+03  0.87380740595E+03  0.00000000000E+00 0.  1.
         22    1    5    5    0    0 -0.42249894782E+02  0.11082620582E+03  0.15404820451E+03  0.19441797967E+03  0.00000000000E+00 0.  1.
          5    1    4    4  502    0  0.12626625986E+02  0.35742450761E+02 -0.31993212033E+02  0.49825797399E+02  0.47000000000E+01 0.  1.
         -5    1    4    4    0  502 -0.55773714970E+02 -0.13179127740E+02  0.65689928210E+02  0.87302081062E+02  0.47000000000E+01 0.  1.
<mgrwt>
<rscale>  0 0.10009222E+04</rscale>
<asrwt>0</asrwt>
<pdfrwt beam="1">  1        2 0.41058826E-01 0.10009222E+04</pdfrwt>
<pdfrwt beam="2">  1       -2 0.14438014E+00 0.10009222E+04</pdfrwt>
<totfact> 0.47180270E+01</totfact>
</mgrwt>
</event>
<event>
 9    1  0.4412976E-036  0.9997146E+03  0.7818608E-02  0.8681310E-01
          2   -1    0    0  501    0  0.00000000000E+00  0.00000000000E+00  0.31710985657E+03  0.31710985657E+03  0.00000000000E+00 0. -1.
         -2   -1    0    0    0  501 -0.00000000000E+00 -0.00000000000E+00 -0.78792033021E+03  0.78792033021E+03  0.00000000000E+00 0. -1.
         36    2    1    2    0    0 -0.71054273576E-14  0.00000000000E+00 -0.47081047364E+03  0.11050301868E+04  0.99971456507E+03 0.  0.
         25    2    3    3    0    0  0.93268693419E+01  0.12632022666E+03 -0.15310962741E+03  0.23444449290E+03  0.12441009643E+03 0.  0.
         35    2    3    3    0    0 -0.93268693419E+01 -0.12632022666E+03 -0.31770084623E+03  0.87058569388E+03  0.80058842893E+03 0.  0.
         22    1    5    5    0    0  0.22478887177E+03  0.18223319263E+03 -0.38068048053E+03  0.47818051154E+03  0.00000000000E+00 0. -1.
         22    1    5    5    0    0 -0.23411574111E+03 -0.30855341928E+03  0.62979634293E+02  0.39240518234E+03  0.00000000000E+00 0. -1.
          5    1    4    4  502    0 -0.29961801406E+02  0.29766938144E+01 -0.80212739828E+02  0.85806432627E+02  0.47000000000E+01 0.  1.
         -5    1    4    4    0  502  0.39288670748E+02  0.12334353284E+03 -0.72896887578E+02  0.14863806027E+03  0.47000000000E+01 0.  1.
<mgrwt>
<rscale>  0 0.99971457E+03</rscale>
<asrwt>0</asrwt>
<pdfrwt beam="1">  1        2 0.48786132E-01 0.99971457E+03</pdfrwt>
<pdfrwt beam="2">  1       -2 0.12121851E+00 0.99971457E+03</pdfrwt>
<totfact> 0.62233934E+01</totfact>
</mgrwt>
</event>
<event>
 9    1  0.4412976E-036  0.1002704E+04  0.7818608E-02  0.8678467E-01
         -1   -1    0    0    0  501 -0.00000000000E+00  0.00000000000E+00  0.51483925088E+03  0.51483925088E+03  0.00000000000E+00 0. -1.
          1   -1    0    0  501    0  0.00000000000E+00 -0.00000000000E+00 -0.48821807220E+03  0.48821807220E+03  0.00000000000E+00 0. -1.
         36    2    1    2    0    0  0.28421709430E-13  0.35527136788E-14  0.26621178672E+02  0.10030573231E+04  0.10027039973E+04 0.  0.
         25    2    3    3    0    0 -0.10354302755E+03 -0.27600015695E+02 -0.10065678764E+03  0.19455157047E+03  0.12741901449E+03 0.  0.
         35    2    3    3    0    0  0.10354302755E+03  0.27600015695E+02  0.12727796631E+03  0.80850575261E+03  0.79120095543E+03 0.  0.
         22    1    5    5    0    0  0.43780599496E+03  0.38455670692E+02 -0.26743212369E+02  0.44030458462E+03  0.00000000000E+00 0.  1.
         22    1    5    5    0    0 -0.33426296741E+03 -0.10855654997E+02  0.15402117868E+03  0.36820116799E+03  0.00000000000E+00 0.  1.
          5    1    4    4  502    0 -0.11965292234E+02  0.10046350277E+02 -0.93779355832E+02  0.95187997943E+02  0.47000000000E+01 0. -1.
         -5    1    4    4    0  502 -0.91577735319E+02 -0.37646365972E+02 -0.68774318096E+01  0.99363572527E+02  0.47000000000E+01 0. -1.
<mgrwt>
<rscale>  0 0.10027040E+04</rscale>
<asrwt>0</asrwt>
<pdfrwt beam="1">  1        1 0.75110472E-01 0.10027040E+04</pdfrwt>
<pdfrwt beam="2">  1       -1 0.79206039E-01 0.10027040E+04</pdfrwt>
<totfact> 0.86270064E+01</totfact>
</mgrwt>
</event>
<event>
 9    1  0.4412976E-036  0.9999067E+03  0.7818608E-02  0.8681127E-01
         -1   -1    0    0    0  501 -0.00000000000E+00  0.00000000000E+00  0.10484011001E+03  0.10484011001E+03  0.00000000000E+00 0. -1.
          1   -1    0    0  501    0  0.00000000000E+00 -0.00000000000E+00 -0.23841387315E+04  0.23841387315E+04  0.00000000000E+00 0. -1.
         36    2    1    2    0    0 -0.14210854715E-13 -0.14210854715E-13 -0.22792986215E+04  0.24889788415E+04  0.99990672941E+03 0.  0.
         25    2    3    3    0    0  0.94218775764E+02  0.62400353142E+02 -0.21526785050E+03  0.27323916393E+03  0.12469326953E+03 0.  0.
         35    2    3    3    0    0 -0.94218775764E+02 -0.62400353142E+02 -0.20640307710E+04  0.22157396776E+04  0.79781471121E+03 0.  0.
         22    1    5    5    0    0  0.25279171665E+03 -0.25826324830E+03 -0.13554851756E+04  0.14028341380E+04  0.00000000000E+00 0.  1.
         22    1    5    5    0    0 -0.34701049242E+03  0.19586289516E+03 -0.70854559538E+03  0.81290553958E+03  0.00000000000E+00 0.  1.
          5    1    4    4  502    0  0.89329878003E+02  0.55949591580E+02 -0.67671499825E+02  0.12534634335E+03  0.47000000000E+01 0. -1.
         -5    1    4    4    0  502  0.48888977611E+01  0.64507615621E+01 -0.14759635067E+03  0.14789282058E+03  0.47000000000E+01 0. -1.
<mgrwt>
<rscale>  0 0.99990673E+03</rscale>
<asrwt>0</asrwt>
<pdfrwt beam="1">  1        1 0.36679054E+00 0.99990673E+03</pdfrwt>
<pdfrwt beam="2">  1       -1 0.16129249E-01 0.99990673E+03</pdfrwt>
<totfact> 0.48690085E+01</totfact>
</mgrwt>
</event>
<event>
 9    1  0.4412976E-036  0.1000041E+04  0.7818608E-02  0.8680999E-01
          2   -1    0    0  501    0  0.00000000000E+00  0.00000000000E+00  0.16598429776E+04  0.16598429776E+04  0.00000000000E+00 0.  1.
         -2   -1    0    0    0  501 -0.00000000000E+00 -0.00000000000E+00 -0.15062897043E+03  0.15062897043E+03  0.00000000000E+00 0.  1.
         36    2    1    2    0    0  0.10658141036E-13 -0.28421709430E-13  0.15092140072E+04  0.18104719480E+04  0.10000408767E+04 0.  0.
         25    2    3    3    0    0 -0.12469218589E+02  0.13202990381E+03  0.21484757994E+03  0.28166973143E+03  0.12486383818E+03 0.  0.
         35    2    3    3    0    0  0.12469218589E+02 -0.13202990381E+03  0.12943664272E+04  0.15288022166E+04  0.80266082040E+03 0.  0.
         22    1    5    5    0    0 -0.31857883336E+03 -0.25194745489E+03  0.41091994285E+03  0.57777607472E+03  0.00000000000E+00 0.  1.
         22    1    5    5    0    0  0.33104805195E+03  0.11991755108E+03  0.88344648438E+03  0.95102614187E+03  0.00000000000E+00 0.  1.
          5    1    4    4  502    0  0.39095431975E+01  0.43797696779E+02  0.17989218441E+03  0.18524797106E+03  0.47000000000E+01 0. -1.
         -5    1    4    4    0  502 -0.16378761786E+02  0.88232207034E+02  0.34955395527E+02  0.96421760367E+02  0.47000000000E+01 0. -1.
<mgrwt>
<rscale>  0 0.10000409E+04</rscale>
<asrwt>0</asrwt>
<pdfrwt beam="1">  1        2 0.25536044E+00 0.10000409E+04</pdfrwt>
<pdfrwt beam="2">  1       -2 0.23173689E-01 0.10000409E+04</pdfrwt>
<totfact> 0.20188309E+02</totfact>
</mgrwt>
</event>
<event>
 9    1 -0.4412976E-036  0.9995469E+03  0.7818608E-02  0.8681470E-01
          1   -1    0    0  501    0  0.00000000000E+00  0.00000000000E+00  0.74453899099E+02  0.74453899099E+02  0.00000000000E+00 0.  1.
         -1   -1    0    0    0  501 -0.00000000000E+00 -0.00000000000E+00 -0.33547401192E+04  0.33547401192E+04  0.00000000000E+00 0.  1.
         36    2    1    2    0    0 -0.42632564146E-13  0.71054273576E-14 -0.32802862201E+04  0.34291940183E+04  0.99954686201E+03 0.  0.
         25    2    3    3    0    0  0.72837068171E+02  0.17245686696E+02 -0.21120763477E+03  0.25681498452E+03  0.12546959424E+03 0.  0.
         35    2    3    3    0    0 -0.72837068171E+02 -0.17245686696E+02 -0.30690785853E+04  0.31723790338E+04  0.79946401973E+03 0.  0.
         22    1    5    5    0    0 -0.38004935814E+03  0.18464117824E+03 -0.19194825615E+04  0.19654371481E+04  0.00000000000E+00 0. -1.
         22    1    5    5    0    0  0.30721228997E+03 -0.20188686494E+03 -0.11495960238E+04  0.12069418856E+04  0.00000000000E+00 0. -1.
          5    1    4    4  502    0  0.34987566691E+02 -0.53241602977E+02 -0.72590661530E+02  0.96696909216E+02  0.47000000000E+01 0.  1.
         -5    1    4    4    0  502  0.37849501480E+02  0.70487289673E+02 -0.13861697324E+03  0.16011807530E+03  0.47000000000E+01 0.  1.
<mgrwt>
<rscale>  0 0.99954686E+03</rscale>
<asrwt>0</asrwt>
<pdfrwt beam="1">  1        1 0.11454446E-01 0.99954686E+03</pdfrwt>
<pdfrwt beam="2">  1       -1 0.51611385E+00 0.99954686E+03</pdfrwt>
<totfact>-0.28924174E+00</totfact>
</mgrwt>
</event>
<event>
 9    1  0.4412976E-036  0.1000928E+04  0.7818608E-02  0.8680155E-01
         -2   -1    0    0    0  501 -0.00000000000E+00  0.00000000000E+00  0.78518549786E+02  0.78518549786E+02  0.00000000000E+00 0. -1.
          2   -1    0    0  501    0  0.00000000000E+00 -0.00000000000E+00 -0.31898730094E+04  0.31898730094E+04  0.00000000000E+00 0. -1.
         36    2    1    2    0    0  0.28421709430E-13  0.00000000000E+00 -0.31113544596E+04  0.32683915592E+04  0.10009279748E+04 0.  0.
         25    2    3    3    0    0  0.12483494706E+03  0.46683653542E+02 -0.42495199938E+03  0.46258137267E+03  0.12503678276E+03 0.  0.
         35    2    3    3    0    0 -0.12483494706E+03 -0.46683653542E+02 -0.26864024602E+04  0.28058101865E+04  0.79878000534E+03 0.  0.
         22    1    5    5    0    0 -0.94087791246E+01  0.36069120860E+03 -0.15915408245E+04  0.16319279607E+04  0.00000000000E+00 0. -1.
         22    1    5    5    0    0 -0.11542616793E+03 -0.40737486214E+03 -0.10948616358E+04  0.11738822258E+04  0.00000000000E+00 0. -1.
          5    1    4    4  502    0  0.63443471474E+02  0.87254967861E+02 -0.22799660890E+03  0.25227573637E+03  0.47000000000E+01 0. -1.
         -5    1    4    4    0  502  0.61391475582E+02 -0.40571314318E+02 -0.19695539048E+03  0.21030563630E+03  0.47000000000E+01 0. -1.
<mgrwt>
<rscale>  0 0.10009280E+04</rscale>
<asrwt>0</asrwt>
<pdfrwt beam="1">  1        2 0.49074974E+00 0.10009280E+04</pdfrwt>
<pdfrwt beam="2">  1       -2 0.12079776E-01 0.10009280E+04</pdfrwt>
<totfact> 0.71152706E+01</totfact>
</mgrwt>
</event>
<event>
 9    1  0.4412976E-036  0.1001150E+04  0.7818608E-02  0.8679944E-01
          1   -1    0    0  501    0  0.00000000000E+00  0.00000000000E+00  0.26493199431E+04  0.26493199431E+04  0.00000000000E+00 0. -1.
         -1   -1    0    0    0  501 -0.00000000000E+00 -0.00000000000E+00 -0.94580938198E+02  0.94580938198E+02  0.00000000000E+00 0. -1.
         36    2    1    2    0    0 -0.28421709430E-13  0.71054273576E-14  0.25547390049E+04  0.27439008813E+04  0.10011496707E+04 0.  0.
         25    2    3    3    0    0  0.13738656019E+03  0.76951909080E+01  0.57331146848E+03  0.60267406455E+03  0.12488276623E+03 0.  0.
         35    2    3    3    0    0 -0.13738656019E+03 -0.76951909080E+01  0.19814275364E+04  0.21412268168E+04  0.79991431779E+03 0.  0.
         22    1    5    5    0    0 -0.20354630803E+03 -0.38042387828E+03  0.11233068654E+04  0.12033169742E+04  0.00000000000E+00 0. -1.
         22    1    5    5    0    0  0.66159747837E+02  0.37272868737E+03  0.85812067109E+03  0.93790984256E+03  0.00000000000E+00 0. -1.
          5    1    4    4  502    0  0.47499110450E+02 -0.41504446782E+02  0.99630010206E+02  0.11801276850E+03  0.47000000000E+01 0. -1.
         -5    1    4    4    0  502  0.89887449739E+02  0.49199637690E+02  0.47368145827E+03  0.48466129604E+03  0.47000000000E+01 0. -1.
<mgrwt>
<rscale>  0 0.10011497E+04</rscale>
<asrwt>0</asrwt>
<pdfrwt beam="1">  1        1 0.40758763E+00 0.10011497E+04</pdfrwt>
<pdfrwt beam="2">  1       -1 0.14550916E-01 0.10011497E+04</pdfrwt>
<totfact> 0.37451663E+01</totfact>
</mgrwt>
</event>
<event>
 9    1  0.4412976E-036  0.1000090E+04  0.7818608E-02  0.8680952E-01
         -2   -1    0    0    0  501 -0.00000000000E+00  0.00000000000E+00  0.88545275705E+02  0.88545275705E+02  0.00000000000E+00 0. -1.
          2   -1    0    0  501    0  0.00000000000E+00 -0.00000000000E+00 -0.28239222998E+04  0.28239222998E+04  0.00000000000E+00 0. -1.
         36    2    1    2    0    0 -0.14210854715E-13  0.14210854715E-13 -0.27353770241E+04  0.29124675755E+04  0.10000899532E+04 0.  0.
         25    2    3    3    0    0 -0.59002459907E+02  0.17009323044E+02 -0.88689466841E+03  0.89743385072E+03  0.12261629670E+03 0.  0.
         35    2    3    3    0    0  0.59002459907E+02 -0.17009323044E+02 -0.18484823557E+04  0.20150337248E+04  0.79981453188E+03 0.  0.
         22    1    5    5    0    0 -0.10420930659E+03 -0.18690123911E+03 -0.17444044092E+04  0.17574806957E+04  0.00000000000E+00 0. -1.
         22    1    5    5    0    0  0.16321176650E+03  0.16989191606E+03 -0.10407794648E+03  0.25755302912E+03  0.00000000000E+00 0. -1.
          5    1    4    4  502    0 -0.29455962575E+01  0.62492426226E+02 -0.33568079679E+03  0.34149329013E+03  0.47000000000E+01 0.  1.
         -5    1    4    4    0  502 -0.56056863650E+02 -0.45483103182E+02 -0.55121387162E+03  0.55594056059E+03  0.47000000000E+01 0.  1.
<mgrwt>
<rscale>  0 0.10000900E+04</rscale>
<asrwt>0</asrwt>
<pdfrwt beam="1">  1        2 0.43444951E+00 0.10000900E+04</pdfrwt>
<pdfrwt beam="2">  1       -2 0.13622353E-01 0.10000900E+04</pdfrwt>
<totfact> 0.10253659E+02</totfact>
</mgrwt>
</event>
<event>
 9    1  0.4412976E-036  0.1003181E+04  0.7818608E-02  0.8678015E-01
          1   -1    0    0  501    0  0.00000000000E+00  0.00000000000E+00  0.43274418908E+03  0.43274418908E+03  0.00000000000E+00 0.  1.
         -1   -1    0    0    0  501 -0.00000000000E+00 -0.00000000000E+00 -0.58138919061E+03  0.58138919061E+03  0.00000000000E+00 0.  1.
         36    2    1    2    0    0 -0.14210854715E-13 -0.14210854715E-13 -0.14864500153E+03  0.10141333797E+04  0.10031805298E+04 0.  0.
         25    2    3    3    0    0  0.55154453802E+02  0.82898964252E+02  0.76021759976E+02  0.17724223371E+03  0.12538440642E+03 0.  0.
         35    2    3    3    0    0 -0.55154453802E+02 -0.82898964252E+02 -0.22466676151E+03  0.83689114597E+03  0.79999836526E+03 0.  0.
         22    1    5    5    0    0  0.56058460793E+01  0.24568255590E+01  0.30091033730E+03  0.30097257782E+03  0.00000000000E+00 0. -1.
         22    1    5    5    0    0 -0.60760299881E+02 -0.85355789811E+02 -0.52557709881E+03  0.53591856815E+03  0.00000000000E+00 0. -1.
          5    1    4    4  502    0  0.93225478083E+02  0.61024283250E+02  0.72342763518E+02  0.13293050193E+03  0.47000000000E+01 0. -1.
         -5    1    4    4    0  502 -0.38071024281E+02  0.21874681002E+02  0.36789964579E+01  0.44311731784E+02  0.47000000000E+01 0. -1.
<mgrwt>
<rscale>  0 0.10031805E+04</rscale>
<asrwt>0</asrwt>
<pdfrwt beam="1">  1        1 0.66576029E-01 0.10031805E+04</pdfrwt>
<pdfrwt beam="2">  1       -1 0.89444491E-01 0.10031805E+04</pdfrwt>
<totfact> 0.78621222E+01</totfact>
</mgrwt>
</event>
<event>
 9    1  0.4412976E-036  0.1001076E+04  0.7818608E-02  0.8680013E-01
          2   -1    0    0  501    0  0.00000000000E+00  0.00000000000E+00  0.70444956883E+03  0.70444956883E+03  0.00000000000E+00 0. -1.
         -2   -1    0    0    0  501 -0.00000000000E+00 -0.00000000000E+00 -0.35565149078E+03  0.35565149078E+03  0.00000000000E+00 0. -1.
         36    2    1    2    0    0  0.00000000000E+00  0.00000000000E+00  0.34879807805E+03  0.10601010596E+04  0.10010764992E+04 0.  0.
         25    2    3    3    0    0 -0.10675548079E+03  0.90907760712E+02  0.63642750851E+02  0.19898531257E+03  0.12603095353E+03 0.  0.
         35    2    3    3    0    0  0.10675548079E+03 -0.90907760712E+02  0.28515532720E+03  0.86111574703E+03  0.80034106200E+03 0.  0.
         22    1    5    5    0    0 -0.11924367478E+03 -0.24190447590E+03 -0.17867564384E+03  0.32351478349E+03  0.00000000000E+00 0. -1.
         22    1    5    5    0    0  0.22599915557E+03  0.15099671519E+03  0.46383097103E+03  0.53760096354E+03  0.00000000000E+00 0. -1.
          5    1    4    4  502    0 -0.69792115905E+02 -0.11171656327E+01  0.70687399175E+02  0.99453435856E+02  0.47000000000E+01 0. -1.
         -5    1    4    4    0  502 -0.36963364884E+02  0.92024926345E+02 -0.70446483245E+01  0.99531876715E+02  0.47000000000E+01 0. -1.
<mgrwt>
<rscale>  0 0.10010765E+04</rscale>
<asrwt>0</asrwt>
<pdfrwt beam="1">  1        2 0.10837686E+00 0.10010765E+04</pdfrwt>
<pdfrwt beam="2">  1       -2 0.54715614E-01 0.10010765E+04</pdfrwt>
<totfact> 0.15459846E+02</totfact>
</mgrwt>
</event>
<event>
 9    1  0.4412976E-036  0.1000265E+04  0.7818608E-02  0.8680785E-01
          2   -1    0    0  501    0  0.00000000000E+00  0.00000000000E+00  0.71350942397E+03  0.71350942397E+03  0.00000000000E+00 0. -1.
         -2   -1    0    0    0  501 -0.00000000000E+00 -0.00000000000E+00 -0.35056684508E+03  0.35056684508E+03  0.00000000000E+00 0. -1.
         36    2    1    2    0    0  0.00000000000E+00  0.00000000000E+00  0.36294257889E+03  0.10640762691E+04  0.10002654602E+04 0.  0.
         25    2    3    3    0    0  0.48966064954E+02  0.11713261702E+03  0.58820356068E+01  0.17839865131E+03  0.12519486794E+03 0.  0.
         35    2    3    3    0    0 -0.48966064954E+02 -0.11713261702E+03  0.35706054328E+03  0.88567761775E+03  0.80050914144E+03 0.  0.
         22    1    5    5    0    0 -0.40162878727E+03 -0.18669721980E+03  0.13439988493E+03  0.46284431909E+03  0.00000000000E+00 0. -1.
         22    1    5    5    0    0  0.35266272232E+03  0.69564602774E+02  0.22266065836E+03  0.42283329866E+03  0.00000000000E+00 0. -1.
          5    1    4    4  502    0  0.21010465104E+02  0.13787689163E+03  0.19136772205E+02  0.14085376438E+03  0.47000000000E+01 0.  1.
         -5    1    4    4    0  502  0.27955599850E+02 -0.20744274608E+02 -0.13254736599E+02  0.37544886926E+02  0.47000000000E+01 0.  1.
<mgrwt>
<rscale>  0 0.10002655E+04</rscale>
<asrwt>0</asrwt>
<pdfrwt beam="1">  1        2 0.10977068E+00 0.10002655E+04</pdfrwt>
<pdfrwt beam="2">  1       -2 0.53933361E-01 0.10002655E+04</pdfrwt>
<totfact> 0.15671911E+02</totfact>
</mgrwt>
</event>
<event>
 9    1  0.4412976E-036  0.9992697E+03  0.7818608E-02  0.8681734E-01
         -1   -1    0    0    0  501 -0.00000000000E+00  0.00000000000E+00  0.43216729278E+03  0.43216729278E+03  0.00000000000E+00 0.  1.
          1   -1    0    0  501    0  0.00000000000E+00 -0.00000000000E+00 -0.57763504252E+03  0.57763504252E+03  0.00000000000E+00 0.  1.
         36    2    1    2    0    0 -0.28421709430E-13  0.00000000000E+00 -0.14546774974E+03  0.10098023353E+04  0.99926967839E+03 0.  0.
         25    2    3    3    0    0 -0.12938782140E+03  0.47495873376E+01 -0.74584544189E+02  0.19614748661E+03  0.12707169381E+03 0.  0.
         35    2    3    3    0    0  0.12938782140E+03 -0.47495873376E+01 -0.70883205550E+02  0.81365484868E+03  0.80015374588E+03 0.  0.
         22    1    5    5    0    0 -0.32331190317E+03  0.81184276191E+02 -0.11046251121E+03  0.35117437238E+03  0.00000000000E+00 0.  1.
         22    1    5    5    0    0  0.45269972457E+03 -0.85933863529E+02  0.39579305656E+02  0.46248047630E+03  0.00000000000E+00 0.  1.
          5    1    4    4  502    0  0.28788852737E+01  0.37558222582E+02  0.49641779227E+01  0.38283692696E+02  0.47000000000E+01 0.  1.
         -5    1    4    4    0  502 -0.13226670667E+03 -0.32808635245E+02 -0.79548722111E+02  0.15786379392E+03  0.47000000000E+01 0.  1.
<mgrwt>
<rscale>  0 0.99926968E+03</rscale>
<asrwt>0</asrwt>
<pdfrwt beam="1">  1        1 0.88866930E-01 0.99926968E+03</pdfrwt>
<pdfrwt beam="2">  1       -1 0.66487276E-01 0.99926968E+03</pdfrwt>
<totfact> 0.96803231E+01</totfact>
</mgrwt>
</event>
<event>
 9    1  0.4412976E-036  0.1001166E+04  0.7818608E-02  0.8679929E-01
         -1   -1    0    0    0  501 -0.00000000000E+00  0.00000000000E+00  0.38915745687E+03  0.38915745687E+03  0.00000000000E+00 0. -1.
          1   -1    0    0  501    0  0.00000000000E+00 -0.00000000000E+00 -0.64391185798E+03  0.64391185798E+03  0.00000000000E+00 0. -1.
         36    2    1    2    0    0 -0.10658141036E-13  0.00000000000E+00 -0.25475440110E+03  0.10330693148E+04  0.10011655230E+04 0.  0.
         25    2    3    3    0    0  0.69779705940E+01  0.13473004562E+03 -0.28602296198E+02  0.18746357754E+03  0.12697883401E+03 0.  0.
         35    2    3    3    0    0 -0.69779705940E+01 -0.13473004562E+03 -0.22615210491E+03  0.84560573731E+03  0.80355672554E+03 0.  0.
         22    1    5    5    0    0  0.16223563533E+03  0.29846246111E+03 -0.30549885101E+02  0.34107702583E+03  0.00000000000E+00 0. -1.
         22    1    5    5    0    0 -0.16921360593E+03 -0.43319250674E+03 -0.19560221980E+03  0.50452871149E+03  0.00000000000E+00 0. -1.
          5    1    4    4  502    0 -0.25256684217E+02  0.14784243532E+03 -0.20811239952E+02  0.15149416981E+03  0.47000000000E+01 0. -1.
         -5    1    4    4    0  502  0.32234654811E+02 -0.13112389699E+02 -0.77910562466E+01  0.35969407722E+02  0.47000000000E+01 0. -1.
<mgrwt>
<rscale>  0 0.10011655E+04</rscale>
<asrwt>0</asrwt>
<pdfrwt beam="1">  1        1 0.99063362E-01 0.10011655E+04</pdfrwt>
<pdfrwt beam="2">  1       -1 0.59870378E-01 0.10011655E+04</pdfrwt>
<totfact> 0.10110264E+02</totfact>
</mgrwt>
</event>
<event>
 9    1  0.4412976E-036  0.9997583E+03  0.7818608E-02  0.8681268E-01
          2   -1    0    0  501    0  0.00000000000E+00  0.00000000000E+00  0.15147101277E+04  0.15147101277E+04  0.00000000000E+00 0. -1.
         -2   -1    0    0    0  501 -0.00000000000E+00 -0.00000000000E+00 -0.16496831571E+03  0.16496831571E+03  0.00000000000E+00 0. -1.
         36    2    1    2    0    0  0.14210854715E-13 -0.14210854715E-13  0.13497418120E+04  0.16796784435E+04  0.99975832794E+03 0.  0.
         25    2    3    3    0    0 -0.59415017336E+02  0.11567988468E+03  0.17058831003E+03  0.24788442311E+03  0.12423500189E+03 0.  0.
         35    2    3    3    0    0  0.59415017336E+02 -0.11567988468E+03  0.11791535020E+04  0.14317940204E+04  0.80169767085E+03 0.  0.
         22    1    5    5    0    0  0.69914161621E+02  0.34005569157E+03  0.61777195079E+03  0.70863816335E+03  0.00000000000E+00 0. -1.
         22    1    5    5    0    0 -0.10499144284E+02 -0.45573557625E+03  0.56138155120E+03  0.72315585700E+03  0.00000000000E+00 0. -1.
          5    1    4    4  502    0 -0.84547370861E+02  0.71471569172E+02  0.59852972108E+02  0.12594011033E+03  0.47000000000E+01 0.  1.
         -5    1    4    4    0  502  0.25132353524E+02  0.44208315508E+02  0.11073533792E+03  0.12194431278E+03  0.47000000000E+01 0.  1.
<mgrwt>
<rscale>  0 0.99975833E+03</rscale>
<asrwt>0</asrwt>
<pdfrwt beam="1">  1        2 0.23303232E+00 0.99975833E+03</pdfrwt>
<pdfrwt beam="2">  1       -2 0.25379742E-01 0.99975833E+03</pdfrwt>
<totfact> 0.20758210E+02</totfact>
</mgrwt>
</event>
<event>
 9    1  0.4412976E-036  0.9914901E+03  0.7818608E-02  0.8689184E-01
         -2   -1    0    0    0  501 -0.00000000000E+00  0.00000000000E+00  0.73782582658E+02  0.73782582658E+02  0.00000000000E+00 0. -1.
          2   -1    0    0  501    0  0.00000000000E+00 -0.00000000000E+00 -0.33309102499E+04  0.33309102499E+04  0.00000000000E+00 0. -1.
         36    2    1    2    0    0  0.00000000000E+00  0.28421709430E-13 -0.32571276673E+04  0.34046928326E+04  0.99149011259E+03 0.  0.
         25    2    3    3    0    0 -0.96931912718E+02 -0.84167987290E+02 -0.61994961341E+03  0.64549953085E+03  0.12590502518E+03 0.  0.
         35    2    3    3    0    0  0.96931912718E+02  0.84167987290E+02 -0.26371780539E+04  0.27591933017E+04  0.80122377825E+03 0.  0.
         22    1    5    5    0    0  0.10517040014E+01 -0.16569581806E+03 -0.72966593731E+02  0.18105340098E+03  0.00000000000E+00 0.  1.
         22    1    5    5    0    0  0.95880208716E+02  0.24986380535E+03 -0.25642114601E+04  0.25781399008E+04  0.00000000000E+00 0.  1.
          5    1    4    4  502    0 -0.48096847593E+02 -0.70232240915E+02 -0.56146527860E+03  0.56790071622E+03  0.47000000000E+01 0. -1.
         -5    1    4    4    0  502 -0.48835065125E+02 -0.13935746375E+02 -0.58484334812E+02  0.77598814625E+02  0.47000000000E+01 0. -1.
<mgrwt>
<rscale>  0 0.99149011E+03</rscale>
<asrwt>0</asrwt>
<pdfrwt beam="1">  1        2 0.51244764E+00 0.99149011E+03</pdfrwt>
<pdfrwt beam="2">  1       -2 0.11351169E-01 0.99149011E+03</pdfrwt>
<totfact> 0.62609836E+01</totfact>
</mgrwt>
</event>
<event>
 9    1  0.4412976E-036  0.1000364E+04  0.7818608E-02  0.8680692E-01
         -2   -1    0    0    0  501 -0.00000000000E+00  0.00000000000E+00  0.19659397777E+03  0.19659397777E+03  0.00000000000E+00 0. -1.
          2   -1    0    0  501    0  0.00000000000E+00 -0.00000000000E+00 -0.12725819942E+04  0.12725819942E+04  0.00000000000E+00 0. -1.
         36    2    1    2    0    0  0.00000000000E+00  0.28421709430E-13 -0.10759880164E+04  0.14691759719E+04  0.10003638464E+04 0.  0.
         25    2    3    3    0    0 -0.97866698124E+02 -0.93595920874E+02 -0.14697554263E+03  0.23801906520E+03  0.12927945799E+03 0.  0.
         35    2    3    3    0    0  0.97866698124E+02  0.93595920874E+02 -0.92901247375E+03  0.12311569067E+04  0.79645782412E+03 0.  0.
         22    1    5    5    0    0  0.21581090799E+03 -0.30907930796E+03 -0.33776140904E+03  0.50614932189E+03  0.00000000000E+00 0.  1.
         22    1    5    5    0    0 -0.11794420986E+03  0.40267522883E+03 -0.59125106471E+03  0.72500758484E+03  0.00000000000E+00 0.  1.
          5    1    4    4  502    0 -0.32041634194E+02 -0.36743748602E+01  0.19240235939E+02  0.37847642349E+02  0.47000000000E+01 0. -1.
         -5    1    4    4    0  502 -0.65825063931E+02 -0.89921546014E+02 -0.16621577857E+03  0.20017142285E+03  0.47000000000E+01 0. -1.
<mgrwt>
<rscale>  0 0.10003638E+04</rscale>
<asrwt>0</asrwt>
<pdfrwt beam="1">  1        2 0.19578184E+00 0.10003638E+04</pdfrwt>
<pdfrwt beam="2">  1       -2 0.30245228E-01 0.10003638E+04</pdfrwt>
<totfact> 0.20829131E+02</totfact>
</mgrwt>
</event>
<event>
 9    1  0.4412976E-036  0.1001879E+04  0.7818608E-02  0.8679251E-01
          2   -1    0    0  501    0  0.00000000000E+00  0.00000000000E+00  0.24874370493E+04  0.24874370493E+04  0.00000000000E+00 0.  1.
         -2   -1    0    0    0  501 -0.00000000000E+00 -0.00000000000E+00 -0.10088313001E+03  0.10088313001E+03  0.00000000000E+00 0.  1.
         36    2    1    2    0    0  0.00000000000E+00 -0.71054273576E-14  0.23865539193E+04  0.25883201793E+04  0.10018791049E+04 0.  0.
         25    2    3    3    0    0  0.11452230877E+03 -0.14966518062E+02  0.66355772607E+03  0.68506483569E+03  0.12516236417E+03 0.  0.
         35    2    3    3    0    0 -0.11452230877E+03  0.14966518062E+02  0.17229961932E+04  0.19032553436E+04  0.80020351490E+03 0.  0.
         22    1    5    5    0    0  0.85780644783E+02 -0.28633661777E+02 -0.59991093852E+02  0.10852251816E+03  0.00000000000E+00 0. -1.
         22    1    5    5    0    0 -0.20030295356E+03  0.43600179840E+02  0.17829872870E+04  0.17947328254E+04  0.00000000000E+00 0. -1.
          5    1    4    4  502    0  0.86258710900E+02  0.41766899871E+02  0.50871676803E+03  0.51768704755E+03  0.47000000000E+01 0.  1.
         -5    1    4    4    0  502  0.28263597875E+02 -0.56733417934E+02  0.15484095804E+03  0.16737778814E+03  0.47000000000E+01 0.  1.
<mgrwt>
<rscale>  0 0.10018791E+04</rscale>
<asrwt>0</asrwt>
<pdfrwt beam="1">  1        2 0.38268258E+00 0.10018791E+04</pdfrwt>
<pdfrwt beam="2">  1       -2 0.15520483E-01 0.10018791E+04</pdfrwt>
<totfact> 0.13383126E+02</totfact>
</mgrwt>
</event>
<event>
 9    1  0.4412976E-036  0.1000162E+04  0.7818608E-02  0.8680883E-01
          3   -1    0    0  501    0  0.00000000000E+00  0.00000000000E+00  0.48437670251E+03  0.48437670251E+03  0.00000000000E+00 0.  1.
         -3   -1    0    0    0  501 -0.00000000000E+00 -0.00000000000E+00 -0.51629474277E+03  0.51629474277E+03  0.00000000000E+00 0.  1.
         36    2    1    2    0    0 -0.71054273576E-14  0.00000000000E+00 -0.31918040255E+02  0.10006714453E+04  0.10001622769E+04 0.  0.
         25    2    3    3    0    0  0.24804971933E+02  0.13765734664E+03 -0.55752424136E+01  0.18802636464E+03  0.12553086774E+03 0.  0.
         35    2    3    3    0    0 -0.24804971933E+02 -0.13765734664E+03 -0.26342797842E+02  0.81264508064E+03  0.80008327840E+03 0.  0.
         22    1    5    5    0    0  0.20987623423E+03  0.13860427845E+03  0.25168354397E+03  0.35581425773E+03  0.00000000000E+00 0. -1.
         22    1    5    5    0    0 -0.23468120616E+03 -0.27626162509E+03 -0.27802634181E+03  0.45683082291E+03  0.00000000000E+00 0. -1.
          5    1    4    4  502    0 -0.45036539792E+02  0.84560415429E+02  0.16756506397E+02  0.97373632369E+02  0.47000000000E+01 0. -1.
         -5    1    4    4    0  502  0.69841511725E+02  0.53096931211E+02 -0.22331748810E+02  0.90652732276E+02  0.47000000000E+01 0. -1.
<mgrwt>
<rscale>  0 0.10001623E+04</rscale>
<asrwt>0</asrwt>
<pdfrwt beam="1">  1        3 0.74519493E-01 0.10001623E+04</pdfrwt>
<pdfrwt beam="2">  1       -3 0.79429960E-01 0.10001623E+04</pdfrwt>
<totfact> 0.99324088E+00</totfact>
</mgrwt>
</event>
<event>
 9    1  0.4412976E-036  0.9993483E+03  0.7818608E-02  0.8681659E-01
          1   -1    0    0  501    0  0.00000000000E+00  0.00000000000E+00  0.32757146962E+03  0.32757146962E+03  0.00000000000E+00 0.  1.
         -1   -1    0    0    0  501 -0.00000000000E+00 -0.00000000000E+00 -0.76219780271E+03  0.76219780271E+03  0.00000000000E+00 0.  1.
         36    2    1    2    0    0  0.00000000000E+00 -0.28421709430E-13 -0.43462633309E+03  0.10897692723E+04  0.99934829639E+03 0.  0.
         25    2    3    3    0    0 -0.13173388400E+02  0.99163031265E+02  0.26786430190E+02  0.16218238195E+03  0.12481493197E+03 0.  0.
         35    2    3    3    0    0  0.13173388400E+02 -0.99163031265E+02 -0.46141276328E+03  0.92758689038E+03  0.79844151705E+03 0.  0.
         22    1    5    5    0    0  0.18046748163E+03 -0.35547990903E+03 -0.47632331597E+03  0.62114280080E+03  0.00000000000E+00 0.  1.
         22    1    5    5    0    0 -0.16729409323E+03  0.25631687776E+03  0.14910552690E+02  0.30644408958E+03  0.00000000000E+00 0.  1.
          5    1    4    4  502    0  0.49959660266E+02  0.39041166478E+02  0.38138419856E+02  0.74140470749E+02  0.47000000000E+01 0.  1.
         -5    1    4    4    0  502 -0.63133048666E+02  0.60121864787E+02 -0.11351989665E+02  0.88041911205E+02  0.47000000000E+01 0.  1.
<mgrwt>
<rscale>  0 0.99934830E+03</rscale>
<asrwt>0</asrwt>
<pdfrwt beam="1">  1        1 0.50395612E-01 0.99934830E+03</pdfrwt>
<pdfrwt beam="2">  1       -1 0.11726120E+00 0.99934830E+03</pdfrwt>
<totfact> 0.61547982E+01</totfact>
</mgrwt>
</event>
<event>
 9    1  0.4412976E-036  0.9997616E+03  0.7818608E-02  0.8681265E-01
          1   -1    0    0  501    0  0.00000000000E+00  0.00000000000E+00  0.15171587438E+04  0.15171587438E+04  0.00000000000E+00 0.  1.
         -1   -1    0    0    0  501 -0.00000000000E+00 -0.00000000000E+00 -0.16470314328E+03  0.16470314328E+03  0.00000000000E+00 0.  1.
         36    2    1    2    0    0  0.28421709430E-13  0.14210854715E-13  0.13524556005E+04  0.16818618870E+04  0.99976159948E+03 0.  0.
         25    2    3    3    0    0  0.12743120366E+03 -0.38326517591E+02  0.16647579130E+03  0.24557096660E+03  0.12199703657E+03 0.  0.
         35    2    3    3    0    0 -0.12743120366E+03  0.38326517591E+02  0.11859798092E+04  0.14362909204E+04  0.79917198820E+03 0.  0.
         22    1    5    5    0    0  0.29162141117E+03  0.18168012815E+03  0.35131466493E+03  0.49139872834E+03  0.00000000000E+00 0.  1.
         22    1    5    5    0    0 -0.41905261483E+03 -0.14335361056E+03  0.83466514425E+03  0.94489219210E+03  0.00000000000E+00 0.  1.
          5    1    4    4  502    0  0.31266168664E+02  0.32122408222E+02  0.57953437522E+01  0.45443353993E+02  0.47000000000E+01 0.  1.
         -5    1    4    4    0  502  0.96165034998E+02 -0.70448925813E+02  0.16068044755E+03  0.20012761261E+03  0.47000000000E+01 0.  1.
<mgrwt>
<rscale>  0 0.99976160E+03</rscale>
<asrwt>0</asrwt>
<pdfrwt beam="1">  1        1 0.23340903E+00 0.99976160E+03</pdfrwt>
<pdfrwt beam="2">  1       -1 0.25338946E-01 0.99976160E+03</pdfrwt>
<totfact> 0.93942653E+01</totfact>
</mgrwt>
</event>
<event>
 9    1  0.4412976E-036  0.9998449E+03  0.7818608E-02  0.8681186E-01
          1   -1    0    0  501    0  0.00000000000E+00  0.00000000000E+00  0.23177984760E+04  0.23177984760E+04  0.00000000000E+00 0.  1.
         -1   -1    0    0    0  501 -0.00000000000E+00 -0.00000000000E+00 -0.10782750781E+03  0.10782750781E+03  0.00000000000E+00 0.  1.
         36    2    1    2    0    0 -0.56843418861E-13 -0.71054273576E-14  0.22099709681E+04  0.24256259838E+04  0.99984485450E+03 0.  0.
         25    2    3    3    0    0 -0.12386071201E+03 -0.45544565920E+01  0.57828035600E+03  0.60423611867E+03  0.12381800318E+03 0.  0.
         35    2    3    3    0    0  0.12386071201E+03  0.45544565920E+01  0.16316906121E+04  0.18213898651E+04  0.79980283062E+03 0.  0.
         22    1    5    5    0    0  0.34616291464E+03 -0.15004817158E+03  0.14426110269E+04  0.14911303739E+04  0.00000000000E+00 0. -1.
         22    1    5    5    0    0 -0.22230220263E+03  0.15460262817E+03  0.18907958530E+03  0.33025949117E+03  0.00000000000E+00 0. -1.
          5    1    4    4  502    0 -0.91756311677E+02 -0.30988514345E+02  0.53616656236E+03  0.54486345202E+03  0.47000000000E+01 0. -1.
         -5    1    4    4    0  502 -0.32104400332E+02  0.26434057753E+02  0.42113793636E+02  0.59372666644E+02  0.47000000000E+01 0. -1.
<mgrwt>
<rscale>  0 0.99984485E+03</rscale>
<asrwt>0</asrwt>
<pdfrwt beam="1">  1        1 0.35658434E+00 0.99984485E+03</pdfrwt>
<pdfrwt beam="2">  1       -1 0.16588849E-01 0.99984485E+03</pdfrwt>
<totfact> 0.51788718E+01</totfact>
</mgrwt>
</event>
<event>
 9    1  0.4412976E-036  0.1001266E+04  0.7818608E-02  0.8679834E-01
         -1   -1    0    0    0  501 -0.00000000000E+00  0.00000000000E+00  0.12333424231E+03  0.12333424231E+03  0.00000000000E+00 0. -1.
          1   -1    0    0  501    0  0.00000000000E+00 -0.00000000000E+00 -0.20321460735E+04  0.20321460735E+04  0.00000000000E+00 0. -1.
         36    2    1    2    0    0  0.00000000000E+00  0.42632564146E-13 -0.19088118312E+04  0.21554803158E+04  0.10012655916E+04 0.  0.
         25    2    3    3    0    0  0.58882735728E+02  0.12345617704E+03 -0.28228231062E+03  0.33759448931E+03  0.12481238765E+03 0.  0.
         35    2    3    3    0    0 -0.58882735728E+02 -0.12345617704E+03 -0.16265295206E+04  0.18178858265E+04  0.80025120598E+03 0.  0.
         22    1    5    5    0    0 -0.11422475091E+03  0.32826961915E+03 -0.84185598770E+03  0.91078523297E+03  0.00000000000E+00 0. -1.
         22    1    5    5    0    0  0.55342015181E+02 -0.45172579619E+03 -0.78467353292E+03  0.90710059357E+03  0.00000000000E+00 0. -1.
          5    1    4    4  502    0  0.13489195293E+02  0.25362206354E+02  0.59640259254E+01  0.29712951823E+02  0.47000000000E+01 0. -1.
         -5    1    4    4    0  502  0.45393540435E+02  0.98093970685E+02 -0.28824633654E+03  0.30788153749E+03  0.47000000000E+01 0. -1.
<mgrwt>
<rscale>  0 0.10012656E+04</rscale>
<asrwt>0</asrwt>
<pdfrwt beam="1">  1        1 0.31263788E+00 0.10012656E+04</pdfrwt>
<pdfrwt beam="2">  1       -1 0.18974498E-01 0.10012656E+04</pdfrwt>
<totfact> 0.65952794E+01</totfact>
</mgrwt>
</event>
<event>
 9    1  0.4412976E-036  0.1000038E+04  0.7818608E-02  0.8681001E-01
         -1   -1    0    0    0  501 -0.00000000000E+00  0.00000000000E+00  0.75119095578E+03  0.75119095578E+03  0.00000000000E+00 0. -1.
          1   -1    0    0  501    0  0.00000000000E+00 -0.00000000000E+00 -0.33283037088E+03  0.33283037088E+03  0.00000000000E+00 0. -1.
         36    2    1    2    0    0  0.14210854715E-13 -0.71054273576E-14  0.41836058490E+03  0.10840213267E+04  0.10000383281E+04 0.  0.
         25    2    3    3    0    0  0.11221058781E+03 -0.20030268375E+02  0.16931654962E+03  0.23922818113E+03  0.12477820726E+03 0.  0.
         35    2    3    3    0    0 -0.11221058781E+03  0.20030268375E+02  0.24904403528E+03  0.84479314553E+03  0.79916212345E+03 0.  0.
         22    1    5    5    0    0 -0.23768642547E+03  0.31714067793E+03 -0.56730970618E+02  0.40036414609E+03  0.00000000000E+00 0. -1.
         22    1    5    5    0    0  0.12547583766E+03 -0.29711040955E+03  0.30577500590E+03  0.44442899943E+03  0.00000000000E+00 0. -1.
          5    1    4    4  502    0  0.63560631562E+02  0.49701246693E+02  0.60002149934E+02  0.10066039839E+03  0.47000000000E+01 0. -1.
         -5    1    4    4    0  502  0.48649956245E+02 -0.69731515068E+02  0.10931439968E+03  0.13856778274E+03  0.47000000000E+01 0. -1.
<mgrwt>
<rscale>  0 0.10000383E+04</rscale>
<asrwt>0</asrwt>
<pdfrwt beam="1">  1        1 0.51204673E-01 0.10000383E+04</pdfrwt>
<pdfrwt beam="2">  1       -1 0.11556784E+00 0.10000383E+04</pdfrwt>
<totfact> 0.62438198E+01</totfact>
</mgrwt>
</event>
<event>
 9    1  0.4412976E-036  0.1000211E+04  0.7818608E-02  0.8680837E-01
          2   -1    0    0  501    0  0.00000000000E+00  0.00000000000E+00  0.18180716511E+04  0.18180716511E+04  0.00000000000E+00 0. -1.
         -2   -1    0    0    0  501 -0.00000000000E+00 -0.00000000000E+00 -0.13756643839E+03  0.13756643839E+03  0.00000000000E+00 0. -1.
         36    2    1    2    0    0  0.00000000000E+00 -0.71054273576E-14  0.16805052127E+04  0.19556380895E+04  0.10002112613E+04 0.  0.
         25    2    3    3    0    0  0.84441598247E+02 -0.60299303618E+02  0.49939112018E+03  0.52523708888E+03  0.12536394651E+03 0.  0.
         35    2    3    3    0    0 -0.84441598247E+02  0.60299303618E+02  0.11811140926E+04  0.14304010006E+04  0.80015631816E+03 0.  0.
         22    1    5    5    0    0 -0.39333852296E+02  0.50060527288E+02  0.13006606477E+04  0.13022178499E+04  0.00000000000E+00 0. -1.
         22    1    5    5    0    0 -0.45107745951E+02  0.10238776330E+02 -0.11954655511E+03  0.12818315070E+03  0.00000000000E+00 0. -1.
          5    1    4    4  502    0  0.73961966033E+02 -0.65712552379E+02  0.17885654673E+03  0.20445113418E+03  0.47000000000E+01 0.  1.
         -5    1    4    4    0  502  0.10479632214E+02  0.54132487601E+01  0.32053457345E+03  0.32078595470E+03  0.47000000000E+01 0.  1.
<mgrwt>
<rscale>  0 0.10002113E+04</rscale>
<asrwt>0</asrwt>
<pdfrwt beam="1">  1        2 0.27970331E+00 0.10002113E+04</pdfrwt>
<pdfrwt beam="2">  1       -2 0.21164069E-01 0.10002113E+04</pdfrwt>
<totfact> 0.19267594E+02</totfact>
</mgrwt>
</event>
<event>
 9    1  0.4412976E-036  0.9996533E+03  0.7818608E-02  0.8681368E-01
         -1   -1    0    0    0  501 -0.00000000000E+00  0.00000000000E+00  0.49197881960E+03  0.49197881960E+03  0.00000000000E+00 0. -1.
          1   -1    0    0  501    0  0.00000000000E+00 -0.00000000000E+00 -0.50779970718E+03  0.50779970718E+03  0.00000000000E+00 0. -1.
         36    2    1    2    0    0  0.00000000000E+00  0.14210854715E-13 -0.15820887577E+02  0.99977852678E+03  0.99965334098E+03 0.  0.
         25    2    3    3    0    0  0.77463544487E+02 -0.92946324187E+02 -0.59366822634E+02  0.18674310223E+03  0.12926309100E+03 0.  0.
         35    2    3    3    0    0 -0.77463544487E+02  0.92946324187E+02  0.43545935058E+02  0.81303542456E+03  0.80280180195E+03 0.  0.
         22    1    5    5    0    0  0.35518348508E+03 -0.51433642636E+00 -0.55415732829E+02  0.35948084241E+03  0.00000000000E+00 0.  1.
         22    1    5    5    0    0 -0.43264702957E+03  0.93460660614E+02  0.98961667886E+02  0.45355458215E+03  0.00000000000E+00 0.  1.
          5    1    4    4  502    0 -0.26634629356E+02 -0.53942812269E+02 -0.43420889369E+02  0.74341738680E+02  0.47000000000E+01 0.  1.
         -5    1    4    4    0  502  0.10409817384E+03 -0.39003511918E+02 -0.15945933265E+02  0.11240136355E+03  0.47000000000E+01 0.  1.
<mgrwt>
<rscale>  0 0.99965334E+03</rscale>
<asrwt>0</asrwt>
<pdfrwt beam="1">  1        1 0.78123031E-01 0.99965334E+03</pdfrwt>
<pdfrwt beam="2">  1       -1 0.75689050E-01 0.99965334E+03</pdfrwt>
<totfact> 0.89714243E+01</totfact>
</mgrwt>
</event>
<event>
 9    1  0.4412976E-036  0.9985996E+03  0.7818608E-02  0.8682373E-01
          1   -1    0    0  501    0  0.00000000000E+00  0.00000000000E+00  0.16910520363E+04  0.16910520363E+04  0.00000000000E+00 0.  1.
         -1   -1    0    0    0  501 -0.00000000000E+00 -0.00000000000E+00 -0.14742320526E+03  0.14742320526E+03  0.00000000000E+00 0.  1.
         36    2    1    2    0    0  0.00000000000E+00  0.00000000000E+00  0.15436288310E+04  0.18384752415E+04  0.99859964241E+03 0.  0.
         25    2    3    3    0    0 -0.10928477531E+03  0.72595883406E+02  0.35040575162E+03  0.39435348457E+03  0.12456787556E+03 0.  0.
         35    2    3    3    0    0  0.10928477531E+03 -0.72595883406E+02  0.11932230794E+04  0.14441217570E+04  0.80280321833E+03 0.  0.
         22    1    5    5    0    0 -0.25554028523E+03 -0.25784871453E+02  0.99231067484E+03  0.10250103279E+04  0.00000000000E+00 0. -1.
         22    1    5    5    0    0  0.36482506054E+03 -0.46811011953E+02  0.20091240453E+03  0.41911142902E+03  0.00000000000E+00 0. -1.
          5    1    4    4  502    0 -0.89037472554E+02  0.20293100495E+02  0.31466557568E+03  0.32768276727E+03  0.47000000000E+01 0. -1.
         -5    1    4    4    0  502 -0.20247302759E+02  0.52302782911E+02  0.35740175939E+02  0.66670717301E+02  0.47000000000E+01 0. -1.
<mgrwt>
<rscale>  0 0.99859964E+03</rscale>
<asrwt>0</asrwt>
<pdfrwt beam="1">  1        1 0.26016184E+00 0.99859964E+03</pdfrwt>
<pdfrwt beam="2">  1       -1 0.22680494E-01 0.99859964E+03</pdfrwt>
<totfact> 0.85187457E+01</totfact>
</mgrwt>
</event>
<event>
 9    1  0.4412976E-036  0.9998078E+03  0.7818608E-02  0.8681221E-01
         -1   -1    0    0    0  501 -0.00000000000E+00  0.00000000000E+00  0.47122907259E+03  0.47122907259E+03  0.00000000000E+00 0.  1.
          1   -1    0    0  501    0  0.00000000000E+00 -0.00000000000E+00 -0.53032363923E+03  0.53032363923E+03  0.00000000000E+00 0.  1.
         36    2    1    2    0    0  0.00000000000E+00  0.00000000000E+00 -0.59094566639E+02  0.10015527118E+04  0.99980781490E+03 0.  0.
         25    2    3    3    0    0  0.33102188953E+02  0.96668247129E+02  0.86207385555E+02  0.18248472355E+03  0.12421133639E+03 0.  0.
         35    2    3    3    0    0 -0.33102188953E+02 -0.96668247129E+02 -0.14530195219E+03  0.81906798826E+03  0.79957439127E+03 0.  0.
         22    1    5    5    0    0 -0.33904923106E+03  0.18643045538E+03 -0.10099501766E+03  0.39988834612E+03  0.00000000000E+00 0. -1.
         22    1    5    5    0    0  0.30594704210E+03 -0.28309870251E+03 -0.44306934537E+02  0.41917964214E+03  0.00000000000E+00 0. -1.
          5    1    4    4  502    0  0.33379071838E+02 -0.17583592179E+02  0.49444902582E+02  0.62371736724E+02  0.47000000000E+01 0. -1.
         -5    1    4    4    0  502 -0.27688288502E+00  0.11425183931E+03  0.36762482973E+02  0.12011298682E+03  0.47000000000E+01 0. -1.
<mgrwt>
<rscale>  0 0.99980781E+03</rscale>
<asrwt>0</asrwt>
<pdfrwt beam="1">  1        1 0.81588252E-01 0.99980781E+03</pdfrwt>
<pdfrwt beam="2">  1       -1 0.72496781E-01 0.99980781E+03</pdfrwt>
<totfact> 0.92107324E+01</totfact>
</mgrwt>
</event>
<event>
 9    1  0.4412976E-036  0.9988930E+03  0.7818608E-02  0.8682093E-01
          1   -1    0    0  501    0  0.00000000000E+00  0.00000000000E+00  0.61056333904E+03  0.61056333904E+03  0.00000000000E+00 0. -1.
         -1   -1    0    0    0  501 -0.00000000000E+00 -0.00000000000E+00 -0.40855192708E+03  0.40855192708E+03  0.00000000000E+00 0. -1.
         36    2    1    2    0    0  0.00000000000E+00  0.00000000000E+00  0.20201141196E+03  0.10191152661E+04  0.99889304487E+03 0.  0.
         25    2    3    3    0    0 -0.99349413277E+02 -0.81511848998E+02  0.92972808546E+02  0.20221561685E+03  0.12543016034E+03 0.  0.
         35    2    3    3    0    0  0.99349413277E+02  0.81511848998E+02  0.10903860342E+03  0.81689964927E+03  0.79932542341E+03 0.  0.
         22    1    5    5    0    0  0.40370861011E+03 -0.14603337644E+03  0.47394553315E+02  0.43191739094E+03  0.00000000000E+00 0. -1.
         22    1    5    5    0    0 -0.30435919683E+03  0.22754522544E+03  0.61644050102E+02  0.38498225833E+03  0.00000000000E+00 0. -1.
          5    1    4    4  502    0 -0.84506151430E+02  0.52794800351E+01  0.72793364007E+02  0.11175923399E+03  0.47000000000E+01 0. -1.
         -5    1    4    4    0  502 -0.14843261847E+02 -0.86791329033E+02  0.20179444539E+02  0.90456382856E+02  0.47000000000E+01 0. -1.
<mgrwt>
<rscale>  0 0.99889304E+03</rscale>
<asrwt>0</asrwt>
<pdfrwt beam="1">  1        1 0.93932822E-01 0.99889304E+03</pdfrwt>
<pdfrwt beam="2">  1       -1 0.62854142E-01 0.99889304E+03</pdfrwt>
<totfact> 0.99624846E+01</totfact>
</mgrwt>
</event>
<event>
 9    1  0.4412976E-036  0.1003333E+04  0.7818608E-02  0.8677870E-01
          2   -1    0    0  501    0  0.00000000000E+00  0.00000000000E+00  0.57505888734E+03  0.57505888734E+03  0.00000000000E+00 0. -1.
         -2   -1    0    0    0  501 -0.00000000000E+00 -0.00000000000E+00 -0.43764126211E+03  0.43764126211E+03  0.00000000000E+00 0. -1.
         36    2    1    2    0    0  0.35527136788E-14 -0.42632564146E-13  0.13741762523E+03  0.10127001495E+04  0.10033334386E+04 0.  0.
         25    2    3    3    0    0 -0.54794962438E+01 -0.84803174098E+02  0.14578755801E+03  0.20808477618E+03  0.12175244881E+03 0.  0.
         35    2    3    3    0    0  0.54794962438E+01  0.84803174098E+02 -0.83699327841E+01  0.80461537327E+03  0.80007139676E+03 0.  0.
         22    1    5    5    0    0  0.13854887251E+03 -0.30632393728E+03  0.14199976749E+03  0.36495763945E+03  0.00000000000E+00 0.  1.
         22    1    5    5    0    0 -0.13306937626E+03  0.39112711138E+03 -0.15036970027E+03  0.43965773383E+03  0.00000000000E+00 0.  1.
          5    1    4    4  502    0  0.25846603090E+02  0.21314050575E+02  0.15854736351E+02  0.37360384205E+02  0.47000000000E+01 0. -1.
         -5    1    4    4    0  502 -0.31326099334E+02 -0.10611722467E+03  0.12993282166E+03  0.17072439198E+03  0.47000000000E+01 0. -1.
<mgrwt>
<rscale>  0 0.10033334E+04</rscale>
<asrwt>0</asrwt>
<pdfrwt beam="1">  1        2 0.88470598E-01 0.10033334E+04</pdfrwt>
<pdfrwt beam="2">  1       -2 0.67329425E-01 0.10033334E+04</pdfrwt>
<totfact> 0.12778248E+02</totfact>
</mgrwt>
</event>
<event>
 9    1  0.4412976E-036  0.1000683E+04  0.7818608E-02  0.8680388E-01
         -4   -1    0    0    0  501 -0.00000000000E+00  0.00000000000E+00  0.28748030175E+03  0.28748030175E+03  0.00000000000E+00 0.  1.
          4   -1    0    0  501    0  0.00000000000E+00 -0.00000000000E+00 -0.87081280011E+03  0.87081280011E+03  0.00000000000E+00 0.  1.
         36    2    1    2    0    0  0.71054273576E-14  0.42632564146E-13 -0.58333249836E+03  0.11582931019E+04  0.10006828200E+04 0.  0.
         25    2    3    3    0    0  0.37383566506E+02  0.64276084414E+02 -0.24901372449E+03  0.28846467818E+03  0.12520019769E+03 0.  0.
         35    2    3    3    0    0 -0.37383566506E+02 -0.64276084414E+02 -0.33431877387E+03  0.86982842368E+03  0.79956456775E+03 0.  0.
         22    1    5    5    0    0 -0.87983060326E+02 -0.41757216224E+03 -0.86751424426E+02  0.43546910249E+03  0.00000000000E+00 0.  1.
         22    1    5    5    0    0  0.50599493820E+02  0.35329607783E+03 -0.24756734945E+03  0.43435932118E+03  0.00000000000E+00 0.  1.
          5    1    4    4  502    0 -0.45295761088E+02  0.10389862546E+02 -0.74868785635E+02  0.88244434832E+02  0.47000000000E+01 0.  1.
         -5    1    4    4    0  502  0.82679327594E+02  0.53886221868E+02 -0.17414493885E+03  0.20022024335E+03  0.47000000000E+01 0.  1.
<mgrwt>
<rscale>  0 0.10006828E+04</rscale>
<asrwt>0</asrwt>
<pdfrwt beam="1">  1        4 0.13397120E+00 0.10006828E+04</pdfrwt>
<pdfrwt beam="2">  1       -4 0.44227740E-01 0.10006828E+04</pdfrwt>
<totfact> 0.41400724E+00</totfact>
</mgrwt>
</event>
<event>
 9    1  0.4412976E-036  0.9937719E+03  0.7818608E-02  0.8686992E-01
          2   -1    0    0  501    0  0.00000000000E+00  0.00000000000E+00  0.74315533078E+03  0.74315533078E+03  0.00000000000E+00 0. -1.
         -2   -1    0    0    0  501 -0.00000000000E+00 -0.00000000000E+00 -0.33222615049E+03  0.33222615049E+03  0.00000000000E+00 0. -1.
         36    2    1    2    0    0  0.00000000000E+00  0.00000000000E+00  0.41092918029E+03  0.10753814813E+04  0.99377187476E+03 0.  0.
         25    2    3    3    0    0  0.54917066551E+02  0.12349805929E+03  0.80255145122E+02  0.20091312600E+03  0.12513009644E+03 0.  0.
         35    2    3    3    0    0 -0.54917066551E+02 -0.12349805929E+03  0.33067403517E+03  0.87446835527E+03  0.79817412386E+03 0.  0.
         22    1    5    5    0    0 -0.22824042774E+03 -0.29663654640E+03  0.46353251101E+03  0.59577623508E+03  0.00000000000E+00 0.  1.
         22    1    5    5    0    0  0.17332336118E+03  0.17313848712E+03 -0.13285847585E+03  0.27869212020E+03  0.00000000000E+00 0.  1.
          5    1    4    4  502    0  0.69037459013E+02  0.16333589177E+02  0.97240133405E+01  0.71760736603E+02  0.47000000000E+01 0.  1.
         -5    1    4    4    0  502 -0.14120392462E+02  0.10716447011E+03  0.70531131782E+02  0.12915238940E+03  0.47000000000E+01 0.  1.
<mgrwt>
<rscale>  0 0.99377187E+03</rscale>
<asrwt>0</asrwt>
<pdfrwt beam="1">  1        2 0.11433159E+00 0.99377187E+03</pdfrwt>
<pdfrwt beam="2">  1       -2 0.51111715E-01 0.99377187E+03</pdfrwt>
<totfact> 0.16611118E+02</totfact>
</mgrwt>
</event>
<event>
 9    1  0.4412976E-036  0.1000998E+04  0.7818608E-02  0.8680088E-01
          2   -1    0    0  501    0  0.00000000000E+00  0.00000000000E+00  0.86214271197E+03  0.86214271197E+03  0.00000000000E+00 0.  1.
         -2   -1    0    0    0  501 -0.00000000000E+00 -0.00000000000E+00 -0.29055409435E+03  0.29055409435E+03  0.00000000000E+00 0.  1.
         36    2    1    2    0    0  0.00000000000E+00 -0.28421709430E-13  0.57158861762E+03  0.11526968063E+04  0.10009976920E+04 0.  0.
         25    2    3    3    0    0 -0.64415305685E+02 -0.75650599674E+02  0.22456849972E+03  0.27554707950E+03  0.12499134817E+03 0.  0.
         35    2    3    3    0    0  0.64415305685E+02  0.75650599674E+02  0.34702011790E+03  0.87714972681E+03  0.79943501061E+03 0.  0.
         22    1    5    5    0    0  0.11256102068E+03  0.29979991385E+03  0.50553261910E+03  0.59842560164E+03  0.00000000000E+00 0.  1.
         22    1    5    5    0    0 -0.48145714998E+02 -0.22414931417E+03 -0.15851250120E+03  0.27872412517E+03  0.00000000000E+00 0.  1.
          5    1    4    4  502    0  0.32231600452E+02  0.54567866001E+01  0.54669317387E+02  0.63870782453E+02  0.47000000000E+01 0. -1.
         -5    1    4    4    0  502 -0.96646906137E+02 -0.81107386274E+02  0.16989918233E+03  0.21167629705E+03  0.47000000000E+01 0. -1.
<mgrwt>
<rscale>  0 0.10009977E+04</rscale>
<asrwt>0</asrwt>
<pdfrwt beam="1">  1        2 0.13263734E+00 0.10009977E+04</pdfrwt>
<pdfrwt beam="2">  1       -2 0.44700630E-01 0.10009977E+04</pdfrwt>
<totfact> 0.17877702E+02</totfact>
</mgrwt>
</event>
<event>
 9    1  0.4412976E-036  0.1000862E+04  0.7818608E-02  0.8680217E-01
         -2   -1    0    0    0  501 -0.00000000000E+00  0.00000000000E+00  0.96604420211E+03  0.96604420211E+03  0.00000000000E+00 0. -1.
          2   -1    0    0  501    0  0.00000000000E+00 -0.00000000000E+00 -0.25923375652E+03  0.25923375652E+03  0.00000000000E+00 0. -1.
         36    2    1    2    0    0 -0.14210854715E-13 -0.14210854715E-13  0.70681044559E+03  0.12252779586E+04  0.10008621633E+04 0.  0.
         25    2    3    3    0    0  0.39690781325E+02  0.12533295854E+03  0.91784520694E+02  0.20303893619E+03  0.12456605779E+03 0.  0.
         35    2    3    3    0    0 -0.39690781325E+02 -0.12533295854E+03  0.61502592490E+03  0.10222390224E+04  0.80587345289E+03 0.  0.
         22    1    5    5    0    0  0.15775466111E+03  0.14295842463E+02  0.73528893232E+03  0.75215737596E+03  0.00000000000E+00 0. -1.
         22    1    5    5    0    0 -0.19744544244E+03 -0.13962880100E+03 -0.12026300743E+03  0.27008164648E+03  0.00000000000E+00 0. -1.
          5    1    4    4  502    0  0.65490408350E+02  0.21642074980E+02  0.13361925151E+02  0.70413095650E+02  0.47000000000E+01 0.  1.
         -5    1    4    4    0  502 -0.25799627025E+02  0.10369088356E+03  0.78422595543E+02  0.13262584054E+03  0.47000000000E+01 0.  1.
<mgrwt>
<rscale>  0 0.10008622E+04</rscale>
<asrwt>0</asrwt>
<pdfrwt beam="1">  1        2 0.39882117E-01 0.10008622E+04</pdfrwt>
<pdfrwt beam="2">  1       -2 0.14862218E+00 0.10008622E+04</pdfrwt>
<totfact> 0.44986600E+01</totfact>
</mgrwt>
</event>
<event>
 9    1  0.4412976E-036  0.9989800E+03  0.7818608E-02  0.8682010E-01
          2   -1    0    0  501    0  0.00000000000E+00  0.00000000000E+00  0.42339309337E+03  0.42339309337E+03  0.00000000000E+00 0.  1.
         -2   -1    0    0    0  501 -0.00000000000E+00 -0.00000000000E+00 -0.58926392441E+03  0.58926392441E+03  0.00000000000E+00 0.  1.
         36    2    1    2    0    0 -0.14210854715E-13  0.14210854715E-13 -0.16587083104E+03  0.10126570178E+04  0.99898003138E+03 0.  0.
         25    2    3    3    0    0  0.99661050061E+02  0.68661493884E+02  0.54952442984E+02  0.18233479226E+03  0.12481778654E+03 0.  0.
         35    2    3    3    0    0 -0.99661050061E+02 -0.68661493884E+02 -0.22082327402E+03  0.83032222553E+03  0.79121764023E+03 0.  0.
         22    1    5    5    0    0 -0.19573477793E+03  0.17899836732E+03  0.20032901737E+03  0.33239168761E+03  0.00000000000E+00 0.  1.
         22    1    5    5    0    0  0.96073727870E+02 -0.24765986120E+03 -0.42115229140E+03  0.49793053791E+03  0.00000000000E+00 0.  1.
          5    1    4    4  502    0  0.86664420050E+02  0.86502155296E+02 -0.42209757405E+00  0.12253820931E+03  0.47000000000E+01 0.  1.
         -5    1    4    4    0  502  0.12996630011E+02 -0.17840661412E+02  0.55374540558E+02  0.59796582956E+02  0.47000000000E+01 0.  1.
<mgrwt>
<rscale>  0 0.99898003E+03</rscale>
<asrwt>0</asrwt>
<pdfrwt beam="1">  1        2 0.65137399E-01 0.99898003E+03</pdfrwt>
<pdfrwt beam="2">  1       -2 0.90655989E-01 0.99898003E+03</pdfrwt>
<totfact> 0.92572991E+01</totfact>
</mgrwt>
</event>
<event>
 9    1  0.4412976E-036  0.1000730E+04  0.7818608E-02  0.8680343E-01
          1   -1    0    0  501    0  0.00000000000E+00  0.00000000000E+00  0.32049731817E+04  0.32049731817E+04  0.00000000000E+00 0. -1.
         -1   -1    0    0    0  501 -0.00000000000E+00 -0.00000000000E+00 -0.78117722454E+02  0.78117722454E+02  0.00000000000E+00 0. -1.
         36    2    1    2    0    0  0.00000000000E+00 -0.35527136788E-13  0.31268554593E+04  0.32830909042E+04  0.10007301444E+04 0.  0.
         25    2    3    3    0    0 -0.12721834783E+03 -0.40287029871E+02  0.44630717010E+03  0.48234361958E+03  0.12513082941E+03 0.  0.
         35    2    3    3    0    0  0.12721834783E+03  0.40287029871E+02  0.26805482892E+04  0.28007472846E+04  0.80064890483E+03 0.  0.
         22    1    5    5    0    0 -0.20184122659E+03  0.31127080718E+03  0.98831287434E+03  0.10556475424E+04  0.00000000000E+00 0.  1.
         22    1    5    5    0    0  0.32905957441E+03 -0.27098377731E+03  0.16922354148E+04  0.17450997422E+04  0.00000000000E+00 0.  1.
          5    1    4    4  502    0 -0.37426689172E+02  0.45938092366E+01  0.17351199037E+02  0.41773367757E+02  0.47000000000E+01 0. -1.
         -5    1    4    4    0  502 -0.89791658653E+02 -0.44880839107E+02  0.42895597106E+03  0.44057025182E+03  0.47000000000E+01 0. -1.
<mgrwt>
<rscale>  0 0.10007301E+04</rscale>
<asrwt>0</asrwt>
<pdfrwt beam="1">  1        1 0.49307270E+00 0.10007301E+04</pdfrwt>
<pdfrwt beam="2">  1       -1 0.12018114E-01 0.10007301E+04</pdfrwt>
<totfact> 0.20233641E+01</totfact>
</mgrwt>
</event>
<event>
 9    1  0.4412976E-036  0.9996852E+03  0.7818608E-02  0.8681338E-01
          2   -1    0    0  501    0  0.00000000000E+00  0.00000000000E+00  0.18789449078E+04  0.18789449078E+04  0.00000000000E+00 0. -1.
         -2   -1    0    0    0  501 -0.00000000000E+00 -0.00000000000E+00 -0.13296963726E+03  0.13296963726E+03  0.00000000000E+00 0. -1.
         36    2    1    2    0    0  0.00000000000E+00 -0.28421709430E-13  0.17459752706E+04  0.20119145451E+04  0.99968519610E+03 0.  0.
         25    2    3    3    0    0  0.77742374320E+02  0.71898669170E+02  0.50856670488E+03  0.53429800469E+03  0.12498387541E+03 0.  0.
         35    2    3    3    0    0 -0.77742374320E+02 -0.71898669170E+02  0.12374085657E+04  0.14776165404E+04  0.80059814303E+03 0.  0.
         22    1    5    5    0    0 -0.20647823657E+03 -0.32266551428E+03  0.26660259056E+03  0.46671537105E+03  0.00000000000E+00 0. -1.
         22    1    5    5    0    0  0.12873586225E+03  0.25076684511E+03  0.97080597514E+03  0.10109011694E+04  0.00000000000E+00 0. -1.
          5    1    4    4  502    0  0.10747237431E+03  0.59023337256E+02  0.31634722410E+03  0.33931065674E+03  0.47000000000E+01 0. -1.
         -5    1    4    4    0  502 -0.29729999989E+02  0.12875331914E+02  0.19221948078E+03  0.19498734795E+03  0.47000000000E+01 0. -1.
<mgrwt>
<rscale>  0 0.99968520E+03</rscale>
<asrwt>0</asrwt>
<pdfrwt beam="1">  1        2 0.28906843E+00 0.99968520E+03</pdfrwt>
<pdfrwt beam="2">  1       -2 0.20456869E-01 0.99968520E+03</pdfrwt>
<totfact> 0.18883685E+02</totfact>
</mgrwt>
</event>
<event>
 9    1  0.4412976E-036  0.1000404E+04  0.7818608E-02  0.8680654E-01
          1   -1    0    0  501    0  0.00000000000E+00  0.00000000000E+00  0.29086970210E+04  0.29086970210E+04  0.00000000000E+00 0. -1.
         -1   -1    0    0    0  501 -0.00000000000E+00 -0.00000000000E+00 -0.86018521221E+02  0.86018521221E+02  0.00000000000E+00 0. -1.
         36    2    1    2    0    0  0.00000000000E+00  0.00000000000E+00  0.28226784998E+04  0.29947155422E+04  0.10004035514E+04 0.  0.
         25    2    3    3    0    0 -0.11640185714E+03  0.60860461593E+02  0.66230011469E+03  0.68663971564E+03  0.12481694214E+03 0.  0.
         35    2    3    3    0    0  0.11640185714E+03 -0.60860461593E+02  0.21603783851E+04  0.23080758266E+04  0.80170185627E+03 0.  0.
         22    1    5    5    0    0 -0.14050590858E+03  0.21575297531E+03  0.24350235425E+03  0.35437925056E+03  0.00000000000E+00 0. -1.
         22    1    5    5    0    0  0.25690776571E+03 -0.27661343690E+03  0.19168760308E+04  0.19536965760E+04  0.00000000000E+00 0. -1.
          5    1    4    4  502    0 -0.11805342678E+03  0.38116187159E+02  0.31529983254E+03  0.33885915909E+03  0.47000000000E+01 0.  1.
         -5    1    4    4    0  502  0.16515696492E+01  0.22744274435E+02  0.34700028215E+03  0.34778055655E+03  0.47000000000E+01 0.  1.
<mgrwt>
<rscale>  0 0.10004036E+04</rscale>
<asrwt>0</asrwt>
<pdfrwt beam="1">  1        1 0.44749177E+00 0.10004036E+04</pdfrwt>
<pdfrwt beam="2">  1       -1 0.13233621E-01 0.10004036E+04</pdfrwt>
<totfact> 0.28518827E+01</totfact>
</mgrwt>
</event>
<event>
 9    1  0.4412976E-036  0.1000277E+04  0.7818608E-02  0.8680774E-01
         -1   -1    0    0    0  501 -0.00000000000E+00  0.00000000000E+00  0.18664400021E+03  0.18664400021E+03  0.00000000000E+00 0. -1.
          1   -1    0    0  501    0  0.00000000000E+00 -0.00000000000E+00 -0.13401917936E+04  0.13401917936E+04  0.00000000000E+00 0. -1.
         36    2    1    2    0    0 -0.28421709430E-13 -0.14210854715E-13 -0.11535477934E+04  0.15268357938E+04  0.10002774763E+04 0.  0.
         25    2    3    3    0    0 -0.36256538250E+02 -0.64451636441E+02 -0.40804657182E+03  0.43313293961E+03  0.12503434968E+03 0.  0.
         35    2    3    3    0    0  0.36256538250E+02  0.64451636441E+02 -0.74550122159E+03  0.10937028542E+04  0.79683455743E+03 0.  0.
         22    1    5    5    0    0  0.39598757092E+03 -0.89202883018E+02 -0.42824698892E+03  0.59004982348E+03  0.00000000000E+00 0. -1.
         22    1    5    5    0    0 -0.35973103267E+03  0.15365451946E+03 -0.31725423267E+03  0.50365303073E+03  0.00000000000E+00 0. -1.
          5    1    4    4  502    0  0.44921810582E+02 -0.10339630228E+02 -0.10595162369E+03  0.11564044959E+03  0.47000000000E+01 0.  1.
         -5    1    4    4    0  502 -0.81178348832E+02 -0.54112006214E+02 -0.30209494813E+03  0.31749249002E+03  0.47000000000E+01 0.  1.
<mgrwt>
<rscale>  0 0.10002775E+04</rscale>
<asrwt>0</asrwt>
<pdfrwt beam="1">  1        1 0.20618336E+00 0.10002775E+04</pdfrwt>
<pdfrwt beam="2">  1       -1 0.28714461E-01 0.10002775E+04</pdfrwt>
<totfact> 0.10183264E+02</totfact>
</mgrwt>
</event>
<event>
 9    1  0.4412976E-036  0.9999580E+03  0.7818608E-02  0.8681078E-01
         -1   -1    0    0    0  501 -0.00000000000E+00  0.00000000000E+00  0.12766066371E+03  0.12766066371E+03  0.00000000000E+00 0.  1.
          1   -1    0    0  501    0  0.00000000000E+00 -0.00000000000E+00 -0.19581520991E+04  0.19581520991E+04  0.00000000000E+00 0.  1.
         36    2    1    2    0    0 -0.21316282073E-13  0.00000000000E+00 -0.18304914353E+04  0.20858127628E+04  0.99995799233E+03 0.  0.
         25    2    3    3    0    0  0.51821856969E+02  0.27147618267E+02 -0.76454411100E+02  0.15706104617E+03  0.12409833685E+03 0.  0.
         35    2    3    3    0    0 -0.51821856969E+02 -0.27147618267E+02 -0.17540370242E+04  0.19287517166E+04  0.80000925232E+03 0.  0.
         22    1    5    5    0    0 -0.41890327966E+03  0.44941500769E+02 -0.10527904313E+04  0.11339609290E+04  0.00000000000E+00 0. -1.
         22    1    5    5    0    0  0.36708142269E+03 -0.72089119036E+02 -0.70124659295E+03  0.79479078762E+03  0.00000000000E+00 0. -1.
          5    1    4    4  502    0  0.82650988316E+01  0.88103627092E+01 -0.10221384552E+03  0.10303249277E+03  0.47000000000E+01 0.  1.
         -5    1    4    4    0  502  0.43556758137E+02  0.18337255558E+02  0.25759434421E+02  0.54028553400E+02  0.47000000000E+01 0.  1.
<mgrwt>
<rscale>  0 0.99995799E+03</rscale>
<asrwt>0</asrwt>
<pdfrwt beam="1">  1        1 0.30125417E+00 0.99995799E+03</pdfrwt>
<pdfrwt beam="2">  1       -1 0.19640102E-01 0.99995799E+03</pdfrwt>
<totfact> 0.70219223E+01</totfact>
</mgrwt>
</event>
<event>
 9    1  0.4412976E-036  0.1000718E+04  0.7818608E-02  0.8680354E-01
         -2   -1    0    0    0  501 -0.00000000000E+00  0.00000000000E+00  0.96599636745E+02  0.96599636745E+02  0.00000000000E+00 0. -1.
          2   -1    0    0  501    0  0.00000000000E+00 -0.00000000000E+00 -0.25917195622E+04  0.25917195622E+04  0.00000000000E+00 0. -1.
         36    2    1    2    0    0  0.28421709430E-13  0.35527136788E-13 -0.24951199255E+04  0.26883191990E+04  0.10007180787E+04 0.  0.
         25    2    3    3    0    0  0.79782982707E+02  0.47045305427E+02 -0.18346955681E+03  0.24063196730E+03  0.12515622365E+03 0.  0.
         35    2    3    3    0    0 -0.79782982707E+02 -0.47045305427E+02 -0.23116503687E+04  0.24476872317E+04  0.79929141870E+03 0.  0.
         22    1    5    5    0    0 -0.22911453047E+02 -0.26605427763E+03 -0.22610989546E+03  0.34990784237E+03  0.00000000000E+00 0.  1.
         22    1    5    5    0    0 -0.56871529660E+02  0.21900897220E+03 -0.20855404732E+04  0.20977793893E+04  0.00000000000E+00 0.  1.
          5    1    4    4  502    0 -0.31213087852E+02  0.58113584857E+01 -0.67913353293E+02  0.75115526332E+02  0.47000000000E+01 0.  1.
         -5    1    4    4    0  502  0.11099607056E+03  0.41233946941E+02 -0.11555620352E+03  0.16551644097E+03  0.47000000000E+01 0.  1.
<mgrwt>
<rscale>  0 0.10007181E+04</rscale>
<asrwt>0</asrwt>
<pdfrwt beam="1">  1        2 0.39872610E+00 0.10007181E+04</pdfrwt>
<pdfrwt beam="2">  1       -2 0.14861482E-01 0.10007181E+04</pdfrwt>
<totfact> 0.12425622E+02</totfact>
</mgrwt>
</event>
<event>
 9    1  0.4412976E-036  0.9929621E+03  0.7818608E-02  0.8687769E-01
          2   -1    0    0  501    0  0.00000000000E+00  0.00000000000E+00  0.15560869630E+04  0.15560869630E+04  0.00000000000E+00 0.  1.
         -2   -1    0    0    0  501 -0.00000000000E+00 -0.00000000000E+00 -0.15840595851E+03  0.15840595851E+03  0.00000000000E+00 0.  1.
         36    2    1    2    0    0  0.00000000000E+00  0.00000000000E+00  0.13976810045E+04  0.17144929215E+04  0.99296212798E+03 0.  0.
         25    2    3    3    0    0  0.86328481861E+02 -0.30374187758E+02  0.88675023864E+02  0.17820380826E+03  0.12457182410E+03 0.  0.
         35    2    3    3    0    0 -0.86328481861E+02  0.30374187758E+02  0.13090059806E+04  0.15362891132E+04  0.79894454383E+03 0.  0.
         22    1    5    5    0    0  0.72609449111E+02  0.28987036230E+03  0.14309352280E+03  0.33131965729E+03  0.00000000000E+00 0. -1.
         22    1    5    5    0    0 -0.15893793097E+03 -0.25949617454E+03  0.11659124578E+04  0.12049694559E+04  0.00000000000E+00 0. -1.
          5    1    4    4  502    0  0.64544242282E+02  0.42594148182E+02  0.53752493743E+02  0.94295499652E+02  0.47000000000E+01 0. -1.
         -5    1    4    4    0  502  0.21784239579E+02 -0.72968335940E+02  0.34922530121E+02  0.83908308611E+02  0.47000000000E+01 0. -1.
<mgrwt>
<rscale>  0 0.99296213E+03</rscale>
<asrwt>0</asrwt>
<pdfrwt beam="1">  1        2 0.23939798E+00 0.99296213E+03</pdfrwt>
<pdfrwt beam="2">  1       -2 0.24370149E-01 0.99296213E+03</pdfrwt>
<totfact> 0.21137506E+02</totfact>
</mgrwt>
</event>
<event>
 9    1  0.4412976E-036  0.9995679E+03  0.7818608E-02  0.8681450E-01
         -2   -1    0    0    0  501 -0.00000000000E+00  0.00000000000E+00  0.64143117106E+02  0.64143117106E+02  0.00000000000E+00 0. -1.
          2   -1    0    0  501    0  0.00000000000E+00 -0.00000000000E+00 -0.38941664673E+04  0.38941664673E+04  0.00000000000E+00 0. -1.
         36    2    1    2    0    0  0.00000000000E+00 -0.14210854715E-13 -0.38300233502E+04  0.39583095844E+04  0.99956785812E+03 0.  0.
         25    2    3    3    0    0 -0.69134705596E+02 -0.80038325053E+02 -0.10733403459E+04  0.10859998093E+04  0.12708401412E+03 0.  0.
         35    2    3    3    0    0  0.69134705596E+02  0.80038325053E+02 -0.27566830043E+04  0.28723097752E+04  0.79979779762E+03 0.  0.
         22    1    5    5    0    0 -0.32675122979E+03  0.15709510335E+03 -0.86138344008E+03  0.93457298726E+03  0.00000000000E+00 0. -1.
         22    1    5    5    0    0  0.39588593539E+03 -0.77056778299E+02 -0.18952995643E+04  0.19377367879E+04  0.00000000000E+00 0. -1.
          5    1    4    4  502    0 -0.68498801155E+02 -0.15996124701E+02 -0.23871020803E+03  0.24890282277E+03  0.47000000000E+01 0.  1.
         -5    1    4    4    0  502 -0.63590444141E+00 -0.64042200352E+02 -0.83463013785E+03  0.83709698650E+03  0.47000000000E+01 0.  1.
<mgrwt>
<rscale>  0 0.99956786E+03</rscale>
<asrwt>0</asrwt>
<pdfrwt beam="1">  1        2 0.59910237E+00 0.99956786E+03</pdfrwt>
<pdfrwt beam="2">  1       -2 0.98681746E-02 0.99956786E+03</pdfrwt>
<totfact> 0.28576301E+01</totfact>
</mgrwt>
</event>
<event>
 9    1  0.4412976E-036  0.9995880E+03  0.7818608E-02  0.8681430E-01
          1   -1    0    0  501    0  0.00000000000E+00  0.00000000000E+00  0.23764020711E+03  0.23764020711E+03  0.00000000000E+00 0. -1.
         -1   -1    0    0    0  501 -0.00000000000E+00 -0.00000000000E+00 -0.10511438273E+04  0.10511438273E+04  0.00000000000E+00 0. -1.
         36    2    1    2    0    0  0.00000000000E+00  0.35527136788E-14 -0.81350362015E+03  0.12887840344E+04  0.99958798875E+03 0.  0.
         25    2    3    3    0    0 -0.14311717442E+03 -0.85993385362E+01 -0.13631386930E+03  0.23094573535E+03  0.11915530820E+03 0.  0.
         35    2    3    3    0    0  0.14311717442E+03  0.85993385362E+01 -0.67718975084E+03  0.10578382990E+04  0.79992464269E+03 0.  0.
         22    1    5    5    0    0  0.20572610119E+03 -0.41352758137E+02 -0.84565569489E+03  0.87130180398E+03  0.00000000000E+00 0. -1.
         22    1    5    5    0    0 -0.62608926770E+02  0.49952096673E+02  0.16846594405E+03  0.18653649503E+03  0.00000000000E+00 0. -1.
          5    1    4    4  502    0  0.57764144008E+01  0.30685700037E+02 -0.15568812173E+02  0.35205923685E+02  0.47000000000E+01 0. -1.
         -5    1    4    4    0  502 -0.14889358882E+03 -0.39285038573E+02 -0.12074505713E+03  0.19573981166E+03  0.47000000000E+01 0. -1.
<mgrwt>
<rscale>  0 0.99958799E+03</rscale>
<asrwt>0</asrwt>
<pdfrwt beam="1">  1        1 0.36560032E-01 0.99958799E+03</pdfrwt>
<pdfrwt beam="2">  1       -1 0.16171444E+00 0.99958799E+03</pdfrwt>
<totfact> 0.38833675E+01</totfact>
</mgrwt>
</event>
<event>
 9    1  0.4412976E-036  0.9993321E+03  0.7818608E-02  0.8681674E-01
          1   -1    0    0  501    0  0.00000000000E+00  0.00000000000E+00  0.74579437565E+03  0.74579437565E+03  0.00000000000E+00 0.  1.
         -1   -1    0    0    0  501 -0.00000000000E+00 -0.00000000000E+00 -0.33476544493E+03  0.33476544493E+03  0.00000000000E+00 0.  1.
         36    2    1    2    0    0  0.12434497876E-13  0.28421709430E-13  0.41102893072E+03  0.10805598206E+04  0.99933214897E+03 0.  0.
         25    2    3    3    0    0 -0.11246205050E+02 -0.13244338076E+03  0.26108707151E+02  0.18284479012E+03  0.12281215922E+03 0.  0.
         35    2    3    3    0    0  0.11246205050E+02  0.13244338076E+03  0.38492022357E+03  0.89771503046E+03  0.80003810607E+03 0.  0.
         22    1    5    5    0    0  0.34235112294E+03 -0.14439804093E+03  0.24050125720E+03  0.44260133339E+03  0.00000000000E+00 0. -1.
         22    1    5    5    0    0 -0.33110491789E+03  0.27684142168E+03  0.14441896637E+03  0.45511369707E+03  0.00000000000E+00 0. -1.
          5    1    4    4  502    0  0.63302266715E+01 -0.15157066167E+03  0.33505171061E+02  0.15542980325E+03  0.47000000000E+01 0. -1.
         -5    1    4    4    0  502 -0.17576431722E+02  0.19127280913E+02 -0.73964639097E+01  0.27414986879E+02  0.47000000000E+01 0. -1.
<mgrwt>
<rscale>  0 0.99933215E+03</rscale>
<asrwt>0</asrwt>
<pdfrwt beam="1">  1        1 0.11473760E+00 0.99933215E+03</pdfrwt>
<pdfrwt beam="2">  1       -1 0.51502376E-01 0.99933215E+03</pdfrwt>
<totfact> 0.10729230E+02</totfact>
</mgrwt>
</event>
<event>
 9    1 -0.4412976E-036  0.1003853E+04  0.7818608E-02  0.8677378E-01
         -1   -1    0    0    0  501 -0.00000000000E+00  0.00000000000E+00  0.39814023624E+04  0.39814023624E+04  0.00000000000E+00 0.  1.
          1   -1    0    0  501    0  0.00000000000E+00 -0.00000000000E+00 -0.63276704688E+02  0.63276704688E+02  0.00000000000E+00 0.  1.
         36    2    1    2    0    0  0.13766765505E-13  0.00000000000E+00  0.39181256577E+04  0.40446790671E+04  0.10038526217E+04 0.  0.
         25    2    3    3    0    0 -0.31201928249E+01  0.81920871213E+02  0.12082546409E+04  0.12174885339E+04  0.12521297150E+03 0.  0.
         35    2    3    3    0    0  0.31201928249E+01 -0.81920871213E+02  0.27098710168E+04  0.28271905332E+04  0.80180085951E+03 0.  0.
         22    1    5    5    0    0 -0.17008174802E+03  0.70145627031E+02  0.25250816050E+04  0.25317751325E+04  0.00000000000E+00 0.  1.
         22    1    5    5    0    0  0.17320194084E+03 -0.15206649824E+03  0.18478941185E+03  0.29541540063E+03  0.00000000000E+00 0.  1.
          5    1    4    4  502    0 -0.68285114724E+01  0.50327141474E+02  0.14431817339E+03  0.15306624353E+03  0.47000000000E+01 0. -1.
         -5    1    4    4    0  502  0.37083186475E+01  0.31593729739E+02  0.10639364675E+04  0.10644222904E+04  0.47000000000E+01 0. -1.
<mgrwt>
<rscale>  0 0.10038526E+04</rscale>
<asrwt>0</asrwt>
<pdfrwt beam="1">  1        1 0.97348808E-02 0.10038526E+04</pdfrwt>
<pdfrwt beam="2">  1       -1 0.61252324E+00 0.10038526E+04</pdfrwt>
<totfact>-0.16829443E+00</totfact>
</mgrwt>
</event>
<event>
 9    1  0.4412976E-036  0.1000011E+04  0.7818608E-02  0.8681027E-01
         -2   -1    0    0    0  501 -0.00000000000E+00  0.00000000000E+00  0.12236190689E+03  0.12236190689E+03  0.00000000000E+00 0. -1.
          2   -1    0    0  501    0  0.00000000000E+00 -0.00000000000E+00 -0.20431652322E+04  0.20431652322E+04  0.00000000000E+00 0. -1.
         36    2    1    2    0    0  0.00000000000E+00  0.00000000000E+00 -0.19208033253E+04  0.21655271391E+04  0.10000111877E+04 0.  0.
         25    2    3    3    0    0  0.84347748140E+02 -0.80081958870E+02 -0.52843535417E+03  0.55528681087E+03  0.12478724309E+03 0.  0.
         35    2    3    3    0    0 -0.84347748140E+02  0.80081958870E+02 -0.13923679712E+04  0.16102403282E+04  0.80041094745E+03 0.  0.
         22    1    5    5    0    0 -0.19912370824E+03 -0.19022052177E+03 -0.12571244736E+04  0.12869328033E+04  0.00000000000E+00 0. -1.
         22    1    5    5    0    0  0.11477596010E+03  0.27030248064E+03 -0.13524349758E+03  0.32330752496E+03  0.00000000000E+00 0. -1.
          5    1    4    4  502    0  0.55845682160E+02 -0.42924931172E+02 -0.90241756632E+02  0.11457292251E+03  0.47000000000E+01 0.  1.
         -5    1    4    4    0  502  0.28502065980E+02 -0.37157027699E+02 -0.43819359754E+03  0.44071388836E+03  0.47000000000E+01 0.  1.
<mgrwt>
<rscale>  0 0.10000112E+04</rscale>
<asrwt>0</asrwt>
<pdfrwt beam="1">  1        2 0.31433309E+00 0.10000112E+04</pdfrwt>
<pdfrwt beam="2">  1       -2 0.18824910E-01 0.10000112E+04</pdfrwt>
<totfact> 0.17581738E+02</totfact>
</mgrwt>
</event>
<event>
 9    1  0.4412976E-036  0.9953884E+03  0.7818608E-02  0.8685442E-01
          2   -1    0    0  501    0  0.00000000000E+00  0.00000000000E+00  0.10798209668E+04  0.10798209668E+04  0.00000000000E+00 0.  1.
         -2   -1    0    0    0  501 -0.00000000000E+00 -0.00000000000E+00 -0.22938941455E+03  0.22938941455E+03  0.00000000000E+00 0.  1.
         36    2    1    2    0    0  0.00000000000E+00 -0.42632564146E-13  0.85043155226E+03  0.13092103814E+04  0.99538836521E+03 0.  0.
         25    2    3    3    0    0 -0.13210604456E+03 -0.15340336810E+02  0.12839790659E+03  0.22301939513E+03  0.12475694467E+03 0.  0.
         35    2    3    3    0    0  0.13210604456E+03  0.15340336810E+02  0.72203364567E+03  0.10861909862E+04  0.80049418496E+03 0.  0.
         22    1    5    5    0    0  0.12678354632E+03 -0.38480972649E+03  0.42980643777E+03  0.59066586761E+03  0.00000000000E+00 0. -1.
         22    1    5    5    0    0  0.53224982398E+01  0.40015006330E+03  0.29222720790E+03  0.49552511862E+03  0.00000000000E+00 0. -1.
          5    1    4    4  502    0 -0.65088339974E+01 -0.50742089131E+02  0.43035350515E+02  0.67016833134E+02  0.47000000000E+01 0.  1.
         -5    1    4    4    0  502 -0.12559721056E+03  0.35401752321E+02  0.85362556071E+02  0.15600256199E+03  0.47000000000E+01 0.  1.
<mgrwt>
<rscale>  0 0.99538837E+03</rscale>
<asrwt>0</asrwt>
<pdfrwt beam="1">  1        2 0.16612630E+00 0.99538837E+03</pdfrwt>
<pdfrwt beam="2">  1       -2 0.35290680E-01 0.99538837E+03</pdfrwt>
<totfact> 0.20402404E+02</totfact>
</mgrwt>
</event>
<event>
 9    1  0.4412976E-036  0.9989286E+03  0.7818608E-02  0.8682059E-01
         -1   -1    0    0    0  501 -0.00000000000E+00  0.00000000000E+00  0.25635117831E+03  0.25635117831E+03  0.00000000000E+00 0. -1.
          1   -1    0    0  501    0  0.00000000000E+00 -0.00000000000E+00 -0.97313612982E+03  0.97313612982E+03  0.00000000000E+00 0. -1.
         36    2    1    2    0    0 -0.35527136788E-14  0.00000000000E+00 -0.71678495151E+03  0.12294873081E+04  0.99892861314E+03 0.  0.
         25    2    3    3    0    0  0.29517138053E+02  0.67952976785E+02  0.11745642470E+02  0.14511614999E+03  0.12422507145E+03 0.  0.
         35    2    3    3    0    0 -0.29517138053E+02 -0.67952976785E+02 -0.72853059398E+03  0.10843711582E+04  0.79975940993E+03 0.  0.
         22    1    5    5    0    0 -0.16135486290E+03 -0.22144997999E+03 -0.81834053396E+03  0.86299288233E+03  0.00000000000E+00 0.  1.
         22    1    5    5    0    0  0.13183772485E+03  0.15349700321E+03  0.89809939980E+02  0.22137827583E+03  0.00000000000E+00 0.  1.
          5    1    4    4  502    0 -0.10785325157E+02  0.93727026284E+02  0.19419360465E+02  0.96437960657E+02  0.47000000000E+01 0. -1.
         -5    1    4    4    0  502  0.40302463210E+02 -0.25774049499E+02 -0.76737179944E+01  0.48678189328E+02  0.47000000000E+01 0. -1.
<mgrwt>
<rscale>  0 0.99892861E+03</rscale>
<asrwt>0</asrwt>
<pdfrwt beam="1">  1        1 0.14971325E+00 0.99892861E+03</pdfrwt>
<pdfrwt beam="2">  1       -1 0.39438642E-01 0.99892861E+03</pdfrwt>
<totfact> 0.11137991E+02</totfact>
</mgrwt>
</event>
<event>
 9    1  0.4412976E-036  0.1007533E+04  0.7818608E-02  0.8673897E-01
          4   -1    0    0  501    0  0.00000000000E+00  0.00000000000E+00  0.27986223891E+03  0.27986223891E+03  0.00000000000E+00 0.  1.
         -4   -1    0    0    0  501 -0.00000000000E+00 -0.00000000000E+00 -0.90680524655E+03  0.90680524655E+03  0.00000000000E+00 0.  1.
         36    2    1    2    0    0 -0.14210854715E-13  0.14210854715E-13 -0.62694300764E+03  0.11866674855E+04  0.10075327222E+04 0.  0.
         25    2    3    3    0    0  0.12198476295E+03  0.85079505950E+02 -0.95946932476E+02  0.21639351882E+03  0.12450516620E+03 0.  0.
         35    2    3    3    0    0 -0.12198476295E+03 -0.85079505950E+02 -0.53099607516E+03  0.97027396664E+03  0.79834574827E+03 0.  0.
         22    1    5    5    0    0  0.19427012129E+02 -0.20007190958E+03  0.15919886631E+03  0.25641851890E+03  0.00000000000E+00 0. -1.
         22    1    5    5    0    0 -0.14141177508E+03  0.11499240363E+03 -0.69019494148E+03  0.71385544774E+03  0.00000000000E+00 0. -1.
          5    1    4    4  502    0  0.20885429405E+02 -0.17483347921E+02  0.17748809366E+02  0.32847813472E+02  0.47000000000E+01 0. -1.
         -5    1    4    4    0  502  0.10109933355E+03  0.10256285387E+03 -0.11369574184E+03  0.18354570535E+03  0.47000000000E+01 0. -1.
<mgrwt>
<rscale>  0 0.10075327E+04</rscale>
<asrwt>0</asrwt>
<pdfrwt beam="1">  1        4 0.43055729E-01 0.10075327E+04</pdfrwt>
<pdfrwt beam="2">  1       -4 0.13950850E+00 0.10075327E+04</pdfrwt>
<totfact> 0.38947744E+00</totfact>
</mgrwt>
</event>
<event>
 9    1  0.4412976E-036  0.1002021E+04  0.7818608E-02  0.8679116E-01
         -2   -1    0    0    0  501 -0.00000000000E+00  0.00000000000E+00  0.14703875098E+04  0.14703875098E+04  0.00000000000E+00 0. -1.
          2   -1    0    0  501    0  0.00000000000E+00 -0.00000000000E+00 -0.17071111646E+03  0.17071111646E+03  0.00000000000E+00 0. -1.
         36    2    1    2    0    0  0.14210854715E-13  0.00000000000E+00  0.12996763934E+04  0.16410986263E+04  0.10020209447E+04 0.  0.
         25    2    3    3    0    0  0.98299165036E+02  0.69768859434E+02  0.36848521119E+03  0.40758392814E+03  0.12574930625E+03 0.  0.
         35    2    3    3    0    0 -0.98299165036E+02 -0.69768859434E+02  0.93119118218E+03  0.12335146981E+04  0.79994441879E+03 0.  0.
         22    1    5    5    0    0 -0.53416482364E+02 -0.37792890922E+03  0.81711785899E+03  0.90186760475E+03  0.00000000000E+00 0. -1.
         22    1    5    5    0    0 -0.44882682672E+02  0.30816004979E+03  0.11407332318E+03  0.33164709338E+03  0.00000000000E+00 0. -1.
          5    1    4    4  502    0 -0.11996988706E+02  0.61491070108E+02  0.15084184692E+03  0.16340266896E+03  0.47000000000E+01 0.  1.
         -5    1    4    4    0  502  0.11029615374E+03  0.82777893263E+01  0.21764336426E+03  0.24418125918E+03  0.47000000000E+01 0.  1.
<mgrwt>
<rscale>  0 0.10020209E+04</rscale>
<asrwt>0</asrwt>
<pdfrwt beam="1">  1        2 0.26263250E-01 0.10020209E+04</pdfrwt>
<pdfrwt beam="2">  1       -2 0.22621346E+00 0.10020209E+04</pdfrwt>
<totfact> 0.20140983E+01</totfact>
</mgrwt>
</event>
<event>
 9    1  0.4412976E-036  0.9999849E+03  0.7818608E-02  0.8681052E-01
         -2   -1    0    0    0  501 -0.00000000000E+00  0.00000000000E+00  0.20935146136E+03  0.20935146136E+03  0.00000000000E+00 0.  1.
          2   -1    0    0  501    0  0.00000000000E+00 -0.00000000000E+00 -0.11941280488E+04  0.11941280488E+04  0.00000000000E+00 0.  1.
         36    2    1    2    0    0  0.14210854715E-13  0.14210854715E-13 -0.98477658749E+03  0.14034795102E+04  0.99998490404E+03 0.  0.
         25    2    3    3    0    0  0.10355250034E+03  0.97246994518E+02 -0.16710318718E+03  0.25036598256E+03  0.12074581477E+03 0.  0.
         35    2    3    3    0    0 -0.10355250034E+03 -0.97246994518E+02 -0.81767340031E+03  0.11531135277E+04  0.80056287686E+03 0.  0.
         22    1    5    5    0    0  0.19939482091E+03 -0.27095256874E+03 -0.93543001103E+02  0.34917600457E+03  0.00000000000E+00 0. -1.
         22    1    5    5    0    0 -0.30294732125E+03  0.17370557422E+03 -0.72413039921E+03  0.80393752308E+03  0.00000000000E+00 0. -1.
          5    1    4    4  502    0  0.55468293541E+00  0.81592698860E+02 -0.65100417561E+02  0.10448842303E+03  0.47000000000E+01 0.  1.
         -5    1    4    4    0  502  0.10299781741E+03  0.15654295658E+02 -0.10200276962E+03  0.14587755953E+03  0.47000000000E+01 0.  1.
<mgrwt>
<rscale>  0 0.99998490E+03</rscale>
<asrwt>0</asrwt>
<pdfrwt beam="1">  1        2 0.18371201E+00 0.99998490E+03</pdfrwt>
<pdfrwt beam="2">  1       -2 0.32207916E-01 0.99998490E+03</pdfrwt>
<totfact> 0.20637759E+02</totfact>
</mgrwt>
</event>
<event>
 9    1  0.4412976E-036  0.9933536E+03  0.7818608E-02  0.8687393E-01
          2   -1    0    0  501    0  0.00000000000E+00  0.00000000000E+00  0.98308762240E+03  0.98308762240E+03  0.00000000000E+00 0.  1.
         -2   -1    0    0    0  501 -0.00000000000E+00 -0.00000000000E+00 -0.25093170159E+03  0.25093170159E+03  0.00000000000E+00 0.  1.
         36    2    1    2    0    0  0.00000000000E+00  0.00000000000E+00  0.73215592081E+03  0.12340193240E+04  0.99335361257E+03 0.  0.
         25    2    3    3    0    0 -0.65376537761E+02 -0.10062368611E+03  0.16352455686E+03  0.24448108792E+03  0.13649726648E+03 0.  0.
         35    2    3    3    0    0  0.65376537761E+02  0.10062368611E+03  0.56863136395E+03  0.98953823607E+03  0.80090266243E+03 0.  0.
         22    1    5    5    0    0  0.30238552483E+02 -0.35183909765E+03  0.29046442972E+03  0.45724687601E+03  0.00000000000E+00 0. -1.
         22    1    5    5    0    0  0.35137985278E+02  0.45246278376E+03  0.27816693423E+03  0.53229136006E+03  0.00000000000E+00 0. -1.
          5    1    4    4  502    0 -0.68514961730E+02 -0.35857069025E+02  0.10452831218E+02  0.78175322579E+02  0.47000000000E+01 0.  1.
         -5    1    4    4    0  502  0.31384239689E+01 -0.64766617085E+02  0.15307172564E+03  0.16630576534E+03  0.47000000000E+01 0.  1.
<mgrwt>
<rscale>  0 0.99335361E+03</rscale>
<asrwt>0</asrwt>
<pdfrwt beam="1">  1        2 0.15124425E+00 0.99335361E+03</pdfrwt>
<pdfrwt beam="2">  1       -2 0.38604878E-01 0.99335361E+03</pdfrwt>
<totfact> 0.19783465E+02</totfact>
</mgrwt>
</event>
<event>
 9    1  0.4412976E-036  0.1000209E+04  0.7818608E-02  0.8680838E-01
         -1   -1    0    0    0  501 -0.00000000000E+00  0.00000000000E+00  0.84183771606E+03  0.84183771606E+03  0.00000000000E+00 0. -1.
          1   -1    0    0  501    0  0.00000000000E+00 -0.00000000000E+00 -0.29709379160E+03  0.29709379160E+03  0.00000000000E+00 0. -1.
         36    2    1    2    0    0  0.14210854715E-13 -0.42632564146E-13  0.54474392447E+03  0.11389315077E+04  0.10002094960E+04 0.  0.
         25    2    3    3    0    0 -0.86208093983E+02  0.11717315154E+03  0.98525750439E+02  0.21557449331E+03  0.12491459385E+03 0.  0.
         35    2    3    3    0    0  0.86208093983E+02 -0.11717315154E+03  0.44621817403E+03  0.92335701435E+03  0.79518308219E+03 0.  0.
         22    1    5    5    0    0  0.25011794789E+03 -0.38542570265E+03  0.13009411816E+03  0.47753161121E+03  0.00000000000E+00 0. -1.
         22    1    5    5    0    0 -0.16390985391E+03  0.26825255112E+03  0.31612405587E+03  0.44582540314E+03  0.00000000000E+00 0. -1.
          5    1    4    4  502    0 -0.94140021547E+02  0.13728158969E+03  0.98455070466E+02  0.19345301606E+03  0.47000000000E+01 0. -1.
         -5    1    4    4    0  502  0.79319275640E+01 -0.20108438153E+02  0.70679973394E-01  0.22121477245E+02  0.47000000000E+01 0. -1.
<mgrwt>
<rscale>  0 0.10002095E+04</rscale>
<asrwt>0</asrwt>
<pdfrwt beam="1">  1        1 0.45706737E-01 0.10002095E+04</pdfrwt>
<pdfrwt beam="2">  1       -1 0.12951349E+00 0.10002095E+04</pdfrwt>
<totfact> 0.54455121E+01</totfact>
</mgrwt>
</event>
<event>
 9    1  0.4412976E-036  0.9951528E+03  0.7818608E-02  0.8685668E-01
          2   -1    0    0  501    0  0.00000000000E+00  0.00000000000E+00  0.21560015230E+04  0.21560015230E+04  0.00000000000E+00 0. -1.
         -2   -1    0    0    0  501 -0.00000000000E+00 -0.00000000000E+00 -0.11483399038E+03  0.11483399038E+03  0.00000000000E+00 0. -1.
         36    2    1    2    0    0  0.14210854715E-13  0.53290705182E-14  0.20411675326E+04  0.22708355134E+04  0.99515276850E+03 0.  0.
         25    2    3    3    0    0 -0.83118103607E+02  0.87308798492E+01  0.13579145344E+03  0.20272654802E+03  0.12519539542E+03 0.  0.
         35    2    3    3    0    0  0.83118103607E+02 -0.87308798492E+01  0.19053760792E+04  0.20681089654E+04  0.79976986822E+03 0.  0.
         22    1    5    5    0    0  0.20960337094E+02  0.38920257189E+03  0.11124970597E+04  0.11787992558E+04  0.00000000000E+00 0. -1.
         22    1    5    5    0    0  0.62157766513E+02 -0.39793345174E+03  0.79287901950E+03  0.88930970956E+03  0.00000000000E+00 0. -1.
          5    1    4    4  502    0 -0.75254177799E+02  0.21016727750E+02  0.15766042619E+03  0.17602214096E+03  0.47000000000E+01 0.  1.
         -5    1    4    4    0  502 -0.78639258084E+01 -0.12285847901E+02 -0.21868972745E+02  0.26704407065E+02  0.47000000000E+01 0.  1.
<mgrwt>
<rscale>  0 0.99515277E+03</rscale>
<asrwt>0</asrwt>
<pdfrwt beam="1">  1        2 0.33169251E+00 0.99515277E+03</pdfrwt>
<pdfrwt beam="2">  1       -2 0.17666769E-01 0.99515277E+03</pdfrwt>
<totfact> 0.16882526E+02</totfact>
</mgrwt>
</event>
<event>
 9    1  0.4412976E-036  0.1001572E+04  0.7818608E-02  0.8679542E-01
          2   -1    0    0  501    0  0.00000000000E+00  0.00000000000E+00  0.16670115863E+04  0.16670115863E+04  0.00000000000E+00 0.  1.
         -2   -1    0    0    0  501 -0.00000000000E+00 -0.00000000000E+00 -0.15044088784E+03  0.15044088784E+03  0.00000000000E+00 0.  1.
         36    2    1    2    0    0  0.35527136788E-14  0.00000000000E+00  0.15165706985E+04  0.18174524742E+04  0.10015721703E+04 0.  0.
         25    2    3    3    0    0 -0.24125748034E+02  0.83294351852E+02  0.75735618653E+02  0.16961137621E+03  0.12454771872E+03 0.  0.
         35    2    3    3    0    0  0.24125748034E+02 -0.83294351852E+02  0.14408350798E+04  0.16478410980E+04  0.79489279531E+03 0.  0.
         22    1    5    5    0    0  0.21747106025E+03  0.23521463328E+03  0.26935885877E+03  0.41853766922E+03  0.00000000000E+00 0. -1.
         22    1    5    5    0    0 -0.19334531222E+03 -0.31850898513E+03  0.11714762211E+04  0.12293034287E+04  0.00000000000E+00 0. -1.
          5    1    4    4  502    0 -0.50948832443E+02  0.81911469693E+02  0.95587390864E+02  0.13588344891E+03  0.47000000000E+01 0.  1.
         -5    1    4    4    0  502  0.26823084409E+02  0.13828821588E+01 -0.19851772211E+02  0.33727927304E+02  0.47000000000E+01 0.  1.
<mgrwt>
<rscale>  0 0.10015722E+04</rscale>
<asrwt>0</asrwt>
<pdfrwt beam="1">  1        2 0.25646331E+00 0.10015722E+04</pdfrwt>
<pdfrwt beam="2">  1       -2 0.23144753E-01 0.10015722E+04</pdfrwt>
<totfact> 0.20045315E+02</totfact>
</mgrwt>
</event>
<event>
 9    1  0.4412976E-036  0.1000231E+04  0.7818608E-02  0.8680818E-01
         -2   -1    0    0    0  501 -0.00000000000E+00  0.00000000000E+00  0.82880947530E+03  0.82880947530E+03  0.00000000000E+00 0.  1.
          2   -1    0    0  501    0  0.00000000000E+00 -0.00000000000E+00 -0.30177669666E+03  0.30177669666E+03  0.00000000000E+00 0.  1.
         36    2    1    2    0    0 -0.14210854715E-13 -0.28421709430E-13  0.52703277864E+03  0.11305861720E+04  0.10002307446E+04 0.  0.
         25    2    3    3    0    0 -0.10810953230E+03  0.82264626381E+02  0.67037142950E+02  0.19672506790E+03  0.12550551413E+03 0.  0.
         35    2    3    3    0    0  0.10810953230E+03 -0.82264626381E+02  0.45999563569E+03  0.93386110407E+03  0.80127737839E+03 0.  0.
         22    1    5    5    0    0  0.46441017401E+02 -0.28591567519E+03  0.60880757119E+03  0.67420412351E+03  0.00000000000E+00 0. -1.
         22    1    5    5    0    0  0.61668514896E+02  0.20365104881E+03 -0.14881193550E+03  0.25965698057E+03  0.00000000000E+00 0. -1.
          5    1    4    4  502    0 -0.11061356436E+03  0.17421971220E+02  0.69038780301E+02  0.13163331222E+03  0.47000000000E+01 0.  1.
         -5    1    4    4    0  502  0.25040320598E+01  0.64842655160E+02 -0.20016373509E+01  0.65091755675E+02  0.47000000000E+01 0.  1.
<mgrwt>
<rscale>  0 0.10002307E+04</rscale>
<asrwt>0</asrwt>
<pdfrwt beam="1">  1        2 0.46427184E-01 0.10002307E+04</pdfrwt>
<pdfrwt beam="2">  1       -2 0.12750915E+00 0.10002307E+04</pdfrwt>
<totfact> 0.57581026E+01</totfact>
</mgrwt>
</event>
<event>
 9    1  0.4412976E-036  0.1000233E+04  0.7818608E-02  0.8680816E-01
         -1   -1    0    0    0  501 -0.00000000000E+00  0.00000000000E+00  0.12025871054E+03  0.12025871054E+03  0.00000000000E+00 0.  1.
          1   -1    0    0  501    0  0.00000000000E+00 -0.00000000000E+00 -0.20798201347E+04  0.20798201347E+04  0.00000000000E+00 0.  1.
         36    2    1    2    0    0  0.28421709430E-13  0.14210854715E-13 -0.19595614242E+04  0.22000788453E+04  0.10002329480E+04 0.  0.
         25    2    3    3    0    0  0.10226778447E+03 -0.54747976314E+02 -0.55118483914E+03  0.57679736775E+03  0.12423540515E+03 0.  0.
         35    2    3    3    0    0 -0.10226778447E+03  0.54747976314E+02 -0.14083765851E+04  0.16232814775E+04  0.79878790006E+03 0.  0.
         22    1    5    5    0    0 -0.26427477366E+03 -0.26174143640E+03 -0.10686199251E+04  0.11315026646E+04  0.00000000000E+00 0. -1.
         22    1    5    5    0    0  0.16200698919E+03  0.31648941272E+03 -0.33975665991E+03  0.49177881294E+03  0.00000000000E+00 0. -1.
          5    1    4    4  502    0  0.55762439286E+02 -0.37234267972E+02 -0.87020419339E+02  0.10995673571E+03  0.47000000000E+01 0. -1.
         -5    1    4    4    0  502  0.46505345184E+02 -0.17513708342E+02 -0.46416441980E+03  0.46684063204E+03  0.47000000000E+01 0. -1.
<mgrwt>
<rscale>  0 0.10002329E+04</rscale>
<asrwt>0</asrwt>
<pdfrwt beam="1">  1        1 0.31997234E+00 0.10002329E+04</pdfrwt>
<pdfrwt beam="2">  1       -1 0.18501340E-01 0.10002329E+04</pdfrwt>
<totfact> 0.63660496E+01</totfact>
</mgrwt>
</event>
<event>
 9    1  0.4412976E-036  0.1000520E+04  0.7818608E-02  0.8680543E-01
         -1   -1    0    0    0  501 -0.00000000000E+00  0.00000000000E+00  0.59206363215E+03  0.59206363215E+03  0.00000000000E+00 0.  1.
          1   -1    0    0  501    0  0.00000000000E+00 -0.00000000000E+00 -0.42269126910E+03  0.42269126910E+03  0.00000000000E+00 0.  1.
         36    2    1    2    0    0  0.35527136788E-14  0.14210854715E-13  0.16937236306E+03  0.10147549013E+04  0.10005201209E+04 0.  0.
         25    2    3    3    0    0 -0.25482326270E+02 -0.89298065011E+02  0.13750041412E+03  0.20791936762E+03  0.12530205976E+03 0.  0.
         35    2    3    3    0    0  0.25482326270E+02  0.89298065011E+02  0.31871948939E+02  0.80683553363E+03  0.80083972419E+03 0.  0.
         22    1    5    5    0    0  0.12991129221E+02  0.44745756768E+03  0.26228411907E+02  0.44841384223E+03  0.00000000000E+00 0. -1.
         22    1    5    5    0    0  0.12491197049E+02 -0.35815950267E+03  0.56435370321E+01  0.35842169140E+03  0.00000000000E+00 0. -1.
          5    1    4    4  502    0 -0.50602421705E+02 -0.10730021297E+03  0.12942586234E+03  0.17563338130E+03  0.47000000000E+01 0.  1.
         -5    1    4    4    0  502  0.25120095434E+02  0.18002147961E+02  0.80745517803E+01  0.32285986315E+02  0.47000000000E+01 0.  1.
<mgrwt>
<rscale>  0 0.10005201E+04</rscale>
<asrwt>0</asrwt>
<pdfrwt beam="1">  1        1 0.65029426E-01 0.10005201E+04</pdfrwt>
<pdfrwt beam="2">  1       -1 0.91086713E-01 0.10005201E+04</pdfrwt>
<totfact> 0.78066214E+01</totfact>
</mgrwt>
</event>
<event>
 9    1  0.4412976E-036  0.9991089E+03  0.7818608E-02  0.8681887E-01
          1   -1    0    0  501    0  0.00000000000E+00  0.00000000000E+00  0.66372132847E+03  0.66372132847E+03  0.00000000000E+00 0. -1.
         -1   -1    0    0    0  501 -0.00000000000E+00 -0.00000000000E+00 -0.37599307946E+03  0.37599307946E+03  0.00000000000E+00 0. -1.
         36    2    1    2    0    0  0.28421709430E-13  0.00000000000E+00  0.28772824901E+03  0.10397144079E+04  0.99910885533E+03 0.  0.
         25    2    3    3    0    0  0.13991635090E+03 -0.58419851591E+01  0.48202916720E+02  0.19360271174E+03  0.12469071647E+03 0.  0.
         35    2    3    3    0    0 -0.13991635090E+03  0.58419851591E+01  0.23952533229E+03  0.84611169620E+03  0.79932590575E+03 0.  0.
         22    1    5    5    0    0 -0.25552681556E+03  0.30173795848E+03 -0.71174453741E+02  0.40175309821E+03  0.00000000000E+00 0. -1.
         22    1    5    5    0    0  0.11561046467E+03 -0.29589597332E+03  0.31069978603E+03  0.44435859799E+03  0.00000000000E+00 0. -1.
          5    1    4    4  502    0  0.11538614277E+03  0.43687470549E+02  0.59397886475E+02  0.13701370714E+03  0.47000000000E+01 0. -1.
         -5    1    4    4    0  502  0.24530208123E+02 -0.49529455708E+02 -0.11194969755E+02  0.56589004595E+02  0.47000000000E+01 0. -1.
<mgrwt>
<rscale>  0 0.99910886E+03</rscale>
<asrwt>0</asrwt>
<pdfrwt beam="1">  1        1 0.10211097E+00 0.99910886E+03</pdfrwt>
<pdfrwt beam="2">  1       -1 0.57845089E-01 0.99910886E+03</pdfrwt>
<totfact> 0.10319535E+02</totfact>
</mgrwt>
</event>
<event>
 9    1  0.4412976E-036  0.9989549E+03  0.7818608E-02  0.8682034E-01
          1   -1    0    0  501    0  0.00000000000E+00  0.00000000000E+00  0.61920688451E+03  0.61920688451E+03  0.00000000000E+00 0.  1.
         -1   -1    0    0    0  501 -0.00000000000E+00 -0.00000000000E+00 -0.40289881620E+03  0.40289881620E+03  0.00000000000E+00 0.  1.
         36    2    1    2    0    0  0.42632564146E-13 -0.14210854715E-13  0.21630806831E+03  0.10221057007E+04  0.99895489538E+03 0.  0.
         25    2    3    3    0    0  0.93648120315E+02 -0.83968657779E+02 -0.21012252055E+02  0.17854875498E+03  0.12496974531E+03 0.  0.
         35    2    3    3    0    0 -0.93648120315E+02  0.83968657779E+02  0.23732032036E+03  0.84355694572E+03  0.79965410040E+03 0.  0.
         22    1    5    5    0    0 -0.38453573814E+03  0.21947370170E+03 -0.27919297522E+01  0.44276882740E+03  0.00000000000E+00 0. -1.
         22    1    5    5    0    0  0.29088761783E+03 -0.13550504392E+03  0.24011225011E+03  0.40078811832E+03  0.00000000000E+00 0. -1.
          5    1    4    4  502    0  0.58783166893E+02 -0.69691038291E+02 -0.71088658406E+02  0.11570647727E+03  0.47000000000E+01 0.  1.
         -5    1    4    4    0  502  0.34864953422E+02 -0.14277619488E+02  0.50076406351E+02  0.62842277715E+02  0.47000000000E+01 0.  1.
<mgrwt>
<rscale>  0 0.99895490E+03</rscale>
<asrwt>0</asrwt>
<pdfrwt beam="1">  1        1 0.95262597E-01 0.99895490E+03</pdfrwt>
<pdfrwt beam="2">  1       -1 0.61984434E-01 0.99895490E+03</pdfrwt>
<totfact> 0.10024795E+02</totfact>
</mgrwt>
</event>
<event>
 9    1  0.4412976E-036  0.9992686E+03  0.7818608E-02  0.8681735E-01
          2   -1    0    0  501    0  0.00000000000E+00  0.00000000000E+00  0.49699380006E+03  0.49699380006E+03  0.00000000000E+00 0. -1.
         -2   -1    0    0    0  501 -0.00000000000E+00 -0.00000000000E+00 -0.50228879367E+03  0.50228879367E+03  0.00000000000E+00 0. -1.
         36    2    1    2    0    0  0.14210854715E-13  0.00000000000E+00 -0.52949936108E+01  0.99928259374E+03  0.99926856509E+03 0.  0.
         25    2    3    3    0    0  0.31588115533E+02 -0.70970252580E+02 -0.11584957440E+03  0.18706806605E+03  0.12465452922E+03 0.  0.
         35    2    3    3    0    0 -0.31588115533E+02  0.70970252580E+02  0.11055458079E+03  0.81221452768E+03  0.80089670860E+03 0.  0.
         22    1    5    5    0    0 -0.18872823757E+03  0.16721175599E+03 -0.28216571087E+03  0.37841195460E+03  0.00000000000E+00 0. -1.
         22    1    5    5    0    0  0.15714012203E+03 -0.96241503410E+02  0.39272029166E+03  0.43380257308E+03  0.00000000000E+00 0. -1.
          5    1    4    4  502    0  0.71183477034E+02 -0.78700883175E+02 -0.81805512240E+02  0.13407142965E+03  0.47000000000E+01 0.  1.
         -5    1    4    4    0  502 -0.39595361501E+02  0.77306305954E+01 -0.34044062159E+02  0.52996636404E+02  0.47000000000E+01 0.  1.
<mgrwt>
<rscale>  0 0.99926857E+03</rscale>
<asrwt>0</asrwt>
<pdfrwt beam="1">  1        2 0.76460585E-01 0.99926857E+03</pdfrwt>
<pdfrwt beam="2">  1       -2 0.77275198E-01 0.99926857E+03</pdfrwt>
<totfact> 0.11181135E+02</totfact>
</mgrwt>
</event>
<event>
 9    1  0.4412976E-036  0.1000329E+04  0.7818608E-02  0.8680725E-01
         -2   -1    0    0    0  501 -0.00000000000E+00  0.00000000000E+00  0.26824056029E+03  0.26824056029E+03  0.00000000000E+00 0. -1.
          2   -1    0    0  501    0  0.00000000000E+00 -0.00000000000E+00 -0.93261234194E+03  0.93261234194E+03  0.00000000000E+00 0. -1.
         36    2    1    2    0    0  0.35527136788E-13 -0.14210854715E-13 -0.66437178165E+03  0.12008529022E+04  0.10003288602E+04 0.  0.
         25    2    3    3    0    0 -0.27625663035E+02 -0.11935385072E+03 -0.36709763154E+02  0.17866380069E+03  0.12475827839E+03 0.  0.
         35    2    3    3    0    0  0.27625663035E+02  0.11935385072E+03 -0.62766201850E+03  0.10221891015E+04  0.79743490699E+03 0.  0.
         22    1    5    5    0    0 -0.29166073392E+03  0.16382990558E+03 -0.20984457618E+02  0.33518139735E+03  0.00000000000E+00 0.  1.
         22    1    5    5    0    0  0.31928639695E+03 -0.44476054854E+02 -0.60667756088E+03  0.68700770419E+03  0.00000000000E+00 0.  1.
          5    1    4    4  502    0 -0.11956620349E+02 -0.13308008143E+03 -0.60452427041E+02  0.14673055162E+03  0.47000000000E+01 0.  1.
         -5    1    4    4    0  502 -0.15669042686E+02  0.13726230704E+02  0.23742663888E+02  0.31933249076E+02  0.47000000000E+01 0.  1.
<mgrwt>
<rscale>  0 0.10003289E+04</rscale>
<asrwt>0</asrwt>
<pdfrwt beam="1">  1        2 0.14347882E+00 0.10003289E+04</pdfrwt>
<pdfrwt beam="2">  1       -2 0.41267779E-01 0.10003289E+04</pdfrwt>
<totfact> 0.18756459E+02</totfact>
</mgrwt>
</event>
<event>
 9    1  0.4412976E-036  0.1005798E+04  0.7818608E-02  0.8675536E-01
         -1   -1    0    0    0  501 -0.00000000000E+00  0.00000000000E+00  0.37475844268E+03  0.37475844268E+03  0.00000000000E+00 0.  1.
          1   -1    0    0  501    0  0.00000000000E+00 -0.00000000000E+00 -0.67485413145E+03  0.67485413145E+03  0.00000000000E+00 0.  1.
         36    2    1    2    0    0 -0.14210854715E-13  0.14210854715E-13 -0.30009568877E+03  0.10496125741E+04  0.10057977597E+04 0.  0.
         25    2    3    3    0    0 -0.65006428830E+02 -0.65284310592E+02  0.58192218420E+02  0.16786152372E+03  0.12768429764E+03 0.  0.
         35    2    3    3    0    0  0.65006428830E+02  0.65284310592E+02 -0.35828790719E+03  0.88175105041E+03  0.80039166253E+03 0.  0.
         22    1    5    5    0    0 -0.19307563506E+03  0.30964019923E+03  0.16453537830E+02  0.36527520138E+03  0.00000000000E+00 0.  1.
         22    1    5    5    0    0  0.25808206389E+03 -0.24435588864E+03 -0.37474144503E+03  0.51647584903E+03  0.00000000000E+00 0.  1.
          5    1    4    4  502    0  0.26205529262E+01  0.11870954256E+02  0.63689002843E+02  0.65008968118E+02  0.47000000000E+01 0. -1.
         -5    1    4    4    0  502 -0.67626981756E+02 -0.77155264848E+02 -0.54967844231E+01  0.10285255560E+03  0.47000000000E+01 0. -1.
<mgrwt>
<rscale>  0 0.10057978E+04</rscale>
<asrwt>0</asrwt>
<pdfrwt beam="1">  1        1 0.10382371E+00 0.10057978E+04</pdfrwt>
<pdfrwt beam="2">  1       -1 0.57655146E-01 0.10057978E+04</pdfrwt>
<totfact> 0.10120232E+02</totfact>
</mgrwt>
</event>
<event>
 9    1  0.4412976E-036  0.9982595E+03  0.7818608E-02  0.8682697E-01
         -2   -1    0    0    0  501 -0.00000000000E+00  0.00000000000E+00  0.23008564398E+03  0.23008564398E+03  0.00000000000E+00 0.  1.
          2   -1    0    0  501    0  0.00000000000E+00 -0.00000000000E+00 -0.10827730121E+04  0.10827730121E+04  0.00000000000E+00 0.  1.
         36    2    1    2    0    0 -0.28421709430E-13 -0.14210854715E-13 -0.85268736813E+03  0.13128586561E+04  0.99825953695E+03 0.  0.
         25    2    3    3    0    0 -0.10068663217E+03 -0.52703247373E+02 -0.56220440004E+02  0.17843108302E+03  0.12554474634E+03 0.  0.
         35    2    3    3    0    0  0.10068663217E+03  0.52703247373E+02 -0.79646692812E+03  0.11344275731E+04  0.79978179572E+03 0.  0.
         22    1    5    5    0    0  0.29486516621E+03  0.20646326258E+03 -0.69744673018E+02  0.36665633017E+03  0.00000000000E+00 0.  1.
         22    1    5    5    0    0 -0.19417853404E+03 -0.15376001520E+03 -0.72672225510E+03  0.76777124290E+03  0.00000000000E+00 0.  1.
          5    1    4    4  502    0 -0.43643059581E+02  0.40476911311E+02 -0.14997111306E+02  0.61563790871E+02  0.47000000000E+01 0.  1.
         -5    1    4    4    0  502 -0.57043572592E+02 -0.93180158684E+02 -0.41223328698E+02  0.11686729215E+03  0.47000000000E+01 0.  1.
<mgrwt>
<rscale>  0 0.99825954E+03</rscale>
<asrwt>0</asrwt>
<pdfrwt beam="1">  1        2 0.16658046E+00 0.99825954E+03</pdfrwt>
<pdfrwt beam="2">  1       -2 0.35397791E-01 0.99825954E+03</pdfrwt>
<totfact> 0.20202743E+02</totfact>
</mgrwt>
</event>
<event>
 9    1  0.4412976E-036  0.1000071E+04  0.7818608E-02  0.8680970E-01
         -2   -1    0    0    0  501 -0.00000000000E+00  0.00000000000E+00  0.25979874278E+03  0.25979874278E+03  0.00000000000E+00 0. -1.
          2   -1    0    0  501    0  0.00000000000E+00 -0.00000000000E+00 -0.96242080904E+03  0.96242080904E+03  0.00000000000E+00 0. -1.
         36    2    1    2    0    0  0.00000000000E+00 -0.28421709430E-13 -0.70262206626E+03  0.12222195518E+04  0.10000714299E+04 0.  0.
         25    2    3    3    0    0  0.66084342177E+02 -0.51034680847E+02 -0.26884110299E+03  0.30799365109E+03  0.12495147669E+03 0.  0.
         35    2    3    3    0    0 -0.66084342177E+02  0.51034680847E+02 -0.43378096326E+03  0.91422590072E+03  0.80041951159E+03 0.  0.
         22    1    5    5    0    0  0.53042861280E+02 -0.36029852450E+03 -0.12038829007E+03  0.38356474327E+03  0.00000000000E+00 0. -1.
         22    1    5    5    0    0 -0.11912720346E+03  0.41133320535E+03 -0.31339267319E+03  0.53066115746E+03  0.00000000000E+00 0. -1.
          5    1    4    4  502    0  0.63772709386E+02  0.26126240532E+02 -0.92567964360E+02  0.11550089581E+03  0.47000000000E+01 0.  1.
         -5    1    4    4    0  502  0.23116327913E+01 -0.77160921379E+02 -0.17627313863E+03  0.19249275529E+03  0.47000000000E+01 0.  1.
<mgrwt>
<rscale>  0 0.10000714E+04</rscale>
<asrwt>0</asrwt>
<pdfrwt beam="1">  1        2 0.14806474E+00 0.10000714E+04</pdfrwt>
<pdfrwt beam="2">  1       -2 0.39969038E-01 0.10000714E+04</pdfrwt>
<totfact> 0.19082846E+02</totfact>
</mgrwt>
</event>
<event>
 9    1  0.4412976E-036  0.1000141E+04  0.7818608E-02  0.8680904E-01
          2   -1    0    0  501    0  0.00000000000E+00  0.00000000000E+00  0.10299184795E+04  0.10299184795E+04  0.00000000000E+00 0.  1.
         -2   -1    0    0    0  501 -0.00000000000E+00 -0.00000000000E+00 -0.24280587814E+03  0.24280587814E+03  0.00000000000E+00 0.  1.
         36    2    1    2    0    0 -0.28421709430E-13 -0.14210854715E-13  0.78711260132E+03  0.12727243576E+04  0.10001405118E+04 0.  0.
         25    2    3    3    0    0 -0.12709863065E+03 -0.54276978646E+02  0.12942407516E+03  0.22659242494E+03  0.12447282228E+03 0.  0.
         35    2    3    3    0    0  0.12709863065E+03  0.54276978646E+02  0.65768852616E+03  0.10461319327E+04  0.80170928070E+03 0.  0.
         22    1    5    5    0    0 -0.23776598726E+03 -0.11671475221E+03 -0.11361993164E+02  0.26511147272E+03  0.00000000000E+00 0. -1.
         22    1    5    5    0    0  0.36486461791E+03  0.17099173085E+03  0.66905051932E+03  0.78102045993E+03  0.00000000000E+00 0. -1.
          5    1    4    4  502    0 -0.11057593474E+03 -0.92353300083E+02  0.97634830489E+02  0.17410002729E+03  0.47000000000E+01 0.  1.
         -5    1    4    4    0  502 -0.16522695913E+02  0.38076321436E+02  0.31789244669E+02  0.52492397650E+02  0.47000000000E+01 0.  1.
<mgrwt>
<rscale>  0 0.10001405E+04</rscale>
<asrwt>0</asrwt>
<pdfrwt beam="1">  1        2 0.15844899E+00 0.10001405E+04</pdfrwt>
<pdfrwt beam="2">  1       -2 0.37354751E-01 0.10001405E+04</pdfrwt>
<totfact> 0.19679724E+02</totfact>
</mgrwt>
</event>
<event>
 9    1  0.4412976E-036  0.1000078E+04  0.7818608E-02  0.8680963E-01
          2   -1    0    0  501    0  0.00000000000E+00  0.00000000000E+00  0.34211078675E+03  0.34211078675E+03  0.00000000000E+00 0.  1.
         -2   -1    0    0    0  501 -0.00000000000E+00 -0.00000000000E+00 -0.73087185149E+03  0.73087185149E+03  0.00000000000E+00 0.  1.
         36    2    1    2    0    0  0.00000000000E+00  0.00000000000E+00 -0.38876106474E+03  0.10729826382E+04  0.10000782852E+04 0.  0.
         25    2    3    3    0    0 -0.11177795936E+02 -0.13929455028E+03 -0.39738297984E+02  0.18940349854E+03  0.12151805657E+03 0.  0.
         35    2    3    3    0    0  0.11177795936E+02  0.13929455028E+03 -0.34902276675E+03  0.88357913970E+03  0.79960445818E+03 0.  0.
         22    1    5    5    0    0  0.62911775054E+02  0.23185799688E+03  0.20725398583E+03  0.31728573368E+03  0.00000000000E+00 0.  1.
         22    1    5    5    0    0 -0.51733979118E+02 -0.92563446602E+02 -0.55627675258E+03  0.56629340602E+03  0.00000000000E+00 0.  1.
          5    1    4    4  502    0  0.32256029226E+02  0.51723497850E+00 -0.27076973464E+02  0.42378903306E+02  0.47000000000E+01 0.  1.
         -5    1    4    4    0  502 -0.43433825162E+02 -0.13981178526E+03 -0.12661324520E+02  0.14702459523E+03  0.47000000000E+01 0.  1.
<mgrwt>
<rscale>  0 0.10000783E+04</rscale>
<asrwt>0</asrwt>
<pdfrwt beam="1">  1        2 0.52632429E-01 0.10000783E+04</pdfrwt>
<pdfrwt beam="2">  1       -2 0.11244182E+00 0.10000783E+04</pdfrwt>
<totfact> 0.69425803E+01</totfact>
</mgrwt>
</event>
<event>
 9    1  0.4412976E-036  0.9997148E+03  0.7818608E-02  0.8681310E-01
         -1   -1    0    0    0  501 -0.00000000000E+00  0.00000000000E+00  0.31749213034E+03  0.31749213034E+03  0.00000000000E+00 0.  1.
          1   -1    0    0  501    0  0.00000000000E+00 -0.00000000000E+00 -0.78697193989E+03  0.78697193989E+03  0.00000000000E+00 0.  1.
         36    2    1    2    0    0  0.00000000000E+00  0.00000000000E+00 -0.46947980955E+03  0.11044640702E+04  0.99971475474E+03 0.  0.
         25    2    3    3    0    0 -0.13399219368E+03 -0.33555641960E+02 -0.11840970622E+03  0.21996799094E+03  0.12363320523E+03 0.  0.
         35    2    3    3    0    0  0.13399219368E+03  0.33555641960E+02 -0.35107010334E+03  0.88449607929E+03  0.80000200484E+03 0.  0.
         22    1    5    5    0    0 -0.13492808634E+03  0.33513116445E+03 -0.31413870082E+03  0.47875004879E+03  0.00000000000E+00 0.  1.
         22    1    5    5    0    0  0.26892028002E+03 -0.30157552249E+03 -0.36931402521E+02  0.40574603050E+03  0.00000000000E+00 0.  1.
          5    1    4    4  502    0 -0.54549493269E+02  0.44409714694E+02 -0.67047575596E+02  0.97289965405E+02  0.47000000000E+01 0. -1.
         -5    1    4    4    0  502 -0.79442700411E+02 -0.77965356654E+02 -0.51362130621E+02  0.12267802553E+03  0.47000000000E+01 0. -1.
<mgrwt>
<rscale>  0 0.99971475E+03</rscale>
<asrwt>0</asrwt>
<pdfrwt beam="1">  1        1 0.12107261E+00 0.99971475E+03</pdfrwt>
<pdfrwt beam="2">  1       -1 0.48844943E-01 0.99971475E+03</pdfrwt>
<totfact> 0.10861397E+02</totfact>
</mgrwt>
</event>
<event>
 9    1  0.4412976E-036  0.9980976E+03  0.7818608E-02  0.8682852E-01
         -2   -1    0    0    0  501 -0.00000000000E+00  0.00000000000E+00  0.24756988983E+03  0.24756988983E+03  0.00000000000E+00 0. -1.
          2   -1    0    0  501    0  0.00000000000E+00 -0.00000000000E+00 -0.10059773686E+04  0.10059773686E+04  0.00000000000E+00 0. -1.
         36    2    1    2    0    0 -0.71054273576E-14  0.00000000000E+00 -0.75840747875E+03  0.12535472584E+04  0.99809760307E+03 0.  0.
         25    2    3    3    0    0  0.29561760766E+02  0.13027348401E+03 -0.18257882119E+03  0.25838992796E+03  0.12484090111E+03 0.  0.
         35    2    3    3    0    0 -0.29561760766E+02 -0.13027348401E+03 -0.57582865756E+03  0.99515733045E+03  0.80057129048E+03 0.  0.
         22    1    5    5    0    0 -0.79093493275E+02 -0.45259232294E+03 -0.45713248254E+03  0.64812475501E+03  0.00000000000E+00 0.  1.
         22    1    5    5    0    0  0.49531732509E+02  0.32231883893E+03 -0.11869617503E+03  0.34703257544E+03  0.00000000000E+00 0.  1.
          5    1    4    4  502    0 -0.42403128693E+02  0.91089981329E+02 -0.10619844937E+03  0.14627238520E+03  0.47000000000E+01 0.  1.
         -5    1    4    4    0  502  0.71964889459E+02  0.39183502683E+02 -0.76380371813E+02  0.11211754276E+03  0.47000000000E+01 0.  1.
<mgrwt>
<rscale>  0 0.99809760E+03</rscale>
<asrwt>0</asrwt>
<pdfrwt beam="1">  1        2 0.15476575E+00 0.99809760E+03</pdfrwt>
<pdfrwt beam="2">  1       -2 0.38087676E-01 0.99809760E+03</pdfrwt>
<totfact> 0.19633306E+02</totfact>
</mgrwt>
</event>
<event>
 9    1  0.4412976E-036  0.1002319E+04  0.7818608E-02  0.8678833E-01
          2   -1    0    0  501    0  0.00000000000E+00  0.00000000000E+00  0.16625493026E+04  0.16625493026E+04  0.00000000000E+00 0. -1.
         -2   -1    0    0    0  501 -0.00000000000E+00 -0.00000000000E+00 -0.15106968843E+03  0.15106968843E+03  0.00000000000E+00 0. -1.
         36    2    1    2    0    0 -0.28421709430E-13  0.14210854715E-13  0.15114796142E+04  0.18136189911E+04  0.10023189216E+04 0.  0.
         25    2    3    3    0    0  0.12657938855E+03 -0.71300661806E+02  0.33371480757E+03  0.38493563691E+03  0.12531458731E+03 0.  0.
         35    2    3    3    0    0 -0.12657938855E+03  0.71300661806E+02  0.11777648066E+04  0.14286833541E+04  0.79555016227E+03 0.  0.
         22    1    5    5    0    0  0.63256264845E+02 -0.60293726150E+02  0.11939377460E+04  0.11971315841E+04  0.00000000000E+00 0.  1.
         22    1    5    5    0    0 -0.18983565339E+03  0.13159438796E+03 -0.16172939323E+02  0.23155177004E+03  0.00000000000E+00 0.  1.
          5    1    4    4  502    0  0.73469174041E+02 -0.99422251432E+02  0.16827718138E+03  0.20885833330E+03  0.47000000000E+01 0.  1.
         -5    1    4    4    0  502  0.53110214507E+02  0.28121589626E+02  0.16543762619E+03  0.17607730362E+03  0.47000000000E+01 0.  1.
<mgrwt>
<rscale>  0 0.10023189E+04</rscale>
<asrwt>0</asrwt>
<pdfrwt beam="1">  1        2 0.25577680E+00 0.10023189E+04</pdfrwt>
<pdfrwt beam="2">  1       -2 0.23241492E-01 0.10023189E+04</pdfrwt>
<totfact> 0.20014407E+02</totfact>
</mgrwt>
</event>
<event>
 9    1  0.4412976E-036  0.1000407E+04  0.7818608E-02  0.8680651E-01
         -2   -1    0    0    0  501 -0.00000000000E+00  0.00000000000E+00  0.25146543014E+03  0.25146543014E+03  0.00000000000E+00 0. -1.
          2   -1    0    0  501    0  0.00000000000E+00 -0.00000000000E+00 -0.99498099458E+03  0.99498099458E+03  0.00000000000E+00 0. -1.
         36    2    1    2    0    0  0.00000000000E+00  0.28421709430E-13 -0.74351556444E+03  0.12464464247E+04  0.10004065649E+04 0.  0.
         25    2    3    3    0    0 -0.18162662214E+02 -0.11443243113E+03 -0.40580602807E+02  0.17531060019E+03  0.12514934128E+03 0.  0.
         35    2    3    3    0    0  0.18162662214E+02  0.11443243113E+03 -0.70293496163E+03  0.10711358245E+04  0.79986857091E+03 0.  0.
         22    1    5    5    0    0  0.42651493681E+02  0.39294149687E+03 -0.68515622196E+03  0.79098749570E+03  0.00000000000E+00 0. -1.
         22    1    5    5    0    0 -0.24488831467E+02 -0.27850906574E+03 -0.17778739676E+02  0.28014832883E+03  0.00000000000E+00 0. -1.
          5    1    4    4  502    0 -0.18872486890E+02  0.99763133909E+01  0.26128011690E+02  0.34065533684E+02  0.47000000000E+01 0.  1.
         -5    1    4    4    0  502  0.70982467591E+00 -0.12440874452E+03 -0.66708614497E+02  0.14124506651E+03  0.47000000000E+01 0.  1.
<mgrwt>
<rscale>  0 0.10004066E+04</rscale>
<asrwt>0</asrwt>
<pdfrwt beam="1">  1        2 0.15307400E+00 0.10004066E+04</pdfrwt>
<pdfrwt beam="2">  1       -2 0.38686988E-01 0.10004066E+04</pdfrwt>
<totfact> 0.19364902E+02</totfact>
</mgrwt>
</event>
<event>
 9    1  0.4412976E-036  0.1000405E+04  0.7818608E-02  0.8680653E-01
          1   -1    0    0  501    0  0.00000000000E+00  0.00000000000E+00  0.77788419508E+03  0.77788419508E+03  0.00000000000E+00 0. -1.
         -1   -1    0    0    0  501 -0.00000000000E+00 -0.00000000000E+00 -0.32164467751E+03  0.32164467751E+03  0.00000000000E+00 0. -1.
         36    2    1    2    0    0  0.14210854715E-13 -0.28421709430E-13  0.45623951757E+03  0.10995288726E+04  0.10004045403E+04 0.  0.
         25    2    3    3    0    0  0.65797374536E+01 -0.13751485712E+03  0.53112153410E+02  0.19319900911E+03  0.12470496144E+03 0.  0.
         35    2    3    3    0    0 -0.65797374536E+01  0.13751485712E+03  0.40312736416E+03  0.90632986347E+03  0.79998032527E+03 0.  0.
         22    1    5    5    0    0  0.13255529030E+03 -0.14323723978E+03  0.53265005903E+03  0.56727761919E+03  0.00000000000E+00 0.  1.
         22    1    5    5    0    0 -0.13913502775E+03  0.28075209691E+03 -0.12952269488E+03  0.33905224428E+03  0.00000000000E+00 0.  1.
          5    1    4    4  502    0 -0.49430058467E+02 -0.26522187697E+02 -0.37301023086E+01  0.56415962135E+02  0.47000000000E+01 0. -1.
         -5    1    4    4    0  502  0.56009795921E+02 -0.11099266942E+03  0.56842255719E+02  0.13678304698E+03  0.47000000000E+01 0. -1.
<mgrwt>
<rscale>  0 0.10004045E+04</rscale>
<asrwt>0</asrwt>
<pdfrwt beam="1">  1        1 0.11967449E+00 0.10004045E+04</pdfrwt>
<pdfrwt beam="2">  1       -1 0.49483797E-01 0.10004045E+04</pdfrwt>
<totfact> 0.10803940E+02</totfact>
</mgrwt>
</event>
<event>
 9    1  0.4412976E-036  0.1000336E+04  0.7818608E-02  0.8680718E-01
         -2   -1    0    0    0  501 -0.00000000000E+00  0.00000000000E+00  0.25694760610E+03  0.25694760610E+03  0.00000000000E+00 0.  1.
          2   -1    0    0  501    0  0.00000000000E+00 -0.00000000000E+00 -0.97361579717E+03  0.97361579717E+03  0.00000000000E+00 0.  1.
         36    2    1    2    0    0  0.00000000000E+00 -0.28421709430E-13 -0.71666819107E+03  0.12305634033E+04  0.10003364401E+04 0.  0.
         25    2    3    3    0    0 -0.73325078350E+02  0.11970437811E+03 -0.14359534764E+03  0.23653005825E+03  0.12498455641E+03 0.  0.
         35    2    3    3    0    0  0.73325078350E+02 -0.11970437811E+03 -0.57307284343E+03  0.99403334501E+03  0.79999006361E+03 0.  0.
         22    1    5    5    0    0  0.14609786855E+01  0.90607078345E+02  0.18395029286E+03  0.20505971654E+03  0.00000000000E+00 0.  1.
         22    1    5    5    0    0  0.71864099664E+02 -0.21031145645E+03 -0.75702313629E+03  0.78897362847E+03  0.00000000000E+00 0.  1.
          5    1    4    4  502    0 -0.63778713052E+02  0.35739870219E+02 -0.41107417101E+01  0.73376091196E+02  0.47000000000E+01 0.  1.
         -5    1    4    4    0  502 -0.95463652975E+01  0.83964507891E+02 -0.13948460593E+03  0.16315396706E+03  0.47000000000E+01 0.  1.
<mgrwt>
<rscale>  0 0.10003364E+04</rscale>
<asrwt>0</asrwt>
<pdfrwt beam="1">  1        2 0.14978704E+00 0.10003364E+04</pdfrwt>
<pdfrwt beam="2">  1       -2 0.39530401E-01 0.10003364E+04</pdfrwt>
<totfact> 0.19172318E+02</totfact>
</mgrwt>
</event>
<event>
 9    1  0.4412976E-036  0.9976415E+03  0.7818608E-02  0.8683287E-01
         -2   -1    0    0    0  501 -0.00000000000E+00  0.00000000000E+00  0.27976511451E+03  0.27976511451E+03  0.00000000000E+00 0.  1.
          2   -1    0    0  501    0  0.00000000000E+00 -0.00000000000E+00 -0.88939653462E+03  0.88939653462E+03  0.00000000000E+00 0.  1.
         36    2    1    2    0    0  0.00000000000E+00  0.00000000000E+00 -0.60963142011E+03  0.11691616491E+04  0.99764146537E+03 0.  0.
         25    2    3    3    0    0  0.10894750390E+03 -0.91672380770E+02 -0.86866517948E+02  0.20783521600E+03  0.12400121398E+03 0.  0.
         35    2    3    3    0    0 -0.10894750390E+03  0.91672380770E+02 -0.52276490216E+03  0.96132643313E+03  0.79409822069E+03 0.  0.
         22    1    5    5    0    0 -0.41447090390E+02 -0.23525084565E+02  0.21059051572E+03  0.21591585448E+03  0.00000000000E+00 0.  1.
         22    1    5    5    0    0 -0.67500413512E+02  0.11519746534E+03 -0.73335541788E+03  0.74541057866E+03  0.00000000000E+00 0.  1.
          5    1    4    4  502    0  0.23139855906E+02  0.66773187273E+01 -0.72383242289E+02  0.76429466052E+02  0.47000000000E+01 0.  1.
         -5    1    4    4    0  502  0.85807647997E+02 -0.98349699497E+02 -0.14483275658E+02  0.13140574995E+03  0.47000000000E+01 0.  1.
<mgrwt>
<rscale>  0 0.99764147E+03</rscale>
<asrwt>0</asrwt>
<pdfrwt beam="1">  1        2 0.13683023E+00 0.99764147E+03</pdfrwt>
<pdfrwt beam="2">  1       -2 0.43040787E-01 0.99764147E+03</pdfrwt>
<totfact> 0.18456646E+02</totfact>
</mgrwt>
</event>
<event>
 9    1  0.4412976E-036  0.1001707E+04  0.7818608E-02  0.8679414E-01
         -1   -1    0    0    0  501 -0.00000000000E+00  0.00000000000E+00  0.34596521015E+03  0.34596521015E+03  0.00000000000E+00 0.  1.
          1   -1    0    0  501    0  0.00000000000E+00 -0.00000000000E+00 -0.72508484155E+03  0.72508484155E+03  0.00000000000E+00 0.  1.
         36    2    1    2    0    0  0.14210854715E-13  0.28421709430E-13 -0.37911963139E+03  0.10710500517E+04  0.10017068026E+04 0.  0.
         25    2    3    3    0    0  0.79447140047E+02  0.77608564334E+02 -0.16586571282E+03  0.23564089007E+03  0.12522083318E+03 0.  0.
         35    2    3    3    0    0 -0.79447140047E+02 -0.77608564334E+02 -0.21325391858E+03  0.83540916163E+03  0.80006018288E+03 0.  0.
         22    1    5    5    0    0 -0.23788702925E+03 -0.28031265681E+03  0.14426588966E+03  0.39494059195E+03  0.00000000000E+00 0.  1.
         22    1    5    5    0    0  0.15843988920E+03  0.20270409247E+03 -0.35751980824E+03  0.44046856968E+03  0.00000000000E+00 0.  1.
          5    1    4    4  502    0  0.28284838638E+02  0.61033267050E+02 -0.16860134682E+03  0.18158633190E+03  0.47000000000E+01 0. -1.
         -5    1    4    4    0  502  0.51162301409E+02  0.16575297285E+02  0.27356339976E+01  0.54054558170E+02  0.47000000000E+01 0. -1.
<mgrwt>
<rscale>  0 0.10017068E+04</rscale>
<asrwt>0</asrwt>
<pdfrwt beam="1">  1        1 0.11155151E+00 0.10017068E+04</pdfrwt>
<pdfrwt beam="2">  1       -1 0.53225417E-01 0.10017068E+04</pdfrwt>
<totfact> 0.10543521E+02</totfact>
</mgrwt>
</event>
<event>
 9    1  0.4412976E-036  0.1000016E+04  0.7818608E-02  0.8681023E-01
         -2   -1    0    0    0  501 -0.00000000000E+00  0.00000000000E+00  0.62802852071E+02  0.62802852071E+02  0.00000000000E+00 0.  1.
          2   -1    0    0  501    0  0.00000000000E+00 -0.00000000000E+00 -0.39808374302E+04  0.39808374302E+04  0.00000000000E+00 0.  1.
         36    2    1    2    0    0 -0.28421709430E-13  0.00000000000E+00 -0.39180345781E+04  0.40436402822E+04  0.10000158884E+04 0.  0.
         25    2    3    3    0    0 -0.12416316162E+03  0.31516493569E+02 -0.95946583675E+03  0.97609444884E+03  0.12560215408E+03 0.  0.
         35    2    3    3    0    0  0.12416316162E+03 -0.31516493569E+02 -0.29585687414E+04  0.30675458334E+04  0.80018664236E+03 0.  0.
         22    1    5    5    0    0 -0.30605489260E+03  0.48689201745E+02 -0.67940982758E+03  0.74675159823E+03  0.00000000000E+00 0. -1.
         22    1    5    5    0    0  0.43021805422E+03 -0.80205695314E+02 -0.22791589138E+04  0.23207942352E+04  0.00000000000E+00 0. -1.
          5    1    4    4  502    0 -0.14005424953E+03  0.41555135932E+01 -0.64810468353E+03  0.66309443665E+03  0.47000000000E+01 0. -1.
         -5    1    4    4    0  502  0.15891087910E+02  0.27360979976E+02 -0.31136115322E+03  0.31300001220E+03  0.47000000000E+01 0. -1.
<mgrwt>
<rscale>  0 0.10000159E+04</rscale>
<asrwt>0</asrwt>
<pdfrwt beam="1">  1        2 0.61243647E+00 0.10000159E+04</pdfrwt>
<pdfrwt beam="2">  1       -2 0.96619781E-02 0.10000159E+04</pdfrwt>
<totfact> 0.24946488E+01</totfact>
</mgrwt>
</event>
<event>
 9    1  0.4412976E-036  0.1000175E+04  0.7818608E-02  0.8680872E-01
          2   -1    0    0  501    0  0.00000000000E+00  0.00000000000E+00  0.14356270580E+04  0.14356270580E+04  0.00000000000E+00 0.  1.
         -2   -1    0    0    0  501 -0.00000000000E+00 -0.00000000000E+00 -0.17420081068E+03  0.17420081068E+03  0.00000000000E+00 0.  1.
         36    2    1    2    0    0 -0.35527136788E-13  0.00000000000E+00  0.12614262473E+04  0.16098278687E+04  0.10001747794E+04 0.  0.
         25    2    3    3    0    0 -0.35211645726E+02  0.10191067749E+03  0.38652492543E+03  0.42003729376E+03  0.12411351251E+03 0.  0.
         35    2    3    3    0    0  0.35211645726E+02 -0.10191067749E+03  0.87490132189E+03  0.11897905749E+04  0.79907674409E+03 0.  0.
         22    1    5    5    0    0  0.34350951502E+03  0.13800484430E+03  0.62387366102E+03  0.72543950049E+03  0.00000000000E+00 0.  1.
         22    1    5    5    0    0 -0.30829786929E+03 -0.23991552179E+03  0.25102766087E+03  0.46435107443E+03  0.00000000000E+00 0.  1.
          5    1    4    4  502    0  0.91735415524E+01 -0.70160029493E+01  0.19383243845E+03  0.19423306195E+03  0.47000000000E+01 0.  1.
         -5    1    4    4    0  502 -0.44385187278E+02  0.10892668044E+03  0.19269248699E+03  0.22580423181E+03  0.47000000000E+01 0.  1.
<mgrwt>
<rscale>  0 0.10001748E+04</rscale>
<asrwt>0</asrwt>
<pdfrwt beam="1">  1        2 0.22086569E+00 0.10001748E+04</pdfrwt>
<pdfrwt beam="2">  1       -2 0.26800126E-01 0.10001748E+04</pdfrwt>
<totfact> 0.20885503E+02</totfact>
</mgrwt>
</event>
<event>
 9    1  0.4412976E-036  0.1000662E+04  0.7818608E-02  0.8680408E-01
          1   -1    0    0  501    0  0.00000000000E+00  0.00000000000E+00  0.40288380234E+03  0.40288380234E+03  0.00000000000E+00 0.  1.
         -1   -1    0    0    0  501 -0.00000000000E+00 -0.00000000000E+00 -0.62134785666E+03  0.62134785666E+03  0.00000000000E+00 0.  1.
         36    2    1    2    0    0  0.00000000000E+00 -0.28421709430E-13 -0.21846405431E+03  0.10242316590E+04  0.10006617552E+04 0.  0.
         25    2    3    3    0    0 -0.80405296589E+01 -0.82136858781E+02 -0.15653345467E+03  0.21585814777E+03  0.12361595302E+03 0.  0.
         35    2    3    3    0    0  0.80405296589E+01  0.82136858781E+02 -0.61930599640E+02  0.80837351123E+03  0.80176132408E+03 0.  0.
         22    1    5    5    0    0  0.36327968652E+03  0.21812906560E+03 -0.50641129738E+01  0.42376652197E+03  0.00000000000E+00 0.  1.
         22    1    5    5    0    0 -0.35523915686E+03 -0.13599220682E+03 -0.56866486666E+02  0.38460698926E+03  0.00000000000E+00 0.  1.
          5    1    4    4  502    0  0.85487257294E+01 -0.11249095856E+03 -0.10953150561E+03  0.15731032131E+03  0.47000000000E+01 0. -1.
         -5    1    4    4    0  502 -0.16589255388E+02  0.30354099780E+02 -0.47001949068E+02  0.58547826467E+02  0.47000000000E+01 0. -1.
<mgrwt>
<rscale>  0 0.10006618E+04</rscale>
<asrwt>0</asrwt>
<pdfrwt beam="1">  1        1 0.61982124E-01 0.10006618E+04</pdfrwt>
<pdfrwt beam="2">  1       -1 0.95591978E-01 0.10006618E+04</pdfrwt>
<totfact> 0.74974708E+01</totfact>
</mgrwt>
</event>
<event>
 9    1  0.4412976E-036  0.1000112E+04  0.7818608E-02  0.8680931E-01
         -1   -1    0    0    0  501 -0.00000000000E+00  0.00000000000E+00  0.27174001627E+03  0.27174001627E+03  0.00000000000E+00 0.  1.
          1   -1    0    0  501    0  0.00000000000E+00 -0.00000000000E+00 -0.92020290274E+03  0.92020290274E+03  0.00000000000E+00 0.  1.
         36    2    1    2    0    0  0.35527136788E-14  0.00000000000E+00 -0.64846288647E+03  0.11919429190E+04  0.10001118973E+04 0.  0.
         25    2    3    3    0    0  0.72114106597E+01 -0.34328254450E+02 -0.28223199764E+03  0.31078058790E+03  0.12529660740E+03 0.  0.
         35    2    3    3    0    0 -0.72114106597E+01  0.34328254450E+02 -0.36623088883E+03  0.88116233111E+03  0.80068193207E+03 0.  0.
         22    1    5    5    0    0 -0.27213753439E+03 -0.19305805394E+03  0.50555399192E+02  0.33747014416E+03  0.00000000000E+00 0.  1.
         22    1    5    5    0    0  0.26492612373E+03  0.22738630839E+03 -0.41678628802E+03  0.54369218695E+03  0.00000000000E+00 0.  1.
          5    1    4    4  502    0 -0.19954722779E+02  0.40284863201E+02 -0.14801746311E+03  0.15476537258E+03  0.47000000000E+01 0. -1.
         -5    1    4    4    0  502  0.27166133438E+02 -0.74613117651E+02 -0.13421453453E+03  0.15601521532E+03  0.47000000000E+01 0. -1.
<mgrwt>
<rscale>  0 0.10001119E+04</rscale>
<asrwt>0</asrwt>
<pdfrwt beam="1">  1        1 0.14156968E+00 0.10001119E+04</pdfrwt>
<pdfrwt beam="2">  1       -1 0.41806156E-01 0.10001119E+04</pdfrwt>
<totfact> 0.11082928E+02</totfact>
</mgrwt>
</event>
<event>
 9    1  0.4412976E-036  0.1000147E+04  0.7818608E-02  0.8680898E-01
          2   -1    0    0  501    0  0.00000000000E+00  0.00000000000E+00  0.30976588078E+03  0.30976588078E+03  0.00000000000E+00 0. -1.
         -2   -1    0    0    0  501 -0.00000000000E+00 -0.00000000000E+00 -0.80729816277E+03  0.80729816277E+03  0.00000000000E+00 0. -1.
         36    2    1    2    0    0 -0.21316282073E-13  0.28421709430E-13 -0.49753228198E+03  0.11170640436E+04  0.10001468421E+04 0.  0.
         25    2    3    3    0    0  0.29491068584E+02  0.11415915466E+03 -0.18126987848E+03  0.24920272214E+03  0.12385956629E+03 0.  0.
         35    2    3    3    0    0 -0.29491068584E+02 -0.11415915466E+03 -0.31626240350E+03  0.86786132141E+03  0.79953694699E+03 0.  0.
         22    1    5    5    0    0  0.25193976175E+03 -0.34915370574E+03 -0.99396649694E+02  0.44188420175E+03  0.00000000000E+00 0.  1.
         22    1    5    5    0    0 -0.28143083034E+03  0.23499455108E+03 -0.21686575381E+03  0.42597711966E+03  0.00000000000E+00 0.  1.
          5    1    4    4  502    0 -0.32105509484E+02  0.89150868615E+02 -0.64398142258E+02  0.11466408261E+03  0.47000000000E+01 0. -1.
         -5    1    4    4    0  502  0.61596578068E+02  0.25008286047E+02 -0.11687173622E+03  0.13453863954E+03  0.47000000000E+01 0. -1.
<mgrwt>
<rscale>  0 0.10001468E+04</rscale>
<asrwt>0</asrwt>
<pdfrwt beam="1">  1        2 0.47656290E-01 0.10001468E+04</pdfrwt>
<pdfrwt beam="2">  1       -2 0.12419972E+00 0.10001468E+04</pdfrwt>
<totfact> 0.59942137E+01</totfact>
</mgrwt>
</event>
<event>
 9    1  0.4412976E-036  0.9996869E+03  0.7818608E-02  0.8681336E-01
          2   -1    0    0  501    0  0.00000000000E+00  0.00000000000E+00  0.14994482747E+04  0.14994482747E+04  0.00000000000E+00 0.  1.
         -2   -1    0    0    0  501 -0.00000000000E+00 -0.00000000000E+00 -0.16662361436E+03  0.16662361436E+03  0.00000000000E+00 0.  1.
         36    2    1    2    0    0 -0.28421709430E-13  0.00000000000E+00  0.13328246603E+04  0.16660718891E+04  0.99968693314E+03 0.  0.
         25    2    3    3    0    0  0.76281837800E+02  0.10715855938E+03  0.32524467079E+03  0.37277214739E+03  0.12598850092E+03 0.  0.
         35    2    3    3    0    0 -0.76281837800E+02 -0.10715855938E+03  0.10075799896E+04  0.12932997417E+04  0.80006556658E+03 0.  0.
         22    1    5    5    0    0 -0.37128507218E+03 -0.25231650224E+03  0.75628853501E+03  0.87948198976E+03  0.00000000000E+00 0.  1.
         22    1    5    5    0    0  0.29500323438E+03  0.14515794285E+03  0.25129145454E+03  0.41381775191E+03  0.00000000000E+00 0.  1.
          5    1    4    4  502    0  0.10859692308E+03  0.59735077693E+02  0.23501114793E+03  0.26573276211E+03  0.47000000000E+01 0.  1.
         -5    1    4    4    0  502 -0.32315085278E+02  0.47423481690E+02  0.90233522862E+02  0.10703938528E+03  0.47000000000E+01 0.  1.
<mgrwt>
<rscale>  0 0.99968693E+03</rscale>
<asrwt>0</asrwt>
<pdfrwt beam="1">  1        2 0.23068434E+00 0.99968693E+03</pdfrwt>
<pdfrwt beam="2">  1       -2 0.25634403E-01 0.99968693E+03</pdfrwt>
<totfact> 0.20802481E+02</totfact>
</mgrwt>
</event>
<event>
 9    1  0.4412976E-036  0.9998832E+03  0.7818608E-02  0.8681149E-01
         -1   -1    0    0    0  501 -0.00000000000E+00  0.00000000000E+00  0.15367201063E+03  0.15367201063E+03  0.00000000000E+00 0.  1.
          1   -1    0    0  501    0  0.00000000000E+00 -0.00000000000E+00 -0.16264615189E+04  0.16264615189E+04  0.00000000000E+00 0.  1.
         36    2    1    2    0    0  0.00000000000E+00 -0.71054273576E-14 -0.14727895083E+04  0.17801335295E+04  0.99988321684E+03 0.  0.
         25    2    3    3    0    0  0.12278983190E+03 -0.36839705163E+02 -0.16778757261E+03  0.24451830778E+03  0.12329649883E+03 0.  0.
         35    2    3    3    0    0 -0.12278983190E+03  0.36839705163E+02 -0.13050019357E+04  0.15356152218E+04  0.79915552336E+03 0.  0.
         22    1    5    5    0    0 -0.22198965759E+03  0.22413635430E+03 -0.12925087550E+03  0.34091392199E+03  0.00000000000E+00 0. -1.
         22    1    5    5    0    0  0.99199825687E+02 -0.18729664913E+03 -0.11757510602E+04  0.11947012998E+04  0.00000000000E+00 0. -1.
          5    1    4    4  502    0  0.61664926331E+02  0.34546452120E+02 -0.28350522322E+02  0.76301131115E+02  0.47000000000E+01 0.  1.
         -5    1    4    4    0  502  0.61124905567E+02 -0.71386157283E+02 -0.13943705029E+03  0.16821717667E+03  0.47000000000E+01 0.  1.
<mgrwt>
<rscale>  0 0.99988322E+03</rscale>
<asrwt>0</asrwt>
<pdfrwt beam="1">  1        1 0.25022483E+00 0.99988322E+03</pdfrwt>
<pdfrwt beam="2">  1       -1 0.23641849E-01 0.99988322E+03</pdfrwt>
<totfact> 0.88277594E+01</totfact>
</mgrwt>
</event>
<event>
 9    1  0.4412976E-036  0.1002082E+04  0.7818608E-02  0.8679058E-01
         -2   -1    0    0    0  501 -0.00000000000E+00  0.00000000000E+00  0.23971776611E+03  0.23971776611E+03  0.00000000000E+00 0.  1.
          2   -1    0    0  501    0  0.00000000000E+00 -0.00000000000E+00 -0.10472394273E+04  0.10472394273E+04  0.00000000000E+00 0.  1.
         36    2    1    2    0    0 -0.14210854715E-13  0.00000000000E+00 -0.80752166119E+03  0.12869571934E+04  0.10020816256E+04 0.  0.
         25    2    3    3    0    0  0.12353920695E+03 -0.65413409358E+02 -0.11451029658E+03  0.21940625864E+03  0.12444134574E+03 0.  0.
         35    2    3    3    0    0 -0.12353920695E+03  0.65413409358E+02 -0.69301136462E+03  0.10675509348E+04  0.79991211835E+03 0.  0.
         22    1    5    5    0    0  0.51678420615E+02  0.36745551906E+03 -0.10837572566E+03  0.38657407513E+03  0.00000000000E+00 0. -1.
         22    1    5    5    0    0 -0.17521762756E+03 -0.30204210971E+03 -0.58463563896E+03  0.68097685966E+03  0.00000000000E+00 0. -1.
          5    1    4    4  502    0  0.60174900240E+02 -0.85849991605E+02 -0.25228614392E+02  0.10793429789E+03  0.47000000000E+01 0. -1.
         -5    1    4    4    0  502  0.63364306709E+02  0.20436582247E+02 -0.89281682183E+02  0.11147196074E+03  0.47000000000E+01 0. -1.
<mgrwt>
<rscale>  0 0.10020816E+04</rscale>
<asrwt>0</asrwt>
<pdfrwt beam="1">  1        2 0.16111376E+00 0.10020816E+04</pdfrwt>
<pdfrwt beam="2">  1       -2 0.36879656E-01 0.10020816E+04</pdfrwt>
<totfact> 0.19668529E+02</totfact>
</mgrwt>
</event>
<event>
 9    1  0.4412976E-036  0.9974384E+03  0.7818608E-02  0.8683481E-01
          1   -1    0    0  501    0  0.00000000000E+00  0.00000000000E+00  0.17334006440E+04  0.17334006440E+04  0.00000000000E+00 0. -1.
         -1   -1    0    0    0  501 -0.00000000000E+00 -0.00000000000E+00 -0.14348720979E+03  0.14348720979E+03  0.00000000000E+00 0. -1.
         36    2    1    2    0    0  0.00000000000E+00  0.28421709430E-13  0.15899134342E+04  0.18768878538E+04  0.99743836273E+03 0.  0.
         25    2    3    3    0    0  0.31446764284E+02 -0.98668174345E+02  0.47191433637E+03  0.49842579920E+03  0.12247787076E+03 0.  0.
         35    2    3    3    0    0 -0.31446764284E+02  0.98668174345E+02  0.11179990979E+04  0.13784620546E+04  0.79969453266E+03 0.  0.
         22    1    5    5    0    0 -0.22701751875E+03  0.37198912016E+03  0.42725067230E+03  0.61029173050E+03  0.00000000000E+00 0. -1.
         22    1    5    5    0    0  0.19557075447E+03 -0.27332094581E+03  0.69074842556E+03  0.76817032411E+03  0.00000000000E+00 0. -1.
          5    1    4    4  502    0 -0.17714163705E+02  0.21719438638E+02  0.58885867404E+02  0.65384715266E+02  0.47000000000E+01 0. -1.
         -5    1    4    4    0  502  0.49160927989E+02 -0.12038761298E+03  0.41302846897E+03  0.43304108394E+03  0.47000000000E+01 0. -1.
<mgrwt>
<rscale>  0 0.99743836E+03</rscale>
<asrwt>0</asrwt>
<pdfrwt beam="1">  1        1 0.26667701E+00 0.99743836E+03</pdfrwt>
<pdfrwt beam="2">  1       -1 0.22074957E-01 0.99743836E+03</pdfrwt>
<totfact> 0.83208180E+01</totfact>
</mgrwt>
</event>
<event>
 9    1  0.4412976E-036  0.1001134E+04  0.7818608E-02  0.8679959E-01
         -1   -1    0    0    0  501 -0.00000000000E+00  0.00000000000E+00  0.97058995741E+03  0.97058995741E+03  0.00000000000E+00 0. -1.
          1   -1    0    0  501    0  0.00000000000E+00 -0.00000000000E+00 -0.25815956520E+03  0.25815956520E+03  0.00000000000E+00 0. -1.
         36    2    1    2    0    0 -0.21316282073E-13  0.28421709430E-13  0.71243039221E+03  0.12287495226E+04  0.10011335204E+04 0.  0.
         25    2    3    3    0    0  0.36879624993E+02  0.12972514472E+03  0.10872388768E+03  0.21417727924E+03  0.12594563620E+03 0.  0.
         35    2    3    3    0    0 -0.36879624993E+02 -0.12972514472E+03  0.60370650452E+03  0.10145722434E+04  0.80418068461E+03 0.  0.
         22    1    5    5    0    0  0.22539893570E+03 -0.37382095673E+03  0.21728800156E+03  0.48760728412E+03  0.00000000000E+00 0. -1.
         22    1    5    5    0    0 -0.26227856069E+03  0.24409581201E+03  0.38641850296E+03  0.52696495925E+03  0.00000000000E+00 0. -1.
          5    1    4    4  502    0  0.24742869410E+02  0.10852501580E+03  0.94218844037E+01  0.11180675537E+03  0.47000000000E+01 0.  1.
         -5    1    4    4    0  502  0.12136755583E+02  0.21200128924E+02  0.99302003281E+02  0.10237052387E+03  0.47000000000E+01 0.  1.
<mgrwt>
<rscale>  0 0.10011335E+04</rscale>
<asrwt>0</asrwt>
<pdfrwt beam="1">  1        1 0.39716857E-01 0.10011335E+04</pdfrwt>
<pdfrwt beam="2">  1       -1 0.14932153E+00 0.10011335E+04</pdfrwt>
<totfact> 0.44282559E+01</totfact>
</mgrwt>
</event>
<event>
 9    1  0.4412976E-036  0.1000043E+04  0.7818608E-02  0.8680997E-01
         -1   -1    0    0    0  501 -0.00000000000E+00  0.00000000000E+00  0.53144883312E+03  0.53144883312E+03  0.00000000000E+00 0.  1.
          1   -1    0    0  501    0  0.00000000000E+00 -0.00000000000E+00 -0.47045302260E+03  0.47045302260E+03  0.00000000000E+00 0.  1.
         36    2    1    2    0    0  0.14210854715E-13  0.35527136788E-14  0.60995810518E+02  0.10019018557E+04  0.10000434188E+04 0.  0.
         25    2    3    3    0    0 -0.80930398796E+02 -0.31750235224E+02  0.12184810758E+03  0.19545250839E+03  0.12568577815E+03 0.  0.
         35    2    3    3    0    0  0.80930398796E+02  0.31750235224E+02 -0.60852297059E+02  0.80644934733E+03  0.79943714003E+03 0.  0.
         22    1    5    5    0    0 -0.60783227501E+02  0.28304066787E+02  0.35801795865E+03  0.36424247371E+03  0.00000000000E+00 0.  1.
         22    1    5    5    0    0  0.14171362630E+03  0.34461684365E+01 -0.41887025571E+03  0.44220687361E+03  0.00000000000E+00 0.  1.
          5    1    4    4  502    0  0.77967747957E+01 -0.27226871372E+02 -0.14874003148E+02  0.32332927359E+02  0.47000000000E+01 0.  1.
         -5    1    4    4    0  502 -0.88727173591E+02 -0.45233638516E+01  0.13672211072E+03  0.16311958103E+03  0.47000000000E+01 0.  1.
<mgrwt>
<rscale>  0 0.10000434E+04</rscale>
<asrwt>0</asrwt>
<pdfrwt beam="1">  1        1 0.72377388E-01 0.10000434E+04</pdfrwt>
<pdfrwt beam="2">  1       -1 0.81761359E-01 0.10000434E+04</pdfrwt>
<totfact> 0.84975510E+01</totfact>
</mgrwt>
</event>
<event>
 9    1  0.4412976E-036  0.1000020E+04  0.7818608E-02  0.8681019E-01
          2   -1    0    0  501    0  0.00000000000E+00  0.00000000000E+00  0.18434792957E+04  0.18434792957E+04  0.00000000000E+00 0. -1.
         -2   -1    0    0    0  501 -0.00000000000E+00 -0.00000000000E+00 -0.13561856046E+03  0.13561856046E+03  0.00000000000E+00 0. -1.
         36    2    1    2    0    0  0.00000000000E+00  0.21316282073E-13  0.17078607352E+04  0.19790978561E+04  0.10000200164E+04 0.  0.
         25    2    3    3    0    0 -0.69757865034E+02 -0.44687677859E+01  0.79354931852E+02  0.16360170060E+03  0.12482860894E+03 0.  0.
         35    2    3    3    0    0  0.69757865034E+02  0.44687677859E+01  0.16285058034E+04  0.18154961555E+04  0.79944293702E+03 0.  0.
         22    1    5    5    0    0 -0.57562901407E+01  0.31780679007E+03  0.26326653598E+03  0.41272697957E+03  0.00000000000E+00 0. -1.
         22    1    5    5    0    0  0.75514155175E+02 -0.31333802229E+03  0.13652392674E+04  0.14027691760E+04  0.00000000000E+00 0. -1.
          5    1    4    4  502    0 -0.49106983386E+02  0.57814116242E+02  0.53382668375E+02  0.92875008139E+02  0.47000000000E+01 0.  1.
         -5    1    4    4    0  502 -0.20650881649E+02 -0.62282884028E+02  0.25972263477E+02  0.70726692456E+02  0.47000000000E+01 0.  1.
<mgrwt>
<rscale>  0 0.10000200E+04</rscale>
<asrwt>0</asrwt>
<pdfrwt beam="1">  1        2 0.28361218E+00 0.10000200E+04</pdfrwt>
<pdfrwt beam="2">  1       -2 0.20864395E-01 0.10000200E+04</pdfrwt>
<totfact> 0.19109924E+02</totfact>
</mgrwt>
</event>
<event>
 9    1  0.4412976E-036  0.1010110E+04  0.7818608E-02  0.8671470E-01
          2   -1    0    0  501    0  0.00000000000E+00  0.00000000000E+00  0.50077643761E+03  0.50077643761E+03  0.00000000000E+00 0.  1.
         -2   -1    0    0    0  501 -0.00000000000E+00 -0.00000000000E+00 -0.50936979765E+03  0.50936979765E+03  0.00000000000E+00 0.  1.
         36    2    1    2    0    0  0.14210854715E-13 -0.28421709430E-13 -0.85933600374E+01  0.10101462353E+04  0.10101096825E+04 0.  0.
         25    2    3    3    0    0  0.53730507065E+02 -0.12939550309E+03  0.53640949012E+02  0.19491148581E+03  0.12443059222E+03 0.  0.
         35    2    3    3    0    0 -0.53730507065E+02  0.12939550309E+03 -0.62234309050E+02  0.81523474944E+03  0.80068996738E+03 0.  0.
         22    1    5    5    0    0  0.81777510809E+02  0.26431468551E+03 -0.36446835461E+03  0.45758823823E+03  0.00000000000E+00 0. -1.
         22    1    5    5    0    0 -0.13550801787E+03 -0.13491918242E+03  0.30223404556E+03  0.35764651122E+03  0.00000000000E+00 0. -1.
          5    1    4    4  502    0  0.76358145196E+02 -0.11567947628E+03  0.43334453667E+01  0.13875581544E+03  0.47000000000E+01 0. -1.
         -5    1    4    4    0  502 -0.22627638131E+02 -0.13716026812E+02  0.49307503645E+02  0.56155670370E+02  0.47000000000E+01 0. -1.
<mgrwt>
<rscale>  0 0.10101097E+04</rscale>
<asrwt>0</asrwt>
<pdfrwt beam="1">  1        2 0.77042529E-01 0.10101097E+04</pdfrwt>
<pdfrwt beam="2">  1       -2 0.78364584E-01 0.10101097E+04</pdfrwt>
<totfact> 0.10733872E+02</totfact>
</mgrwt>
</event>
<event>
 9    1  0.4412976E-036  0.1000739E+04  0.7818608E-02  0.8680335E-01
          1   -1    0    0  501    0  0.00000000000E+00  0.00000000000E+00  0.64484031001E+03  0.64484031001E+03  0.00000000000E+00 0.  1.
         -1   -1    0    0    0  501 -0.00000000000E+00 -0.00000000000E+00 -0.38826600099E+03  0.38826600099E+03  0.00000000000E+00 0.  1.
         36    2    1    2    0    0 -0.71054273576E-14  0.71054273576E-14  0.25657430902E+03  0.10331063110E+04  0.10007388639E+04 0.  0.
         25    2    3    3    0    0 -0.24671284208E+02 -0.26314962501E+02  0.18916157903E+03  0.22951220400E+03  0.12487032990E+03 0.  0.
         35    2    3    3    0    0  0.24671284208E+02  0.26314962501E+02  0.67412729995E+02  0.80359410700E+03  0.79994866281E+03 0.  0.
         22    1    5    5    0    0  0.24652689419E+03 -0.33829518854E+02  0.35619001536E+03  0.43450117716E+03  0.00000000000E+00 0.  1.
         22    1    5    5    0    0 -0.22185560998E+03  0.60144481355E+02 -0.28877728537E+03  0.36909292985E+03  0.00000000000E+00 0.  1.
          5    1    4    4  502    0  0.37591641658E+02 -0.14556783438E+01  0.11584190455E+02  0.39642578000E+02  0.47000000000E+01 0. -1.
         -5    1    4    4    0  502 -0.62262925866E+02 -0.24859284158E+02  0.17757738857E+03  0.18986962600E+03  0.47000000000E+01 0. -1.
<mgrwt>
<rscale>  0 0.10007389E+04</rscale>
<asrwt>0</asrwt>
<pdfrwt beam="1">  1        1 0.99206201E-01 0.10007389E+04</pdfrwt>
<pdfrwt beam="2">  1       -1 0.59733231E-01 0.10007389E+04</pdfrwt>
<totfact> 0.10133358E+02</totfact>
</mgrwt>
</event>
<event>
 9    1  0.4412976E-036  0.1001319E+04  0.7818608E-02  0.8679782E-01
          2   -1    0    0  501    0  0.00000000000E+00  0.00000000000E+00  0.27720329200E+04  0.27720329200E+04  0.00000000000E+00 0. -1.
         -2   -1    0    0    0  501 -0.00000000000E+00 -0.00000000000E+00 -0.90424673751E+02  0.90424673751E+02  0.00000000000E+00 0. -1.
         36    2    1    2    0    0 -0.14210854715E-13  0.00000000000E+00  0.26816082463E+04  0.28624575938E+04  0.10013194743E+04 0.  0.
         25    2    3    3    0    0  0.64893219375E+02  0.83730421206E+02  0.23281374347E+03  0.28421506139E+03  0.12391145474E+03 0.  0.
         35    2    3    3    0    0 -0.64893219375E+02 -0.83730421206E+02  0.24487945028E+04  0.25782425324E+04  0.79969877172E+03 0.  0.
         22    1    5    5    0    0 -0.39695472645E+03 -0.10666522494E+02  0.78113350304E+03  0.87627414610E+03  0.00000000000E+00 0.  1.
         22    1    5    5    0    0  0.33206150708E+03 -0.73063898712E+02  0.16676609998E+04  0.17019683863E+04  0.00000000000E+00 0.  1.
          5    1    4    4  502    0  0.25376918131E+02  0.62774167169E+02  0.22926405725E+03  0.23909973230E+03  0.47000000000E+01 0.  1.
         -5    1    4    4    0  502  0.39516301245E+02  0.20956254037E+02  0.35496862249E+01  0.45115329098E+02  0.47000000000E+01 0.  1.
<mgrwt>
<rscale>  0 0.10013195E+04</rscale>
<asrwt>0</asrwt>
<pdfrwt beam="1">  1        2 0.42646654E+00 0.10013195E+04</pdfrwt>
<pdfrwt beam="2">  1       -2 0.13911490E-01 0.10013195E+04</pdfrwt>
<totfact> 0.10689428E+02</totfact>
</mgrwt>
</event>
<event>
 9    1  0.4412976E-036  0.1000077E+04  0.7818608E-02  0.8680964E-01
         -2   -1    0    0    0  501 -0.00000000000E+00  0.00000000000E+00  0.23962260145E+03  0.23962260145E+03  0.00000000000E+00 0.  1.
          2   -1    0    0  501    0  0.00000000000E+00 -0.00000000000E+00 -0.10434689389E+04  0.10434689389E+04  0.00000000000E+00 0.  1.
         36    2    1    2    0    0  0.00000000000E+00  0.00000000000E+00 -0.80384633747E+03  0.12830915404E+04  0.10000774804E+04 0.  0.
         25    2    3    3    0    0 -0.80306368499E+02 -0.95072895310E+02 -0.23751937416E+03  0.29542785358E+03  0.12399272286E+03 0.  0.
         35    2    3    3    0    0  0.80306368499E+02  0.95072895310E+02 -0.56632696331E+03  0.98766368679E+03  0.79954071854E+03 0.  0.
         22    1    5    5    0    0 -0.18533669630E+03  0.34905005664E+03 -0.12749079992E+03  0.41525839799E+03  0.00000000000E+00 0.  1.
         22    1    5    5    0    0  0.26564306480E+03 -0.25397716133E+03 -0.43883616339E+03  0.57240528880E+03  0.00000000000E+00 0.  1.
          5    1    4    4  502    0  0.29362668921E+02 -0.11654057037E+02 -0.19339039890E+02  0.37337271398E+02  0.47000000000E+01 0. -1.
         -5    1    4    4    0  502 -0.10966903742E+03 -0.83418838273E+02 -0.21818033427E+03  0.25809058218E+03  0.47000000000E+01 0. -1.
<mgrwt>
<rscale>  0 0.10000775E+04</rscale>
<asrwt>0</asrwt>
<pdfrwt beam="1">  1        2 0.16053368E+00 0.10000775E+04</pdfrwt>
<pdfrwt beam="2">  1       -2 0.36865015E-01 0.10000775E+04</pdfrwt>
<totfact> 0.19789446E+02</totfact>
</mgrwt>
</event>
<event>
 9    1  0.4412976E-036  0.1001057E+04  0.7818608E-02  0.8680032E-01
          2   -1    0    0  501    0  0.00000000000E+00  0.00000000000E+00  0.65086361106E+03  0.65086361106E+03  0.00000000000E+00 0.  1.
         -2   -1    0    0    0  501 -0.00000000000E+00 -0.00000000000E+00 -0.38491742653E+03  0.38491742653E+03  0.00000000000E+00 0.  1.
         36    2    1    2    0    0  0.00000000000E+00  0.00000000000E+00  0.26594618453E+03  0.10357810376E+04  0.10010569338E+04 0.  0.
         25    2    3    3    0    0  0.10239980066E+03  0.30551568991E+02 -0.51991424603E+02  0.17221843210E+03  0.12464735288E+03 0.  0.
         35    2    3    3    0    0 -0.10239980066E+03 -0.30551568991E+02  0.31793760913E+03  0.86356260549E+03  0.79576185681E+03 0.  0.
         22    1    5    5    0    0 -0.71256049626E+02 -0.21946712119E+02  0.58742869041E+03  0.59214149416E+03  0.00000000000E+00 0.  1.
         22    1    5    5    0    0 -0.31143751029E+02 -0.86048568726E+01 -0.26949108128E+03  0.27142111133E+03  0.00000000000E+00 0.  1.
          5    1    4    4  502    0  0.83718006760E+01  0.58205523114E+02 -0.44340066641E+02  0.73797706450E+02  0.47000000000E+01 0. -1.
         -5    1    4    4    0  502  0.94027999979E+02 -0.27653954123E+02 -0.76513579622E+01  0.98420725649E+02  0.47000000000E+01 0. -1.
<mgrwt>
<rscale>  0 0.10010569E+04</rscale>
<asrwt>0</asrwt>
<pdfrwt beam="1">  1        2 0.10013286E+00 0.10010569E+04</pdfrwt>
<pdfrwt beam="2">  1       -2 0.59218066E-01 0.10010569E+04</pdfrwt>
<totfact> 0.14462773E+02</totfact>
</mgrwt>
</event>
<event>
 9    1  0.4412976E-036  0.1000309E+04  0.7818608E-02  0.8680744E-01
          2   -1    0    0  501    0  0.00000000000E+00  0.00000000000E+00  0.32851182899E+03  0.32851182899E+03  0.00000000000E+00 0.  1.
         -2   -1    0    0    0  501 -0.00000000000E+00 -0.00000000000E+00 -0.76147804096E+03  0.76147804096E+03  0.00000000000E+00 0.  1.
         36    2    1    2    0    0  0.00000000000E+00  0.14210854715E-13 -0.43296621197E+03  0.10899898700E+04  0.10003090402E+04 0.  0.
         25    2    3    3    0    0 -0.11830935408E+03 -0.74793165162E+02 -0.96203229865E+02  0.21104198827E+03  0.12526986294E+03 0.  0.
         35    2    3    3    0    0  0.11830935408E+03  0.74793165162E+02 -0.33676298210E+03  0.87894788168E+03  0.79971804517E+03 0.  0.
         22    1    5    5    0    0  0.82044615711E+02 -0.12130569981E+03  0.23305133487E+03  0.27524410340E+03  0.00000000000E+00 0. -1.
         22    1    5    5    0    0  0.36264738366E+02  0.19609886497E+03 -0.56981431697E+03  0.60370377828E+03  0.00000000000E+00 0. -1.
          5    1    4    4  502    0 -0.89933769236E+02 -0.89043566031E+02 -0.19817583104E+02  0.12818606048E+03  0.47000000000E+01 0.  1.
         -5    1    4    4    0  502 -0.28375584841E+02  0.14250400869E+02 -0.76385646761E+02  0.82855927797E+02  0.47000000000E+01 0.  1.
<mgrwt>
<rscale>  0 0.10003090E+04</rscale>
<asrwt>0</asrwt>
<pdfrwt beam="1">  1        2 0.50540281E-01 0.10003090E+04</pdfrwt>
<pdfrwt beam="2">  1       -2 0.11715047E+00 0.10003090E+04</pdfrwt>
<totfact> 0.65382961E+01</totfact>
</mgrwt>
</event>
<event>
 9    1  0.4412976E-036  0.9993878E+03  0.7818608E-02  0.8681621E-01
          2   -1    0    0  501    0  0.00000000000E+00  0.00000000000E+00  0.34929483321E+03  0.34929483321E+03  0.00000000000E+00 0. -1.
         -2   -1    0    0    0  501 -0.00000000000E+00 -0.00000000000E+00 -0.71485162596E+03  0.71485162596E+03  0.00000000000E+00 0. -1.
         36    2    1    2    0    0 -0.21316282073E-13  0.00000000000E+00 -0.36555679275E+03  0.10641464592E+04  0.99938777151E+03 0.  0.
         25    2    3    3    0    0  0.45968615593E+02 -0.12971270240E+03 -0.44379673254E+02  0.19107303102E+03  0.12490335864E+03 0.  0.
         35    2    3    3    0    0 -0.45968615593E+02  0.12971270240E+03 -0.32117711949E+03  0.87307342816E+03  0.80010247474E+03 0.  0.
         22    1    5    5    0    0 -0.17437333130E+03 -0.14522585006E+03 -0.47973513031E+03  0.53069991657E+03  0.00000000000E+00 0.  1.
         22    1    5    5    0    0  0.12840471571E+03  0.27493855246E+03  0.15855801082E+03  0.34237351159E+03  0.00000000000E+00 0.  1.
          5    1    4    4  502    0  0.36334494175E+02 -0.12717320672E+03  0.12687623957E+02  0.13295219357E+03  0.47000000000E+01 0. -1.
         -5    1    4    4    0  502  0.96341214185E+01 -0.25394956811E+01 -0.57067297211E+02  0.58120837441E+02  0.47000000000E+01 0. -1.
<mgrwt>
<rscale>  0 0.99938777E+03</rscale>
<asrwt>0</asrwt>
<pdfrwt beam="1">  1        2 0.53737667E-01 0.99938777E+03</pdfrwt>
<pdfrwt beam="2">  1       -2 0.10997717E+00 0.99938777E+03</pdfrwt>
<totfact> 0.71754043E+01</totfact>
</mgrwt>
</event>
<event>
 9    1  0.4412976E-036  0.1000222E+04  0.7818608E-02  0.8680826E-01
          2   -1    0    0  501    0  0.00000000000E+00  0.00000000000E+00  0.51939919374E+03  0.51939919374E+03  0.00000000000E+00 0. -1.
         -2   -1    0    0    0  501 -0.00000000000E+00 -0.00000000000E+00 -0.48153920754E+03  0.48153920754E+03  0.00000000000E+00 0. -1.
         36    2    1    2    0    0 -0.28421709430E-13 -0.17763568394E-13  0.37859986198E+02  0.10009384013E+04  0.10002221276E+04 0.  0.
         25    2    3    3    0    0  0.77123797604E+02 -0.50431909209E+01  0.12444123722E+03  0.19331809711E+03  0.12614575386E+03 0.  0.
         35    2    3    3    0    0 -0.77123797604E+02  0.50431909209E+01 -0.86581251026E+02  0.80762030418E+03  0.79923759219E+03 0.  0.
         22    1    5    5    0    0  0.23487398292E+03  0.24821038344E+03  0.11896437635E+03  0.36183795426E+03  0.00000000000E+00 0.  1.
         22    1    5    5    0    0 -0.31199778053E+03 -0.24316719252E+03 -0.20554562738E+03  0.44578234992E+03  0.00000000000E+00 0.  1.
          5    1    4    4  502    0 -0.35470634458E+01 -0.28293214286E+02  0.10238795890E+03  0.10638830651E+03  0.47000000000E+01 0. -1.
         -5    1    4    4    0  502  0.80670861050E+02  0.23250023365E+02  0.22053278324E+02  0.86929790600E+02  0.47000000000E+01 0. -1.
<mgrwt>
<rscale>  0 0.10002221E+04</rscale>
<asrwt>0</asrwt>
<pdfrwt beam="1">  1        2 0.79907568E-01 0.10002221E+04</pdfrwt>
<pdfrwt beam="2">  1       -2 0.74082955E-01 0.10002221E+04</pdfrwt>
<totfact> 0.11679811E+02</totfact>
</mgrwt>
</event>
<event>
 9    1  0.4412976E-036  0.9994862E+03  0.7818608E-02  0.8681527E-01
         -1   -1    0    0    0  501 -0.00000000000E+00  0.00000000000E+00  0.32465524214E+03  0.32465524214E+03  0.00000000000E+00 0. -1.
          1   -1    0    0  501    0  0.00000000000E+00 -0.00000000000E+00 -0.76925652935E+03  0.76925652935E+03  0.00000000000E+00 0. -1.
         36    2    1    2    0    0 -0.56843418861E-13  0.23092638912E-13 -0.44460128721E+03  0.10939117715E+04  0.99948619761E+03 0.  0.
         25    2    3    3    0    0 -0.13106086752E+03  0.73055212436E+01 -0.29523459971E+02  0.18316342361E+03  0.12428549160E+03 0.  0.
         35    2    3    3    0    0  0.13106086752E+03 -0.73055212436E+01 -0.41507782724E+03  0.91074834788E+03  0.79996414224E+03 0.  0.
         22    1    5    5    0    0 -0.13553661399E+02  0.37088168350E+03 -0.33084118030E+03  0.49718488662E+03  0.00000000000E+00 0. -1.
         22    1    5    5    0    0  0.14461452892E+03 -0.37818720475E+03 -0.84236646934E+02  0.41356346127E+03  0.00000000000E+00 0. -1.
          5    1    4    4  502    0 -0.93027129717E+02  0.17000097077E+02 -0.76529411965E+02  0.12174518906E+03  0.47000000000E+01 0. -1.
         -5    1    4    4    0  502 -0.38033737800E+02 -0.96945758334E+01  0.47005951994E+02  0.61418234544E+02  0.47000000000E+01 0. -1.
<mgrwt>
<rscale>  0 0.99948620E+03</rscale>
<asrwt>0</asrwt>
<pdfrwt beam="1">  1        1 0.11834716E+00 0.99948620E+03</pdfrwt>
<pdfrwt beam="2">  1       -1 0.49946961E-01 0.99948620E+03</pdfrwt>
<totfact> 0.10811945E+02</totfact>
</mgrwt>
</event>
<event>
 9    1  0.4412976E-036  0.1000897E+04  0.7818608E-02  0.8680185E-01
          1   -1    0    0  501    0  0.00000000000E+00  0.00000000000E+00  0.13469906955E+04  0.13469906955E+04  0.00000000000E+00 0. -1.
         -1   -1    0    0    0  501 -0.00000000000E+00 -0.00000000000E+00 -0.18593187108E+03  0.18593187108E+03  0.00000000000E+00 0. -1.
         36    2    1    2    0    0 -0.28421709430E-13 -0.71054273576E-14  0.11610588245E+04  0.15329225666E+04  0.10008965987E+04 0.  0.
         25    2    3    3    0    0 -0.13059426646E+03 -0.23290717337E+02  0.27469299049E+03  0.33161672655E+03  0.13006188665E+03 0.  0.
         35    2    3    3    0    0  0.13059426646E+03  0.23290717337E+02  0.88636583396E+03  0.12013058401E+04  0.79993375338E+03 0.  0.
         22    1    5    5    0    0  0.45944213054E+03  0.84778817068E+02  0.60345869654E+03  0.76317554833E+03  0.00000000000E+00 0. -1.
         22    1    5    5    0    0 -0.32884786409E+03 -0.61488099731E+02  0.28290713742E+03  0.43813029172E+03  0.00000000000E+00 0. -1.
          5    1    4    4  502    0  0.27761064913E+01  0.37100456651E+02  0.76183926850E+02  0.84913081214E+02  0.47000000000E+01 0.  1.
         -5    1    4    4    0  502 -0.13337037295E+03 -0.60391173988E+02  0.19850906364E+03  0.24670364534E+03  0.47000000000E+01 0.  1.
<mgrwt>
<rscale>  0 0.10008966E+04</rscale>
<asrwt>0</asrwt>
<pdfrwt beam="1">  1        1 0.20722933E+00 0.10008966E+04</pdfrwt>
<pdfrwt beam="2">  1       -1 0.28604904E-01 0.10008966E+04</pdfrwt>
<totfact> 0.10133522E+02</totfact>
</mgrwt>
</event>
<event>
 9    1  0.4412976E-036  0.1000123E+04  0.7818608E-02  0.8680921E-01
         -2   -1    0    0    0  501 -0.00000000000E+00  0.00000000000E+00  0.24173664529E+03  0.24173664529E+03  0.00000000000E+00 0. -1.
          2   -1    0    0  501    0  0.00000000000E+00 -0.00000000000E+00 -0.10344368518E+04  0.10344368518E+04  0.00000000000E+00 0. -1.
         36    2    1    2    0    0  0.00000000000E+00 -0.71054273576E-14 -0.79270020649E+03  0.12761734971E+04  0.10001225811E+04 0.  0.
         25    2    3    3    0    0  0.59899585746E+02  0.26467150618E+02  0.87949903850E+01  0.14207481327E+03  0.12577531664E+03 0.  0.
         35    2    3    3    0    0 -0.59899585746E+02 -0.26467150618E+02 -0.80149519688E+03  0.11340986838E+04  0.79968544038E+03 0.  0.
         22    1    5    5    0    0  0.30221099131E+03 -0.65165238863E+02 -0.68535130528E+03  0.75185397736E+03  0.00000000000E+00 0.  1.
         22    1    5    5    0    0 -0.36211057705E+03  0.38698088246E+02 -0.11614389159E+03  0.38224470644E+03  0.00000000000E+00 0.  1.
          5    1    4    4  502    0 -0.34026185201E+02  0.31461146279E+02 -0.51833412346E+01  0.46867281027E+02  0.47000000000E+01 0.  1.
         -5    1    4    4    0  502  0.93925770947E+02 -0.49939956616E+01  0.13978331620E+02  0.95207532241E+02  0.47000000000E+01 0.  1.
<mgrwt>
<rscale>  0 0.10001226E+04</rscale>
<asrwt>0</asrwt>
<pdfrwt beam="1">  1        2 0.15914413E+00 0.10001226E+04</pdfrwt>
<pdfrwt beam="2">  1       -2 0.37190253E-01 0.10001226E+04</pdfrwt>
<totfact> 0.19716656E+02</totfact>
</mgrwt>
</event>
<event>
 9    1  0.4412976E-036  0.9989355E+03  0.7818608E-02  0.8682052E-01
          2   -1    0    0  501    0  0.00000000000E+00  0.00000000000E+00  0.20786324956E+03  0.20786324956E+03  0.00000000000E+00 0. -1.
         -2   -1    0    0    0  501 -0.00000000000E+00 -0.00000000000E+00 -0.12001545665E+04  0.12001545665E+04  0.00000000000E+00 0. -1.
         36    2    1    2    0    0  0.17763568394E-13 -0.14210854715E-13 -0.99229131693E+03  0.14080178160E+04  0.99893548973E+03 0.  0.
         25    2    3    3    0    0  0.12496887225E+02 -0.92742263899E+02 -0.39180802307E+02  0.16006933532E+03  0.12381339643E+03 0.  0.
         35    2    3    3    0    0 -0.12496887225E+02  0.92742263899E+02 -0.95311051463E+03  0.12479484807E+04  0.80012402648E+03 0.  0.
         22    1    5    5    0    0 -0.38867062961E+03  0.15983216819E+03 -0.55467423941E+03  0.69589847835E+03  0.00000000000E+00 0. -1.
         22    1    5    5    0    0  0.37617374238E+03 -0.67089904288E+02 -0.39843627521E+03  0.55205000237E+03  0.00000000000E+00 0. -1.
          5    1    4    4  502    0  0.42811066592E+02 -0.56784757115E+02  0.29136553739E+02  0.76995615635E+02  0.47000000000E+01 0. -1.
         -5    1    4    4    0  502 -0.30314179367E+02 -0.35957506784E+02 -0.68317356047E+02  0.83073719683E+02  0.47000000000E+01 0. -1.
<mgrwt>
<rscale>  0 0.99893549E+03</rscale>
<asrwt>0</asrwt>
<pdfrwt beam="1">  1        2 0.31978962E-01 0.99893549E+03</pdfrwt>
<pdfrwt beam="2">  1       -2 0.18463916E+00 0.99893549E+03</pdfrwt>
<totfact> 0.30710093E+01</totfact>
</mgrwt>
</event>
<event>
 9    1  0.4412976E-036  0.9997772E+03  0.7818608E-02  0.8681250E-01
          1   -1    0    0  501    0  0.00000000000E+00  0.00000000000E+00  0.10997920433E+04  0.10997920433E+04  0.00000000000E+00 0.  1.
         -1   -1    0    0    0  501 -0.00000000000E+00 -0.00000000000E+00 -0.22721444201E+03  0.22721444201E+03  0.00000000000E+00 0.  1.
         36    2    1    2    0    0  0.71054273576E-14  0.00000000000E+00  0.87257760128E+03  0.13270064853E+04  0.99977724608E+03 0.  0.
         25    2    3    3    0    0  0.43429058112E+02 -0.49604194596E+02 -0.54352141533E+00  0.14168041714E+03  0.12540488816E+03 0.  0.
         35    2    3    3    0    0 -0.43429058112E+02  0.49604194596E+02  0.87312112270E+03  0.11853260682E+04  0.79894351100E+03 0.  0.
         22    1    5    5    0    0  0.82939257328E+02  0.68530992791E+00  0.99776812165E+03  0.10012095758E+04  0.00000000000E+00 0.  1.
         22    1    5    5    0    0 -0.12636831544E+03  0.48918884668E+02 -0.12464699895E+03  0.18411649239E+03  0.00000000000E+00 0.  1.
          5    1    4    4  502    0  0.72416010773E+02 -0.18692029618E+01 -0.29786124353E+02  0.78465761577E+02  0.47000000000E+01 0. -1.
         -5    1    4    4    0  502 -0.28986952661E+02 -0.47734991634E+02  0.29242602938E+02  0.63214655559E+02  0.47000000000E+01 0. -1.
<mgrwt>
<rscale>  0 0.99977725E+03</rscale>
<asrwt>0</asrwt>
<pdfrwt beam="1">  1        1 0.16919877E+00 0.99977725E+03</pdfrwt>
<pdfrwt beam="2">  1       -1 0.34956069E-01 0.99977725E+03</pdfrwt>
<totfact> 0.10956111E+02</totfact>
</mgrwt>
</event>
<event>
 9    1  0.4412976E-036  0.1001360E+04  0.7818608E-02  0.8679744E-01
         -1   -1    0    0    0  501 -0.00000000000E+00  0.00000000000E+00  0.56610680623E+03  0.56610680623E+03  0.00000000000E+00 0. -1.
          1   -1    0    0  501    0  0.00000000000E+00 -0.00000000000E+00 -0.44281504766E+03  0.44281504766E+03  0.00000000000E+00 0. -1.
         36    2    1    2    0    0 -0.71054273576E-14  0.12434497876E-13  0.12329175857E+03  0.10089218539E+04  0.10013602996E+04 0.  0.
         25    2    3    3    0    0  0.13258132620E+02 -0.70922049508E+01 -0.12015296169E+03  0.17399658873E+03  0.12494799413E+03 0.  0.
         35    2    3    3    0    0 -0.13258132620E+02  0.70922049508E+01  0.24344472026E+03  0.83492526516E+03  0.79850409462E+03 0.  0.
         22    1    5    5    0    0  0.13621414417E+03 -0.11874190221E+03  0.48888368514E+03  0.52121127195E+03  0.00000000000E+00 0. -1.
         22    1    5    5    0    0 -0.14947227679E+03  0.12583410716E+03 -0.24543896488E+03  0.31371399321E+03  0.00000000000E+00 0. -1.
          5    1    4    4  502    0  0.67629783628E+02 -0.47785964267E+00 -0.47013736124E+02  0.82500893133E+02  0.47000000000E+01 0. -1.
         -5    1    4    4    0  502 -0.54371651008E+02 -0.66143453082E+01 -0.73139225561E+02  0.91495695597E+02  0.47000000000E+01 0. -1.
<mgrwt>
<rscale>  0 0.10013603E+04</rscale>
<asrwt>0</asrwt>
<pdfrwt beam="1">  1        1 0.68125392E-01 0.10013603E+04</pdfrwt>
<pdfrwt beam="2">  1       -1 0.87093355E-01 0.10013603E+04</pdfrwt>
<totfact> 0.80691187E+01</totfact>
</mgrwt>
</event>
<event>
 9    1  0.4412976E-036  0.1000420E+04  0.7818608E-02  0.8680638E-01
          1   -1    0    0  501    0  0.00000000000E+00  0.00000000000E+00  0.16825458683E+04  0.16825458683E+04  0.00000000000E+00 0. -1.
         -1   -1    0    0    0  501 -0.00000000000E+00 -0.00000000000E+00 -0.14870916893E+03  0.14870916893E+03  0.00000000000E+00 0. -1.
         36    2    1    2    0    0 -0.28421709430E-13 -0.42632564146E-13  0.15338366994E+04  0.18312550372E+04  0.10004199074E+04 0.  0.
         25    2    3    3    0    0 -0.23058678105E+02  0.10974392914E+03  0.45074608393E+03  0.48097911181E+03  0.12487370102E+03 0.  0.
         35    2    3    3    0    0  0.23058678105E+02 -0.10974392914E+03  0.10830906155E+04  0.13502759254E+04  0.79848879822E+03 0.  0.
         22    1    5    5    0    0 -0.27461948282E+03 -0.30042267252E+03  0.35166931806E+03  0.53790422175E+03  0.00000000000E+00 0.  1.
         22    1    5    5    0    0  0.29767816092E+03  0.19067874338E+03  0.73142129739E+03  0.81237170368E+03  0.00000000000E+00 0.  1.
          5    1    4    4  502    0 -0.68219875125E+02  0.69909784916E+02  0.19438140077E+03  0.21759491803E+03  0.47000000000E+01 0. -1.
         -5    1    4    4    0  502  0.45161197020E+02  0.39834144222E+02  0.25636468316E+03  0.26338419378E+03  0.47000000000E+01 0. -1.
<mgrwt>
<rscale>  0 0.10004199E+04</rscale>
<asrwt>0</asrwt>
<pdfrwt beam="1">  1        1 0.25885320E+00 0.10004199E+04</pdfrwt>
<pdfrwt beam="2">  1       -1 0.22878335E-01 0.10004199E+04</pdfrwt>
<totfact> 0.85119834E+01</totfact>
</mgrwt>
</event>
<event>
 9    1  0.4412976E-036  0.1000817E+04  0.7818608E-02  0.8680260E-01
          2   -1    0    0  501    0  0.00000000000E+00  0.00000000000E+00  0.17065996906E+03  0.17065996906E+03  0.00000000000E+00 0.  1.
         -2   -1    0    0    0  501 -0.00000000000E+00 -0.00000000000E+00 -0.14672956917E+04  0.14672956917E+04  0.00000000000E+00 0.  1.
         36    2    1    2    0    0  0.14210854715E-13 -0.14210854715E-13 -0.12966357227E+04  0.16379556608E+04  0.10008169410E+04 0.  0.
         25    2    3    3    0    0  0.10964134112E+03  0.60119569500E+02 -0.13191701988E+03  0.21953808960E+03  0.12312305361E+03 0.  0.
         35    2    3    3    0    0 -0.10964134112E+03 -0.60119569500E+02 -0.11647187028E+04  0.14184175712E+04  0.79981445557E+03 0.  0.
         22    1    5    5    0    0 -0.26151882243E+03 -0.32757458515E+03 -0.96389582834E+03  0.10510910385E+04  0.00000000000E+00 0. -1.
         22    1    5    5    0    0  0.15187748131E+03  0.26745501565E+03 -0.20082287446E+03  0.36732653271E+03  0.00000000000E+00 0. -1.
          5    1    4    4  502    0  0.11325783025E+03  0.17953006445E+02 -0.45991707673E+02  0.12364050198E+03  0.47000000000E+01 0. -1.
         -5    1    4    4    0  502 -0.36164891337E+01  0.42166563055E+02 -0.85925312208E+02  0.95897587621E+02  0.47000000000E+01 0. -1.
<mgrwt>
<rscale>  0 0.10008169E+04</rscale>
<asrwt>0</asrwt>
<pdfrwt beam="1">  1        2 0.26255380E-01 0.10008169E+04</pdfrwt>
<pdfrwt beam="2">  1       -2 0.22573779E+00 0.10008169E+04</pdfrwt>
<totfact> 0.20293554E+01</totfact>
</mgrwt>
</event>
<event>
 9    1  0.4412976E-036  0.9999253E+03  0.7818608E-02  0.8681109E-01
         -2   -1    0    0    0  501 -0.00000000000E+00  0.00000000000E+00  0.26372692966E+03  0.26372692966E+03  0.00000000000E+00 0. -1.
          2   -1    0    0  501    0  0.00000000000E+00 -0.00000000000E+00 -0.94780860442E+03  0.94780860442E+03  0.00000000000E+00 0. -1.
         36    2    1    2    0    0  0.00000000000E+00  0.35527136788E-14 -0.68408167476E+03  0.12115355341E+04  0.99992530351E+03 0.  0.
         25    2    3    3    0    0 -0.60958911995E+02 -0.68931941429E+01 -0.28327763691E+03  0.31526088073E+03  0.12401491147E+03 0.  0.
         35    2    3    3    0    0  0.60958911995E+02  0.68931941429E+01 -0.40080403785E+03  0.89627465335E+03  0.79931275005E+03 0.  0.
         22    1    5    5    0    0  0.95512325988E+01  0.18537717787E+03  0.19676544204E+03  0.27050427594E+03  0.00000000000E+00 0. -1.
         22    1    5    5    0    0  0.51407679396E+02 -0.17848398373E+03 -0.59756947989E+03  0.62577037741E+03  0.00000000000E+00 0. -1.
          5    1    4    4  502    0 -0.88634890184E+02  0.16786531921E+02 -0.24955526182E+03  0.26540130014E+03  0.47000000000E+01 0.  1.
         -5    1    4    4    0  502  0.27675978189E+02 -0.23679726064E+02 -0.33722375089E+02  0.49859580592E+02  0.47000000000E+01 0.  1.
<mgrwt>
<rscale>  0 0.99992530E+03</rscale>
<asrwt>0</asrwt>
<pdfrwt beam="1">  1        2 0.14581671E+00 0.99992530E+03</pdfrwt>
<pdfrwt beam="2">  1       -2 0.40573375E-01 0.99992530E+03</pdfrwt>
<totfact> 0.18945879E+02</totfact>
</mgrwt>
</event>
<event>
 9    1  0.4412976E-036  0.9995143E+03  0.7818608E-02  0.8681501E-01
         -1   -1    0    0    0  501 -0.00000000000E+00  0.00000000000E+00  0.30407215843E+03  0.30407215843E+03  0.00000000000E+00 0. -1.
          1   -1    0    0  501    0  0.00000000000E+00 -0.00000000000E+00 -0.82137482219E+03  0.82137482219E+03  0.00000000000E+00 0. -1.
         36    2    1    2    0    0 -0.28421709430E-13 -0.35527136788E-14 -0.51730266376E+03  0.11254469806E+04  0.99951431218E+03 0.  0.
         25    2    3    3    0    0  0.13305213807E+03 -0.13984561446E+02 -0.52354050489E+02  0.18963138251E+03  0.12377671520E+03 0.  0.
         35    2    3    3    0    0 -0.13305213807E+03  0.13984561446E+02 -0.46494861327E+03  0.93581559811E+03  0.80104630408E+03 0.  0.
         22    1    5    5    0    0  0.88745334998E+02 -0.30567380525E+03  0.14181077281E+02  0.31861153880E+03  0.00000000000E+00 0. -1.
         22    1    5    5    0    0 -0.22179747307E+03  0.31965836670E+03 -0.47912969055E+03  0.61720405931E+03  0.00000000000E+00 0. -1.
          5    1    4    4  502    0  0.12253235045E+02  0.15812820393E+02  0.32858790296E+02  0.38755350050E+02  0.47000000000E+01 0.  1.
         -5    1    4    4    0  502  0.12079890302E+03 -0.29797381839E+02 -0.85212840784E+02  0.15087603246E+03  0.47000000000E+01 0.  1.
<mgrwt>
<rscale>  0 0.99951431E+03</rscale>
<asrwt>0</asrwt>
<pdfrwt beam="1">  1        1 0.12636536E+00 0.99951431E+03</pdfrwt>
<pdfrwt beam="2">  1       -1 0.46780332E-01 0.99951431E+03</pdfrwt>
<totfact> 0.10963978E+02</totfact>
</mgrwt>
</event>
<event>
 9    1  0.4412976E-036  0.1000002E+04  0.7818608E-02  0.8681036E-01
         -2   -1    0    0    0  501 -0.00000000000E+00  0.00000000000E+00  0.87281961208E+02  0.87281961208E+02  0.00000000000E+00 0.  1.
          2   -1    0    0  501    0  0.00000000000E+00 -0.00000000000E+00 -0.28642936613E+04  0.28642936613E+04  0.00000000000E+00 0.  1.
         36    2    1    2    0    0 -0.21316282073E-13  0.00000000000E+00 -0.27770117000E+04  0.29515756225E+04  0.10000023365E+04 0.  0.
         25    2    3    3    0    0  0.36802994579E+02  0.18197357676E+02 -0.92032029054E+03  0.92962501596E+03  0.12460990678E+03 0.  0.
         35    2    3    3    0    0 -0.36802994579E+02 -0.18197357676E+02 -0.18566914095E+04  0.20219506065E+04  0.79955966681E+03 0.  0.
         22    1    5    5    0    0 -0.37219841994E+03 -0.13736965478E+03 -0.62870539695E+03  0.74341950607E+03  0.00000000000E+00 0. -1.
         22    1    5    5    0    0  0.33539542536E+03  0.11917229710E+03 -0.12279860126E+04  0.12785311004E+04  0.00000000000E+00 0. -1.
          5    1    4    4  502    0  0.32458282761E+02  0.46944902129E+02 -0.18376717895E+03  0.19248332399E+03  0.47000000000E+01 0. -1.
         -5    1    4    4    0  502  0.43447118181E+01 -0.28747544453E+02 -0.73655311160E+03  0.73714169197E+03  0.47000000000E+01 0. -1.
<mgrwt>
<rscale>  0 0.10000023E+04</rscale>
<asrwt>0</asrwt>
<pdfrwt beam="1">  1        2 0.44066053E+00 0.10000023E+04</pdfrwt>
<pdfrwt beam="2">  1       -2 0.13427995E-01 0.10000023E+04</pdfrwt>
<totfact> 0.98883734E+01</totfact>
</mgrwt>
</event>
<event>
 9    1  0.4412976E-036  0.1000425E+04  0.7818608E-02  0.8680634E-01
          1   -1    0    0  501    0  0.00000000000E+00  0.00000000000E+00  0.27877262501E+04  0.27877262501E+04  0.00000000000E+00 0.  1.
         -1   -1    0    0    0  501 -0.00000000000E+00 -0.00000000000E+00 -0.89754978391E+02  0.89754978391E+02  0.00000000000E+00 0.  1.
         36    2    1    2    0    0  0.00000000000E+00  0.00000000000E+00  0.26979712718E+04  0.28774812285E+04  0.10004245286E+04 0.  0.
         25    2    3    3    0    0  0.42846728149E+02  0.11105166452E+03  0.29690814889E+03  0.34341898366E+03  0.12495533263E+03 0.  0.
         35    2    3    3    0    0 -0.42846728149E+02 -0.11105166452E+03  0.24010631229E+04  0.25340622449E+04  0.80137321308E+03 0.  0.
         22    1    5    5    0    0 -0.37360305707E+03 -0.96491194860E+02  0.68363634303E+03  0.78501493263E+03  0.00000000000E+00 0.  1.
         22    1    5    5    0    0  0.33075632892E+03 -0.14560469658E+02  0.17174267798E+04  0.17490473123E+04  0.00000000000E+00 0.  1.
          5    1    4    4  502    0  0.44191015893E+02  0.42413329210E+01  0.17797949447E+03  0.18349284793E+03  0.47000000000E+01 0. -1.
         -5    1    4    4    0  502 -0.13442877442E+01  0.10681033160E+03  0.11892865443E+03  0.15992613573E+03  0.47000000000E+01 0. -1.
<mgrwt>
<rscale>  0 0.10004245E+04</rscale>
<asrwt>0</asrwt>
<pdfrwt beam="1">  1        1 0.42888089E+00 0.10004245E+04</pdfrwt>
<pdfrwt beam="2">  1       -1 0.13808460E-01 0.10004245E+04</pdfrwt>
<totfact> 0.32516872E+01</totfact>
</mgrwt>
</event>
<event>
 9    1  0.4412976E-036  0.1000178E+04  0.7818608E-02  0.8680869E-01
          2   -1    0    0  501    0  0.00000000000E+00  0.00000000000E+00  0.13392234378E+04  0.13392234378E+04  0.00000000000E+00 0.  1.
         -2   -1    0    0    0  501 -0.00000000000E+00 -0.00000000000E+00 -0.18674168590E+03  0.18674168590E+03  0.00000000000E+00 0.  1.
         36    2    1    2    0    0  0.28421709430E-13  0.00000000000E+00  0.11524817519E+04  0.15259651237E+04  0.10001776694E+04 0.  0.
         25    2    3    3    0    0 -0.83652476618E+02  0.10864978376E+03  0.17757460248E+03  0.25696539828E+03  0.12528353488E+03 0.  0.
         35    2    3    3    0    0  0.83652476618E+02 -0.10864978376E+03  0.97490714946E+03  0.12689997255E+04  0.80069584787E+03 0.  0.
         22    1    5    5    0    0  0.34037418249E+03 -0.10230365632E+03  0.11808085258E+03  0.37451797013E+03  0.00000000000E+00 0. -1.
         22    1    5    5    0    0 -0.25672170588E+03 -0.63461274445E+01  0.85682629688E+03  0.89448175534E+03  0.00000000000E+00 0. -1.
          5    1    4    4  502    0 -0.11139172722E+03  0.58580023812E+02  0.10213996923E+03  0.16215547908E+03  0.47000000000E+01 0. -1.
         -5    1    4    4    0  502  0.27739250598E+02  0.50069759951E+02  0.75434633248E+02  0.94809919200E+02  0.47000000000E+01 0. -1.
<mgrwt>
<rscale>  0 0.10001777E+04</rscale>
<asrwt>0</asrwt>
<pdfrwt beam="1">  1        2 0.20603437E+00 0.10001777E+04</pdfrwt>
<pdfrwt beam="2">  1       -2 0.28729491E-01 0.10001777E+04</pdfrwt>
<totfact> 0.20923746E+02</totfact>
</mgrwt>
</event>
<event>
 9    1  0.4412976E-036  0.1001350E+04  0.7818608E-02  0.8679753E-01
          1   -1    0    0  501    0  0.00000000000E+00  0.00000000000E+00  0.10778612826E+04  0.10778612826E+04  0.00000000000E+00 0.  1.
         -1   -1    0    0    0  501 -0.00000000000E+00 -0.00000000000E+00 -0.23256765210E+03  0.23256765210E+03  0.00000000000E+00 0.  1.
         36    2    1    2    0    0  0.49737991503E-13 -0.71054273576E-14  0.84529363049E+03  0.13104289347E+04  0.10013504237E+04 0.  0.
         25    2    3    3    0    0 -0.24152087605E+00 -0.44510323153E+02  0.33105911646E+03  0.35838672078E+03  0.12984481446E+03 0.  0.
         35    2    3    3    0    0  0.24152087605E+00  0.44510323153E+02  0.51423451404E+03  0.95204221392E+03  0.79997875875E+03 0.  0.
         22    1    5    5    0    0  0.39048495397E+03  0.88857909677E+02  0.19249788192E+03  0.44433057731E+03  0.00000000000E+00 0. -1.
         22    1    5    5    0    0 -0.39024343309E+03 -0.44347586524E+02  0.32173663212E+03  0.50771163661E+03  0.00000000000E+00 0. -1.
          5    1    4    4  502    0 -0.45276546864E+02  0.26788830371E+01  0.41906554313E+02  0.61930536932E+02  0.47000000000E+01 0.  1.
         -5    1    4    4    0  502  0.45035025988E+02 -0.47189206190E+02  0.28915256214E+03  0.29645618385E+03  0.47000000000E+01 0.  1.
<mgrwt>
<rscale>  0 0.10013504E+04</rscale>
<asrwt>0</asrwt>
<pdfrwt beam="1">  1        1 0.16582481E+00 0.10013504E+04</pdfrwt>
<pdfrwt beam="2">  1       -1 0.35779639E-01 0.10013504E+04</pdfrwt>
<totfact> 0.10934963E+02</totfact>
</mgrwt>
</event>
<event>
 9    1  0.4412976E-036  0.1000416E+04  0.7818608E-02  0.8680642E-01
         -1   -1    0    0    0  501 -0.00000000000E+00  0.00000000000E+00  0.17615786542E+03  0.17615786542E+03  0.00000000000E+00 0. -1.
          1   -1    0    0  501    0  0.00000000000E+00 -0.00000000000E+00 -0.14203636107E+04  0.14203636107E+04  0.00000000000E+00 0. -1.
         36    2    1    2    0    0  0.00000000000E+00  0.28421709430E-13 -0.12442057453E+04  0.15965214762E+04  0.10004163569E+04 0.  0.
         25    2    3    3    0    0  0.24764548532E+02 -0.13048435314E+03 -0.16518320189E+03  0.24603383211E+03  0.12493080916E+03 0.  0.
         35    2    3    3    0    0 -0.24764548532E+02  0.13048435314E+03 -0.10790225434E+04  0.13504876441E+04  0.80117899263E+03 0.  0.
         22    1    5    5    0    0 -0.17410683332E+03 -0.26581163942E+01  0.67415581611E+02  0.18672202772E+03  0.00000000000E+00 0.  1.
         22    1    5    5    0    0  0.14934228478E+03  0.13314246953E+03 -0.11464381250E+04  0.11637656163E+04  0.00000000000E+00 0.  1.
          5    1    4    4  502    0 -0.35156282616E+02 -0.10626980190E+03 -0.13231887641E+03  0.17337707477E+03  0.47000000000E+01 0.  1.
         -5    1    4    4    0  502  0.59920831148E+02 -0.24214551242E+02 -0.32864325478E+02  0.72656757335E+02  0.47000000000E+01 0.  1.
<mgrwt>
<rscale>  0 0.10004164E+04</rscale>
<asrwt>0</asrwt>
<pdfrwt beam="1">  1        1 0.21851748E+00 0.10004164E+04</pdfrwt>
<pdfrwt beam="2">  1       -1 0.27101209E-01 0.10004164E+04</pdfrwt>
<totfact> 0.98333129E+01</totfact>
</mgrwt>
</event>
<event>
 9    1  0.4412976E-036  0.9980383E+03  0.7818608E-02  0.8682908E-01
          2   -1    0    0  501    0  0.00000000000E+00  0.00000000000E+00  0.16637621749E+04  0.16637621749E+04  0.00000000000E+00 0. -1.
         -2   -1    0    0    0  501 -0.00000000000E+00 -0.00000000000E+00 -0.14967289384E+03  0.14967289384E+03  0.00000000000E+00 0. -1.
         36    2    1    2    0    0 -0.71054273576E-14  0.28421709430E-13  0.15140892811E+04  0.18134350688E+04  0.99803827459E+03 0.  0.
         25    2    3    3    0    0 -0.54213332228E+02  0.96458243544E+02  0.16985878294E+03  0.23780230247E+03  0.12431673571E+03 0.  0.
         35    2    3    3    0    0  0.54213332228E+02 -0.96458243544E+02  0.13442304981E+04  0.15756327663E+04  0.81450580352E+03 0.  0.
         22    1    5    5    0    0 -0.29147526529E+03  0.18047530364E+03  0.36428655936E+03  0.50023380816E+03  0.00000000000E+00 0.  1.
         22    1    5    5    0    0  0.34568859751E+03 -0.27693354719E+03  0.97994393877E+03  0.10753989581E+04  0.00000000000E+00 0.  1.
          5    1    4    4  502    0 -0.62302647798E+02  0.10840717310E+03  0.84215016061E+02  0.15082438142E+03  0.47000000000E+01 0. -1.
         -5    1    4    4    0  502  0.80893155704E+01 -0.11948929554E+02  0.85643766879E+02  0.86977921044E+02  0.47000000000E+01 0. -1.
<mgrwt>
<rscale>  0 0.99803827E+03</rscale>
<asrwt>0</asrwt>
<pdfrwt beam="1">  1        2 0.25596340E+00 0.99803827E+03</pdfrwt>
<pdfrwt beam="2">  1       -2 0.23026600E-01 0.99803827E+03</pdfrwt>
<totfact> 0.20311919E+02</totfact>
</mgrwt>
</event>
<event>
 9    1  0.4412976E-036  0.1001571E+04  0.7818608E-02  0.8679543E-01
          2   -1    0    0  501    0  0.00000000000E+00  0.00000000000E+00  0.45769049649E+04  0.45769049649E+04  0.00000000000E+00 0.  1.
         -2   -1    0    0    0  501 -0.00000000000E+00 -0.00000000000E+00 -0.54793819106E+02  0.54793819106E+02  0.00000000000E+00 0.  1.
         36    2    1    2    0    0  0.00000000000E+00  0.00000000000E+00  0.45221111458E+04  0.46316987840E+04  0.10015709714E+04 0.  0.
         25    2    3    3    0    0  0.11486595153E+03  0.61912620061E+02  0.58482970685E+03  0.61199654567E+03  0.12444527531E+03 0.  0.
         35    2    3    3    0    0 -0.11486595153E+03 -0.61912620061E+02  0.39372814389E+04  0.40197022383E+04  0.79924564193E+03 0.  0.
         22    1    5    5    0    0 -0.24258896490E+03  0.17208679161E+03  0.34620628977E+04  0.34748155026E+04  0.00000000000E+00 0. -1.
         22    1    5    5    0    0  0.12772301337E+03 -0.23399941167E+03  0.47521854124E+03  0.54488673571E+03  0.00000000000E+00 0. -1.
          5    1    4    4  502    0  0.11996395840E+03  0.48224066894E+02  0.29944733679E+03  0.32620194582E+03  0.47000000000E+01 0. -1.
         -5    1    4    4    0  502 -0.50980068718E+01  0.13688553167E+02  0.28538237006E+03  0.28579459985E+03  0.47000000000E+01 0. -1.
<mgrwt>
<rscale>  0 0.10015710E+04</rscale>
<asrwt>0</asrwt>
<pdfrwt beam="1">  1        2 0.70413893E+00 0.10015710E+04</pdfrwt>
<pdfrwt beam="2">  1       -2 0.84298219E-02 0.10015710E+04</pdfrwt>
<totfact> 0.83079761E+00</totfact>
</mgrwt>
</event>
<event>
 9    1  0.4412976E-036  0.1000419E+04  0.7818608E-02  0.8680639E-01
         -2   -1    0    0    0  501 -0.00000000000E+00  0.00000000000E+00  0.10772885174E+03  0.10772885174E+03  0.00000000000E+00 0.  1.
          2   -1    0    0  501    0  0.00000000000E+00 -0.00000000000E+00 -0.23225856143E+04  0.23225856143E+04  0.00000000000E+00 0.  1.
         36    2    1    2    0    0  0.00000000000E+00 -0.35527136788E-14 -0.22148567626E+04  0.24303144661E+04  0.10004188749E+04 0.  0.
         25    2    3    3    0    0 -0.12819314170E+03 -0.30507328784E+02 -0.29948550327E+03  0.35012907429E+03  0.12463796897E+03 0.  0.
         35    2    3    3    0    0  0.12819314170E+03  0.30507328784E+02 -0.19153712593E+04  0.20801853918E+04  0.80072468705E+03 0.  0.
         22    1    5    5    0    0 -0.21775856617E+03 -0.16297683355E+02 -0.11600863673E+03  0.24726991612E+03  0.00000000000E+00 0.  1.
         22    1    5    5    0    0  0.34595170787E+03  0.46805012139E+02 -0.17993626226E+04  0.18329154757E+04  0.00000000000E+00 0.  1.
          5    1    4    4  502    0 -0.66506920041E+02 -0.25078141979E+02 -0.27381648793E+03  0.28293045555E+03  0.47000000000E+01 0.  1.
         -5    1    4    4    0  502 -0.61686221659E+02 -0.54291868051E+01 -0.25669015339E+02  0.67198618739E+02  0.47000000000E+01 0.  1.
<mgrwt>
<rscale>  0 0.10004189E+04</rscale>
<asrwt>0</asrwt>
<pdfrwt beam="1">  1        2 0.35732084E+00 0.10004189E+04</pdfrwt>
<pdfrwt beam="2">  1       -2 0.16573671E-01 0.10004189E+04</pdfrwt>
<totfact> 0.15037802E+02</totfact>
</mgrwt>
</event>
<event>
 9    1  0.4412976E-036  0.1000760E+04  0.7818608E-02  0.8680315E-01
         -2   -1    0    0    0  501 -0.00000000000E+00  0.00000000000E+00  0.60848772217E+03  0.60848772217E+03  0.00000000000E+00 0.  1.
          2   -1    0    0  501    0  0.00000000000E+00 -0.00000000000E+00 -0.41147936374E+03  0.41147936374E+03  0.00000000000E+00 0.  1.
         36    2    1    2    0    0  0.00000000000E+00  0.71054273576E-14  0.19700835844E+03  0.10199670859E+04  0.10007599927E+04 0.  0.
         25    2    3    3    0    0  0.42027446233E+02  0.63609363220E+02  0.15232186280E+03  0.21152457386E+03  0.12541227266E+03 0.  0.
         35    2    3    3    0    0 -0.42027446233E+02 -0.63609363220E+02  0.44686495632E+02  0.80844251205E+03  0.80359813033E+03 0.  0.
         22    1    5    5    0    0  0.18680411132E+03 -0.37606029285E+03  0.26124033835E+02  0.42071318616E+03  0.00000000000E+00 0.  1.
         22    1    5    5    0    0 -0.22883155756E+03  0.31245092963E+03  0.18562461797E+02  0.38772932588E+03  0.00000000000E+00 0.  1.
          5    1    4    4  502    0  0.65279790456E+02 -0.10948770109E+02  0.88138014516E+02  0.11032554651E+03  0.47000000000E+01 0. -1.
         -5    1    4    4    0  502 -0.23252344223E+02  0.74558133329E+02  0.64183848288E+02  0.10119902736E+03  0.47000000000E+01 0. -1.
<mgrwt>
<rscale>  0 0.10007600E+04</rscale>
<asrwt>0</asrwt>
<pdfrwt beam="1">  1        2 0.63304517E-01 0.10007600E+04</pdfrwt>
<pdfrwt beam="2">  1       -2 0.93613496E-01 0.10007600E+04</pdfrwt>
<totfact> 0.88602795E+01</totfact>
</mgrwt>
</event>
<event>
 9    1  0.4412976E-036  0.9997342E+03  0.7818608E-02  0.8681291E-01
         -2   -1    0    0    0  501 -0.00000000000E+00  0.00000000000E+00  0.13576858966E+03  0.13576858966E+03  0.00000000000E+00 0.  1.
          2   -1    0    0  501    0  0.00000000000E+00 -0.00000000000E+00 -0.18403897726E+04  0.18403897726E+04  0.00000000000E+00 0.  1.
         36    2    1    2    0    0  0.28421709430E-13  0.00000000000E+00 -0.17046211830E+04  0.19761583623E+04  0.99973421241E+03 0.  0.
         25    2    3    3    0    0  0.57691730024E+02  0.86810765026E+02 -0.48697088417E+03  0.51546011905E+03  0.13301897480E+03 0.  0.
         35    2    3    3    0    0 -0.57691730024E+02 -0.86810765026E+02 -0.12176502988E+04  0.14606982433E+04  0.80006416183E+03 0.  0.
         22    1    5    5    0    0  0.34835983508E+03  0.96175926022E+02 -0.53700755967E+03  0.64728780507E+03  0.00000000000E+00 0.  1.
         22    1    5    5    0    0 -0.40605156511E+03 -0.18298669105E+03 -0.68064273914E+03  0.81341043819E+03  0.00000000000E+00 0.  1.
          5    1    4    4  502    0  0.40944006869E+02  0.10850952943E+03 -0.23648307944E+03  0.26343322975E+03  0.47000000000E+01 0. -1.
         -5    1    4    4    0  502  0.16747723155E+02 -0.21698764406E+02 -0.25048780474E+03  0.25202688930E+03  0.47000000000E+01 0. -1.
<mgrwt>
<rscale>  0 0.99973421E+03</rscale>
<asrwt>0</asrwt>
<pdfrwt beam="1">  1        2 0.28313690E+00 0.99973421E+03</pdfrwt>
<pdfrwt beam="2">  1       -2 0.20887475E-01 0.99973421E+03</pdfrwt>
<totfact> 0.19149969E+02</totfact>
</mgrwt>
</event>
<event>
 9    1  0.4412976E-036  0.1000568E+04  0.7818608E-02  0.8680497E-01
         -2   -1    0    0    0  501 -0.00000000000E+00  0.00000000000E+00  0.31918943366E+03  0.31918943366E+03  0.00000000000E+00 0. -1.
          2   -1    0    0  501    0  0.00000000000E+00 -0.00000000000E+00 -0.78412469999E+03  0.78412469999E+03  0.00000000000E+00 0. -1.
         36    2    1    2    0    0  0.00000000000E+00  0.28421709430E-13 -0.46493526633E+03  0.11033141336E+04  0.10005684762E+04 0.  0.
         25    2    3    3    0    0 -0.90443744560E+02  0.10331618927E+03 -0.87969470181E+02  0.20549530463E+03  0.12504153969E+03 0.  0.
         35    2    3    3    0    0  0.90443744560E+02 -0.10331618927E+03 -0.37696579615E+03  0.89781882901E+03  0.80319433039E+03 0.  0.
         22    1    5    5    0    0  0.24763862591E+03 -0.23184563771E+03  0.12090601181E+03  0.36013268729E+03  0.00000000000E+00 0.  1.
         22    1    5    5    0    0 -0.15719488135E+03  0.12852944844E+03 -0.49787180796E+03  0.53768614172E+03  0.00000000000E+00 0.  1.
          5    1    4    4  502    0  0.28777763706E+02  0.21582553989E+02 -0.37861929727E+02  0.52436457196E+02  0.47000000000E+01 0.  1.
         -5    1    4    4    0  502 -0.11922150827E+03  0.81733635277E+02 -0.50107540454E+02  0.15305884744E+03  0.47000000000E+01 0.  1.
<mgrwt>
<rscale>  0 0.10005685E+04</rscale>
<asrwt>0</asrwt>
<pdfrwt beam="1">  1        2 0.12063457E+00 0.10005685E+04</pdfrwt>
<pdfrwt beam="2">  1       -2 0.49106067E-01 0.10005685E+04</pdfrwt>
<totfact> 0.16810770E+02</totfact>
</mgrwt>
</event>
<event>
 9    1  0.4412976E-036  0.9997770E+03  0.7818608E-02  0.8681250E-01
          2   -1    0    0  501    0  0.00000000000E+00  0.00000000000E+00  0.24339670372E+04  0.24339670372E+04  0.00000000000E+00 0.  1.
         -2   -1    0    0    0  501 -0.00000000000E+00 -0.00000000000E+00 -0.10266717530E+03  0.10266717530E+03  0.00000000000E+00 0.  1.
         36    2    1    2    0    0  0.14210854715E-13  0.00000000000E+00  0.23312998619E+04  0.25366342125E+04  0.99977701607E+03 0.  0.
         25    2    3    3    0    0 -0.71321709871E+02  0.83601916814E+02  0.61315614051E+03  0.63528352389E+03  0.12469417101E+03 0.  0.
         35    2    3    3    0    0  0.71321709871E+02 -0.83601916814E+02  0.17181437214E+04  0.19013506886E+04  0.80687082417E+03 0.  0.
         22    1    5    5    0    0 -0.24042228589E+03 -0.27844197914E+03  0.12673468665E+04  0.13196593846E+04  0.00000000000E+00 0.  1.
         22    1    5    5    0    0  0.31174399576E+03  0.19484006232E+03  0.45079685483E+03  0.58169130396E+03  0.00000000000E+00 0.  1.
          5    1    4    4  502    0 -0.87608888593E+02  0.67936219084E+02  0.59671576426E+03  0.60694517095E+03  0.47000000000E+01 0. -1.
         -5    1    4    4    0  502  0.16287178721E+02  0.15665697730E+02  0.16440376253E+02  0.28338352941E+02  0.47000000000E+01 0. -1.
<mgrwt>
<rscale>  0 0.99977702E+03</rscale>
<asrwt>0</asrwt>
<pdfrwt beam="1">  1        2 0.37445642E+00 0.99977702E+03</pdfrwt>
<pdfrwt beam="2">  1       -2 0.15794952E-01 0.99977702E+03</pdfrwt>
<totfact> 0.13997990E+02</totfact>
</mgrwt>
</event>
<event>
 9    1  0.4412976E-036  0.1001045E+04  0.7818608E-02  0.8680043E-01
          2   -1    0    0  501    0  0.00000000000E+00  0.00000000000E+00  0.22041854753E+03  0.22041854753E+03  0.00000000000E+00 0.  1.
         -2   -1    0    0    0  501 -0.00000000000E+00 -0.00000000000E+00 -0.11365783135E+04  0.11365783135E+04  0.00000000000E+00 0.  1.
         36    2    1    2    0    0 -0.71054273576E-14 -0.28421709430E-13 -0.91615976594E+03  0.13569968610E+04  0.10010453357E+04 0.  0.
         25    2    3    3    0    0  0.60794507015E+02  0.13659877757E+03 -0.18233189627E+03  0.26680258837E+03  0.12483390022E+03 0.  0.
         35    2    3    3    0    0 -0.60794507015E+02 -0.13659877757E+03 -0.73382786967E+03  0.10901942726E+04  0.79225312349E+03 0.  0.
         22    1    5    5    0    0  0.50557377220E+02 -0.45962803290E+03 -0.46108641744E+03  0.65300433487E+03  0.00000000000E+00 0. -1.
         22    1    5    5    0    0 -0.11135188424E+03  0.32302925533E+03 -0.27274145223E+03  0.43718993777E+03  0.00000000000E+00 0. -1.
          5    1    4    4  502    0  0.36827096664E+01 -0.14092201131E+02  0.80796553099E+01  0.17306741841E+02  0.47000000000E+01 0. -1.
         -5    1    4    4    0  502  0.57111797349E+02  0.15069097870E+03 -0.19041155158E+03  0.24949584653E+03  0.47000000000E+01 0. -1.
<mgrwt>
<rscale>  0 0.10010453E+04</rscale>
<asrwt>0</asrwt>
<pdfrwt beam="1">  1        2 0.33910545E-01 0.10010453E+04</pdfrwt>
<pdfrwt beam="2">  1       -2 0.17485821E+00 0.10010453E+04</pdfrwt>
<totfact> 0.33824626E+01</totfact>
</mgrwt>
</event>
<event>
 9    1  0.4412976E-036  0.9983369E+03  0.7818608E-02  0.8682623E-01
          2   -1    0    0  501    0  0.00000000000E+00  0.00000000000E+00  0.85606315604E+03  0.85606315604E+03  0.00000000000E+00 0.  1.
         -2   -1    0    0    0  501 -0.00000000000E+00 -0.00000000000E+00 -0.29106397273E+03  0.29106397273E+03  0.00000000000E+00 0.  1.
         36    2    1    2    0    0  0.00000000000E+00  0.00000000000E+00  0.56499918331E+03  0.11471271288E+04  0.99833690326E+03 0.  0.
         25    2    3    3    0    0 -0.83683767611E+02 -0.48698462145E+02  0.22182496989E+03  0.27245939395E+03  0.12511311246E+03 0.  0.
         35    2    3    3    0    0  0.83683767611E+02  0.48698462145E+02  0.34317421343E+03  0.87466773482E+03  0.79868679243E+03 0.  0.
         22    1    5    5    0    0 -0.22288410760E+03 -0.77306628358E+02 -0.15065886017E+03  0.27991379451E+03  0.00000000000E+00 0. -1.
         22    1    5    5    0    0  0.30656787521E+03  0.12600509050E+03  0.49383307359E+03  0.59475394031E+03  0.00000000000E+00 0. -1.
          5    1    4    4  502    0 -0.11129892116E+03 -0.37241502341E+02  0.12731177181E+03  0.17321881131E+03  0.47000000000E+01 0. -1.
         -5    1    4    4    0  502  0.27615153548E+02 -0.11456959805E+02  0.94513198073E+02  0.99240582643E+02  0.47000000000E+01 0. -1.
<mgrwt>
<rscale>  0 0.99833690E+03</rscale>
<asrwt>0</asrwt>
<pdfrwt beam="1">  1        2 0.13170202E+00 0.99833690E+03</pdfrwt>
<pdfrwt beam="2">  1       -2 0.44779073E-01 0.99833690E+03</pdfrwt>
<totfact> 0.17986231E+02</totfact>
</mgrwt>
</event>
<event>
 9    1  0.4412976E-036  0.9998217E+03  0.7818608E-02  0.8681208E-01
          1   -1    0    0  501    0  0.00000000000E+00  0.00000000000E+00  0.18830384645E+04  0.18830384645E+04  0.00000000000E+00 0. -1.
         -1   -1    0    0    0  501 -0.00000000000E+00 -0.00000000000E+00 -0.13271680397E+03  0.13271680397E+03  0.00000000000E+00 0. -1.
         36    2    1    2    0    0 -0.14210854715E-13  0.00000000000E+00  0.17503216605E+04  0.20157552684E+04  0.99982167762E+03 0.  0.
         25    2    3    3    0    0  0.10162165950E+03  0.88624291599E+02  0.37788668093E+03  0.42144714071E+03  0.12898884467E+03 0.  0.
         35    2    3    3    0    0 -0.10162165950E+03 -0.88624291599E+02  0.13724349796E+04  0.15943081277E+04  0.80003712805E+03 0.  0.
         22    1    5    5    0    0  0.24370779752E+02 -0.22359026209E+03  0.13907021410E+04  0.14087721551E+04  0.00000000000E+00 0.  1.
         22    1    5    5    0    0 -0.12599243925E+03  0.13496597049E+03 -0.18267161402E+02  0.18553597259E+03  0.00000000000E+00 0.  1.
          5    1    4    4  502    0  0.23505557417E+01 -0.29723057145E+02  0.86501122706E+02  0.91616152875E+02  0.47000000000E+01 0.  1.
         -5    1    4    4    0  502  0.99271103758E+02  0.11834734874E+03  0.29138555822E+03  0.32983098783E+03  0.47000000000E+01 0.  1.
<mgrwt>
<rscale>  0 0.99982168E+03</rscale>
<asrwt>0</asrwt>
<pdfrwt beam="1">  1        1 0.28969821E+00 0.99982168E+03</pdfrwt>
<pdfrwt beam="2">  1       -1 0.20417971E-01 0.99982168E+03</pdfrwt>
<totfact> 0.74344684E+01</totfact>
</mgrwt>
</event>
<event>
 9    1  0.4412976E-036  0.9992679E+03  0.7818608E-02  0.8681735E-01
          1   -1    0    0  501    0  0.00000000000E+00  0.00000000000E+00  0.38962981958E+03  0.38962981958E+03  0.00000000000E+00 0.  1.
         -1   -1    0    0    0  501 -0.00000000000E+00 -0.00000000000E+00 -0.64069559065E+03  0.64069559065E+03  0.00000000000E+00 0.  1.
         36    2    1    2    0    0 -0.28421709430E-13  0.00000000000E+00 -0.25106577106E+03  0.10303254102E+04  0.99926794683E+03 0.  0.
         25    2    3    3    0    0  0.11629154836E+03 -0.71807418511E+02 -0.19291947705E+02  0.18603422005E+03  0.12472578808E+03 0.  0.
         35    2    3    3    0    0 -0.11629154836E+03  0.71807418511E+02 -0.23177382336E+03  0.84429119018E+03  0.80026775460E+03 0.  0.
         22    1    5    5    0    0  0.16823960789E+03 -0.82588688103E+02  0.21968203230E+03  0.28876573962E+03  0.00000000000E+00 0.  1.
         22    1    5    5    0    0 -0.28453115625E+03  0.15439610661E+03 -0.45145585565E+03  0.55552545056E+03  0.00000000000E+00 0.  1.
          5    1    4    4  502    0  0.34418083576E+02 -0.72430994676E+02 -0.54198221901E+02  0.96904028419E+02  0.47000000000E+01 0.  1.
         -5    1    4    4    0  502  0.81873464780E+02  0.62357616428E+00  0.34906274196E+02  0.89130191633E+02  0.47000000000E+01 0.  1.
<mgrwt>
<rscale>  0 0.99926795E+03</rscale>
<asrwt>0</asrwt>
<pdfrwt beam="1">  1        1 0.59943050E-01 0.99926795E+03</pdfrwt>
<pdfrwt beam="2">  1       -1 0.98568551E-01 0.99926795E+03</pdfrwt>
<totfact> 0.73278729E+01</totfact>
</mgrwt>
</event>
<event>
 9    1  0.4412976E-036  0.9994591E+03  0.7818608E-02  0.8681553E-01
          2   -1    0    0  501    0  0.00000000000E+00  0.00000000000E+00  0.23638648588E+04  0.23638648588E+04  0.00000000000E+00 0.  1.
         -2   -1    0    0    0  501 -0.00000000000E+00 -0.00000000000E+00 -0.10564462822E+03  0.10564462822E+03  0.00000000000E+00 0.  1.
         36    2    1    2    0    0 -0.14210854715E-13  0.00000000000E+00  0.22582202306E+04  0.24695094870E+04  0.99945910207E+03 0.  0.
         25    2    3    3    0    0 -0.72193890388E+02 -0.37174040022E+02  0.70419550354E+03  0.71983429351E+03  0.12520477565E+03 0.  0.
         35    2    3    3    0    0  0.72193890388E+02  0.37174040022E+02  0.15540247270E+04  0.17496751935E+04  0.79986033999E+03 0.  0.
         22    1    5    5    0    0  0.16304254656E+03 -0.33884768645E+03  0.49099753824E+03  0.61844903522E+03  0.00000000000E+00 0.  1.
         22    1    5    5    0    0 -0.90848656167E+02  0.37602172647E+03  0.10630271888E+04  0.11312261583E+04  0.00000000000E+00 0.  1.
          5    1    4    4  502    0 -0.48695738956E+02 -0.80514731157E+02  0.36132575474E+03  0.37340633091E+03  0.47000000000E+01 0. -1.
         -5    1    4    4    0  502 -0.23498151432E+02  0.43340691135E+02  0.34286974880E+03  0.34642796260E+03  0.47000000000E+01 0. -1.
<mgrwt>
<rscale>  0 0.99945910E+03</rscale>
<asrwt>0</asrwt>
<pdfrwt beam="1">  1        2 0.36367148E+00 0.99945910E+03</pdfrwt>
<pdfrwt beam="2">  1       -2 0.16253022E-01 0.99945910E+03</pdfrwt>
<totfact> 0.14691458E+02</totfact>
</mgrwt>
</event>
<event>
 9    1  0.4412976E-036  0.9997974E+03  0.7818608E-02  0.8681231E-01
         -2   -1    0    0    0  501 -0.00000000000E+00  0.00000000000E+00  0.39988085710E+03  0.39988085710E+03  0.00000000000E+00 0.  1.
          2   -1    0    0  501    0  0.00000000000E+00 -0.00000000000E+00 -0.62493287060E+03  0.62493287060E+03  0.00000000000E+00 0.  1.
         36    2    1    2    0    0 -0.42632564146E-13 -0.28421709430E-13 -0.22505201350E+03  0.10248137277E+04  0.99979736332E+03 0.  0.
         25    2    3    3    0    0 -0.96119654966E+02 -0.94564531273E+02 -0.78473565682E+02  0.20009957854E+03  0.12530084667E+03 0.  0.
         35    2    3    3    0    0  0.96119654966E+02  0.94564531273E+02 -0.14657844782E+03  0.82471414916E+03  0.80030415956E+03 0.  0.
         22    1    5    5    0    0 -0.22589831201E+03  0.30495706255E+03 -0.21173104185E+03  0.43457898183E+03  0.00000000000E+00 0.  1.
         22    1    5    5    0    0  0.32201796698E+03 -0.21039253127E+03  0.65152594028E+02  0.39013516732E+03  0.00000000000E+00 0.  1.
          5    1    4    4  502    0  0.86819126804E+01 -0.71976035906E+02 -0.52658393292E+02  0.89726928715E+02  0.47000000000E+01 0.  1.
         -5    1    4    4    0  502 -0.10480156765E+03 -0.22588495367E+02 -0.25815172390E+02  0.11037264983E+03  0.47000000000E+01 0.  1.
<mgrwt>
<rscale>  0 0.99979736E+03</rscale>
<asrwt>0</asrwt>
<pdfrwt beam="1">  1        2 0.96143518E-01 0.99979736E+03</pdfrwt>
<pdfrwt beam="2">  1       -2 0.61520132E-01 0.99979736E+03</pdfrwt>
<totfact> 0.14024510E+02</totfact>
</mgrwt>
</event>
<event>
 9    1  0.4412976E-036  0.1000151E+04  0.7818608E-02  0.8680894E-01
         -1   -1    0    0    0  501 -0.00000000000E+00  0.00000000000E+00  0.26154572774E+03  0.26154572774E+03  0.00000000000E+00 0.  1.
          1   -1    0    0  501    0  0.00000000000E+00 -0.00000000000E+00 -0.95614448808E+03  0.95614448808E+03  0.00000000000E+00 0.  1.
         36    2    1    2    0    0  0.14210854715E-13  0.28421709430E-13 -0.69459876034E+03  0.12176902158E+04  0.10001510005E+04 0.  0.
         25    2    3    3    0    0  0.55955826895E+02 -0.90170779638E+02 -0.17893814045E+02  0.16460008491E+03  0.12454386901E+03 0.  0.
         35    2    3    3    0    0 -0.55955826895E+02  0.90170779638E+02 -0.67670494629E+03  0.10530901309E+04  0.79987962557E+03 0.  0.
         22    1    5    5    0    0 -0.19348063443E+03  0.33923151029E+03 -0.66150066886E+03  0.76817700328E+03  0.00000000000E+00 0.  1.
         22    1    5    5    0    0  0.13752480753E+03 -0.24906073065E+03 -0.15204277437E+02  0.28491312762E+03  0.00000000000E+00 0.  1.
          5    1    4    4  502    0  0.35989982446E+02  0.26640944257E+02 -0.45406121459E+01  0.45251805555E+02  0.47000000000E+01 0. -1.
         -5    1    4    4    0  502  0.19965844449E+02 -0.11681172389E+03 -0.13353201899E+02  0.11934827935E+03  0.47000000000E+01 0. -1.
<mgrwt>
<rscale>  0 0.10001510E+04</rscale>
<asrwt>0</asrwt>
<pdfrwt beam="1">  1        1 0.14709915E+00 0.10001510E+04</pdfrwt>
<pdfrwt beam="2">  1       -1 0.40237804E-01 0.10001510E+04</pdfrwt>
<totfact> 0.11090894E+02</totfact>
</mgrwt>
</event>
<event>
 9    1  0.4412976E-036  0.9989667E+03  0.7818608E-02  0.8682023E-01
         -2   -1    0    0    0  501 -0.00000000000E+00  0.00000000000E+00  0.26414112115E+03  0.26414112115E+03  0.00000000000E+00 0. -1.
          2   -1    0    0  501    0  0.00000000000E+00 -0.00000000000E+00 -0.94450878905E+03  0.94450878905E+03  0.00000000000E+00 0. -1.
         36    2    1    2    0    0  0.00000000000E+00  0.00000000000E+00 -0.68036766790E+03  0.12086499102E+04  0.99896668708E+03 0.  0.
         25    2    3    3    0    0 -0.76715522790E+02 -0.52214047012E+02 -0.86242074071E+01  0.15840261063E+03  0.12808369123E+03 0.  0.
         35    2    3    3    0    0  0.76715522790E+02  0.52214047012E+02 -0.67174346049E+03  0.10502472996E+04  0.80197788958E+03 0.  0.
         22    1    5    5    0    0  0.20022144706E+03  0.19482947803E+03  0.67418274536E+02  0.28738889525E+03  0.00000000000E+00 0. -1.
         22    1    5    5    0    0 -0.12350592427E+03 -0.14261543102E+03 -0.73916173503E+03  0.76285840431E+03  0.00000000000E+00 0. -1.
          5    1    4    4  502    0 -0.43589291236E+02 -0.32689812291E+02  0.59013585985E+02  0.80457090856E+02  0.47000000000E+01 0.  1.
         -5    1    4    4    0  502 -0.33126231554E+02 -0.19524234721E+02 -0.67637793393E+02  0.77945519778E+02  0.47000000000E+01 0.  1.
<mgrwt>
<rscale>  0 0.99896669E+03</rscale>
<asrwt>0</asrwt>
<pdfrwt beam="1">  1        2 0.14530904E+00 0.99896669E+03</pdfrwt>
<pdfrwt beam="2">  1       -2 0.40637096E-01 0.99896669E+03</pdfrwt>
<totfact> 0.18981665E+02</totfact>
</mgrwt>
</event>
<event>
 9    1  0.4412976E-036  0.1000561E+04  0.7818608E-02  0.8680504E-01
         -1   -1    0    0    0  501 -0.00000000000E+00  0.00000000000E+00  0.67360090697E+03  0.67360090697E+03  0.00000000000E+00 0.  1.
          1   -1    0    0  501    0  0.00000000000E+00 -0.00000000000E+00 -0.37155582189E+03  0.37155582189E+03  0.00000000000E+00 0.  1.
         36    2    1    2    0    0  0.00000000000E+00  0.14210854715E-13  0.30204508507E+03  0.10451567289E+04  0.10005605201E+04 0.  0.
         25    2    3    3    0    0 -0.13573325091E+02  0.93487612465E+02 -0.52007771929E+02  0.16483509686E+03  0.12466608190E+03 0.  0.
         35    2    3    3    0    0  0.13573325091E+02 -0.93487612465E+02  0.35405285700E+03  0.88032163200E+03  0.80043024767E+03 0.  0.
         22    1    5    5    0    0 -0.38080101527E+02  0.70069017338E+02  0.58624748063E+03  0.59164674415E+03  0.00000000000E+00 0.  1.
         22    1    5    5    0    0  0.51653426618E+02 -0.16355662980E+03 -0.23219462363E+03  0.28867488785E+03  0.00000000000E+00 0.  1.
          5    1    4    4  502    0  0.37019069939E+02  0.89298603415E+02 -0.59041608195E+02  0.11336954445E+03  0.47000000000E+01 0.  1.
         -5    1    4    4    0  502 -0.50592395029E+02  0.41890090498E+01  0.70338362655E+01  0.51465552404E+02  0.47000000000E+01 0.  1.
<mgrwt>
<rscale>  0 0.10005605E+04</rscale>
<asrwt>0</asrwt>
<pdfrwt beam="1">  1        1 0.57162434E-01 0.10005605E+04</pdfrwt>
<pdfrwt beam="2">  1       -1 0.10363091E+00 0.10005605E+04</pdfrwt>
<totfact> 0.69712812E+01</totfact>
</mgrwt>
</event>
<event>
 9    1  0.4412976E-036  0.1001857E+04  0.7818608E-02  0.8679272E-01
         -1   -1    0    0    0  501 -0.00000000000E+00  0.00000000000E+00  0.13397951385E+03  0.13397951385E+03  0.00000000000E+00 0.  1.
          1   -1    0    0  501    0  0.00000000000E+00 -0.00000000000E+00 -0.18728918239E+04  0.18728918239E+04  0.00000000000E+00 0.  1.
         36    2    1    2    0    0  0.28421709430E-13 -0.42632564146E-13 -0.17389123100E+04  0.20068713378E+04  0.10018565487E+04 0.  0.
         25    2    3    3    0    0 -0.42638585839E+02 -0.10897756544E+02 -0.59807130807E+03  0.61265064804E+03  0.12535835396E+03 0.  0.
         35    2    3    3    0    0  0.42638585839E+02  0.10897756544E+02 -0.11408410020E+04  0.13942206897E+04  0.80024766775E+03 0.  0.
         22    1    5    5    0    0 -0.17354183465E+03  0.35344751079E+03 -0.50584392527E+03  0.64103041112E+03  0.00000000000E+00 0.  1.
         22    1    5    5    0    0  0.21618042049E+03 -0.34254975424E+03 -0.63499707671E+03  0.75319027859E+03  0.00000000000E+00 0.  1.
          5    1    4    4  502    0  0.22720047403E+02 -0.29803109305E+02 -0.64548702907E+02  0.74786702864E+02  0.47000000000E+01 0.  1.
         -5    1    4    4    0  502 -0.65358633242E+02  0.18905352760E+02 -0.53352260516E+03  0.53786394518E+03  0.47000000000E+01 0.  1.
<mgrwt>
<rscale>  0 0.10018565E+04</rscale>
<asrwt>0</asrwt>
<pdfrwt beam="1">  1        1 0.28813716E+00 0.10018565E+04</pdfrwt>
<pdfrwt beam="2">  1       -1 0.20612236E-01 0.10018565E+04</pdfrwt>
<totfact> 0.74387997E+01</totfact>
</mgrwt>
</event>
<event>
 9    1  0.4412976E-036  0.9984501E+03  0.7818608E-02  0.8682515E-01
         -2   -1    0    0    0  501 -0.00000000000E+00  0.00000000000E+00  0.28745956537E+03  0.28745956537E+03  0.00000000000E+00 0.  1.
          2   -1    0    0  501    0  0.00000000000E+00 -0.00000000000E+00 -0.86699374342E+03  0.86699374342E+03  0.00000000000E+00 0.  1.
         36    2    1    2    0    0  0.00000000000E+00  0.71054273576E-14 -0.57953417805E+03  0.11544533088E+04  0.99845008821E+03 0.  0.
         25    2    3    3    0    0 -0.89156374113E+02 -0.14727849531E+02  0.14030286640E+02  0.15391793838E+03  0.12380676159E+03 0.  0.
         35    2    3    3    0    0  0.89156374113E+02  0.14727849531E+02 -0.59356446469E+03  0.10005353704E+04  0.80036646925E+03 0.  0.
         22    1    5    5    0    0 -0.20386253063E+03  0.15270317137E+03 -0.62522007902E+03  0.67511357352E+03  0.00000000000E+00 0. -1.
         22    1    5    5    0    0  0.29301890474E+03 -0.13797532184E+03  0.31655614328E+02  0.32542179689E+03  0.00000000000E+00 0. -1.
          5    1    4    4  502    0 -0.84249631820E+02 -0.50088050292E+02  0.43550063363E+02  0.10735693393E+03  0.47000000000E+01 0.  1.
         -5    1    4    4    0  502 -0.49067422925E+01  0.35360200761E+02 -0.29519776723E+02  0.46561004451E+02  0.47000000000E+01 0.  1.
<mgrwt>
<rscale>  0 0.99845009E+03</rscale>
<asrwt>0</asrwt>
<pdfrwt beam="1">  1        2 0.13338365E+00 0.99845009E+03</pdfrwt>
<pdfrwt beam="2">  1       -2 0.44224549E-01 0.99845009E+03</pdfrwt>
<totfact> 0.18119790E+02</totfact>
</mgrwt>
</event>
<event>
 9    1  0.4412976E-036  0.9996685E+03  0.7818608E-02  0.8681354E-01
         -2   -1    0    0    0  501 -0.00000000000E+00  0.00000000000E+00  0.12677628739E+03  0.12677628739E+03  0.00000000000E+00 0. -1.
          2   -1    0    0  501    0  0.00000000000E+00 -0.00000000000E+00 -0.19706704382E+04  0.19706704382E+04  0.00000000000E+00 0. -1.
         36    2    1    2    0    0  0.00000000000E+00 -0.71054273576E-14 -0.18438941508E+04  0.20974467256E+04  0.99966850868E+03 0.  0.
         25    2    3    3    0    0  0.86314164544E+02  0.43734352088E+02 -0.13806165445E+03  0.21051468485E+03  0.12606579058E+03 0.  0.
         35    2    3    3    0    0 -0.86314164544E+02 -0.43734352088E+02 -0.17058324963E+04  0.18869320407E+04  0.80080284224E+03 0.  0.
         22    1    5    5    0    0 -0.29691211424E+03 -0.31019521166E+03 -0.12263200501E+04  0.12993224150E+04  0.00000000000E+00 0.  1.
         22    1    5    5    0    0  0.21059794969E+03  0.26646085957E+03 -0.47951244623E+03  0.58760962567E+03  0.00000000000E+00 0.  1.
          5    1    4    4  502    0  0.64987824873E+02  0.48279006134E+02 -0.15990606052E+03  0.17929394302E+03  0.47000000000E+01 0.  1.
         -5    1    4    4    0  502  0.21326339671E+02 -0.45446540453E+01  0.21844406062E+02  0.31220741829E+02  0.47000000000E+01 0.  1.
<mgrwt>
<rscale>  0 0.99966851E+03</rscale>
<asrwt>0</asrwt>
<pdfrwt beam="1">  1        2 0.30318006E+00 0.99966851E+03</pdfrwt>
<pdfrwt beam="2">  1       -2 0.19504045E-01 0.99966851E+03</pdfrwt>
<totfact> 0.18192493E+02</totfact>
</mgrwt>
</event>
<event>
 9    1  0.4412976E-036  0.1000193E+04  0.7818608E-02  0.8680854E-01
          2   -1    0    0  501    0  0.00000000000E+00  0.00000000000E+00  0.49720294986E+03  0.49720294986E+03  0.00000000000E+00 0. -1.
         -2   -1    0    0    0  501 -0.00000000000E+00 -0.00000000000E+00 -0.50300661834E+03  0.50300661834E+03  0.00000000000E+00 0. -1.
         36    2    1    2    0    0  0.00000000000E+00  0.00000000000E+00 -0.58036684771E+01  0.10002095682E+04  0.10001927303E+04 0.  0.
         25    2    3    3    0    0  0.53139891458E+02  0.13695431362E+03 -0.94738729721E+01  0.18690096471E+03  0.11516025467E+03 0.  0.
         35    2    3    3    0    0 -0.53139891458E+02 -0.13695431362E+03  0.36702044950E+01  0.81330860350E+03  0.79992317258E+03 0.  0.
         22    1    5    5    0    0 -0.14827350484E+03  0.30645105850E+03 -0.85773623538E+02  0.35107605727E+03  0.00000000000E+00 0. -1.
         22    1    5    5    0    0  0.95133613387E+02 -0.44340537212E+03  0.89443828033E+02  0.46223254623E+03  0.00000000000E+00 0. -1.
          5    1    4    4  502    0  0.61686994441E+02  0.95816370513E+02  0.40873905921E+02  0.12115621456E+03  0.47000000000E+01 0. -1.
         -5    1    4    4    0  502 -0.85471029830E+01  0.41137943111E+02 -0.50347778893E+02  0.65744750150E+02  0.47000000000E+01 0. -1.
<mgrwt>
<rscale>  0 0.10001927E+04</rscale>
<asrwt>0</asrwt>
<pdfrwt beam="1">  1        2 0.76492762E-01 0.10001927E+04</pdfrwt>
<pdfrwt beam="2">  1       -2 0.77385633E-01 0.10001927E+04</pdfrwt>
<totfact> 0.11139365E+02</totfact>
</mgrwt>
</event>
<event>
 9    1  0.4412976E-036  0.9997378E+03  0.7818608E-02  0.8681288E-01
          2   -1    0    0  501    0  0.00000000000E+00  0.00000000000E+00  0.33177535502E+04  0.33177535502E+04  0.00000000000E+00 0. -1.
         -2   -1    0    0    0  501 -0.00000000000E+00 -0.00000000000E+00 -0.75312688424E+02  0.75312688424E+02  0.00000000000E+00 0. -1.
         36    2    1    2    0    0 -0.14210854715E-13 -0.28421709430E-13  0.32424408617E+04  0.33930662386E+04  0.99973784442E+03 0.  0.
         25    2    3    3    0    0 -0.84623577119E+02  0.11115278027E+03  0.60293143788E+03  0.63137064961E+03  0.12484585711E+03 0.  0.
         35    2    3    3    0    0  0.84623577119E+02 -0.11115278027E+03  0.26395094239E+04  0.27616955890E+04  0.80027272675E+03 0.  0.
         22    1    5    5    0    0  0.32494330610E+03 -0.32463956404E+03  0.19108779190E+04  0.19653074619E+04  0.00000000000E+00 0. -1.
         22    1    5    5    0    0 -0.24031972898E+03  0.21348678377E+03  0.72863150488E+03  0.79638812704E+03  0.00000000000E+00 0. -1.
          5    1    4    4  502    0 -0.33171372212E+02  0.11274934666E+03  0.27080816188E+03  0.29524888763E+03  0.47000000000E+01 0. -1.
         -5    1    4    4    0  502 -0.51452204907E+02 -0.15965663932E+01  0.33212327601E+03  0.33612176198E+03  0.47000000000E+01 0. -1.
<mgrwt>
<rscale>  0 0.99973784E+03</rscale>
<asrwt>0</asrwt>
<pdfrwt beam="1">  1        2 0.51042351E+00 0.99973784E+03</pdfrwt>
<pdfrwt beam="2">  1       -2 0.11586570E-01 0.99973784E+03</pdfrwt>
<totfact> 0.61851269E+01</totfact>
</mgrwt>
</event>
<event>
 9    1  0.4412976E-036  0.1005971E+04  0.7818608E-02  0.8675373E-01
         -2   -1    0    0    0  501 -0.00000000000E+00  0.00000000000E+00  0.33660217187E+03  0.33660217187E+03  0.00000000000E+00 0. -1.
          2   -1    0    0  501    0  0.00000000000E+00 -0.00000000000E+00 -0.75161233439E+03  0.75161233439E+03  0.00000000000E+00 0. -1.
         36    2    1    2    0    0 -0.14210854715E-13  0.42632564146E-13 -0.41501016252E+03  0.10882145063E+04  0.10059708627E+04 0.  0.
         25    2    3    3    0    0 -0.32453209213E+02 -0.10300015938E+03  0.29805475215E+02  0.16609700285E+03  0.12262791029E+03 0.  0.
         35    2    3    3    0    0  0.32453209213E+02  0.10300015938E+03 -0.44481563774E+03  0.92211750341E+03  0.80048578682E+03 0.  0.
         22    1    5    5    0    0 -0.76697069001E+02 -0.20946166363E+03 -0.53452241409E+03  0.57919844621E+03  0.00000000000E+00 0.  1.
         22    1    5    5    0    0  0.10915027821E+03  0.31246182301E+03  0.89706776354E+02  0.34291905721E+03  0.00000000000E+00 0.  1.
          5    1    4    4  502    0 -0.71417572295E+02 -0.99199930510E+02  0.32520819967E+02  0.12657325775E+03  0.47000000000E+01 0.  1.
         -5    1    4    4    0  502  0.38964363082E+02 -0.38002288668E+01 -0.27153447519E+01  0.39523745102E+02  0.47000000000E+01 0.  1.
<mgrwt>
<rscale>  0 0.10059709E+04</rscale>
<asrwt>0</asrwt>
<pdfrwt beam="1">  1        2 0.11563267E+00 0.10059709E+04</pdfrwt>
<pdfrwt beam="2">  1       -2 0.51784950E-01 0.10059709E+04</pdfrwt>
<totfact> 0.15945671E+02</totfact>
</mgrwt>
</event>
<event>
 9    1  0.4412976E-036  0.9986396E+03  0.7818608E-02  0.8682335E-01
         -2   -1    0    0    0  501 -0.00000000000E+00  0.00000000000E+00  0.32559265091E+03  0.32559265091E+03  0.00000000000E+00 0. -1.
          2   -1    0    0  501    0  0.00000000000E+00 -0.00000000000E+00 -0.76574291214E+03  0.76574291214E+03  0.00000000000E+00 0. -1.
         36    2    1    2    0    0  0.14210854715E-13 -0.71054273576E-14 -0.44015026123E+03  0.10913355631E+04  0.99863960402E+03 0.  0.
         25    2    3    3    0    0  0.12566834301E+03 -0.35278945967E+02 -0.13136116603E+03  0.22375920019E+03  0.12559971045E+03 0.  0.
         35    2    3    3    0    0 -0.12566834301E+03  0.35278945967E+02 -0.30878909520E+03  0.86757636286E+03  0.80018804266E+03 0.  0.
         22    1    5    5    0    0  0.34036988488E+03  0.52181793695E+02 -0.13690269653E+03  0.37056301278E+03  0.00000000000E+00 0.  1.
         22    1    5    5    0    0 -0.46603822789E+03 -0.16902847728E+02 -0.17188639867E+03  0.49701335008E+03  0.00000000000E+00 0.  1.
          5    1    4    4  502    0 -0.15208292636E+01 -0.49001346198E+02 -0.16995600136E+02  0.52099762714E+02  0.47000000000E+01 0.  1.
         -5    1    4    4    0  502  0.12718917228E+03  0.13722400231E+02 -0.11436556589E+03  0.17165943748E+03  0.47000000000E+01 0.  1.
<mgrwt>
<rscale>  0 0.99863960E+03</rscale>
<asrwt>0</asrwt>
<pdfrwt beam="1">  1        2 0.11780660E+00 0.99863960E+03</pdfrwt>
<pdfrwt beam="2">  1       -2 0.50091177E-01 0.99863960E+03</pdfrwt>
<totfact> 0.16653852E+02</totfact>
</mgrwt>
</event>
<event>
 9    1  0.4412976E-036  0.9997994E+03  0.7818608E-02  0.8681229E-01
          1   -1    0    0  501    0  0.00000000000E+00  0.00000000000E+00  0.48862730075E+03  0.48862730075E+03  0.00000000000E+00 0.  1.
         -1   -1    0    0    0  501 -0.00000000000E+00 -0.00000000000E+00 -0.51143213175E+03  0.51143213175E+03  0.00000000000E+00 0.  1.
         36    2    1    2    0    0  0.14210854715E-13  0.00000000000E+00 -0.22804831004E+02  0.10000594325E+04  0.99979938399E+03 0.  0.
         25    2    3    3    0    0  0.45324985145E+02 -0.12836305082E+03  0.24553201513E+01  0.18598334654E+03  0.12669786698E+03 0.  0.
         35    2    3    3    0    0 -0.45324985145E+02  0.12836305082E+03 -0.25260151156E+02  0.81407608597E+03  0.80221591321E+03 0.  0.
         22    1    5    5    0    0  0.13653531641E+03 -0.14122409299E+03  0.29711047892E+03  0.35617520092E+03  0.00000000000E+00 0. -1.
         22    1    5    5    0    0 -0.18186030155E+03  0.26958714381E+03 -0.32237063008E+03  0.45790088504E+03  0.00000000000E+00 0. -1.
          5    1    4    4  502    0  0.11218185830E+01 -0.13959045869E+03 -0.37041409159E+01  0.13972317379E+03  0.47000000000E+01 0. -1.
         -5    1    4    4    0  502  0.44203166562E+02  0.11227407872E+02  0.61594610672E+01  0.46260172744E+02  0.47000000000E+01 0. -1.
<mgrwt>
<rscale>  0 0.99979938E+03</rscale>
<asrwt>0</asrwt>
<pdfrwt beam="1">  1        1 0.75173431E-01 0.99979938E+03</pdfrwt>
<pdfrwt beam="2">  1       -1 0.78681866E-01 0.99979938E+03</pdfrwt>
<totfact> 0.87389640E+01</totfact>
</mgrwt>
</event>
<event>
 9    1  0.4412976E-036  0.9997900E+03  0.7818608E-02  0.8681238E-01
          1   -1    0    0  501    0  0.00000000000E+00  0.00000000000E+00  0.50204029443E+03  0.50204029443E+03  0.00000000000E+00 0. -1.
         -1   -1    0    0    0  501 -0.00000000000E+00 -0.00000000000E+00 -0.49775887375E+03  0.49775887375E+03  0.00000000000E+00 0. -1.
         36    2    1    2    0    0  0.00000000000E+00  0.35527136788E-13  0.42814206780E+01  0.99979916817E+03  0.99979000101E+03 0.  0.
         25    2    3    3    0    0  0.92047867585E+02 -0.46151988782E+02 -0.92769902589E+02  0.18760607573E+03  0.12643958569E+03 0.  0.
         35    2    3    3    0    0 -0.92047867585E+02  0.46151988782E+02  0.97051323267E+02  0.81219309244E+03  0.79977237016E+03 0.  0.
         22    1    5    5    0    0 -0.16665047945E+03  0.32945737813E+03 -0.17842002562E+03  0.41005883950E+03  0.00000000000E+00 0.  1.
         22    1    5    5    0    0  0.74602611866E+02 -0.28330538935E+03  0.27547134889E+03  0.40213425294E+03  0.00000000000E+00 0.  1.
          5    1    4    4  502    0 -0.24951229023E+02 -0.28591502083E+02 -0.17793588389E+01  0.38279158023E+02  0.47000000000E+01 0. -1.
         -5    1    4    4    0  502  0.11699909661E+03 -0.17560486699E+02 -0.90990543750E+02  0.14932691771E+03  0.47000000000E+01 0. -1.
<mgrwt>
<rscale>  0 0.99979000E+03</rscale>
<asrwt>0</asrwt>
<pdfrwt beam="1">  1        1 0.77236968E-01 0.99979000E+03</pdfrwt>
<pdfrwt beam="2">  1       -1 0.76578288E-01 0.99979000E+03</pdfrwt>
<totfact> 0.88999770E+01</totfact>
</mgrwt>
</event>
<event>
 9    1  0.4412976E-036  0.1000765E+04  0.7818608E-02  0.8680310E-01
         -1   -1    0    0    0  501 -0.00000000000E+00  0.00000000000E+00  0.18457588437E+03  0.18457588437E+03  0.00000000000E+00 0. -1.
          1   -1    0    0  501    0  0.00000000000E+00 -0.00000000000E+00 -0.13565284404E+04  0.13565284404E+04  0.00000000000E+00 0. -1.
         36    2    1    2    0    0  0.00000000000E+00 -0.49737991503E-13 -0.11719525560E+04  0.15411043247E+04  0.10007645808E+04 0.  0.
         25    2    3    3    0    0 -0.13015078866E+03  0.14919976383E+02 -0.13450583943E+03  0.22453493185E+03  0.12313521549E+03 0.  0.
         35    2    3    3    0    0  0.13015078866E+03 -0.14919976383E+02 -0.10374467166E+04  0.13165693929E+04  0.79993589938E+03 0.  0.
         22    1    5    5    0    0  0.38052429369E+02 -0.37476924405E+03 -0.77518847843E+03  0.86186840687E+03  0.00000000000E+00 0.  1.
         22    1    5    5    0    0  0.92098359291E+02  0.35984926767E+03 -0.26225823813E+03  0.45470098602E+03  0.00000000000E+00 0.  1.
          5    1    4    4  502    0 -0.86724928051E+02 -0.19600198837E+02 -0.14276341630E+03  0.16825238178E+03  0.47000000000E+01 0. -1.
         -5    1    4    4    0  502 -0.43425860608E+02  0.34520175220E+02  0.82575768681E+01  0.56282550071E+02  0.47000000000E+01 0. -1.
<mgrwt>
<rscale>  0 0.10007646E+04</rscale>
<asrwt>0</asrwt>
<pdfrwt beam="1">  1        1 0.20869668E+00 0.10007646E+04</pdfrwt>
<pdfrwt beam="2">  1       -1 0.28396290E-01 0.10007646E+04</pdfrwt>
<totfact> 0.10098795E+02</totfact>
</mgrwt>
</event>
<event>
 9    1  0.4412976E-036  0.1000553E+04  0.7818608E-02  0.8680511E-01
          2   -1    0    0  501    0  0.00000000000E+00  0.00000000000E+00  0.16887880203E+04  0.16887880203E+04  0.00000000000E+00 0.  1.
         -2   -1    0    0    0  501 -0.00000000000E+00 -0.00000000000E+00 -0.14819905287E+03  0.14819905287E+03  0.00000000000E+00 0.  1.
         36    2    1    2    0    0  0.35527136788E-14  0.00000000000E+00  0.15405889674E+04  0.18369870731E+04  0.10005534171E+04 0.  0.
         25    2    3    3    0    0 -0.20982868142E+02 -0.11478114211E+03  0.43822652569E+03  0.47058486210E+03  0.12566874424E+03 0.  0.
         35    2    3    3    0    0  0.20982868142E+02  0.11478114211E+03  0.11023624417E+04  0.13664022110E+04  0.79889740149E+03 0.  0.
         22    1    5    5    0    0  0.23216121936E+03 -0.27537700664E+03  0.55808660808E+03  0.66422284640E+03  0.00000000000E+00 0.  1.
         22    1    5    5    0    0 -0.21117835121E+03  0.39015814875E+03  0.54427583361E+03  0.70217936463E+03  0.00000000000E+00 0.  1.
          5    1    4    4  502    0 -0.38676394599E+02 -0.12541518579E+03  0.42675535002E+03  0.44650537633E+03  0.47000000000E+01 0. -1.
         -5    1    4    4    0  502  0.17693526457E+02  0.10634043681E+02  0.11471175672E+02  0.24079485766E+02  0.47000000000E+01 0. -1.
<mgrwt>
<rscale>  0 0.10005534E+04</rscale>
<asrwt>0</asrwt>
<pdfrwt beam="1">  1        2 0.25981353E+00 0.10005534E+04</pdfrwt>
<pdfrwt beam="2">  1       -2 0.22799855E-01 0.10005534E+04</pdfrwt>
<totfact> 0.20007517E+02</totfact>
</mgrwt>
</event>
<event>
 9    1  0.4412976E-036  0.1000773E+04  0.7818608E-02  0.8680302E-01
         -2   -1    0    0    0  501 -0.00000000000E+00  0.00000000000E+00  0.37357773089E+03  0.37357773089E+03  0.00000000000E+00 0. -1.
          2   -1    0    0  501    0  0.00000000000E+00 -0.00000000000E+00 -0.67024038907E+03  0.67024038907E+03  0.00000000000E+00 0. -1.
         36    2    1    2    0    0 -0.14210854715E-13  0.14210854715E-13 -0.29666265817E+03  0.10438181200E+04  0.10007734683E+04 0.  0.
         25    2    3    3    0    0 -0.45470334583E+02 -0.12152016836E+03 -0.11005153367E+03  0.21087255862E+03  0.12458408114E+03 0.  0.
         35    2    3    3    0    0  0.45470334583E+02  0.12152016836E+03 -0.18661112451E+03  0.83294556134E+03  0.80133631748E+03 0.  0.
         22    1    5    5    0    0  0.21046651628E+03  0.39284875715E+03  0.32925234680E+02  0.44688966373E+03  0.00000000000E+00 0. -1.
         22    1    5    5    0    0 -0.16499618170E+03 -0.27132858880E+03 -0.21953635919E+03  0.38605589761E+03  0.00000000000E+00 0. -1.
          5    1    4    4  502    0  0.26971744402E+02 -0.79507079043E+02 -0.17353805480E+02  0.85860905997E+02  0.47000000000E+01 0.  1.
         -5    1    4    4    0  502 -0.72442078985E+02 -0.42013089314E+02 -0.92697728186E+02  0.12501165263E+03  0.47000000000E+01 0.  1.
<mgrwt>
<rscale>  0 0.10007735E+04</rscale>
<asrwt>0</asrwt>
<pdfrwt beam="1">  1        2 0.10311391E+00 0.10007735E+04</pdfrwt>
<pdfrwt beam="2">  1       -2 0.57473497E-01 0.10007735E+04</pdfrwt>
<totfact> 0.14850806E+02</totfact>
</mgrwt>
</event>
<event>
 9    1  0.4412976E-036  0.1000598E+04  0.7818608E-02  0.8680468E-01
         -1   -1    0    0    0  501 -0.00000000000E+00  0.00000000000E+00  0.12049609780E+03  0.12049609780E+03  0.00000000000E+00 0. -1.
          1   -1    0    0  501    0  0.00000000000E+00 -0.00000000000E+00 -0.20772390383E+04  0.20772390383E+04  0.00000000000E+00 0. -1.
         36    2    1    2    0    0 -0.28421709430E-13  0.14210854715E-13 -0.19567429405E+04  0.21977351361E+04  0.10005982177E+04 0.  0.
         25    2    3    3    0    0 -0.75753136676E+02 -0.11744595090E+03 -0.40788688693E+03  0.44892946857E+03  0.12503545946E+03 0.  0.
         35    2    3    3    0    0  0.75753136676E+02  0.11744595090E+03 -0.15488560536E+04  0.17488056675E+04  0.79989630516E+03 0.  0.
         22    1    5    5    0    0 -0.27642222216E+03 -0.37033120124E+02 -0.11919433996E+04  0.12241363342E+04  0.00000000000E+00 0.  1.
         22    1    5    5    0    0  0.35217535883E+03  0.15447907102E+03 -0.35691265394E+03  0.52466933329E+03  0.00000000000E+00 0.  1.
          5    1    4    4  502    0 -0.74129628696E+02 -0.13777085026E+03 -0.29332159931E+03  0.33246903564E+03  0.47000000000E+01 0.  1.
         -5    1    4    4    0  502 -0.16235079803E+01  0.20324899365E+02 -0.11456528762E+03  0.11646043294E+03  0.47000000000E+01 0.  1.
<mgrwt>
<rscale>  0 0.10005982E+04</rscale>
<asrwt>0</asrwt>
<pdfrwt beam="1">  1        1 0.31957521E+00 0.10005982E+04</pdfrwt>
<pdfrwt beam="2">  1       -1 0.18537863E-01 0.10005982E+04</pdfrwt>
<totfact> 0.63718061E+01</totfact>
</mgrwt>
</event>
<event>
 9    1  0.4412976E-036  0.1000233E+04  0.7818608E-02  0.8680816E-01
         -2   -1    0    0    0  501 -0.00000000000E+00  0.00000000000E+00  0.21737625906E+03  0.21737625906E+03  0.00000000000E+00 0. -1.
          2   -1    0    0  501    0  0.00000000000E+00 -0.00000000000E+00 -0.11506150506E+04  0.11506150506E+04  0.00000000000E+00 0. -1.
         36    2    1    2    0    0  0.14210854715E-13  0.00000000000E+00 -0.93323879156E+03  0.13679913097E+04  0.10002327636E+04 0.  0.
         25    2    3    3    0    0 -0.12532869471E+03 -0.11011815193E+02 -0.25261540716E+03  0.30958948080E+03  0.12728928036E+03 0.  0.
         35    2    3    3    0    0  0.12532869471E+03  0.11011815193E+02 -0.68062338440E+03  0.10584018289E+04  0.80071074566E+03 0.  0.
         22    1    5    5    0    0  0.29086936447E+03  0.88963486686E+02  0.47306883111E+02  0.30782694869E+03  0.00000000000E+00 0. -1.
         22    1    5    5    0    0 -0.16554066975E+03 -0.77951671493E+02 -0.72793026751E+03  0.75057488020E+03  0.00000000000E+00 0. -1.
          5    1    4    4  502    0 -0.16346984251E+02  0.15565603616E+02  0.91161675096E+01  0.24793273686E+02  0.47000000000E+01 0.  1.
         -5    1    4    4    0  502 -0.10898171046E+03 -0.26577418808E+02 -0.26173157467E+03  0.28479620711E+03  0.47000000000E+01 0.  1.
<mgrwt>
<rscale>  0 0.10002328E+04</rscale>
<asrwt>0</asrwt>
<pdfrwt beam="1">  1        2 0.17701770E+00 0.10002328E+04</pdfrwt>
<pdfrwt beam="2">  1       -2 0.33442501E-01 0.10002328E+04</pdfrwt>
<totfact> 0.20435498E+02</totfact>
</mgrwt>
</event>
<event>
 9    1  0.4412976E-036  0.9994830E+03  0.7818608E-02  0.8681530E-01
         -2   -1    0    0    0  501 -0.00000000000E+00  0.00000000000E+00  0.13494509995E+04  0.13494509995E+04  0.00000000000E+00 0. -1.
          2   -1    0    0  501    0  0.00000000000E+00 -0.00000000000E+00 -0.18506901089E+03  0.18506901089E+03  0.00000000000E+00 0. -1.
         36    2    1    2    0    0  0.00000000000E+00  0.00000000000E+00  0.11643819886E+04  0.15345200104E+04  0.99948298978E+03 0.  0.
         25    2    3    3    0    0 -0.10735462648E+03 -0.74092840628E+02  0.13810346042E+03  0.22671252836E+03  0.12373859494E+03 0.  0.
         35    2    3    3    0    0  0.10735462648E+03  0.74092840628E+02  0.10262785282E+04  0.13078074820E+04  0.80006126500E+03 0.  0.
         22    1    5    5    0    0  0.97059233491E+02 -0.20029162109E+03 -0.22478897560E+02  0.22370187554E+03  0.00000000000E+00 0.  1.
         22    1    5    5    0    0  0.10295392984E+02  0.27438446172E+03  0.10487574257E+04  0.10841056065E+04  0.00000000000E+00 0.  1.
          5    1    4    4  502    0 -0.33854519794E+02 -0.90320559063E+02  0.10963306398E+03  0.14610075502E+03  0.47000000000E+01 0. -1.
         -5    1    4    4    0  502 -0.73500106681E+02  0.16227718435E+02  0.28470396444E+02  0.80611773342E+02  0.47000000000E+01 0. -1.
<mgrwt>
<rscale>  0 0.99948299E+03</rscale>
<asrwt>0</asrwt>
<pdfrwt beam="1">  1        2 0.28472156E-01 0.99948299E+03</pdfrwt>
<pdfrwt beam="2">  1       -2 0.20760784E+00 0.99948299E+03</pdfrwt>
<totfact> 0.24323706E+01</totfact>
</mgrwt>
</event>
<event>
 9    1  0.4412976E-036  0.9998276E+03  0.7818608E-02  0.8681202E-01
         -2   -1    0    0    0  501 -0.00000000000E+00  0.00000000000E+00  0.26847447237E+03  0.26847447237E+03  0.00000000000E+00 0.  1.
          2   -1    0    0  501    0  0.00000000000E+00 -0.00000000000E+00 -0.93086624112E+03  0.93086624112E+03  0.00000000000E+00 0.  1.
         36    2    1    2    0    0  0.00000000000E+00 -0.35527136788E-14 -0.66239176875E+03  0.11993407135E+04  0.99982763101E+03 0.  0.
         25    2    3    3    0    0  0.10892262132E+03 -0.20512706287E+02 -0.23020129269E+02  0.16988479620E+03  0.12667284268E+03 0.  0.
         35    2    3    3    0    0 -0.10892262132E+03  0.20512706287E+02 -0.63937163948E+03  0.10294559173E+04  0.79918613834E+03 0.  0.
         22    1    5    5    0    0  0.19930887757E+03 -0.19710791962E+02 -0.68644582707E+03  0.71506672241E+03  0.00000000000E+00 0.  1.
         22    1    5    5    0    0 -0.30823149889E+03  0.40223498249E+02  0.47074187589E+02  0.31438919488E+03  0.00000000000E+00 0.  1.
          5    1    4    4  502    0 -0.25613944062E+02  0.11749992836E+02 -0.12092484521E+02  0.31023453127E+02  0.47000000000E+01 0.  1.
         -5    1    4    4    0  502  0.13453656538E+03 -0.32262699122E+02 -0.10927644748E+02  0.13886134307E+03  0.47000000000E+01 0.  1.
<mgrwt>
<rscale>  0 0.99982763E+03</rscale>
<asrwt>0</asrwt>
<pdfrwt beam="1">  1        2 0.14321019E+00 0.99982763E+03</pdfrwt>
<pdfrwt beam="2">  1       -2 0.41303765E-01 0.99982763E+03</pdfrwt>
<totfact> 0.18773961E+02</totfact>
</mgrwt>
</event>
<event>
 9    1  0.4412976E-036  0.9978934E+03  0.7818608E-02  0.8683047E-01
          2   -1    0    0  501    0  0.00000000000E+00  0.00000000000E+00  0.27160210148E+04  0.27160210148E+04  0.00000000000E+00 0. -1.
         -2   -1    0    0    0  501 -0.00000000000E+00 -0.00000000000E+00 -0.91659016972E+02  0.91659016972E+02  0.00000000000E+00 0. -1.
         36    2    1    2    0    0  0.00000000000E+00  0.00000000000E+00  0.26243619978E+04  0.28076800318E+04  0.99789341374E+03 0.  0.
         25    2    3    3    0    0  0.61554720732E+02 -0.82393101164E+02  0.22877895391E+03  0.27992136228E+03  0.12425197199E+03 0.  0.
         35    2    3    3    0    0 -0.61554720732E+02  0.82393101164E+02  0.23955830439E+04  0.25277586695E+04  0.80010509568E+03 0.  0.
         22    1    5    5    0    0 -0.41286326658E+02 -0.45910478511E+02 -0.49556183142E+02  0.79171636926E+02  0.00000000000E+00 0. -1.
         22    1    5    5    0    0 -0.20268394075E+02  0.12830357968E+03  0.24451392271E+04  0.24485870326E+04  0.00000000000E+00 0. -1.
          5    1    4    4  502    0  0.65410020242E+02 -0.10479077207E+03  0.13387158738E+03  0.18221764066E+03  0.47000000000E+01 0. -1.
         -5    1    4    4    0  502 -0.38552995096E+01  0.22397670910E+02  0.94907366526E+02  0.97703721615E+02  0.47000000000E+01 0. -1.
<mgrwt>
<rscale>  0 0.99789341E+03</rscale>
<asrwt>0</asrwt>
<pdfrwt beam="1">  1        2 0.41784933E+00 0.99789341E+03</pdfrwt>
<pdfrwt beam="2">  1       -2 0.14101389E-01 0.99789341E+03</pdfrwt>
<totfact> 0.11344006E+02</totfact>
</mgrwt>
</event>
<event>
 9    1  0.4412976E-036  0.9966941E+03  0.7818608E-02  0.8684193E-01
         -2   -1    0    0    0  501 -0.00000000000E+00  0.00000000000E+00  0.97715283180E+03  0.97715283180E+03  0.00000000000E+00 0. -1.
          2   -1    0    0  501    0  0.00000000000E+00 -0.00000000000E+00 -0.25415654680E+03  0.25415654680E+03  0.00000000000E+00 0. -1.
         36    2    1    2    0    0  0.14210854715E-13  0.00000000000E+00  0.72299628499E+03  0.12313093786E+04  0.99669411442E+03 0.  0.
         25    2    3    3    0    0  0.10188739366E+03  0.36048225586E+01  0.23936322714E+03  0.28858804674E+03  0.12487702145E+03 0.  0.
         35    2    3    3    0    0 -0.10188739366E+03 -0.36048225586E+01  0.48363305786E+03  0.94272133186E+03  0.80276306539E+03 0.  0.
         22    1    5    5    0    0  0.24752375314E+03 -0.23426515754E+03  0.38190827791E+03  0.51186141205E+03  0.00000000000E+00 0.  1.
         22    1    5    5    0    0 -0.34941114680E+03  0.23066033498E+03  0.10172477994E+03  0.43085991981E+03  0.00000000000E+00 0.  1.
          5    1    4    4  502    0  0.10842013452E+03  0.34373564972E+02  0.22795858381E+03  0.25480124307E+03  0.47000000000E+01 0.  1.
         -5    1    4    4    0  502 -0.65327408649E+01 -0.30768742413E+02  0.11404643328E+02  0.33786803672E+02  0.47000000000E+01 0.  1.
<mgrwt>
<rscale>  0 0.99669411E+03</rscale>
<asrwt>0</asrwt>
<pdfrwt beam="1">  1        2 0.39101008E-01 0.99669411E+03</pdfrwt>
<pdfrwt beam="2">  1       -2 0.15033120E+00 0.99669411E+03</pdfrwt>
<totfact> 0.44569870E+01</totfact>
</mgrwt>
</event>
<event>
 9    1  0.4412976E-036  0.9999957E+03  0.7818608E-02  0.8681042E-01
         -2   -1    0    0    0  501 -0.00000000000E+00  0.00000000000E+00  0.26633911692E+03  0.26633911692E+03  0.00000000000E+00 0. -1.
          2   -1    0    0  501    0  0.00000000000E+00 -0.00000000000E+00 -0.93864486028E+03  0.93864486028E+03  0.00000000000E+00 0. -1.
         36    2    1    2    0    0 -0.71054273576E-14  0.00000000000E+00 -0.67230574337E+03  0.12049839772E+04  0.99999568636E+03 0.  0.
         25    2    3    3    0    0  0.24930675503E+02  0.51718363831E+02 -0.28168055805E+03  0.31412895193E+03  0.12663622673E+03 0.  0.
         35    2    3    3    0    0 -0.24930675503E+02 -0.51718363831E+02 -0.39062518531E+03  0.89085502527E+03  0.79858519452E+03 0.  0.
         22    1    5    5    0    0 -0.14417148085E+03 -0.31448410325E+02  0.22190976502E+03  0.26649270574E+03  0.00000000000E+00 0.  1.
         22    1    5    5    0    0  0.11924080534E+03 -0.20269953507E+02 -0.61253495033E+03  0.62436231953E+03  0.00000000000E+00 0.  1.
          5    1    4    4  502    0  0.96412156768E+01  0.57717458151E+02 -0.38178100282E+02  0.70027961246E+02  0.47000000000E+01 0.  1.
         -5    1    4    4    0  502  0.15289459827E+02 -0.59990943199E+01 -0.24350245777E+03  0.24410099069E+03  0.47000000000E+01 0.  1.
<mgrwt>
<rscale>  0 0.99999569E+03</rscale>
<asrwt>0</asrwt>
<pdfrwt beam="1">  1        2 0.14440690E+00 0.99999569E+03</pdfrwt>
<pdfrwt beam="2">  1       -2 0.40975250E-01 0.99999569E+03</pdfrwt>
<totfact> 0.18844987E+02</totfact>
</mgrwt>
</event>
<event>
 9    1  0.4412976E-036  0.1004233E+04  0.7818608E-02  0.8677017E-01
         -1   -1    0    0    0  501 -0.00000000000E+00  0.00000000000E+00  0.22570318911E+03  0.22570318911E+03  0.00000000000E+00 0. -1.
          1   -1    0    0  501    0  0.00000000000E+00 -0.00000000000E+00 -0.11170463251E+04  0.11170463251E+04  0.00000000000E+00 0. -1.
         36    2    1    2    0    0 -0.14210854715E-13 -0.14210854715E-13 -0.89134313602E+03  0.13427495142E+04  0.10042328773E+04 0.  0.
         25    2    3    3    0    0 -0.10414575130E+03 -0.10074452982E+03 -0.17781799836E+03  0.26075500485E+03  0.12400860539E+03 0.  0.
         35    2    3    3    0    0  0.10414575130E+03  0.10074452982E+03 -0.71352513766E+03  0.10819945094E+04  0.80037378672E+03 0.  0.
         22    1    5    5    0    0 -0.26304154538E+03 -0.37167264477E+02 -0.62611368547E+03  0.68014013797E+03  0.00000000000E+00 0. -1.
         22    1    5    5    0    0  0.36718729668E+03  0.13791179430E+03 -0.87411452191E+02  0.40185437142E+03  0.00000000000E+00 0. -1.
          5    1    4    4  502    0  0.86058258988E+00 -0.74121532731E+02 -0.11044664927E+03  0.13309881499E+03  0.47000000000E+01 0. -1.
         -5    1    4    4    0  502 -0.10500633389E+03 -0.26622997093E+02 -0.67371349098E+02  0.12765618987E+03  0.47000000000E+01 0. -1.
<mgrwt>
<rscale>  0 0.10042329E+04</rscale>
<asrwt>0</asrwt>
<pdfrwt beam="1">  1        1 0.17185328E+00 0.10042329E+04</pdfrwt>
<pdfrwt beam="2">  1       -1 0.34723568E-01 0.10042329E+04</pdfrwt>
<totfact> 0.10748200E+02</totfact>
</mgrwt>
</event>
<event>
 9    1  0.4412976E-036  0.1000239E+04  0.7818608E-02  0.8680810E-01
          1   -1    0    0  501    0  0.00000000000E+00  0.00000000000E+00  0.93506167063E+03  0.93506167063E+03  0.00000000000E+00 0.  1.
         -1   -1    0    0    0  501 -0.00000000000E+00 -0.00000000000E+00 -0.26748986657E+03  0.26748986657E+03  0.00000000000E+00 0.  1.
         36    2    1    2    0    0 -0.21316282073E-13  0.00000000000E+00  0.66757180406E+03  0.12025515372E+04  0.10002390145E+04 0.  0.
         25    2    3    3    0    0  0.18890015198E+02 -0.13900764972E+03  0.10999763001E+03  0.21760360083E+03  0.12478737569E+03 0.  0.
         35    2    3    3    0    0 -0.18890015198E+02  0.13900764972E+03  0.55757417405E+03  0.98494793638E+03  0.79972090035E+03 0.  0.
         22    1    5    5    0    0 -0.31234907706E+03 -0.82839714724E+01  0.57684485817E+03  0.65603396293E+03  0.00000000000E+00 0. -1.
         22    1    5    5    0    0  0.29345906187E+03  0.14729162119E+03 -0.19270684110E+02  0.32891397345E+03  0.00000000000E+00 0. -1.
          5    1    4    4  502    0 -0.42974932688E+02 -0.94034252620E+02  0.92935104636E+02  0.13909819977E+03  0.47000000000E+01 0.  1.
         -5    1    4    4    0  502  0.61864947886E+02 -0.44973397098E+02  0.17062525370E+02  0.78505401059E+02  0.47000000000E+01 0.  1.
<mgrwt>
<rscale>  0 0.10002390E+04</rscale>
<asrwt>0</asrwt>
<pdfrwt beam="1">  1        1 0.14385564E+00 0.10002390E+04</pdfrwt>
<pdfrwt beam="2">  1       -1 0.41152288E-01 0.10002390E+04</pdfrwt>
<totfact> 0.11084246E+02</totfact>
</mgrwt>
</event>
<event>
 9    1  0.4412976E-036  0.1000188E+04  0.7818608E-02  0.8680859E-01
         -2   -1    0    0    0  501 -0.00000000000E+00  0.00000000000E+00  0.27989971275E+03  0.27989971275E+03  0.00000000000E+00 0.  1.
          2   -1    0    0  501    0  0.00000000000E+00 -0.00000000000E+00 -0.89351275661E+03  0.89351275661E+03  0.00000000000E+00 0.  1.
         36    2    1    2    0    0  0.00000000000E+00  0.14210854715E-13 -0.61361304386E+03  0.11734124694E+04  0.10001879102E+04 0.  0.
         25    2    3    3    0    0  0.85886583727E+02 -0.71895391154E+02 -0.21553272542E+02  0.16909985638E+03  0.12483895760E+03 0.  0.
         35    2    3    3    0    0 -0.85886583727E+02  0.71895391154E+02 -0.59205977132E+03  0.10043126130E+04  0.80346972517E+03 0.  0.
         22    1    5    5    0    0  0.26967406635E+02  0.42443302230E+03 -0.21739056620E+03  0.47762882002E+03  0.00000000000E+00 0. -1.
         22    1    5    5    0    0 -0.11285399036E+03 -0.35253763114E+03 -0.37466920512E+03  0.52668379297E+03  0.00000000000E+00 0. -1.
          5    1    4    4  502    0  0.37648638542E+02 -0.83699263179E+02  0.30670821138E+02  0.96880214234E+02  0.47000000000E+01 0.  1.
         -5    1    4    4    0  502  0.48237945185E+02  0.11803872024E+02 -0.52224093681E+02  0.72219642143E+02  0.47000000000E+01 0.  1.
<mgrwt>
<rscale>  0 0.10001879E+04</rscale>
<asrwt>0</asrwt>
<pdfrwt beam="1">  1        2 0.13746350E+00 0.10001879E+04</pdfrwt>
<pdfrwt beam="2">  1       -2 0.43061494E-01 0.10001879E+04</pdfrwt>
<totfact> 0.18323475E+02</totfact>
</mgrwt>
</event>
<event>
 9    1  0.4412976E-036  0.1000162E+04  0.7818608E-02  0.8680883E-01
         -2   -1    0    0    0  501 -0.00000000000E+00  0.00000000000E+00  0.17654490677E+03  0.17654490677E+03  0.00000000000E+00 0. -1.
          2   -1    0    0  501    0  0.00000000000E+00 -0.00000000000E+00 -0.14165297776E+04  0.14165297776E+04  0.00000000000E+00 0. -1.
         36    2    1    2    0    0  0.00000000000E+00  0.14210854715E-13 -0.12399848708E+04  0.15930746843E+04  0.10001622219E+04 0.  0.
         25    2    3    3    0    0  0.13481973990E+03 -0.40166655414E+02 -0.24966132551E+03  0.31251433476E+03  0.12467842436E+03 0.  0.
         35    2    3    3    0    0 -0.13481973990E+03  0.40166655414E+02 -0.99032354528E+03  0.12805603496E+04  0.79956510810E+03 0.  0.
         22    1    5    5    0    0 -0.22614954960E+03  0.35930372526E+03 -0.31694443791E+03  0.52980804306E+03  0.00000000000E+00 0. -1.
         22    1    5    5    0    0  0.91329809702E+02 -0.31913706985E+03 -0.67337910737E+03  0.75075230651E+03  0.00000000000E+00 0. -1.
          5    1    4    4  502    0 -0.88948089427E+01 -0.17004471101E+02  0.38639938261E+01  0.20131818394E+02  0.47000000000E+01 0.  1.
         -5    1    4    4    0  502  0.14371454884E+03 -0.23162184313E+02 -0.25352531934E+03  0.29238251637E+03  0.47000000000E+01 0.  1.
<mgrwt>
<rscale>  0 0.10001622E+04</rscale>
<asrwt>0</asrwt>
<pdfrwt beam="1">  1        2 0.21792766E+00 0.10001622E+04</pdfrwt>
<pdfrwt beam="2">  1       -2 0.27160755E-01 0.10001622E+04</pdfrwt>
<totfact> 0.20908327E+02</totfact>
</mgrwt>
</event>
<event>
 9    1  0.4412976E-036  0.1000245E+04  0.7818608E-02  0.8680805E-01
          2   -1    0    0  501    0  0.00000000000E+00  0.00000000000E+00  0.73035579054E+03  0.73035579054E+03  0.00000000000E+00 0.  1.
         -2   -1    0    0    0  501 -0.00000000000E+00 -0.00000000000E+00 -0.34246644836E+03  0.34246644836E+03  0.00000000000E+00 0.  1.
         36    2    1    2    0    0 -0.28421709430E-13  0.00000000000E+00  0.38788934218E+03  0.10728222389E+04  0.10002446773E+04 0.  0.
         25    2    3    3    0    0  0.13640790189E+03 -0.35562730015E+02  0.82489344163E+02  0.20551685590E+03  0.12474318696E+03 0.  0.
         35    2    3    3    0    0 -0.13640790189E+03  0.35562730015E+02  0.30539999802E+03  0.86730538301E+03  0.79942332037E+03 0.  0.
         22    1    5    5    0    0 -0.38285389084E+03  0.27098633065E+03  0.20590471111E+03  0.51225720414E+03  0.00000000000E+00 0. -1.
         22    1    5    5    0    0  0.24644598895E+03 -0.23542360063E+03  0.99495286904E+02  0.35504817888E+03  0.00000000000E+00 0. -1.
          5    1    4    4  502    0  0.53830047536E+02  0.23208432971E+02  0.85774326568E+02  0.10399822343E+03  0.47000000000E+01 0. -1.
         -5    1    4    4    0  502  0.82577854350E+02 -0.58771162987E+02 -0.32849824054E+01  0.10151863246E+03  0.47000000000E+01 0. -1.
<mgrwt>
<rscale>  0 0.10002447E+04</rscale>
<asrwt>0</asrwt>
<pdfrwt beam="1">  1        2 0.11236243E+00 0.10002447E+04</pdfrwt>
<pdfrwt beam="2">  1       -2 0.52687146E-01 0.10002447E+04</pdfrwt>
<totfact> 0.15964579E+02</totfact>
</mgrwt>
</event>
<event>
 9    1  0.4412976E-036  0.1000891E+04  0.7818608E-02  0.8680190E-01
         -2   -1    0    0    0  501 -0.00000000000E+00  0.00000000000E+00  0.22317338042E+03  0.22317338042E+03  0.00000000000E+00 0.  1.
          2   -1    0    0  501    0  0.00000000000E+00 -0.00000000000E+00 -0.11222015234E+04  0.11222015234E+04  0.00000000000E+00 0.  1.
         36    2    1    2    0    0 -0.14210854715E-13 -0.17763568394E-13 -0.89902814294E+03  0.13453749038E+04  0.10008906184E+04 0.  0.
         25    2    3    3    0    0 -0.12711109087E+03 -0.24635707166E+01 -0.81072085871E+02  0.19420525105E+03  0.12239157578E+03 0.  0.
         35    2    3    3    0    0  0.12711109087E+03  0.24635707166E+01 -0.81795605707E+03  0.11511696527E+04  0.79998509953E+03 0.  0.
         22    1    5    5    0    0  0.17661889227E+02  0.23154466862E+03  0.57843628930E+02  0.23931310307E+03  0.00000000000E+00 0. -1.
         22    1    5    5    0    0  0.10944920165E+03 -0.22908109790E+03 -0.87579968600E+03  0.91185654966E+03  0.00000000000E+00 0. -1.
          5    1    4    4  502    0 -0.32397734069E+02  0.10708686515E+02  0.31326009424E+02  0.46558543857E+02  0.47000000000E+01 0.  1.
         -5    1    4    4    0  502 -0.94713356805E+02 -0.13172257232E+02 -0.11239809529E+03  0.14764670719E+03  0.47000000000E+01 0.  1.
<mgrwt>
<rscale>  0 0.10008906E+04</rscale>
<asrwt>0</asrwt>
<pdfrwt beam="1">  1        2 0.17264639E+00 0.10008906E+04</pdfrwt>
<pdfrwt beam="2">  1       -2 0.34334365E-01 0.10008906E+04</pdfrwt>
<totfact> 0.20240166E+02</totfact>
</mgrwt>
</event>
<event>
 9    1  0.4412976E-036  0.1000599E+04  0.7818608E-02  0.8680467E-01
         -2   -1    0    0    0  501 -0.00000000000E+00  0.00000000000E+00  0.20192593882E+03  0.20192593882E+03  0.00000000000E+00 0.  1.
          2   -1    0    0  501    0  0.00000000000E+00 -0.00000000000E+00 -0.12395621898E+04  0.12395621898E+04  0.00000000000E+00 0.  1.
         36    2    1    2    0    0  0.14210854715E-13 -0.14210854715E-13 -0.10376362510E+04  0.14414881286E+04  0.10005993382E+04 0.  0.
         25    2    3    3    0    0 -0.60064640897E+02  0.16873542464E+02 -0.37753587807E+03  0.40257271739E+03  0.12505589165E+03 0.  0.
         35    2    3    3    0    0  0.60064640897E+02 -0.16873542464E+02 -0.66010037290E+03  0.10389154112E+04  0.79982513829E+03 0.  0.
         22    1    5    5    0    0 -0.17150280709E+03  0.30888133060E+03 -0.13318811206E+03  0.37757113558E+03  0.00000000000E+00 0.  1.
         22    1    5    5    0    0  0.23156744799E+03 -0.32575487306E+03 -0.52691226084E+03  0.66134427563E+03  0.00000000000E+00 0.  1.
          5    1    4    4  502    0 -0.79026994719E+02  0.42133317109E+02 -0.34695695676E+03  0.35835973846E+03  0.47000000000E+01 0.  1.
         -5    1    4    4    0  502  0.18962353822E+02 -0.25259774645E+02 -0.30578921314E+02  0.44212978935E+02  0.47000000000E+01 0.  1.
<mgrwt>
<rscale>  0 0.10005993E+04</rscale>
<asrwt>0</asrwt>
<pdfrwt beam="1">  1        2 0.19070188E+00 0.10005993E+04</pdfrwt>
<pdfrwt beam="2">  1       -2 0.31065528E-01 0.10005993E+04</pdfrwt>
<totfact> 0.20735232E+02</totfact>
</mgrwt>
</event>
<event>
 9    1  0.4412976E-036  0.1000258E+04  0.7818608E-02  0.8680793E-01
          2   -1    0    0  501    0  0.00000000000E+00  0.00000000000E+00  0.14810868671E+04  0.14810868671E+04  0.00000000000E+00 0.  1.
         -2   -1    0    0    0  501 -0.00000000000E+00 -0.00000000000E+00 -0.16888192315E+03  0.16888192315E+03  0.00000000000E+00 0.  1.
         36    2    1    2    0    0  0.71054273576E-14  0.28421709430E-13  0.13122049439E+04  0.16499687902E+04  0.10002575638E+04 0.  0.
         25    2    3    3    0    0 -0.91786905439E+01  0.13145683125E+03  0.16811370205E+03  0.24757400780E+03  0.12516199774E+03 0.  0.
         35    2    3    3    0    0  0.91786905439E+01 -0.13145683125E+03  0.11440912418E+04  0.14023947824E+04  0.80025071646E+03 0.  0.
         22    1    5    5    0    0  0.16908677338E+03  0.19063960353E+02 -0.58487212404E+02  0.17992922367E+03  0.00000000000E+00 0. -1.
         22    1    5    5    0    0 -0.15990808283E+03 -0.15052079160E+03  0.12025784543E+04  0.12224655587E+04  0.00000000000E+00 0. -1.
          5    1    4    4  502    0  0.47555440008E+02  0.24507621511E+02  0.22710709926E+02  0.58309602398E+02  0.47000000000E+01 0. -1.
         -5    1    4    4    0  502 -0.56734130552E+02  0.10694920974E+03  0.14540299213E+03  0.18926440540E+03  0.47000000000E+01 0. -1.
<mgrwt>
<rscale>  0 0.10002576E+04</rscale>
<asrwt>0</asrwt>
<pdfrwt beam="1">  1        2 0.22785951E+00 0.10002576E+04</pdfrwt>
<pdfrwt beam="2">  1       -2 0.25981835E-01 0.10002576E+04</pdfrwt>
<totfact> 0.20801426E+02</totfact>
</mgrwt>
</event>
<event>
 9    1  0.4412976E-036  0.9989453E+03  0.7818608E-02  0.8682043E-01
         -2   -1    0    0    0  501 -0.00000000000E+00  0.00000000000E+00  0.16251369541E+03  0.16251369541E+03  0.00000000000E+00 0. -1.
          2   -1    0    0  501    0  0.00000000000E+00 -0.00000000000E+00 -0.15350885834E+04  0.15350885834E+04  0.00000000000E+00 0. -1.
         36    2    1    2    0    0 -0.14210854715E-13  0.35527136788E-14 -0.13725748880E+04  0.16976022788E+04  0.99894528072E+03 0.  0.
         25    2    3    3    0    0 -0.11095343930E+03 -0.24376637564E+02 -0.11300373888E+03  0.20101176264E+03  0.12137132103E+03 0.  0.
         35    2    3    3    0    0  0.11095343930E+03  0.24376637564E+02 -0.12595711491E+04  0.14965905162E+04  0.80022422312E+03 0.  0.
         22    1    5    5    0    0  0.18422279914E+03 -0.20980011428E+03 -0.12156730907E+04  0.12473232104E+04  0.00000000000E+00 0. -1.
         22    1    5    5    0    0 -0.73269359842E+02  0.23417675185E+03 -0.43898058386E+02  0.24926730577E+03  0.00000000000E+00 0. -1.
          5    1    4    4  502    0 -0.96277028383E+02 -0.16178724068E+02 -0.11957273844E+02  0.98468694033E+02  0.47000000000E+01 0.  1.
         -5    1    4    4    0  502 -0.14676410913E+02 -0.81979134964E+01 -0.10104646503E+03  0.10254306861E+03  0.47000000000E+01 0.  1.
<mgrwt>
<rscale>  0 0.99894528E+03</rscale>
<asrwt>0</asrwt>
<pdfrwt beam="1">  1        2 0.23616749E+00 0.99894528E+03</pdfrwt>
<pdfrwt beam="2">  1       -2 0.25002106E-01 0.99894528E+03</pdfrwt>
<totfact> 0.20759876E+02</totfact>
</mgrwt>
</event>
<event>
 9    1  0.4412976E-036  0.9990557E+03  0.7818608E-02  0.8681938E-01
          2   -1    0    0  501    0  0.00000000000E+00  0.00000000000E+00  0.90013821879E+03  0.90013821879E+03  0.00000000000E+00 0.  1.
         -2   -1    0    0    0  501 -0.00000000000E+00 -0.00000000000E+00 -0.27721083028E+03  0.27721083028E+03  0.00000000000E+00 0.  1.
         36    2    1    2    0    0  0.00000000000E+00  0.71054273576E-14  0.62292738851E+03  0.11773490491E+04  0.99905568013E+03 0.  0.
         25    2    3    3    0    0 -0.11741916565E+03  0.55624751199E+02  0.17355926946E+03  0.25042498145E+03  0.12533346686E+03 0.  0.
         35    2    3    3    0    0  0.11741916565E+03 -0.55624751199E+02  0.44936811905E+03  0.92692406762E+03  0.80023443272E+03 0.  0.
         22    1    5    5    0    0  0.37110992384E+02 -0.63894267860E+02  0.67926072181E+03  0.68326775968E+03  0.00000000000E+00 0.  1.
         22    1    5    5    0    0  0.80308173263E+02  0.82695166610E+01 -0.22989260276E+03  0.24365630794E+03  0.00000000000E+00 0.  1.
          5    1    4    4  502    0 -0.52381264824E+02  0.83071844680E+02  0.14257502817E+03  0.17318907859E+03  0.47000000000E+01 0. -1.
         -5    1    4    4    0  502 -0.65037900823E+02 -0.27447093481E+02  0.30984241283E+02  0.77235902868E+02  0.47000000000E+01 0. -1.
<mgrwt>
<rscale>  0 0.99905568E+03</rscale>
<asrwt>0</asrwt>
<pdfrwt beam="1">  1        2 0.13848280E+00 0.99905568E+03</pdfrwt>
<pdfrwt beam="2">  1       -2 0.42647820E-01 0.99905568E+03</pdfrwt>
<totfact> 0.18483035E+02</totfact>
</mgrwt>
</event>
<event>
 9    1  0.4412976E-036  0.9993516E+03  0.7818608E-02  0.8681656E-01
         -1   -1    0    0    0  501 -0.00000000000E+00  0.00000000000E+00  0.31150144392E+03  0.31150144392E+03  0.00000000000E+00 0. -1.
          1   -1    0    0  501    0  0.00000000000E+00 -0.00000000000E+00 -0.80152405396E+03  0.80152405396E+03  0.00000000000E+00 0. -1.
         36    2    1    2    0    0  0.28421709430E-13 -0.71054273576E-14 -0.49002261005E+03  0.11130254979E+04  0.99935159007E+03 0.  0.
         25    2    3    3    0    0 -0.10985062392E+03  0.16726750780E+02 -0.17791540708E+03  0.24738024541E+03  0.13113409158E+03 0.  0.
         35    2    3    3    0    0  0.10985062392E+03 -0.16726750780E+02 -0.31210720296E+03  0.86564525247E+03  0.79973986597E+03 0.  0.
         22    1    5    5    0    0  0.44031144482E+03 -0.99376417167E+02 -0.93724735786E+02  0.46101428050E+03  0.00000000000E+00 0. -1.
         22    1    5    5    0    0 -0.33046082091E+03  0.82649666387E+02 -0.21838246718E+03  0.40463097197E+03  0.00000000000E+00 0. -1.
          5    1    4    4  502    0 -0.77717270328E+02  0.67034719141E+02 -0.14873276252E+03  0.18076822819E+03  0.47000000000E+01 0. -1.
         -5    1    4    4    0  502 -0.32133353588E+02 -0.50307968361E+02 -0.29182644563E+02  0.66612017213E+02  0.47000000000E+01 0. -1.
<mgrwt>
<rscale>  0 0.99935159E+03</rscale>
<asrwt>0</asrwt>
<pdfrwt beam="1">  1        1 0.12331139E+00 0.99935159E+03</pdfrwt>
<pdfrwt beam="2">  1       -1 0.47923300E-01 0.99935159E+03</pdfrwt>
<totfact> 0.10919303E+02</totfact>
</mgrwt>
</event>
<event>
 9    1  0.4412976E-036  0.1000514E+04  0.7818608E-02  0.8680549E-01
         -1   -1    0    0    0  501 -0.00000000000E+00  0.00000000000E+00  0.15242453143E+03  0.15242453143E+03  0.00000000000E+00 0.  1.
          1   -1    0    0  501    0  0.00000000000E+00 -0.00000000000E+00 -0.16418417939E+04  0.16418417939E+04  0.00000000000E+00 0.  1.
         36    2    1    2    0    0  0.00000000000E+00  0.14210854715E-13 -0.14894172624E+04  0.17942663253E+04  0.10005138002E+04 0.  0.
         25    2    3    3    0    0 -0.10374130251E+03 -0.44947170819E+01 -0.43702816700E+03  0.46644890197E+03  0.12569208038E+03 0.  0.
         35    2    3    3    0    0  0.10374130251E+03  0.44947170819E+01 -0.10523890954E+04  0.13278174233E+04  0.80299056106E+03 0.  0.
         22    1    5    5    0    0  0.35612232876E+03 -0.15903665098E+03 -0.23143978581E+03  0.45351972818E+03  0.00000000000E+00 0. -1.
         22    1    5    5    0    0 -0.25238102624E+03  0.16353136806E+03 -0.82094930962E+03  0.87429769513E+03  0.00000000000E+00 0. -1.
          5    1    4    4  502    0 -0.40208584603E+02  0.77674633144E+01 -0.22671374121E+02  0.47044074724E+02  0.47000000000E+01 0.  1.
         -5    1    4    4    0  502 -0.63532717911E+02 -0.12262180396E+02 -0.41435679288E+03  0.41940482725E+03  0.47000000000E+01 0.  1.
<mgrwt>
<rscale>  0 0.10005138E+04</rscale>
<asrwt>0</asrwt>
<pdfrwt beam="1">  1        1 0.25259106E+00 0.10005138E+04</pdfrwt>
<pdfrwt beam="2">  1       -1 0.23449926E-01 0.10005138E+04</pdfrwt>
<totfact> 0.87272671E+01</totfact>
</mgrwt>
</event>
<event>
 9    1  0.4412976E-036  0.1000280E+04  0.7818608E-02  0.8680772E-01
         -2   -1    0    0    0  501 -0.00000000000E+00  0.00000000000E+00  0.25024964340E+03  0.25024964340E+03  0.00000000000E+00 0. -1.
          2   -1    0    0  501    0  0.00000000000E+00 -0.00000000000E+00 -0.99956104719E+03  0.99956104719E+03  0.00000000000E+00 0. -1.
         36    2    1    2    0    0 -0.42632564146E-13  0.00000000000E+00 -0.74931140380E+03  0.12498106906E+04  0.10002795521E+04 0.  0.
         25    2    3    3    0    0  0.93000860781E+02 -0.80204672281E+02 -0.22577172522E+03  0.28586672669E+03  0.12515975375E+03 0.  0.
         35    2    3    3    0    0 -0.93000860781E+02  0.80204672281E+02 -0.52353967858E+03  0.96394396389E+03  0.80000763804E+03 0.  0.
         22    1    5    5    0    0 -0.26339406464E+03 -0.79350763540E+01 -0.67170753719E+03  0.72154723632E+03  0.00000000000E+00 0. -1.
         22    1    5    5    0    0  0.17039320386E+03  0.88139748635E+02  0.14816785861E+03  0.24239672757E+03  0.00000000000E+00 0. -1.
          5    1    4    4  502    0  0.15206939898E+02 -0.48119763121E+02 -0.66789305442E+01  0.51122018124E+02  0.47000000000E+01 0. -1.
         -5    1    4    4    0  502  0.77793920884E+02 -0.32084909160E+02 -0.21909279467E+03  0.23474470857E+03  0.47000000000E+01 0. -1.
<mgrwt>
<rscale>  0 0.10002796E+04</rscale>
<asrwt>0</asrwt>
<pdfrwt beam="1">  1        2 0.15377862E+00 0.10002796E+04</pdfrwt>
<pdfrwt beam="2">  1       -2 0.38499946E-01 0.10002796E+04</pdfrwt>
<totfact> 0.19414968E+02</totfact>
</mgrwt>
</event>
<event>
 9    1  0.4412976E-036  0.9999836E+03  0.7818608E-02  0.8681054E-01
         -2   -1    0    0    0  501 -0.00000000000E+00  0.00000000000E+00  0.11805764721E+03  0.11805764721E+03  0.00000000000E+00 0.  1.
          2   -1    0    0  501    0  0.00000000000E+00 -0.00000000000E+00 -0.21175401264E+04  0.21175401264E+04  0.00000000000E+00 0.  1.
         36    2    1    2    0    0 -0.28421709430E-13  0.28421709430E-13 -0.19994824792E+04  0.22355977736E+04  0.99998361024E+03 0.  0.
         25    2    3    3    0    0 -0.64000085692E+02 -0.11272005095E+03 -0.25719864324E+03  0.31418247435E+03  0.12552953536E+03 0.  0.
         35    2    3    3    0    0  0.64000085692E+02  0.11272005095E+03 -0.17422838359E+04  0.19214152992E+04  0.79967616342E+03 0.  0.
         22    1    5    5    0    0  0.21082714161E+03 -0.26611059699E+03 -0.43114898198E+03  0.54877352171E+03  0.00000000000E+00 0. -1.
         22    1    5    5    0    0 -0.14682705592E+03  0.37883064794E+03 -0.13111348539E+04  0.13726417775E+04  0.00000000000E+00 0. -1.
          5    1    4    4  502    0 -0.99501938021E+02 -0.10258324791E+03 -0.19740148866E+03  0.24374863312E+03  0.47000000000E+01 0. -1.
         -5    1    4    4    0  502  0.35501852329E+02 -0.10136803039E+02 -0.59797154582E+02  0.70433841232E+02  0.47000000000E+01 0. -1.
<mgrwt>
<rscale>  0 0.99998361E+03</rscale>
<asrwt>0</asrwt>
<pdfrwt beam="1">  1        2 0.32577539E+00 0.99998361E+03</pdfrwt>
<pdfrwt beam="2">  1       -2 0.18162716E-01 0.99998361E+03</pdfrwt>
<totfact> 0.16946492E+02</totfact>
</mgrwt>
</event>
<event>
 9    1  0.4412976E-036  0.9898818E+03  0.7818608E-02  0.8690734E-01
          1   -1    0    0  501    0  0.00000000000E+00  0.00000000000E+00  0.19363485757E+04  0.19363485757E+04  0.00000000000E+00 0.  1.
         -1   -1    0    0    0  501 -0.00000000000E+00 -0.00000000000E+00 -0.12650951338E+03  0.12650951338E+03  0.00000000000E+00 0.  1.
         36    2    1    2    0    0  0.00000000000E+00  0.00000000000E+00  0.18098390623E+04  0.20628580891E+04  0.98988184355E+03 0.  0.
         25    2    3    3    0    0  0.87083649586E+02  0.89477580505E+02  0.39843423066E+03  0.43575775158E+03  0.12468032109E+03 0.  0.
         35    2    3    3    0    0 -0.87083649586E+02 -0.89477580505E+02  0.14114048317E+04  0.16271003375E+04  0.79987630920E+03 0.  0.
         22    1    5    5    0    0  0.82270077035E+02 -0.41252914195E+03  0.55618259786E+03  0.69734334492E+03  0.00000000000E+00 0.  1.
         22    1    5    5    0    0 -0.16935372662E+03  0.32305156145E+03  0.85522223382E+03  0.92975699260E+03  0.00000000000E+00 0.  1.
          5    1    4    4  502    0 -0.28878172707E+02  0.39922780149E+02  0.94793059424E+02  0.10693732439E+03  0.47000000000E+01 0. -1.
         -5    1    4    4    0  502  0.11596182229E+03  0.49554800356E+02  0.30364117124E+03  0.32882042719E+03  0.47000000000E+01 0. -1.
<mgrwt>
<rscale>  0 0.98988184E+03</rscale>
<asrwt>0</asrwt>
<pdfrwt beam="1">  1        1 0.29789976E+00 0.98988184E+03</pdfrwt>
<pdfrwt beam="2">  1       -1 0.19463004E-01 0.98988184E+03</pdfrwt>
<totfact> 0.73875063E+01</totfact>
</mgrwt>
</event>
<event>
 9    1  0.4412976E-036  0.9997568E+03  0.7818608E-02  0.8681270E-01
         -1   -1    0    0    0  501 -0.00000000000E+00  0.00000000000E+00  0.26979578335E+03  0.26979578335E+03  0.00000000000E+00 0.  1.
          1   -1    0    0  501    0  0.00000000000E+00 -0.00000000000E+00 -0.92617615291E+03  0.92617615291E+03  0.00000000000E+00 0.  1.
         36    2    1    2    0    0  0.00000000000E+00 -0.56843418861E-13 -0.65638036956E+03  0.11959719363E+04  0.99975681181E+03 0.  0.
         25    2    3    3    0    0 -0.10443680942E+03 -0.11335660800E+03 -0.12658707824E+03  0.23535814368E+03  0.12494958856E+03 0.  0.
         35    2    3    3    0    0  0.10443680942E+03  0.11335660800E+03 -0.52979329132E+03  0.96061379257E+03  0.78634671692E+03 0.  0.
         22    1    5    5    0    0  0.26389218829E+02 -0.25740180565E+03  0.54309161812E+02  0.26438904190E+03  0.00000000000E+00 0. -1.
         22    1    5    5    0    0  0.78047590587E+02  0.37075841365E+03 -0.58410245313E+03  0.69622475067E+03  0.00000000000E+00 0. -1.
          5    1    4    4  502    0 -0.11263885013E+03 -0.13426335319E+03 -0.11483527544E+03  0.20957907590E+03  0.47000000000E+01 0. -1.
         -5    1    4    4    0  502  0.82020407157E+01  0.20906745196E+02 -0.11751802797E+02  0.25779067780E+02  0.47000000000E+01 0. -1.
<mgrwt>
<rscale>  0 0.99975681E+03</rscale>
<asrwt>0</asrwt>
<pdfrwt beam="1">  1        1 0.14248864E+00 0.99975681E+03</pdfrwt>
<pdfrwt beam="2">  1       -1 0.41507044E-01 0.99975681E+03</pdfrwt>
<totfact> 0.11100443E+02</totfact>
</mgrwt>
</event>
<event>
 9    1  0.4412976E-036  0.1003814E+04  0.7818608E-02  0.8677414E-01
          2   -1    0    0  501    0  0.00000000000E+00  0.00000000000E+00  0.11980086254E+04  0.11980086254E+04  0.00000000000E+00 0.  1.
         -2   -1    0    0    0  501 -0.00000000000E+00 -0.00000000000E+00 -0.21027444149E+03  0.21027444149E+03  0.00000000000E+00 0.  1.
         36    2    1    2    0    0 -0.71054273576E-14  0.28421709430E-13  0.98773418393E+03  0.14082830669E+04  0.10038139162E+04 0.  0.
         25    2    3    3    0    0 -0.53494335905E+02 -0.13372335278E+03  0.17884814233E+03  0.26138493063E+03  0.12486730914E+03 0.  0.
         35    2    3    3    0    0  0.53494335905E+02  0.13372335278E+03  0.80888604160E+03  0.11468981363E+04  0.80020942736E+03 0.  0.
         22    1    5    5    0    0  0.18583329455E+02 -0.30134772799E+03  0.58041939975E+03  0.65424954941E+03  0.00000000000E+00 0.  1.
         22    1    5    5    0    0  0.34911006451E+02  0.43507108077E+03  0.22846664184E+03  0.49264858685E+03  0.00000000000E+00 0.  1.
          5    1    4    4  502    0 -0.72813789600E+02 -0.23741422805E+02  0.92292178186E+02  0.12002266147E+03  0.47000000000E+01 0.  1.
         -5    1    4    4    0  502  0.19319453694E+02 -0.10998192998E+03  0.86555964144E+02  0.14136226916E+03  0.47000000000E+01 0.  1.
<mgrwt>
<rscale>  0 0.10038139E+04</rscale>
<asrwt>0</asrwt>
<pdfrwt beam="1">  1        2 0.18430902E+00 0.10038139E+04</pdfrwt>
<pdfrwt beam="2">  1       -2 0.32349915E-01 0.10038139E+04</pdfrwt>
<totfact> 0.20362850E+02</totfact>
</mgrwt>
</event>
<event>
 9    1  0.4412976E-036  0.1000073E+04  0.7818608E-02  0.8680968E-01
         -1   -1    0    0    0  501 -0.00000000000E+00  0.00000000000E+00  0.33332977185E+03  0.33332977185E+03  0.00000000000E+00 0. -1.
          1   -1    0    0  501    0  0.00000000000E+00 -0.00000000000E+00 -0.75011759002E+03  0.75011759002E+03  0.00000000000E+00 0. -1.
         36    2    1    2    0    0 -0.31974423109E-13  0.00000000000E+00 -0.41678781817E+03  0.10834473619E+04  0.10000730476E+04 0.  0.
         25    2    3    3    0    0 -0.84282718981E+01 -0.91685318838E+02  0.35737881323E+02  0.15905697447E+03  0.12467835221E+03 0.  0.
         35    2    3    3    0    0  0.84282718981E+01  0.91685318838E+02 -0.45252569949E+03  0.92439038740E+03  0.80077515331E+03 0.  0.
         22    1    5    5    0    0  0.38116149269E+03  0.18203892432E+03 -0.24521137040E+03  0.48841669673E+03  0.00000000000E+00 0.  1.
         22    1    5    5    0    0 -0.37273322079E+03 -0.90353605486E+02 -0.20731432910E+03  0.43597369067E+03  0.00000000000E+00 0.  1.
          5    1    4    4  502    0 -0.57917046820E+01 -0.11374487352E+02 -0.43820347996E+02  0.45882847602E+02  0.47000000000E+01 0.  1.
         -5    1    4    4    0  502 -0.26365672161E+01 -0.80310831487E+02  0.79558229318E+02  0.11317412687E+03  0.47000000000E+01 0.  1.
<mgrwt>
<rscale>  0 0.10000730E+04</rscale>
<asrwt>0</asrwt>
<pdfrwt beam="1">  1        1 0.11540270E+00 0.10000730E+04</pdfrwt>
<pdfrwt beam="2">  1       -1 0.51281504E-01 0.10000730E+04</pdfrwt>
<totfact> 0.10716334E+02</totfact>
</mgrwt>
</event>
<event>
 9    1  0.4412976E-036  0.1000459E+04  0.7818608E-02  0.8680601E-01
         -2   -1    0    0    0  501 -0.00000000000E+00  0.00000000000E+00  0.17688698193E+03  0.17688698193E+03  0.00000000000E+00 0.  1.
          2   -1    0    0  501    0  0.00000000000E+00 -0.00000000000E+00 -0.14146296606E+04  0.14146296606E+04  0.00000000000E+00 0.  1.
         36    2    1    2    0    0 -0.14210854715E-13  0.00000000000E+00 -0.12377426786E+04  0.15915166425E+04  0.10004590371E+04 0.  0.
         25    2    3    3    0    0 -0.55396566087E+02 -0.57488038536E+01 -0.25337575598E+02  0.13798633093E+03  0.12367864207E+03 0.  0.
         35    2    3    3    0    0  0.55396566087E+02  0.57488038536E+01 -0.12124051030E+04  0.14535303116E+04  0.79982648400E+03 0.  0.
         22    1    5    5    0    0 -0.37174617772E+03  0.35113030842E+02 -0.54816318685E+03  0.66325788726E+03  0.00000000000E+00 0.  1.
         22    1    5    5    0    0  0.42714274381E+03 -0.29364226989E+02 -0.66424191619E+03  0.79027242432E+03  0.00000000000E+00 0.  1.
          5    1    4    4  502    0  0.22802940311E+02  0.38133274752E+02  0.27196474694E-01  0.44678982416E+02  0.47000000000E+01 0.  1.
         -5    1    4    4    0  502 -0.78199506397E+02 -0.43882078605E+02 -0.25364772073E+02  0.93307348509E+02  0.47000000000E+01 0.  1.
<mgrwt>
<rscale>  0 0.10004590E+04</rscale>
<asrwt>0</asrwt>
<pdfrwt beam="1">  1        2 0.21763532E+00 0.10004590E+04</pdfrwt>
<pdfrwt beam="2">  1       -2 0.27213383E-01 0.10004590E+04</pdfrwt>
<totfact> 0.20887814E+02</totfact>
</mgrwt>
</event>
<event>
 9    1  0.4412976E-036  0.1000577E+04  0.7818608E-02  0.8680489E-01
          1   -1    0    0  501    0  0.00000000000E+00  0.00000000000E+00  0.76765219786E+03  0.76765219786E+03  0.00000000000E+00 0. -1.
         -1   -1    0    0    0  501 -0.00000000000E+00 -0.00000000000E+00 -0.32604395647E+03  0.32604395647E+03  0.00000000000E+00 0. -1.
         36    2    1    2    0    0 -0.14210854715E-13  0.71054273576E-14  0.44160824139E+03  0.10936961543E+04  0.10005765534E+04 0.  0.
         25    2    3    3    0    0  0.55233946472E+02  0.63163737296E+00  0.22572230382E+03  0.26334785975E+03  0.12389652531E+03 0.  0.
         35    2    3    3    0    0 -0.55233946472E+02 -0.63163737296E+00  0.21588593757E+03  0.83034829457E+03  0.79988771990E+03 0.  0.
         22    1    5    5    0    0 -0.22262960858E+03 -0.89459191158E+02  0.46148961024E+03  0.52013416525E+03  0.00000000000E+00 0. -1.
         22    1    5    5    0    0  0.16739566211E+03  0.88827553785E+02 -0.24560367267E+03  0.31021412932E+03  0.00000000000E+00 0. -1.
          5    1    4    4  502    0  0.40116904162E+01 -0.46507625697E+02  0.16269537730E+03  0.16932492050E+03  0.47000000000E+01 0. -1.
         -5    1    4    4    0  502  0.51222256056E+02  0.47139263070E+02  0.63026926518E+02  0.94022939246E+02  0.47000000000E+01 0. -1.
<mgrwt>
<rscale>  0 0.10005766E+04</rscale>
<asrwt>0</asrwt>
<pdfrwt beam="1">  1        1 0.11810034E+00 0.10005766E+04</pdfrwt>
<pdfrwt beam="2">  1       -1 0.50160609E-01 0.10005766E+04</pdfrwt>
<totfact> 0.10761721E+02</totfact>
</mgrwt>
</event>
<event>
 9    1  0.4412976E-036  0.9990817E+03  0.7818608E-02  0.8681913E-01
          2   -1    0    0  501    0  0.00000000000E+00  0.00000000000E+00  0.15266834155E+04  0.15266834155E+04  0.00000000000E+00 0. -1.
         -2   -1    0    0    0  501 -0.00000000000E+00 -0.00000000000E+00 -0.16345305455E+03  0.16345305455E+03  0.00000000000E+00 0. -1.
         36    2    1    2    0    0  0.00000000000E+00 -0.14210854715E-13  0.13632303610E+04  0.16901364701E+04  0.99908171359E+03 0.  0.
         25    2    3    3    0    0 -0.88371998211E+02  0.23522232249E+02  0.43177753073E+03  0.45859518859E+03  0.12455844201E+03 0.  0.
         35    2    3    3    0    0  0.88371998211E+02 -0.23522232249E+02  0.93145283026E+03  0.12315412815E+04  0.80045402590E+03 0.  0.
         22    1    5    5    0    0  0.32874658884E+03 -0.29554060301E+03  0.48789607234E+03  0.65837766146E+03  0.00000000000E+00 0. -1.
         22    1    5    5    0    0 -0.24037459063E+03  0.27201837076E+03  0.44355675792E+03  0.57316362005E+03  0.00000000000E+00 0. -1.
          5    1    4    4  502    0 -0.23235017267E+02 -0.46507142163E+02  0.94161611154E+02  0.10766280377E+03  0.47000000000E+01 0. -1.
         -5    1    4    4    0  502 -0.65136980944E+02  0.70029374412E+02  0.33761591958E+03  0.35093238483E+03  0.47000000000E+01 0. -1.
<mgrwt>
<rscale>  0 0.99908171E+03</rscale>
<asrwt>0</asrwt>
<pdfrwt beam="1">  1        2 0.23487436E+00 0.99908171E+03</pdfrwt>
<pdfrwt beam="2">  1       -2 0.25146625E-01 0.99908171E+03</pdfrwt>
<totfact> 0.20774764E+02</totfact>
</mgrwt>
</event>
<event>
 9    1  0.4412976E-036  0.9990890E+03  0.7818608E-02  0.8681906E-01
         -2   -1    0    0    0  501 -0.00000000000E+00  0.00000000000E+00  0.17326452753E+03  0.17326452753E+03  0.00000000000E+00 0. -1.
          2   -1    0    0  501    0  0.00000000000E+00 -0.00000000000E+00 -0.14402527492E+04  0.14402527492E+04  0.00000000000E+00 0. -1.
         36    2    1    2    0    0  0.14210854715E-13  0.00000000000E+00 -0.12669882216E+04  0.16135172767E+04  0.99908900926E+03 0.  0.
         25    2    3    3    0    0 -0.38683677525E+02 -0.12928449401E+03 -0.18584524287E+03  0.26125823626E+03  0.12452511561E+03 0.  0.
         35    2    3    3    0    0  0.38683677525E+02  0.12928449401E+03 -0.10811429788E+04  0.13522590404E+04  0.80095159941E+03 0.  0.
         22    1    5    5    0    0  0.18295028715E+03  0.14986842115E+03  0.23850432651E+02  0.23769769533E+03  0.00000000000E+00 0.  1.
         22    1    5    5    0    0 -0.14426660963E+03 -0.20583927140E+02 -0.11049934114E+04  0.11145613451E+04  0.00000000000E+00 0.  1.
          5    1    4    4  502    0  0.45387371817E+01 -0.13819978958E+03 -0.15126520499E+03  0.20499520535E+03  0.47000000000E+01 0.  1.
         -5    1    4    4    0  502 -0.43222414707E+02  0.89152955625E+01 -0.34580037877E+02  0.56263030914E+02  0.47000000000E+01 0.  1.
<mgrwt>
<rscale>  0 0.99908901E+03</rscale>
<asrwt>0</asrwt>
<pdfrwt beam="1">  1        2 0.22157735E+00 0.99908901E+03</pdfrwt>
<pdfrwt beam="2">  1       -2 0.26656081E-01 0.99908901E+03</pdfrwt>
<totfact> 0.20960701E+02</totfact>
</mgrwt>
</event>
<event>
 9    1  0.4412976E-036  0.9998936E+03  0.7818608E-02  0.8681139E-01
          2   -1    0    0  501    0  0.00000000000E+00  0.00000000000E+00  0.59613000197E+03  0.59613000197E+03  0.00000000000E+00 0. -1.
         -2   -1    0    0    0  501 -0.00000000000E+00 -0.00000000000E+00 -0.41928237410E+03  0.41928237410E+03  0.00000000000E+00 0. -1.
         36    2    1    2    0    0  0.00000000000E+00 -0.14210854715E-13  0.17684762787E+03  0.10154123761E+04  0.99989359934E+03 0.  0.
         25    2    3    3    0    0  0.28812271901E+02  0.34611697383E+02 -0.10583429454E+03  0.16851261160E+03  0.12315634680E+03 0.  0.
         35    2    3    3    0    0 -0.28812271901E+02 -0.34611697383E+02  0.28268192241E+03  0.84689976448E+03  0.79705835747E+03 0.  0.
         22    1    5    5    0    0  0.19249872008E+02 -0.26383098651E+03  0.47510552226E+03  0.54378543958E+03  0.00000000000E+00 0.  1.
         22    1    5    5    0    0 -0.48062143909E+02  0.22921928912E+03 -0.19242359985E+03  0.30311432490E+03  0.00000000000E+00 0.  1.
          5    1    4    4  502    0 -0.37724300707E+02  0.42522277115E+02 -0.22108623282E+02  0.61173099793E+02  0.47000000000E+01 0.  1.
         -5    1    4    4    0  502  0.66536572608E+02 -0.79105797325E+01 -0.83725671263E+02  0.10733951181E+03  0.47000000000E+01 0.  1.
<mgrwt>
<rscale>  0 0.99989360E+03</rscale>
<asrwt>0</asrwt>
<pdfrwt beam="1">  1        2 0.91712308E-01 0.99989360E+03</pdfrwt>
<pdfrwt beam="2">  1       -2 0.64504981E-01 0.99989360E+03</pdfrwt>
<totfact> 0.13422529E+02</totfact>
</mgrwt>
</event>
<event>
 9    1  0.4412976E-036  0.1000514E+04  0.7818608E-02  0.8680548E-01
          1   -1    0    0  501    0  0.00000000000E+00  0.00000000000E+00  0.21867026069E+04  0.21867026069E+04  0.00000000000E+00 0.  1.
         -1   -1    0    0    0  501 -0.00000000000E+00 -0.00000000000E+00 -0.11444505665E+03  0.11444505665E+03  0.00000000000E+00 0.  1.
         36    2    1    2    0    0 -0.28421709430E-13  0.15987211555E-13  0.20722575502E+04  0.23011476635E+04  0.10005144751E+04 0.  0.
         25    2    3    3    0    0  0.11424888645E+03  0.13764013233E+02  0.20591397009E+03  0.26723982818E+03  0.12559580637E+03 0.  0.
         35    2    3    3    0    0 -0.11424888645E+03 -0.13764013233E+02  0.18663435801E+04  0.20339078353E+04  0.80018777012E+03 0.  0.
         22    1    5    5    0    0 -0.83566117330E+02 -0.32954270694E+03  0.36256834162E+03  0.49702866518E+03  0.00000000000E+00 0.  1.
         22    1    5    5    0    0 -0.30682769115E+02  0.31577869371E+03  0.15037752385E+04  0.15368791702E+04  0.00000000000E+00 0.  1.
          5    1    4    4  502    0  0.11605793771E+03  0.21576146745E+02  0.83968358923E+02  0.14494050612E+03  0.47000000000E+01 0.  1.
         -5    1    4    4    0  502 -0.18090512601E+01 -0.78121335113E+01  0.12194561116E+03  0.12229932207E+03  0.47000000000E+01 0.  1.
<mgrwt>
<rscale>  0 0.10005145E+04</rscale>
<asrwt>0</asrwt>
<pdfrwt beam="1">  1        1 0.33641576E+00 0.10005145E+04</pdfrwt>
<pdfrwt beam="2">  1       -1 0.17606933E-01 0.10005145E+04</pdfrwt>
<totfact> 0.58092201E+01</totfact>
</mgrwt>
</event>
<event>
 9    1  0.4412976E-036  0.1000514E+04  0.7818608E-02  0.8680549E-01
         -2   -1    0    0    0  501 -0.00000000000E+00  0.00000000000E+00  0.18481820605E+03  0.18481820605E+03  0.00000000000E+00 0. -1.
          2   -1    0    0  501    0  0.00000000000E+00 -0.00000000000E+00 -0.13540714759E+04  0.13540714759E+04  0.00000000000E+00 0. -1.
         36    2    1    2    0    0 -0.14210854715E-13  0.00000000000E+00 -0.11692532699E+04  0.15388896820E+04  0.10005139900E+04 0.  0.
         25    2    3    3    0    0 -0.86081544329E+02  0.84493423280E+02 -0.33309627084E+03  0.37563284178E+03  0.12489089368E+03 0.  0.
         35    2    3    3    0    0  0.86081544329E+02 -0.84493423280E+02 -0.83615699904E+03  0.11632568402E+04  0.79966166495E+03 0.  0.
         22    1    5    5    0    0  0.21343084039E+03 -0.23077384169E+02  0.85311262778E+02  0.23100498014E+03  0.00000000000E+00 0. -1.
         22    1    5    5    0    0 -0.12734929606E+03 -0.61416039111E+02 -0.92146826181E+03  0.93225186007E+03  0.00000000000E+00 0. -1.
          5    1    4    4  502    0 -0.88193232541E+02  0.43564957418E+02 -0.10546725546E+03  0.14429616681E+03  0.47000000000E+01 0. -1.
         -5    1    4    4    0  502  0.21116882123E+01  0.40928465862E+02 -0.22762901538E+03  0.23133667498E+03  0.47000000000E+01 0. -1.
<mgrwt>
<rscale>  0 0.10005140E+04</rscale>
<asrwt>0</asrwt>
<pdfrwt beam="1">  1        2 0.20831869E+00 0.10005140E+04</pdfrwt>
<pdfrwt beam="2">  1       -2 0.28433571E-01 0.10005140E+04</pdfrwt>
<totfact> 0.20904093E+02</totfact>
</mgrwt>
</event>
<event>
 9    1  0.4412976E-036  0.1000268E+04  0.7818608E-02  0.8680783E-01
         -2   -1    0    0    0  501 -0.00000000000E+00  0.00000000000E+00  0.65610781863E+02  0.65610781863E+02  0.00000000000E+00 0.  1.
          2   -1    0    0  501    0  0.00000000000E+00 -0.00000000000E+00 -0.38123890145E+04  0.38123890145E+04  0.00000000000E+00 0.  1.
         36    2    1    2    0    0  0.14210854715E-13  0.28421709430E-13 -0.37467782327E+04  0.38779997964E+04  0.10002676122E+04 0.  0.
         25    2    3    3    0    0 -0.11318506570E+03 -0.75869985722E+02 -0.84216598841E+03  0.86215773246E+03  0.12452023838E+03 0.  0.
         35    2    3    3    0    0  0.11318506570E+03  0.75869985722E+02 -0.29046122442E+04  0.30158420639E+04  0.79997746924E+03 0.  0.
         22    1    5    5    0    0  0.35680352962E+03 -0.20131304056E+03 -0.10983012870E+04  0.11722207199E+04  0.00000000000E+00 0.  1.
         22    1    5    5    0    0 -0.24361846392E+03  0.27718302628E+03 -0.18063109572E+04  0.18436213440E+04  0.00000000000E+00 0.  1.
          5    1    4    4  502    0 -0.19157919959E+02  0.23074812977E+02 -0.35240156462E+03  0.35370669436E+03  0.47000000000E+01 0. -1.
         -5    1    4    4    0  502 -0.94027145743E+02 -0.98944798699E+02 -0.48976442379E+03  0.50845103810E+03  0.47000000000E+01 0. -1.
<mgrwt>
<rscale>  0 0.10002676E+04</rscale>
<asrwt>0</asrwt>
<pdfrwt beam="1">  1        2 0.58652139E+00 0.10002676E+04</pdfrwt>
<pdfrwt beam="2">  1       -2 0.10093966E-01 0.10002676E+04</pdfrwt>
<totfact> 0.32218983E+01</totfact>
</mgrwt>
</event>
<event>
 9    1  0.4412976E-036  0.1000844E+04  0.7818608E-02  0.8680234E-01
          1   -1    0    0  501    0  0.00000000000E+00  0.00000000000E+00  0.44307634804E+03  0.44307634804E+03  0.00000000000E+00 0.  1.
         -1   -1    0    0    0  501 -0.00000000000E+00 -0.00000000000E+00 -0.56519003357E+03  0.56519003357E+03  0.00000000000E+00 0.  1.
         36    2    1    2    0    0 -0.35527136788E-14  0.21316282073E-13 -0.12211368553E+03  0.10082663816E+04  0.10008443156E+04 0.  0.
         25    2    3    3    0    0 -0.11877421141E+02 -0.51917286790E+02 -0.15597440925E+03  0.20549089623E+03  0.12272739830E+03 0.  0.
         35    2    3    3    0    0  0.11877421141E+02  0.51917286790E+02  0.33860723727E+02  0.80277548538E+03  0.80029085558E+03 0.  0.
         22    1    5    5    0    0 -0.24288907526E+03  0.33132205321E+03  0.89873952001E+02  0.42053148880E+03  0.00000000000E+00 0.  1.
         22    1    5    5    0    0  0.25476649640E+03 -0.27940476642E+03 -0.56013228274E+02  0.38224399659E+03  0.00000000000E+00 0.  1.
          5    1    4    4  502    0 -0.28934367203E+02  0.49136714504E+01  0.82222333263E+01  0.30838886060E+02  0.47000000000E+01 0. -1.
         -5    1    4    4    0  502  0.17056946062E+02 -0.56830958241E+02 -0.16419664258E+03  0.17465201017E+03  0.47000000000E+01 0. -1.
<mgrwt>
<rscale>  0 0.10008443E+04</rscale>
<asrwt>0</asrwt>
<pdfrwt beam="1">  1        1 0.68165592E-01 0.10008443E+04</pdfrwt>
<pdfrwt beam="2">  1       -1 0.86952313E-01 0.10008443E+04</pdfrwt>
<totfact> 0.80910156E+01</totfact>
</mgrwt>
</event>
<event>
 9    1  0.4412976E-036  0.1000127E+04  0.7818608E-02  0.8680917E-01
          2   -1    0    0  501    0  0.00000000000E+00  0.00000000000E+00  0.36218710726E+03  0.36218710726E+03  0.00000000000E+00 0.  1.
         -2   -1    0    0    0  501 -0.00000000000E+00 -0.00000000000E+00 -0.69042590829E+03  0.69042590829E+03  0.00000000000E+00 0.  1.
         36    2    1    2    0    0  0.00000000000E+00 -0.28421709430E-13 -0.32823880104E+03  0.10526130155E+04  0.10001267170E+04 0.  0.
         25    2    3    3    0    0 -0.45018907745E+02 -0.11079941915E+03  0.14417623332E+02  0.17454712386E+03  0.12631554634E+03 0.  0.
         35    2    3    3    0    0  0.45018907745E+02  0.11079941915E+03 -0.34265642437E+03  0.87806589168E+03  0.79955179422E+03 0.  0.
         22    1    5    5    0    0  0.11591215357E+01  0.39499322137E+03 -0.42374476967E+03  0.57929320583E+03  0.00000000000E+00 0. -1.
         22    1    5    5    0    0  0.43859786210E+02 -0.28419380222E+03  0.81088345304E+02  0.29877268585E+03  0.00000000000E+00 0. -1.
          5    1    4    4  502    0 -0.36055984759E+02  0.49641891911E+01  0.41324690026E+02  0.55267505978E+02  0.47000000000E+01 0. -1.
         -5    1    4    4    0  502 -0.89629229864E+01 -0.11576360834E+03 -0.26907066695E+02  0.11927961789E+03  0.47000000000E+01 0. -1.
<mgrwt>
<rscale>  0 0.10001267E+04</rscale>
<asrwt>0</asrwt>
<pdfrwt beam="1">  1        2 0.55721094E-01 0.10001267E+04</pdfrwt>
<pdfrwt beam="2">  1       -2 0.10621937E+00 0.10001267E+04</pdfrwt>
<totfact> 0.75174135E+01</totfact>
</mgrwt>
</event>
<event>
 9    1  0.4412976E-036  0.9988254E+03  0.7818608E-02  0.8682157E-01
          2   -1    0    0  501    0  0.00000000000E+00  0.00000000000E+00  0.48143384567E+03  0.48143384567E+03  0.00000000000E+00 0.  1.
         -2   -1    0    0    0  501 -0.00000000000E+00 -0.00000000000E+00 -0.51806296728E+03  0.51806296728E+03  0.00000000000E+00 0.  1.
         36    2    1    2    0    0 -0.28421709430E-13  0.00000000000E+00 -0.36629121613E+02  0.99949681295E+03  0.99882540344E+03 0.  0.
         25    2    3    3    0    0 -0.24926202714E+02 -0.13474188965E+03 -0.23008661053E+02  0.18848837971E+03  0.12736474548E+03 0.  0.
         35    2    3    3    0    0  0.24926202714E+02  0.13474188965E+03 -0.13620460560E+02  0.81100843325E+03  0.79923242517E+03 0.  0.
         22    1    5    5    0    0 -0.27023773474E+03 -0.58087836842E+02  0.24848813791E+03  0.37168398505E+03  0.00000000000E+00 0. -1.
         22    1    5    5    0    0  0.29516393745E+03  0.19282972649E+03 -0.26210859847E+03  0.43932444820E+03  0.00000000000E+00 0. -1.
          5    1    4    4  502    0 -0.71943765508E+02 -0.10917151036E+03 -0.30234089783E+02  0.13427775041E+03  0.47000000000E+01 0. -1.
         -5    1    4    4    0  502  0.47017562794E+02 -0.25570379288E+02  0.72254287304E+01  0.54210629293E+02  0.47000000000E+01 0. -1.
<mgrwt>
<rscale>  0 0.99882540E+03</rscale>
<asrwt>0</asrwt>
<pdfrwt beam="1">  1        2 0.74066746E-01 0.99882540E+03</pdfrwt>
<pdfrwt beam="2">  1       -2 0.79701995E-01 0.99882540E+03</pdfrwt>
<totfact> 0.10808470E+02</totfact>
</mgrwt>
</event>
<event>
 9    1  0.4412976E-036  0.1000496E+04  0.7818608E-02  0.8680566E-01
         -2   -1    0    0    0  501 -0.00000000000E+00  0.00000000000E+00  0.43622293843E+03  0.43622293843E+03  0.00000000000E+00 0.  1.
          2   -1    0    0  501    0  0.00000000000E+00 -0.00000000000E+00 -0.57367007228E+03  0.57367007228E+03  0.00000000000E+00 0.  1.
         36    2    1    2    0    0  0.14210854715E-13 -0.71054273576E-14 -0.13744713384E+03  0.10098930107E+04  0.10004959662E+04 0.  0.
         25    2    3    3    0    0  0.47551700859E+02 -0.33353880407E+02  0.10342820467E+03  0.17226266990E+03  0.12491352339E+03 0.  0.
         35    2    3    3    0    0 -0.47551700859E+02  0.33353880407E+02 -0.24087533851E+03  0.83763034081E+03  0.80014374556E+03 0.  0.
         22    1    5    5    0    0  0.30881989253E+03 -0.69652091562E+02 -0.32875882084E+03  0.45640278501E+03  0.00000000000E+00 0.  1.
         22    1    5    5    0    0 -0.35637159339E+03  0.10300597197E+03  0.87883482328E+02  0.38122755580E+03  0.00000000000E+00 0.  1.
          5    1    4    4  502    0  0.75508349182E+02 -0.20049438639E+01  0.19283326902E+02  0.78099086374E+02  0.47000000000E+01 0. -1.
         -5    1    4    4    0  502 -0.27956648323E+02 -0.31348936543E+02  0.84144877766E+02  0.94163583524E+02  0.47000000000E+01 0. -1.
<mgrwt>
<rscale>  0 0.10004960E+04</rscale>
<asrwt>0</asrwt>
<pdfrwt beam="1">  1        2 0.88256934E-01 0.10004960E+04</pdfrwt>
<pdfrwt beam="2">  1       -2 0.67111222E-01 0.10004960E+04</pdfrwt>
<totfact> 0.12905246E+02</totfact>
</mgrwt>
</event>
<event>
 9    1  0.4412976E-036  0.9990347E+03  0.7818608E-02  0.8681958E-01
         -2   -1    0    0    0  501 -0.00000000000E+00  0.00000000000E+00  0.60948724714E+03  0.60948724714E+03  0.00000000000E+00 0.  1.
          2   -1    0    0  501    0  0.00000000000E+00 -0.00000000000E+00 -0.40938935680E+03  0.40938935680E+03  0.00000000000E+00 0.  1.
         36    2    1    2    0    0  0.00000000000E+00  0.00000000000E+00  0.20009789034E+03  0.10188766039E+04  0.99903471829E+03 0.  0.
         25    2    3    3    0    0  0.76150056436E+02  0.51709171426E+02  0.14376161362E+03  0.21133736546E+03  0.12459298128E+03 0.  0.
         35    2    3    3    0    0 -0.76150056436E+02 -0.51709171426E+02  0.56336276716E+02  0.80753923848E+03  0.80029568042E+03 0.  0.
         22    1    5    5    0    0 -0.32466213497E+03  0.20105712653E+03  0.19270362627E+03  0.42774309766E+03  0.00000000000E+00 0.  1.
         22    1    5    5    0    0  0.24851207854E+03 -0.25276629795E+03 -0.13636734956E+03  0.37979614082E+03  0.00000000000E+00 0.  1.
          5    1    4    4  502    0  0.79210494781E+02  0.21410882878E+01  0.26135507457E+02  0.83570577911E+02  0.47000000000E+01 0.  1.
         -5    1    4    4    0  502 -0.30604383443E+01  0.49568083138E+02  0.11762610617E+03  0.12776678755E+03  0.47000000000E+01 0.  1.
<mgrwt>
<rscale>  0 0.99903472E+03</rscale>
<asrwt>0</asrwt>
<pdfrwt beam="1">  1        2 0.62982978E-01 0.99903472E+03</pdfrwt>
<pdfrwt beam="2">  1       -2 0.93767269E-01 0.99903472E+03</pdfrwt>
<totfact> 0.88774251E+01</totfact>
</mgrwt>
</event>
<event>
 9    1  0.4412976E-036  0.1000901E+04  0.7818608E-02  0.8680180E-01
          2   -1    0    0  501    0  0.00000000000E+00  0.00000000000E+00  0.40718459522E+03  0.40718459522E+03  0.00000000000E+00 0.  1.
         -2   -1    0    0    0  501 -0.00000000000E+00 -0.00000000000E+00 -0.61507908619E+03  0.61507908619E+03  0.00000000000E+00 0.  1.
         36    2    1    2    0    0  0.71054273576E-14  0.14210854715E-13 -0.20789449097E+03  0.10222636814E+04  0.10009010515E+04 0.  0.
         25    2    3    3    0    0  0.56822960194E+02 -0.83473106150E+02  0.62057340641E+02  0.16996000552E+03  0.12181412765E+03 0.  0.
         35    2    3    3    0    0 -0.56822960194E+02  0.83473106150E+02 -0.26995183161E+03  0.85230367589E+03  0.80209161340E+03 0.  0.
         22    1    5    5    0    0  0.10463384194E+03  0.10589535618E+03  0.25903782180E+03  0.29876857342E+03  0.00000000000E+00 0.  1.
         22    1    5    5    0    0 -0.16145680213E+03 -0.22422250035E+02 -0.52898965341E+03  0.55353510247E+03  0.00000000000E+00 0.  1.
          5    1    4    4  502    0  0.14938247031E+02 -0.32067571021E+02 -0.36521103071E+02  0.51062327650E+02  0.47000000000E+01 0. -1.
         -5    1    4    4    0  502  0.41884713163E+02 -0.51405535129E+02  0.98578443712E+02  0.11889767787E+03  0.47000000000E+01 0. -1.
<mgrwt>
<rscale>  0 0.10009011E+04</rscale>
<asrwt>0</asrwt>
<pdfrwt beam="1">  1        2 0.62643784E-01 0.10009011E+04</pdfrwt>
<pdfrwt beam="2">  1       -2 0.94627552E-01 0.10009011E+04</pdfrwt>
<totfact> 0.87385963E+01</totfact>
</mgrwt>
</event>
<event>
 9    1  0.4412976E-036  0.9993797E+03  0.7818608E-02  0.8681629E-01
         -1   -1    0    0    0  501 -0.00000000000E+00  0.00000000000E+00  0.14064647400E+04  0.14064647400E+04  0.00000000000E+00 0.  1.
          1   -1    0    0  501    0  0.00000000000E+00 -0.00000000000E+00 -0.17753019865E+03  0.17753019865E+03  0.00000000000E+00 0.  1.
         36    2    1    2    0    0 -0.71054273576E-14  0.00000000000E+00  0.12289345413E+04  0.15839949386E+04  0.99937973699E+03 0.  0.
         25    2    3    3    0    0 -0.26815521676E+02 -0.12798416620E+03  0.15483514013E+03  0.23835305147E+03  0.12545611793E+03 0.  0.
         35    2    3    3    0    0  0.26815521676E+02  0.12798416620E+03  0.10740994012E+04  0.13456418871E+04  0.79997721580E+03 0.  0.
         22    1    5    5    0    0 -0.37653223545E+03 -0.29286532233E+02  0.50085029272E+03  0.62728401942E+03  0.00000000000E+00 0.  1.
         22    1    5    5    0    0  0.40334775712E+03  0.15727069843E+03  0.57324910846E+03  0.71835786771E+03  0.00000000000E+00 0.  1.
          5    1    4    4  502    0 -0.37648280276E+02 -0.31539055955E+02 -0.67565911223E+01  0.49798058013E+02  0.47000000000E+01 0. -1.
         -5    1    4    4    0  502  0.10832758600E+02 -0.96445110244E+02  0.16159173126E+03  0.18855499346E+03  0.47000000000E+01 0. -1.
<mgrwt>
<rscale>  0 0.99937974E+03</rscale>
<asrwt>0</asrwt>
<pdfrwt beam="1">  1        1 0.27312339E-01 0.99937974E+03</pdfrwt>
<pdfrwt beam="2">  1       -1 0.21637918E+00 0.99937974E+03</pdfrwt>
<totfact> 0.19589830E+01</totfact>
</mgrwt>
</event>
<event>
 9    1  0.4412976E-036  0.1000541E+04  0.7818608E-02  0.8680523E-01
         -2   -1    0    0    0  501 -0.00000000000E+00  0.00000000000E+00  0.82398271517E+03  0.82398271517E+03  0.00000000000E+00 0.  1.
          2   -1    0    0  501    0  0.00000000000E+00 -0.00000000000E+00 -0.30373306094E+03  0.30373306094E+03  0.00000000000E+00 0.  1.
         36    2    1    2    0    0  0.71054273576E-14  0.10658141036E-13  0.52024965422E+03  0.11277157761E+04  0.10005414379E+04 0.  0.
         25    2    3    3    0    0  0.57327522042E+02  0.28269409953E+02 -0.44349841270E+02  0.14663280488E+03  0.12429266560E+03 0.  0.
         35    2    3    3    0    0 -0.57327522042E+02 -0.28269409953E+02  0.56459949549E+03  0.98108297123E+03  0.79979097382E+03 0.  0.
         22    1    5    5    0    0 -0.45355177599E+02 -0.40841165242E+03  0.37412581650E+03  0.55572231963E+03  0.00000000000E+00 0.  1.
         22    1    5    5    0    0 -0.11972344442E+02  0.38014224247E+03  0.19047367899E+03  0.42536065160E+03  0.00000000000E+00 0.  1.
          5    1    4    4  502    0  0.49315211262E+02  0.46686106819E+02  0.26344213632E+02  0.72991028378E+02  0.47000000000E+01 0. -1.
         -5    1    4    4    0  502  0.80123107801E+01 -0.18416696866E+02 -0.70694054902E+02  0.73641776499E+02  0.47000000000E+01 0. -1.
<mgrwt>
<rscale>  0 0.10005414E+04</rscale>
<asrwt>0</asrwt>
<pdfrwt beam="1">  1        2 0.46728164E-01 0.10005414E+04</pdfrwt>
<pdfrwt beam="2">  1       -2 0.12676657E+00 0.10005414E+04</pdfrwt>
<totfact> 0.58055889E+01</totfact>
</mgrwt>
</event>
<event>
 9    1  0.4412976E-036  0.1000142E+04  0.7818608E-02  0.8680902E-01
         -2   -1    0    0    0  501 -0.00000000000E+00  0.00000000000E+00  0.22468578712E+03  0.22468578712E+03  0.00000000000E+00 0.  1.
          2   -1    0    0  501    0  0.00000000000E+00 -0.00000000000E+00 -0.11129818637E+04  0.11129818637E+04  0.00000000000E+00 0.  1.
         36    2    1    2    0    0  0.14210854715E-13  0.28421709430E-13 -0.88829607659E+03  0.13376676508E+04  0.10001424020E+04 0.  0.
         25    2    3    3    0    0  0.77613300065E+02 -0.71148863305E+02 -0.45560263182E+02  0.17173693808E+03  0.12779613931E+03 0.  0.
         35    2    3    3    0    0 -0.77613300065E+02  0.71148863305E+02 -0.84273581341E+03  0.11659307127E+04  0.79881461593E+03 0.  0.
         22    1    5    5    0    0 -0.10599832524E+03  0.26655037191E+03 -0.91249267273E+03  0.95651849094E+03  0.00000000000E+00 0.  1.
         22    1    5    5    0    0  0.28385025179E+02 -0.19540150860E+03  0.69756859322E+02  0.20941222180E+03  0.00000000000E+00 0.  1.
          5    1    4    4  502    0  0.92850434461E+02 -0.23396884244E+02 -0.67059681542E+02  0.11699447962E+03  0.47000000000E+01 0.  1.
         -5    1    4    4    0  502 -0.15237134396E+02 -0.47751979060E+02  0.21499418360E+02  0.54742458463E+02  0.47000000000E+01 0.  1.
<mgrwt>
<rscale>  0 0.10001424E+04</rscale>
<asrwt>0</asrwt>
<pdfrwt beam="1">  1        2 0.17122798E+00 0.10001424E+04</pdfrwt>
<pdfrwt beam="2">  1       -2 0.34567044E-01 0.10001424E+04</pdfrwt>
<totfact> 0.20244953E+02</totfact>
</mgrwt>
</event>
<event>
 9    1  0.4412976E-036  0.1000016E+04  0.7818608E-02  0.8681023E-01
         -2   -1    0    0    0  501 -0.00000000000E+00  0.00000000000E+00  0.13079828178E+03  0.13079828178E+03  0.00000000000E+00 0. -1.
          2   -1    0    0  501    0  0.00000000000E+00 -0.00000000000E+00 -0.19114017626E+04  0.19114017626E+04  0.00000000000E+00 0. -1.
         36    2    1    2    0    0 -0.14210854715E-13  0.28421709430E-13 -0.17806034808E+04  0.20422000443E+04  0.10000161325E+04 0.  0.
         25    2    3    3    0    0  0.11531795961E+03  0.19470024140E+02 -0.49111963049E+03  0.52020141949E+03  0.12543409324E+03 0.  0.
         35    2    3    3    0    0 -0.11531795961E+03 -0.19470024140E+02 -0.12894838503E+04  0.15219986249E+04  0.80002118736E+03 0.  0.
         22    1    5    5    0    0  0.40236756248E+02  0.37841930813E+03 -0.64041285586E+03  0.74494885413E+03  0.00000000000E+00 0. -1.
         22    1    5    5    0    0 -0.15555471585E+03 -0.39788933227E+03 -0.64907099445E+03  0.77704977073E+03  0.00000000000E+00 0. -1.
          5    1    4    4  502    0  0.58969156273E+02 -0.49954077052E+02 -0.16942290304E+03  0.18627662569E+03  0.47000000000E+01 0.  1.
         -5    1    4    4    0  502  0.56348803333E+02  0.69424101193E+02 -0.32169672745E+03  0.33392479380E+03  0.47000000000E+01 0.  1.
<mgrwt>
<rscale>  0 0.10000161E+04</rscale>
<asrwt>0</asrwt>
<pdfrwt beam="1">  1        2 0.29406183E+00 0.10000161E+04</pdfrwt>
<pdfrwt beam="2">  1       -2 0.20122811E-01 0.10000161E+04</pdfrwt>
<totfact> 0.18624626E+02</totfact>
</mgrwt>
</event>
<event>
 9    1  0.4412976E-036  0.1000287E+04  0.7818608E-02  0.8680765E-01
          2   -1    0    0  501    0  0.00000000000E+00  0.00000000000E+00  0.75384391632E+03  0.75384391632E+03  0.00000000000E+00 0. -1.
         -2   -1    0    0    0  501 -0.00000000000E+00 -0.00000000000E+00 -0.33182397561E+03  0.33182397561E+03  0.00000000000E+00 0. -1.
         36    2    1    2    0    0  0.00000000000E+00  0.14210854715E-13  0.42201994071E+03  0.10856678919E+04  0.10002869294E+04 0.  0.
         25    2    3    3    0    0 -0.65371112762E+02 -0.11349682392E+03  0.23347864819E+02  0.18219876711E+03  0.12448436256E+03 0.  0.
         35    2    3    3    0    0  0.65371112762E+02  0.11349682392E+03  0.39867207589E+03  0.90346912482E+03  0.80010132107E+03 0.  0.
         22    1    5    5    0    0  0.15564176448E+02 -0.49349295488E+02 -0.23844040257E+03  0.24399061894E+03  0.00000000000E+00 0.  1.
         22    1    5    5    0    0  0.49806936314E+02  0.16284611941E+03  0.63711247846E+03  0.65947850588E+03  0.00000000000E+00 0.  1.
          5    1    4    4  502    0 -0.83358841086E+02 -0.28495006957E+02 -0.10486011903E+02  0.88840915430E+02  0.47000000000E+01 0. -1.
         -5    1    4    4    0  502  0.17987728325E+02 -0.85001816960E+02  0.33833876722E+02  0.93357851683E+02  0.47000000000E+01 0. -1.
<mgrwt>
<rscale>  0 0.10002869E+04</rscale>
<asrwt>0</asrwt>
<pdfrwt beam="1">  1        2 0.11597599E+00 0.10002869E+04</pdfrwt>
<pdfrwt beam="2">  1       -2 0.51049843E-01 0.10002869E+04</pdfrwt>
<totfact> 0.16352579E+02</totfact>
</mgrwt>
</event>
<event>
 9    1  0.4412976E-036  0.1000154E+04  0.7818608E-02  0.8680892E-01
         -1   -1    0    0    0  501 -0.00000000000E+00  0.00000000000E+00  0.72650159374E+03  0.72650159374E+03  0.00000000000E+00 0.  1.
          1   -1    0    0  501    0  0.00000000000E+00 -0.00000000000E+00 -0.34422058361E+03  0.34422058361E+03  0.00000000000E+00 0.  1.
         36    2    1    2    0    0 -0.28421709430E-13 -0.14210854715E-13  0.38228101014E+03  0.10707221774E+04  0.10001535934E+04 0.  0.
         25    2    3    3    0    0  0.12772265349E+03 -0.56179686370E+02  0.74368669838E+02  0.20175304497E+03  0.12531703286E+03 0.  0.
         35    2    3    3    0    0 -0.12772265349E+03  0.56179686370E+02  0.30791234030E+03  0.86896913238E+03  0.80051740165E+03 0.  0.
         22    1    5    5    0    0 -0.23336273443E+03  0.33260888185E+03 -0.44555812414E+02  0.40874448562E+03  0.00000000000E+00 0.  1.
         22    1    5    5    0    0  0.10564008094E+03 -0.27642919548E+03  0.35246815271E+03  0.46022464676E+03  0.00000000000E+00 0.  1.
          5    1    4    4  502    0  0.14086597351E+03 -0.78415365621E+02  0.64352974558E+02  0.17365364204E+03  0.47000000000E+01 0.  1.
         -5    1    4    4    0  502 -0.13143320023E+02  0.22235679251E+02  0.10015695280E+02  0.28099402928E+02  0.47000000000E+01 0.  1.
<mgrwt>
<rscale>  0 0.10001536E+04</rscale>
<asrwt>0</asrwt>
<pdfrwt beam="1">  1        1 0.52957013E-01 0.10001536E+04</pdfrwt>
<pdfrwt beam="2">  1       -1 0.11176948E+00 0.10001536E+04</pdfrwt>
<totfact> 0.64709064E+01</totfact>
</mgrwt>
</event>
<event>
 9    1  0.4412976E-036  0.9996294E+03  0.7818608E-02  0.8681391E-01
         -1   -1    0    0    0  501 -0.00000000000E+00  0.00000000000E+00  0.87298819733E+02  0.87298819733E+02  0.00000000000E+00 0. -1.
          1   -1    0    0  501    0  0.00000000000E+00 -0.00000000000E+00 -0.28616050593E+04  0.28616050593E+04  0.00000000000E+00 0. -1.
         36    2    1    2    0    0  0.71054273576E-14 -0.28421709430E-13 -0.27743062396E+04  0.29489038790E+04  0.99962941978E+03 0.  0.
         25    2    3    3    0    0 -0.41997380688E+02 -0.12902071804E+03 -0.60177052271E+03  0.62963464634E+03  0.12610273668E+03 0.  0.
         35    2    3    3    0    0  0.41997380688E+02  0.12902071804E+03 -0.21725357169E+04  0.23192692327E+04  0.80043001383E+03 0.  0.
         22    1    5    5    0    0  0.66463103540E+02  0.26704341545E+03 -0.21611863003E+04  0.21786362143E+04  0.00000000000E+00 0. -1.
         22    1    5    5    0    0 -0.24465722851E+02 -0.13802269741E+03 -0.11349416566E+02  0.14063301836E+03  0.00000000000E+00 0. -1.
          5    1    4    4  502    0 -0.52170238467E+01 -0.11593971629E+03 -0.24990508922E+03  0.27557916969E+03  0.47000000000E+01 0.  1.
         -5    1    4    4    0  502 -0.36780356842E+02 -0.13081001750E+02 -0.35186543349E+03  0.35405547665E+03  0.47000000000E+01 0.  1.
<mgrwt>
<rscale>  0 0.99962942E+03</rscale>
<asrwt>0</asrwt>
<pdfrwt beam="1">  1        1 0.44024696E+00 0.99962942E+03</pdfrwt>
<pdfrwt beam="2">  1       -1 0.13430587E-01 0.99962942E+03</pdfrwt>
<totfact> 0.30108872E+01</totfact>
</mgrwt>
</event>
<event>
 9    1  0.4412976E-036  0.1000726E+04  0.7818608E-02  0.8680347E-01
         -2   -1    0    0    0  501 -0.00000000000E+00  0.00000000000E+00  0.20740544576E+03  0.20740544576E+03  0.00000000000E+00 0. -1.
          2   -1    0    0  501    0  0.00000000000E+00 -0.00000000000E+00 -0.12071185127E+04  0.12071185127E+04  0.00000000000E+00 0. -1.
         36    2    1    2    0    0  0.14210854715E-13  0.00000000000E+00 -0.99971306691E+03  0.14145239584E+04  0.10007256431E+04 0.  0.
         25    2    3    3    0    0 -0.77899504207E+02  0.96922389836E+02 -0.95454749715E+02  0.20094651122E+03  0.12572035921E+03 0.  0.
         35    2    3    3    0    0  0.77899504207E+02 -0.96922389836E+02 -0.90425831719E+03  0.12135774472E+04  0.79976548672E+03 0.  0.
         22    1    5    5    0    0 -0.19759537184E+03 -0.35037624907E+03 -0.63790707128E+03  0.75414380490E+03  0.00000000000E+00 0.  1.
         22    1    5    5    0    0  0.27549487604E+03  0.25345385923E+03 -0.26635124592E+03  0.45943364231E+03  0.00000000000E+00 0.  1.
          5    1    4    4  502    0 -0.63018147446E+02 -0.76184223812E+01 -0.64937148022E+02  0.90929920600E+02  0.47000000000E+01 0.  1.
         -5    1    4    4    0  502 -0.14881356761E+02  0.10454081222E+03 -0.30517601693E+02  0.11001659062E+03  0.47000000000E+01 0.  1.
<mgrwt>
<rscale>  0 0.10007256E+04</rscale>
<asrwt>0</asrwt>
<pdfrwt beam="1">  1        2 0.18571054E+00 0.10007256E+04</pdfrwt>
<pdfrwt beam="2">  1       -2 0.31908530E-01 0.10007256E+04</pdfrwt>
<totfact> 0.20627428E+02</totfact>
</mgrwt>
</event>
<event>
 9    1  0.4412976E-036  0.9995560E+03  0.7818608E-02  0.8681461E-01
          2   -1    0    0  501    0  0.00000000000E+00  0.00000000000E+00  0.55873674600E+03  0.55873674600E+03  0.00000000000E+00 0.  1.
         -2   -1    0    0    0  501 -0.00000000000E+00 -0.00000000000E+00 -0.44704070575E+03  0.44704070575E+03  0.00000000000E+00 0.  1.
         36    2    1    2    0    0  0.14210854715E-13  0.14210854715E-13  0.11169604024E+03  0.10057774518E+04  0.99955603997E+03 0.  0.
         25    2    3    3    0    0 -0.11731798107E+03  0.40917668319E+02  0.86165410464E+02  0.19611678901E+03  0.12489816936E+03 0.  0.
         35    2    3    3    0    0  0.11731798107E+03 -0.40917668319E+02  0.25530629778E+02  0.80966066274E+03  0.79966293616E+03 0.  0.
         22    1    5    5    0    0 -0.31192432607E+03 -0.17631650498E+03  0.29853073740E+02  0.35954902466E+03  0.00000000000E+00 0. -1.
         22    1    5    5    0    0  0.42924230714E+03  0.13539883666E+03 -0.43224439620E+01  0.45011163807E+03  0.00000000000E+00 0. -1.
          5    1    4    4  502    0 -0.61354215492E+02 -0.75685710749E+01 -0.21275734491E+02  0.65546700182E+02  0.47000000000E+01 0.  1.
         -5    1    4    4    0  502 -0.55963765574E+02  0.48486239394E+02  0.10744114495E+03  0.13057008883E+03  0.47000000000E+01 0.  1.
<mgrwt>
<rscale>  0 0.99955604E+03</rscale>
<asrwt>0</asrwt>
<pdfrwt beam="1">  1        2 0.85959500E-01 0.99955604E+03</pdfrwt>
<pdfrwt beam="2">  1       -2 0.68775493E-01 0.99955604E+03</pdfrwt>
<totfact> 0.12626400E+02</totfact>
</mgrwt>
</event>
<event>
 9    1  0.4412976E-036  0.1001603E+04  0.7818608E-02  0.8679513E-01
         -2   -1    0    0    0  501 -0.00000000000E+00  0.00000000000E+00  0.25006209220E+03  0.25006209220E+03  0.00000000000E+00 0. -1.
          2   -1    0    0  501    0  0.00000000000E+00 -0.00000000000E+00 -0.10029589914E+04  0.10029589914E+04  0.00000000000E+00 0. -1.
         36    2    1    2    0    0 -0.14210854715E-13  0.00000000000E+00 -0.75289689918E+03  0.12530210836E+04  0.10016027631E+04 0.  0.
         25    2    3    3    0    0 -0.38424185808E+02  0.62502434987E+02  0.11464262960E+02  0.14430320693E+03  0.12372959942E+03 0.  0.
         35    2    3    3    0    0  0.38424185808E+02 -0.62502434987E+02 -0.76436116214E+03  0.11087178767E+04  0.79976519766E+03 0.  0.
         22    1    5    5    0    0  0.41267797678E+03  0.54042271265E+00 -0.48876473929E+03  0.63968302694E+03  0.00000000000E+00 0. -1.
         22    1    5    5    0    0 -0.37425379097E+03 -0.63042857700E+02 -0.27559642285E+03  0.46903484972E+03  0.00000000000E+00 0. -1.
          5    1    4    4  502    0  0.24984167867E+02  0.74576858532E+02  0.11207929088E+02  0.79584069681E+02  0.47000000000E+01 0.  1.
         -5    1    4    4    0  502 -0.63408353676E+02 -0.12074423545E+02  0.25633387239E+00  0.64719137254E+02  0.47000000000E+01 0.  1.
<mgrwt>
<rscale>  0 0.10016028E+04</rscale>
<asrwt>0</asrwt>
<pdfrwt beam="1">  1        2 0.15430139E+00 0.10016028E+04</pdfrwt>
<pdfrwt beam="2">  1       -2 0.38471091E-01 0.10016028E+04</pdfrwt>
<totfact> 0.19347140E+02</totfact>
</mgrwt>
</event>
<event>
 9    1  0.4412976E-036  0.9990161E+03  0.7818608E-02  0.8681975E-01
          2   -1    0    0  501    0  0.00000000000E+00  0.00000000000E+00  0.63372504996E+03  0.63372504996E+03  0.00000000000E+00 0.  1.
         -2   -1    0    0    0  501 -0.00000000000E+00 -0.00000000000E+00 -0.39371694599E+03  0.39371694599E+03  0.00000000000E+00 0.  1.
         36    2    1    2    0    0  0.00000000000E+00  0.00000000000E+00  0.24000810397E+03  0.10274419959E+04  0.99901609850E+03 0.  0.
         25    2    3    3    0    0  0.77170381054E+02 -0.65742618327E+02  0.14605784363E+03  0.21557124448E+03  0.12190450435E+03 0.  0.
         35    2    3    3    0    0 -0.77170381054E+02  0.65742618327E+02  0.93950260336E+02  0.81187075147E+03  0.80001881609E+03 0.  0.
         22    1    5    5    0    0 -0.13230859848E+03  0.19283764198E+03 -0.30799450718E+03  0.38672023201E+03  0.00000000000E+00 0.  1.
         22    1    5    5    0    0  0.55138217425E+02 -0.12709502365E+03  0.40194476752E+03  0.42515051945E+03  0.00000000000E+00 0.  1.
          5    1    4    4  502    0  0.58255973879E+02  0.25925798614E+02  0.70623062477E+02  0.95266009048E+02  0.47000000000E+01 0. -1.
         -5    1    4    4    0  502  0.18914407174E+02 -0.91668416941E+02  0.75434781155E+02  0.12030523543E+03  0.47000000000E+01 0. -1.
<mgrwt>
<rscale>  0 0.99901610E+03</rscale>
<asrwt>0</asrwt>
<pdfrwt beam="1">  1        2 0.97496162E-01 0.99901610E+03</pdfrwt>
<pdfrwt beam="2">  1       -2 0.60571838E-01 0.99901610E+03</pdfrwt>
<totfact> 0.14248165E+02</totfact>
</mgrwt>
</event>
<event>
 9    1  0.4412976E-036  0.1000505E+04  0.7818608E-02  0.8680557E-01
         -1   -1    0    0    0  501 -0.00000000000E+00  0.00000000000E+00  0.11610094845E+03  0.11610094845E+03  0.00000000000E+00 0.  1.
          1   -1    0    0  501    0  0.00000000000E+00 -0.00000000000E+00 -0.21554749445E+04  0.21554749445E+04  0.00000000000E+00 0.  1.
         36    2    1    2    0    0 -0.21316282073E-13  0.00000000000E+00 -0.20393739961E+04  0.22715758930E+04  0.10005052432E+04 0.  0.
         25    2    3    3    0    0  0.13268548196E+02 -0.92079624340E+02 -0.63777864400E+03  0.65666810174E+03  0.12568486585E+03 0.  0.
         35    2    3    3    0    0 -0.13268548196E+02  0.92079624340E+02 -0.14015953521E+04  0.16149077912E+04  0.79674521127E+03 0.  0.
         22    1    5    5    0    0  0.24330427502E+03  0.21165843894E+03 -0.12557066120E+04  0.12964549203E+04  0.00000000000E+00 0.  1.
         22    1    5    5    0    0 -0.25657282322E+03 -0.11957881460E+03 -0.14588874007E+03  0.31845287091E+03  0.00000000000E+00 0.  1.
          5    1    4    4  502    0 -0.48873555817E+02 -0.68009797175E+01 -0.24300165926E+03  0.24800559306E+03  0.47000000000E+01 0. -1.
         -5    1    4    4    0  502  0.62142104013E+02 -0.85278644622E+02 -0.39477698474E+03  0.40866250868E+03  0.47000000000E+01 0. -1.
<mgrwt>
<rscale>  0 0.10005052E+04</rscale>
<asrwt>0</asrwt>
<pdfrwt beam="1">  1        1 0.33161152E+00 0.10005052E+04</pdfrwt>
<pdfrwt beam="2">  1       -1 0.17861685E-01 0.10005052E+04</pdfrwt>
<totfact> 0.59681151E+01</totfact>
</mgrwt>
</event>
<event>
 9    1  0.4412976E-036  0.9989014E+03  0.7818608E-02  0.8682085E-01
         -2   -1    0    0    0  501 -0.00000000000E+00  0.00000000000E+00  0.28580133408E+03  0.28580133408E+03  0.00000000000E+00 0. -1.
          2   -1    0    0  501    0  0.00000000000E+00 -0.00000000000E+00 -0.87281257678E+03  0.87281257678E+03  0.00000000000E+00 0. -1.
         36    2    1    2    0    0  0.00000000000E+00  0.00000000000E+00 -0.58701124270E+03  0.11586139109E+04  0.99890139422E+03 0.  0.
         25    2    3    3    0    0 -0.49262923784E+02 -0.13359996758E+03 -0.65811583604E+02  0.20022440498E+03  0.12443014432E+03 0.  0.
         35    2    3    3    0    0  0.49262923784E+02  0.13359996758E+03 -0.52119965910E+03  0.95838950588E+03  0.79157158448E+03 0.  0.
         22    1    5    5    0    0  0.17300025311E+03 -0.19626164544E+03 -0.54575968095E+03  0.60522834567E+03  0.00000000000E+00 0.  1.
         22    1    5    5    0    0 -0.12373732933E+03  0.32986161301E+03  0.24560021858E+02  0.35316116021E+03  0.00000000000E+00 0.  1.
          5    1    4    4  502    0 -0.47089898723E+02 -0.46810849971E+02 -0.88148035667E+02  0.11045759561E+03  0.47000000000E+01 0.  1.
         -5    1    4    4    0  502 -0.21730250612E+01 -0.86789117606E+02  0.22336452063E+02  0.89766809364E+02  0.47000000000E+01 0.  1.
<mgrwt>
<rscale>  0 0.99890139E+03</rscale>
<asrwt>0</asrwt>
<pdfrwt beam="1">  1        2 0.13427886E+00 0.99890139E+03</pdfrwt>
<pdfrwt beam="2">  1       -2 0.43969437E-01 0.99890139E+03</pdfrwt>
<totfact> 0.18161511E+02</totfact>
</mgrwt>
</event>
<event>
 9    1  0.4412976E-036  0.1001090E+04  0.7818608E-02  0.8680001E-01
          3   -1    0    0  501    0  0.00000000000E+00  0.00000000000E+00  0.23675480598E+04  0.23675480598E+04  0.00000000000E+00 0.  1.
         -3   -1    0    0    0  501 -0.00000000000E+00 -0.00000000000E+00 -0.10582471222E+03  0.10582471222E+03  0.00000000000E+00 0.  1.
         36    2    1    2    0    0  0.00000000000E+00 -0.17763568394E-13  0.22617233476E+04  0.24733727720E+04  0.10010895906E+04 0.  0.
         25    2    3    3    0    0 -0.78041963327E+02  0.82945901414E+01  0.72773057213E+03  0.74197208031E+03  0.12153778872E+03 0.  0.
         35    2    3    3    0    0  0.78041963327E+02 -0.82945901414E+01  0.15339927754E+04  0.17314006917E+04  0.79903389905E+03 0.  0.
         22    1    5    5    0    0 -0.25735621583E+03 -0.19119473821E+03  0.29798829473E+03  0.43770386512E+03  0.00000000000E+00 0.  1.
         22    1    5    5    0    0  0.33539817916E+03  0.18290014807E+03  0.12360044807E+04  0.12936968266E+04  0.00000000000E+00 0.  1.
          5    1    4    4  502    0 -0.78856966585E+02  0.22951447525E+01  0.21307086581E+03  0.22725530297E+03  0.47000000000E+01 0. -1.
         -5    1    4    4    0  502  0.81500325748E+00  0.59994453889E+01  0.51465970631E+03  0.51471677734E+03  0.47000000000E+01 0. -1.
<mgrwt>
<rscale>  0 0.10010896E+04</rscale>
<asrwt>0</asrwt>
<pdfrwt beam="1">  1        3 0.36423812E+00 0.10010896E+04</pdfrwt>
<pdfrwt beam="2">  1       -3 0.16280727E-01 0.10010896E+04</pdfrwt>
<totfact> 0.35671785E+00</totfact>
</mgrwt>
</event>
<event>
 9    1  0.4412976E-036  0.9944464E+03  0.7818608E-02  0.8686345E-01
         -1   -1    0    0    0  501 -0.00000000000E+00  0.00000000000E+00  0.52768330068E+03  0.52768330068E+03  0.00000000000E+00 0.  1.
          1   -1    0    0  501    0  0.00000000000E+00 -0.00000000000E+00 -0.46852138983E+03  0.46852138983E+03  0.00000000000E+00 0.  1.
         36    2    1    2    0    0  0.00000000000E+00 -0.28421709430E-13  0.59161910852E+02  0.99620469052E+03  0.99444640565E+03 0.  0.
         25    2    3    3    0    0  0.37793515735E+02 -0.77511644091E+02  0.11206931792E+03  0.18855871727E+03  0.12473352812E+03 0.  0.
         35    2    3    3    0    0 -0.37793515735E+02  0.77511644091E+02 -0.52907407065E+02  0.80764597325E+03  0.80128423146E+03 0.  0.
         22    1    5    5    0    0 -0.54895461376E+02  0.43979160221E+03 -0.26037825845E+02  0.44396861762E+03  0.00000000000E+00 0.  1.
         22    1    5    5    0    0  0.17101945640E+02 -0.36227995812E+03 -0.26869581220E+02  0.36367735563E+03  0.00000000000E+00 0.  1.
          5    1    4    4  502    0  0.32407493991E+02 -0.98142669117E+02  0.36202862366E+02  0.10961280223E+03  0.47000000000E+01 0. -1.
         -5    1    4    4    0  502  0.53860217442E+01  0.20631025026E+02  0.75866455551E+02  0.78945915041E+02  0.47000000000E+01 0. -1.
<mgrwt>
<rscale>  0 0.99444641E+03</rscale>
<asrwt>0</asrwt>
<pdfrwt beam="1">  1        1 0.72080214E-01 0.99444641E+03</pdfrwt>
<pdfrwt beam="2">  1       -1 0.81182046E-01 0.99444641E+03</pdfrwt>
<totfact> 0.86792346E+01</totfact>
</mgrwt>
</event>
<event>
 9    1  0.4412976E-036  0.1007387E+04  0.7818608E-02  0.8674035E-01
         -2   -1    0    0    0  501 -0.00000000000E+00  0.00000000000E+00  0.22231197139E+03  0.22231197139E+03  0.00000000000E+00 0. -1.
          2   -1    0    0  501    0  0.00000000000E+00 -0.00000000000E+00 -0.11412210895E+04  0.11412210895E+04  0.00000000000E+00 0. -1.
         36    2    1    2    0    0 -0.42632564146E-13 -0.28421709430E-13 -0.91890911811E+03  0.13635330609E+04  0.10073869370E+04 0.  0.
         25    2    3    3    0    0 -0.48638088826E+01  0.73124937743E+02 -0.83281070325E+01  0.14953728623E+03  0.13008124173E+03 0.  0.
         35    2    3    3    0    0  0.48638088826E+01 -0.73124937743E+02 -0.91058101108E+03  0.12139957747E+04  0.79953552142E+03 0.  0.
         22    1    5    5    0    0  0.29296434770E+03 -0.28725971599E+03 -0.30971994043E+03  0.51407460057E+03  0.00000000000E+00 0.  1.
         22    1    5    5    0    0 -0.28810053882E+03  0.21413477825E+03 -0.60086107065E+03  0.69992117409E+03  0.00000000000E+00 0.  1.
          5    1    4    4  502    0 -0.42764340453E+02 -0.20308091803E+02 -0.98762266802E+01  0.48588447809E+02  0.47000000000E+01 0.  1.
         -5    1    4    4    0  502  0.37900531571E+02  0.93433029546E+02  0.15481196477E+01  0.10094883842E+03  0.47000000000E+01 0.  1.
<mgrwt>
<rscale>  0 0.10073869E+04</rscale>
<asrwt>0</asrwt>
<pdfrwt beam="1">  1        2 0.17557247E+00 0.10073869E+04</pdfrwt>
<pdfrwt beam="2">  1       -2 0.34201842E-01 0.10073869E+04</pdfrwt>
<totfact> 0.19856077E+02</totfact>
</mgrwt>
</event>
<event>
 9    1  0.4412976E-036  0.1000161E+04  0.7818608E-02  0.8680885E-01
          2   -1    0    0  501    0  0.00000000000E+00  0.00000000000E+00  0.42706088596E+03  0.42706088596E+03  0.00000000000E+00 0.  1.
         -2   -1    0    0    0  501 -0.00000000000E+00 -0.00000000000E+00 -0.58558484820E+03  0.58558484820E+03  0.00000000000E+00 0.  1.
         36    2    1    2    0    0  0.00000000000E+00  0.21316282073E-13 -0.15852396224E+03  0.10126457342E+04  0.10001607552E+04 0.  0.
         25    2    3    3    0    0  0.36651911413E+02 -0.34727989247E+02  0.10157754721E+03  0.16945598596E+03  0.12588859056E+03 0.  0.
         35    2    3    3    0    0 -0.36651911413E+02  0.34727989247E+02 -0.26010150946E+03  0.84318974820E+03  0.80047908180E+03 0.  0.
         22    1    5    5    0    0  0.17364284550E+03  0.32723664003E+03  0.42268712972E+02  0.37285694371E+03  0.00000000000E+00 0.  1.
         22    1    5    5    0    0 -0.21029475692E+03 -0.29250865078E+03 -0.30237022243E+03  0.47033280449E+03  0.00000000000E+00 0.  1.
          5    1    4    4  502    0  0.80094555401E+01 -0.78602989654E+02  0.40711460871E+02  0.89006148140E+02  0.47000000000E+01 0. -1.
         -5    1    4    4    0  502  0.28642455873E+02  0.43875000406E+02  0.60866086342E+02  0.80449837823E+02  0.47000000000E+01 0. -1.
<mgrwt>
<rscale>  0 0.10001608E+04</rscale>
<asrwt>0</asrwt>
<pdfrwt beam="1">  1        2 0.65701675E-01 0.10001608E+04</pdfrwt>
<pdfrwt beam="2">  1       -2 0.90089977E-01 0.10001608E+04</pdfrwt>
<totfact> 0.93032232E+01</totfact>
</mgrwt>
</event>
<event>
 9    1  0.4412976E-036  0.1002626E+04  0.7818608E-02  0.8678542E-01
         -2   -1    0    0    0  501 -0.00000000000E+00  0.00000000000E+00  0.88897906906E+02  0.88897906906E+02  0.00000000000E+00 0.  1.
          2   -1    0    0  501    0  0.00000000000E+00 -0.00000000000E+00 -0.28270021060E+04  0.28270021060E+04  0.00000000000E+00 0.  1.
         36    2    1    2    0    0 -0.71054273576E-14 -0.28421709430E-13 -0.27381041991E+04  0.29159000130E+04  0.10026256930E+04 0.  0.
         25    2    3    3    0    0 -0.16994810106E+01 -0.58007033943E+02 -0.88927907830E+03  0.89996348885E+03  0.12549620687E+03 0.  0.
         35    2    3    3    0    0  0.16994810106E+01  0.58007033943E+02 -0.18488251208E+04  0.20159365241E+04  0.80154727717E+03 0.  0.
         22    1    5    5    0    0 -0.15968467044E+03 -0.24628351330E+03 -0.14896705345E+04  0.15183125713E+04  0.00000000000E+00 0. -1.
         22    1    5    5    0    0  0.16138415145E+03  0.30429054724E+03 -0.35915458632E+03  0.49762395276E+03  0.00000000000E+00 0. -1.
          5    1    4    4  502    0  0.21238094272E+02  0.30468246003E+02 -0.43178859998E+03  0.43340841678E+03  0.47000000000E+01 0.  1.
         -5    1    4    4    0  502 -0.22937575282E+02 -0.88475279946E+02 -0.45749047832E+03  0.46655507207E+03  0.47000000000E+01 0.  1.
<mgrwt>
<rscale>  0 0.10026257E+04</rscale>
<asrwt>0</asrwt>
<pdfrwt beam="1">  1        2 0.43492338E+00 0.10026257E+04</pdfrwt>
<pdfrwt beam="2">  1       -2 0.13676602E-01 0.10026257E+04</pdfrwt>
<totfact> 0.10138754E+02</totfact>
</mgrwt>
</event>
<event>
 9    1  0.4412976E-036  0.9983166E+03  0.7818608E-02  0.8682643E-01
         -2   -1    0    0    0  501 -0.00000000000E+00  0.00000000000E+00  0.15417127583E+04  0.15417127583E+04  0.00000000000E+00 0. -1.
          2   -1    0    0  501    0  0.00000000000E+00 -0.00000000000E+00 -0.16161182539E+03  0.16161182539E+03  0.00000000000E+00 0. -1.
         36    2    1    2    0    0  0.14210854715E-13  0.00000000000E+00  0.13801009329E+04  0.17033245837E+04  0.99831660927E+03 0.  0.
         25    2    3    3    0    0  0.69849625027E+02 -0.10223761692E+03  0.36746100541E+03  0.40706588232E+03  0.12386905030E+03 0.  0.
         35    2    3    3    0    0 -0.69849625027E+02  0.10223761692E+03  0.10126399275E+04  0.12962587013E+04  0.79969712870E+03 0.  0.
         22    1    5    5    0    0 -0.18001312019E+03 -0.22973980105E+03  0.83670539897E+02  0.30362124246E+03  0.00000000000E+00 0. -1.
         22    1    5    5    0    0  0.11016349516E+03  0.33197741797E+03  0.92896938759E+03  0.99263745889E+03  0.00000000000E+00 0. -1.
          5    1    4    4  502    0  0.91551428252E+02 -0.36039902641E+02  0.26812319886E+03  0.28564432142E+03  0.47000000000E+01 0.  1.
         -5    1    4    4    0  502 -0.21701803225E+02 -0.66197714282E+02  0.99337806549E+02  0.12142156089E+03  0.47000000000E+01 0.  1.
<mgrwt>
<rscale>  0 0.99831661E+03</rscale>
<asrwt>0</asrwt>
<pdfrwt beam="1">  1        2 0.24863359E-01 0.99831661E+03</pdfrwt>
<pdfrwt beam="2">  1       -2 0.23718657E+00 0.99831661E+03</pdfrwt>
<totfact> 0.18268063E+01</totfact>
</mgrwt>
</event>
<event>
 9    1  0.4412976E-036  0.9997829E+03  0.7818608E-02  0.8681245E-01
         -2   -1    0    0    0  501 -0.00000000000E+00  0.00000000000E+00  0.10712133359E+03  0.10712133359E+03  0.00000000000E+00 0. -1.
          2   -1    0    0  501    0  0.00000000000E+00 -0.00000000000E+00 -0.23327888762E+04  0.23327888762E+04  0.00000000000E+00 0. -1.
         36    2    1    2    0    0 -0.28421709430E-13 -0.14210854715E-13 -0.22256675426E+04  0.24399102098E+04  0.99978288724E+03 0.  0.
         25    2    3    3    0    0 -0.71543255727E+02  0.77243334306E+02 -0.19174775362E+03  0.25176419073E+03  0.12463160345E+03 0.  0.
         35    2    3    3    0    0  0.71543255727E+02 -0.77243334306E+02 -0.20339197890E+04  0.21881460191E+04  0.80004270048E+03 0.  0.
         22    1    5    5    0    0  0.35799341939E+03 -0.16416366535E+03 -0.16754875644E+04  0.17211529786E+04  0.00000000000E+00 0.  1.
         22    1    5    5    0    0 -0.28645016366E+03  0.86920331046E+02 -0.35843222461E+03  0.46699304047E+03  0.00000000000E+00 0.  1.
          5    1    4    4  502    0 -0.57762083718E+02  0.98118368999E+02 -0.85375344171E+02  0.14238929750E+03  0.47000000000E+01 0.  1.
         -5    1    4    4    0  502 -0.13781172009E+02 -0.20875034693E+02 -0.10637240945E+03  0.10937489323E+03  0.47000000000E+01 0.  1.
<mgrwt>
<rscale>  0 0.99978289E+03</rscale>
<asrwt>0</asrwt>
<pdfrwt beam="1">  1        2 0.35889058E+00 0.99978289E+03</pdfrwt>
<pdfrwt beam="2">  1       -2 0.16480206E-01 0.99978289E+03</pdfrwt>
<totfact> 0.14973146E+02</totfact>
</mgrwt>
</event>
<event>
 9    1  0.4412976E-036  0.1004101E+04  0.7818608E-02  0.8677142E-01
         -2   -1    0    0    0  501 -0.00000000000E+00  0.00000000000E+00  0.30127537486E+03  0.30127537486E+03  0.00000000000E+00 0.  1.
          2   -1    0    0  501    0  0.00000000000E+00 -0.00000000000E+00 -0.83662645950E+03  0.83662645950E+03  0.00000000000E+00 0.  1.
         36    2    1    2    0    0  0.14210854715E-13  0.56843418861E-13 -0.53535108463E+03  0.11379018344E+04  0.10041014893E+04 0.  0.
         25    2    3    3    0    0  0.38304693697E+02  0.12960353762E+03 -0.45447678102E+02  0.18975261293E+03  0.12520477686E+03 0.  0.
         35    2    3    3    0    0 -0.38304693697E+02 -0.12960353762E+03 -0.48990340653E+03  0.94814922143E+03  0.80044816937E+03 0.  0.
         22    1    5    5    0    0 -0.12856823318E+03 -0.53663916076E+02 -0.69647406334E+03  0.71027158706E+03  0.00000000000E+00 0. -1.
         22    1    5    5    0    0  0.90263539485E+02 -0.75939621540E+02  0.20657065681E+03  0.23787763437E+03  0.00000000000E+00 0. -1.
          5    1    4    4  502    0  0.74651307924E+02  0.34757243081E+02 -0.17779722533E+02  0.84374713361E+02  0.47000000000E+01 0.  1.
         -5    1    4    4    0  502 -0.36346614227E+02  0.94846294535E+02 -0.27667955569E+02  0.10537789957E+03  0.47000000000E+01 0.  1.
<mgrwt>
<rscale>  0 0.10041015E+04</rscale>
<asrwt>0</asrwt>
<pdfrwt beam="1">  1        2 0.12871176E+00 0.10041015E+04</pdfrwt>
<pdfrwt beam="2">  1       -2 0.46350058E-01 0.10041015E+04</pdfrwt>
<totfact> 0.17326418E+02</totfact>
</mgrwt>
</event>
<event>
 9    1  0.4412976E-036  0.1000139E+04  0.7818608E-02  0.8680906E-01
         -1   -1    0    0    0  501 -0.00000000000E+00  0.00000000000E+00  0.12203093030E+04  0.12203093030E+04  0.00000000000E+00 0.  1.
          1   -1    0    0  501    0  0.00000000000E+00 -0.00000000000E+00 -0.20492289887E+03  0.20492289887E+03  0.00000000000E+00 0.  1.
         36    2    1    2    0    0  0.14210854715E-13  0.71054273576E-14  0.10153864041E+04  0.14252322018E+04  0.10001386302E+04 0.  0.
         25    2    3    3    0    0  0.36605123630E+02  0.19594513854E+02  0.38250884533E+03  0.40437480403E+03  0.12442702810E+03 0.  0.
         35    2    3    3    0    0 -0.36605123630E+02 -0.19594513854E+02  0.63287755875E+03  0.10208573978E+04  0.79993246104E+03 0.  0.
         22    1    5    5    0    0  0.12494160376E+03  0.23812102315E+03  0.66275473581E+03  0.71523133730E+03  0.00000000000E+00 0. -1.
         22    1    5    5    0    0 -0.16154672739E+03 -0.25771553700E+03 -0.29877177065E+02  0.30562606049E+03  0.00000000000E+00 0. -1.
          5    1    4    4  502    0 -0.29463704520E+02  0.46058416373E+02  0.22285508990E+03  0.22951245869E+03  0.47000000000E+01 0. -1.
         -5    1    4    4    0  502  0.66068828150E+02 -0.26463902520E+02  0.15965375544E+03  0.17486234533E+03  0.47000000000E+01 0. -1.
<mgrwt>
<rscale>  0 0.10001386E+04</rscale>
<asrwt>0</asrwt>
<pdfrwt beam="1">  1        1 0.31526600E-01 0.10001386E+04</pdfrwt>
<pdfrwt beam="2">  1       -1 0.18773989E+00 0.10001386E+04</pdfrwt>
<totfact> 0.28491802E+01</totfact>
</mgrwt>
</event>
<event>
 9    1  0.4412976E-036  0.9999548E+03  0.7818608E-02  0.8681081E-01
          1   -1    0    0  501    0  0.00000000000E+00  0.00000000000E+00  0.79993954092E+03  0.79993954092E+03  0.00000000000E+00 0. -1.
         -1   -1    0    0    0  501 -0.00000000000E+00 -0.00000000000E+00 -0.31249535281E+03  0.31249535281E+03  0.00000000000E+00 0. -1.
         36    2    1    2    0    0  0.31974423109E-13  0.28421709430E-13  0.48744418811E+03  0.11124348937E+04  0.99995477711E+03 0.  0.
         25    2    3    3    0    0 -0.28878420415E+02 -0.13256292011E+03  0.91185185715E+02  0.20608321252E+03  0.12549367090E+03 0.  0.
         35    2    3    3    0    0  0.28878420415E+02  0.13256292011E+03  0.39625900240E+03  0.90635168121E+03  0.80376942097E+03 0.  0.
         22    1    5    5    0    0 -0.24455960638E+03 -0.22748243069E+03  0.51846955620E+02  0.33800260969E+03  0.00000000000E+00 0.  1.
         22    1    5    5    0    0  0.27343802680E+03  0.36004535080E+03  0.34441204678E+03  0.56834907152E+03  0.00000000000E+00 0.  1.
          5    1    4    4  502    0 -0.31018381615E+01  0.21877756605E+02 -0.37698128515E+01  0.22903255729E+02  0.47000000000E+01 0. -1.
         -5    1    4    4    0  502 -0.25776582253E+02 -0.15444067672E+03  0.94954998567E+02  0.18317995679E+03  0.47000000000E+01 0. -1.
<mgrwt>
<rscale>  0 0.99995478E+03</rscale>
<asrwt>0</asrwt>
<pdfrwt beam="1">  1        1 0.12306762E+00 0.99995478E+03</pdfrwt>
<pdfrwt beam="2">  1       -1 0.48076208E-01 0.99995478E+03</pdfrwt>
<totfact> 0.10890118E+02</totfact>
</mgrwt>
</event>
<event>
 9    1  0.4412976E-036  0.9975848E+03  0.7818608E-02  0.8683341E-01
          2   -1    0    0  501    0  0.00000000000E+00  0.00000000000E+00  0.17772687972E+04  0.17772687972E+04  0.00000000000E+00 0. -1.
         -2   -1    0    0    0  501 -0.00000000000E+00 -0.00000000000E+00 -0.13998663501E+03  0.13998663501E+03  0.00000000000E+00 0. -1.
         36    2    1    2    0    0  0.00000000000E+00  0.00000000000E+00  0.16372821622E+04  0.19172554322E+04  0.99758484037E+03 0.  0.
         25    2    3    3    0    0 -0.99058154442E+02 -0.93820169017E+02  0.32380492026E+03  0.37302627595E+03  0.12523671222E+03 0.  0.
         35    2    3    3    0    0  0.99058154442E+02  0.93820169017E+02  0.13134772419E+04  0.15442291563E+04  0.80050389126E+03 0.  0.
         22    1    5    5    0    0  0.23030403403E+03  0.10959884528E+03  0.13749769554E+04  0.13984325092E+04  0.00000000000E+00 0. -1.
         22    1    5    5    0    0 -0.13124587958E+03 -0.15778676266E+02 -0.61499713469E+02  0.14579664704E+03  0.00000000000E+00 0. -1.
          5    1    4    4  502    0  0.57127748448E+01  0.16285248242E+02  0.31754035004E+01  0.18166405647E+02  0.47000000000E+01 0. -1.
         -5    1    4    4    0  502 -0.10477092929E+03 -0.11010541726E+03  0.32062951676E+03  0.35485987031E+03  0.47000000000E+01 0. -1.
<mgrwt>
<rscale>  0 0.99758484E+03</rscale>
<asrwt>0</asrwt>
<pdfrwt beam="1">  1        2 0.27342595E+00 0.99758484E+03</pdfrwt>
<pdfrwt beam="2">  1       -2 0.21536407E-01 0.99758484E+03</pdfrwt>
<totfact> 0.19708743E+02</totfact>
</mgrwt>
</event>
<event>
 9    1  0.4412976E-036  0.9996446E+03  0.7818608E-02  0.8681376E-01
         -1   -1    0    0    0  501 -0.00000000000E+00  0.00000000000E+00  0.58597401988E+03  0.58597401988E+03  0.00000000000E+00 0.  1.
          1   -1    0    0  501    0  0.00000000000E+00 -0.00000000000E+00 -0.42633689978E+03  0.42633689978E+03  0.00000000000E+00 0.  1.
         36    2    1    2    0    0  0.14210854715E-13  0.00000000000E+00  0.15963712009E+03  0.10123109197E+04  0.99964463083E+03 0.  0.
         25    2    3    3    0    0  0.45623155533E+02  0.56534709625E+02 -0.91274383440E+02  0.17214517461E+03  0.12659108324E+03 0.  0.
         35    2    3    3    0    0 -0.45623155533E+02 -0.56534709625E+02  0.25091150353E+03  0.84016574505E+03  0.79852629941E+03 0.  0.
         22    1    5    5    0    0 -0.40911668141E+03 -0.30512615090E+02  0.24176288040E+02  0.41096468412E+03  0.00000000000E+00 0.  1.
         22    1    5    5    0    0  0.36349352588E+03 -0.26022094535E+02  0.22673521549E+03  0.42920106093E+03  0.00000000000E+00 0.  1.
          5    1    4    4  502    0  0.81522710447E+02  0.49511649065E+01 -0.62046170278E+02  0.10267562320E+03  0.47000000000E+01 0. -1.
         -5    1    4    4    0  502 -0.35899554913E+02  0.51583544719E+02 -0.29228213162E+02  0.69469551412E+02  0.47000000000E+01 0. -1.
<mgrwt>
<rscale>  0 0.99964463E+03</rscale>
<asrwt>0</asrwt>
<pdfrwt beam="1">  1        1 0.65590292E-01 0.99964463E+03</pdfrwt>
<pdfrwt beam="2">  1       -1 0.90149850E-01 0.99964463E+03</pdfrwt>
<totfact> 0.78910273E+01</totfact>
</mgrwt>
</event>
<event>
 9    1  0.4412976E-036  0.9998213E+03  0.7818608E-02  0.8681208E-01
         -2   -1    0    0    0  501 -0.00000000000E+00  0.00000000000E+00  0.16522661777E+03  0.16522661777E+03  0.00000000000E+00 0.  1.
          2   -1    0    0  501    0  0.00000000000E+00 -0.00000000000E+00 -0.15125326504E+04  0.15125326504E+04  0.00000000000E+00 0.  1.
         36    2    1    2    0    0 -0.28421709430E-13  0.14210854715E-13 -0.13473060327E+04  0.16777592682E+04  0.99982129222E+03 0.  0.
         25    2    3    3    0    0 -0.64217602436E+02 -0.23649171843E+02 -0.46561366574E+03  0.48649209519E+03  0.12326917363E+03 0.  0.
         35    2    3    3    0    0  0.64217602436E+02  0.23649171843E+02 -0.88169236692E+03  0.11912671730E+04  0.79815591447E+03 0.  0.
         22    1    5    5    0    0 -0.28421805646E+03  0.16281418502E+03 -0.13242046423E+03  0.35330375290E+03  0.00000000000E+00 0. -1.
         22    1    5    5    0    0  0.34843565890E+03 -0.13916501318E+03 -0.74927190269E+03  0.83796342011E+03  0.00000000000E+00 0. -1.
          5    1    4    4  502    0 -0.12344288793E+02  0.41928616016E+02 -0.27219136263E+03  0.27571836754E+03  0.47000000000E+01 0. -1.
         -5    1    4    4    0  502 -0.51873313644E+02 -0.65577787859E+02 -0.19342230311E+03  0.21077372765E+03  0.47000000000E+01 0. -1.
<mgrwt>
<rscale>  0 0.99982129E+03</rscale>
<asrwt>0</asrwt>
<pdfrwt beam="1">  1        2 0.23269732E+00 0.99982129E+03</pdfrwt>
<pdfrwt beam="2">  1       -2 0.25419480E-01 0.99982129E+03</pdfrwt>
<totfact> 0.20759364E+02</totfact>
</mgrwt>
</event>
<event>
 9    1  0.4412976E-036  0.1005230E+04  0.7818608E-02  0.8676074E-01
          1   -1    0    0  501    0  0.00000000000E+00  0.00000000000E+00  0.86108123548E+03  0.86108123548E+03  0.00000000000E+00 0. -1.
         -1   -1    0    0    0  501 -0.00000000000E+00 -0.00000000000E+00 -0.29337733723E+03  0.29337733723E+03  0.00000000000E+00 0. -1.
         36    2    1    2    0    0 -0.14210854715E-13  0.00000000000E+00  0.56770389825E+03  0.11544585727E+04  0.10052297648E+04 0.  0.
         25    2    3    3    0    0 -0.11060290008E+03 -0.12619482833E+02 -0.23815663922E+01  0.16734343127E+03  0.12492357375E+03 0.  0.
         35    2    3    3    0    0  0.11060290008E+03  0.12619482833E+02  0.57008546464E+03  0.98711514143E+03  0.79812694015E+03 0.  0.
         22    1    5    5    0    0 -0.19625705767E+03 -0.83783884378E+02 -0.10610942707E+03  0.23831865743E+03  0.00000000000E+00 0.  1.
         22    1    5    5    0    0  0.30685995775E+03  0.96403367211E+02  0.67619489171E+03  0.74879648400E+03  0.00000000000E+00 0.  1.
          5    1    4    4  502    0 -0.11331581785E+03 -0.50640911511E+02 -0.18715076889E+02  0.12560780468E+03  0.47000000000E+01 0.  1.
         -5    1    4    4    0  502  0.27129177767E+01  0.38021428677E+02  0.16333510496E+02  0.41735626588E+02  0.47000000000E+01 0.  1.
<mgrwt>
<rscale>  0 0.10052298E+04</rscale>
<asrwt>0</asrwt>
<pdfrwt beam="1">  1        1 0.13247404E+00 0.10052298E+04</pdfrwt>
<pdfrwt beam="2">  1       -1 0.45134975E-01 0.10052298E+04</pdfrwt>
<totfact> 0.10811521E+02</totfact>
</mgrwt>
</event>
<event>
 9    1  0.4412976E-036  0.9995918E+03  0.7818608E-02  0.8681427E-01
          1   -1    0    0  501    0  0.00000000000E+00  0.00000000000E+00  0.21922091483E+04  0.21922091483E+04  0.00000000000E+00 0.  1.
         -1   -1    0    0    0  501 -0.00000000000E+00 -0.00000000000E+00 -0.11394712720E+03  0.11394712720E+03  0.00000000000E+00 0.  1.
         36    2    1    2    0    0  0.10658141036E-13  0.21316282073E-13  0.20782620211E+04  0.23061562755E+04  0.99959178603E+03 0.  0.
         25    2    3    3    0    0  0.12916536965E+02  0.17949903732E+02  0.70679362751E+03  0.71799166455E+03  0.12436141886E+03 0.  0.
         35    2    3    3    0    0 -0.12916536965E+02 -0.17949903732E+02  0.13714683936E+04  0.15881646109E+04  0.80053247335E+03 0.  0.
         22    1    5    5    0    0 -0.27819770721E+03 -0.29116983509E+03  0.86822237227E+03  0.95707049107E+03  0.00000000000E+00 0. -1.
         22    1    5    5    0    0  0.26528117025E+03  0.27321993135E+03  0.50324602132E+03  0.63109411988E+03  0.00000000000E+00 0. -1.
          5    1    4    4  502    0 -0.20758107370E+01  0.57028702900E+02  0.16673360654E+03  0.17629171136E+03  0.47000000000E+01 0. -1.
         -5    1    4    4    0  502  0.14992347702E+02 -0.39078799168E+02  0.54006002097E+03  0.54169995319E+03  0.47000000000E+01 0. -1.
<mgrwt>
<rscale>  0 0.99959179E+03</rscale>
<asrwt>0</asrwt>
<pdfrwt beam="1">  1        1 0.33726291E+00 0.99959179E+03</pdfrwt>
<pdfrwt beam="2">  1       -1 0.17530329E-01 0.99959179E+03</pdfrwt>
<totfact> 0.57992518E+01</totfact>
</mgrwt>
</event>
<event>
 9    1  0.4412976E-036  0.1000829E+04  0.7818608E-02  0.8680249E-01
          2   -1    0    0  501    0  0.00000000000E+00  0.00000000000E+00  0.21367610686E+04  0.21367610686E+04  0.00000000000E+00 0. -1.
         -2   -1    0    0    0  501 -0.00000000000E+00 -0.00000000000E+00 -0.11719361633E+03  0.11719361633E+03  0.00000000000E+00 0. -1.
         36    2    1    2    0    0  0.14210854715E-13 -0.14210854715E-13  0.20195674523E+04  0.22539546849E+04  0.10008291700E+04 0.  0.
         25    2    3    3    0    0 -0.37509037890E+02  0.25969266146E+02  0.80055722757E+02  0.15598731718E+03  0.12586418739E+03 0.  0.
         35    2    3    3    0    0  0.37509037890E+02 -0.25969266146E+02  0.19395117295E+04  0.20979673678E+04  0.79854868136E+03 0.  0.
         22    1    5    5    0    0  0.27131109999E+03  0.80924174169E+02  0.21789589166E+03  0.35726328463E+03  0.00000000000E+00 0. -1.
         22    1    5    5    0    0 -0.23380206210E+03 -0.10689344031E+03  0.17216158379E+04  0.17407040831E+04  0.00000000000E+00 0. -1.
          5    1    4    4  502    0 -0.56112805622E+02  0.67558638900E+02  0.55834315191E+02  0.10417474453E+03  0.47000000000E+01 0. -1.
         -5    1    4    4    0  502  0.18603767732E+02 -0.41589372754E+02  0.24221407566E+02  0.51812572648E+02  0.47000000000E+01 0. -1.
<mgrwt>
<rscale>  0 0.10008292E+04</rscale>
<asrwt>0</asrwt>
<pdfrwt beam="1">  1        2 0.32873244E+00 0.10008292E+04</pdfrwt>
<pdfrwt beam="2">  1       -2 0.18029789E-01 0.10008292E+04</pdfrwt>
<totfact> 0.16728169E+02</totfact>
</mgrwt>
</event>
<event>
 9    1  0.4412976E-036  0.1000836E+04  0.7818608E-02  0.8680243E-01
          2   -1    0    0  501    0  0.00000000000E+00  0.00000000000E+00  0.46589189293E+03  0.46589189293E+03  0.00000000000E+00 0.  1.
         -2   -1    0    0    0  501 -0.00000000000E+00 -0.00000000000E+00 -0.53750229776E+03  0.53750229776E+03  0.00000000000E+00 0.  1.
         36    2    1    2    0    0  0.35527136788E-14  0.00000000000E+00 -0.71610404827E+02  0.10033941907E+04  0.10008355768E+04 0.  0.
         25    2    3    3    0    0  0.48879161091E+01  0.46374482390E+02 -0.15282902618E+03  0.19835092598E+03  0.11752401564E+03 0.  0.
         35    2    3    3    0    0 -0.48879161091E+01 -0.46374482390E+02  0.81218621356E+02  0.80504326471E+03  0.79957720657E+03 0.  0.
         22    1    5    5    0    0 -0.23974195644E+02 -0.22086365496E+03  0.39058659142E+03  0.44934775123E+03  0.00000000000E+00 0. -1.
         22    1    5    5    0    0  0.19086279535E+02  0.17448917257E+03 -0.30936797006E+03  0.35569551348E+03  0.00000000000E+00 0. -1.
          5    1    4    4  502    0  0.55959040090E+02 -0.13833935241E+01 -0.73344551377E+02  0.92384204072E+02  0.47000000000E+01 0. -1.
         -5    1    4    4    0  502 -0.51071123981E+02  0.47757875914E+02 -0.79484474806E+02  0.10596672191E+03  0.47000000000E+01 0. -1.
<mgrwt>
<rscale>  0 0.10008356E+04</rscale>
<asrwt>0</asrwt>
<pdfrwt beam="1">  1        2 0.71675676E-01 0.10008356E+04</pdfrwt>
<pdfrwt beam="2">  1       -2 0.82692661E-01 0.10008356E+04</pdfrwt>
<totfact> 0.10303357E+02</totfact>
</mgrwt>
</event>
<event>
 9    1  0.4412976E-036  0.1000382E+04  0.7818608E-02  0.8680674E-01
          1   -1    0    0  501    0  0.00000000000E+00  0.00000000000E+00  0.11056311085E+04  0.11056311085E+04  0.00000000000E+00 0.  1.
         -1   -1    0    0    0  501 -0.00000000000E+00 -0.00000000000E+00 -0.22628802107E+03  0.22628802107E+03  0.00000000000E+00 0.  1.
         36    2    1    2    0    0  0.42632564146E-13  0.00000000000E+00  0.87934308738E+03  0.13319191295E+04  0.10003820781E+04 0.  0.
         25    2    3    3    0    0 -0.68951846043E+02 -0.74591773368E+02  0.29495293055E+03  0.33663311818E+03  0.12651614637E+03 0.  0.
         35    2    3    3    0    0  0.68951846043E+02  0.74591773368E+02  0.58439015684E+03  0.99528601134E+03  0.79922718874E+03 0.  0.
         22    1    5    5    0    0 -0.24493087883E+03  0.16875914154E+03  0.59737091335E+03  0.66732510171E+03  0.00000000000E+00 0. -1.
         22    1    5    5    0    0  0.31388272487E+03 -0.94167368167E+02 -0.12980756516E+02  0.32796090962E+03  0.00000000000E+00 0. -1.
          5    1    4    4  502    0 -0.98388235972E+02 -0.37851589207E+02  0.25005476304E+03  0.27140829446E+03  0.47000000000E+01 0. -1.
         -5    1    4    4    0  502  0.29436389930E+02 -0.36740184160E+02  0.44898167507E+02  0.65224823723E+02  0.47000000000E+01 0. -1.
<mgrwt>
<rscale>  0 0.10003821E+04</rscale>
<asrwt>0</asrwt>
<pdfrwt beam="1">  1        1 0.17009709E+00 0.10003821E+04</pdfrwt>
<pdfrwt beam="2">  1       -1 0.34813542E-01 0.10003821E+04</pdfrwt>
<totfact> 0.10920712E+02</totfact>
</mgrwt>
</event>
<event>
 9    1  0.4412976E-036  0.9990671E+03  0.7818608E-02  0.8681927E-01
         -2   -1    0    0    0  501 -0.00000000000E+00  0.00000000000E+00  0.14922183602E+04  0.14922183602E+04  0.00000000000E+00 0. -1.
          2   -1    0    0  501    0  0.00000000000E+00 -0.00000000000E+00 -0.16722336980E+03  0.16722336980E+03  0.00000000000E+00 0. -1.
         36    2    1    2    0    0  0.42632564146E-13 -0.56843418861E-13  0.13249949904E+04  0.16594417300E+04  0.99906713024E+03 0.  0.
         25    2    3    3    0    0 -0.39960510328E+02 -0.13410513908E+03  0.26265360426E+03  0.32205370899E+03  0.12308795607E+03 0.  0.
         35    2    3    3    0    0  0.39960510328E+02  0.13410513908E+03  0.10623413862E+04  0.13373880210E+04  0.80028524125E+03 0.  0.
         22    1    5    5    0    0 -0.29323515880E+03  0.28874938278E+03  0.36896339292E+03  0.55271787534E+03  0.00000000000E+00 0. -1.
         22    1    5    5    0    0  0.33319566913E+03 -0.15464424370E+03  0.69337799324E+03  0.78467014570E+03  0.00000000000E+00 0. -1.
          5    1    4    4  502    0  0.23500326081E+02 -0.23466906556E+02  0.42008798291E+01  0.33803822573E+02  0.47000000000E+01 0.  1.
         -5    1    4    4    0  502 -0.63460836410E+02 -0.11063823252E+03  0.25845272443E+03  0.28824988641E+03  0.47000000000E+01 0.  1.
<mgrwt>
<rscale>  0 0.99906713E+03</rscale>
<asrwt>0</asrwt>
<pdfrwt beam="1">  1        2 0.25726673E-01 0.99906713E+03</pdfrwt>
<pdfrwt beam="2">  1       -2 0.22957205E+00 0.99906713E+03</pdfrwt>
<totfact> 0.19632002E+01</totfact>
</mgrwt>
</event>
<event>
 9    1  0.4412976E-036  0.1001375E+04  0.7818608E-02  0.8679730E-01
         -3   -1    0    0    0  501 -0.00000000000E+00  0.00000000000E+00  0.36873880592E+03  0.36873880592E+03  0.00000000000E+00 0. -1.
          3   -1    0    0  501    0  0.00000000000E+00 -0.00000000000E+00 -0.67985186381E+03  0.67985186381E+03  0.00000000000E+00 0. -1.
         36    2    1    2    0    0  0.42632564146E-13  0.00000000000E+00 -0.31111305789E+03  0.10485906697E+04  0.10013745842E+04 0.  0.
         25    2    3    3    0    0  0.51752144208E+00 -0.77425188556E+02  0.66138881074E+02  0.16130896810E+03  0.12510517156E+03 0.  0.
         35    2    3    3    0    0 -0.51752144208E+00  0.77425188556E+02 -0.37725193896E+03  0.88728170163E+03  0.79934652369E+03 0.  0.
         22    1    5    5    0    0  0.39584312846E+03  0.70756153480E+02 -0.23713335230E+03  0.46683020722E+03  0.00000000000E+00 0.  1.
         22    1    5    5    0    0 -0.39636064990E+03  0.66690350763E+01 -0.14011858666E+03  0.42045149440E+03  0.00000000000E+00 0.  1.
          5    1    4    4  502    0  0.43073423041E+02 -0.64863649931E+02 -0.40820205196E+01  0.78111239565E+02  0.47000000000E+01 0.  1.
         -5    1    4    4    0  502 -0.42555901599E+02 -0.12561538625E+02  0.70220901593E+02  0.83197728540E+02  0.47000000000E+01 0.  1.
<mgrwt>
<rscale>  0 0.10013746E+04</rscale>
<asrwt>0</asrwt>
<pdfrwt beam="1">  1        3 0.10459259E+00 0.10013746E+04</pdfrwt>
<pdfrwt beam="2">  1       -3 0.56729047E-01 0.10013746E+04</pdfrwt>
<totfact> 0.99868726E+00</totfact>
</mgrwt>
</event>
<event>
 9    1  0.4412976E-036  0.9997143E+03  0.7818608E-02  0.8681310E-01
         -2   -1    0    0    0  501 -0.00000000000E+00  0.00000000000E+00  0.22937969098E+03  0.22937969098E+03  0.00000000000E+00 0. -1.
          2   -1    0    0  501    0  0.00000000000E+00 -0.00000000000E+00 -0.10892733614E+04  0.10892733614E+04  0.00000000000E+00 0. -1.
         36    2    1    2    0    0  0.28421709430E-13  0.00000000000E+00 -0.85989367044E+03  0.13186530524E+04  0.99971433326E+03 0.  0.
         25    2    3    3    0    0 -0.64549864098E+02 -0.99599147968E+02 -0.25585588671E+03  0.30910468488E+03  0.12647844170E+03 0.  0.
         35    2    3    3    0    0  0.64549864098E+02  0.99599147968E+02 -0.60403778373E+03  0.10095483675E+04  0.80014972783E+03 0.  0.
         22    1    5    5    0    0 -0.16409626603E+03 -0.11749101489E+03  0.10938774861E+03  0.22955914848E+03  0.00000000000E+00 0.  1.
         22    1    5    5    0    0  0.22864613013E+03  0.21709016285E+03 -0.71342553233E+03  0.77998921904E+03  0.00000000000E+00 0.  1.
          5    1    4    4  502    0 -0.34289729756E+02 -0.45237110037E+02 -0.23725621468E+03  0.24399750633E+03  0.47000000000E+01 0. -1.
         -5    1    4    4    0  502 -0.30260134341E+02 -0.54362037931E+02 -0.18599672032E+02  0.65107178545E+02  0.47000000000E+01 0. -1.
<mgrwt>
<rscale>  0 0.99971433E+03</rscale>
<asrwt>0</asrwt>
<pdfrwt beam="1">  1        2 0.16758052E+00 0.99971433E+03</pdfrwt>
<pdfrwt beam="2">  1       -2 0.35289184E-01 0.99971433E+03</pdfrwt>
<totfact> 0.20134454E+02</totfact>
</mgrwt>
</event>
<event>
 9    1  0.4412976E-036  0.1000950E+04  0.7818608E-02  0.8680133E-01
         -2   -1    0    0    0  501 -0.00000000000E+00  0.00000000000E+00  0.83089136481E+02  0.83089136481E+02  0.00000000000E+00 0.  1.
          2   -1    0    0  501    0  0.00000000000E+00 -0.00000000000E+00 -0.30145383063E+04  0.30145383063E+04  0.00000000000E+00 0.  1.
         36    2    1    2    0    0 -0.14210854715E-13  0.00000000000E+00 -0.29314491698E+04  0.30976274428E+04  0.10009503180E+04 0.  0.
         25    2    3    3    0    0 -0.30491680011E+02 -0.41806222202E+02 -0.15340943225E+03  0.20611891081E+03  0.12756586035E+03 0.  0.
         35    2    3    3    0    0  0.30491680011E+02  0.41806222202E+02 -0.27780397376E+04  0.28915085320E+04  0.80039946536E+03 0.  0.
         22    1    5    5    0    0  0.30325693133E+02 -0.30221561508E+02  0.48132618232E+02  0.64418470813E+02  0.00000000000E+00 0.  1.
         22    1    5    5    0    0  0.16598687741E+00  0.72027783710E+02 -0.28261723558E+04  0.28270900611E+04  0.00000000000E+00 0.  1.
          5    1    4    4  502    0  0.38725152038E+02  0.14779409076E+02 -0.22138630157E+02  0.47225811568E+02  0.47000000000E+01 0.  1.
         -5    1    4    4    0  502 -0.69216832049E+02 -0.56585631278E+02 -0.13127080209E+03  0.15889309925E+03  0.47000000000E+01 0.  1.
<mgrwt>
<rscale>  0 0.10009503E+04</rscale>
<asrwt>0</asrwt>
<pdfrwt beam="1">  1        2 0.46377514E+00 0.10009503E+04</pdfrwt>
<pdfrwt beam="2">  1       -2 0.12782944E-01 0.10009503E+04</pdfrwt>
<totfact> 0.85400513E+01</totfact>
</mgrwt>
</event>
<event>
 9    1  0.4412976E-036  0.9990779E+03  0.7818608E-02  0.8681917E-01
         -2   -1    0    0    0  501 -0.00000000000E+00  0.00000000000E+00  0.14823466299E+03  0.14823466299E+03  0.00000000000E+00 0. -1.
          2   -1    0    0  501    0  0.00000000000E+00 -0.00000000000E+00 -0.16834062864E+04  0.16834062864E+04  0.00000000000E+00 0. -1.
         36    2    1    2    0    0  0.00000000000E+00 -0.28421709430E-13 -0.15351716234E+04  0.18316409494E+04  0.99907790197E+03 0.  0.
         25    2    3    3    0    0 -0.16472419569E+02  0.10340710726E+03 -0.45833653554E+03  0.48600980771E+03  0.12316161309E+03 0.  0.
         35    2    3    3    0    0  0.16472419569E+02 -0.10340710726E+03 -0.10768350879E+04  0.13456311417E+04  0.80011561202E+03 0.  0.
         22    1    5    5    0    0  0.16895088614E+03 -0.37666997054E+03 -0.30650825327E+03  0.51417115629E+03  0.00000000000E+00 0.  1.
         22    1    5    5    0    0 -0.15247846657E+03  0.27326286328E+03 -0.77032683464E+03  0.83145998543E+03  0.00000000000E+00 0.  1.
          5    1    4    4  502    0 -0.19597825407E+02  0.70375822699E+02 -0.44326027390E+03  0.44926450071E+03  0.47000000000E+01 0.  1.
         -5    1    4    4    0  502  0.31254058379E+01  0.33031284560E+02 -0.15076261644E+02  0.36745307000E+02  0.47000000000E+01 0.  1.
<mgrwt>
<rscale>  0 0.99907790E+03</rscale>
<asrwt>0</asrwt>
<pdfrwt beam="1">  1        2 0.25898558E+00 0.99907790E+03</pdfrwt>
<pdfrwt beam="2">  1       -2 0.22805333E-01 0.99907790E+03</pdfrwt>
<totfact> 0.20139218E+02</totfact>
</mgrwt>
</event>
<event>
 9    1  0.4412976E-036  0.1000519E+04  0.7818608E-02  0.8680544E-01
          2   -1    0    0  501    0  0.00000000000E+00  0.00000000000E+00  0.25577596444E+04  0.25577596444E+04  0.00000000000E+00 0. -1.
         -2   -1    0    0    0  501 -0.00000000000E+00 -0.00000000000E+00 -0.97843234801E+02  0.97843234801E+02  0.00000000000E+00 0. -1.
         36    2    1    2    0    0  0.28421709430E-13  0.10658141036E-13  0.24599164096E+04  0.26556028792E+04  0.10005188203E+04 0.  0.
         25    2    3    3    0    0 -0.13889240620E+03  0.38412418840E+01  0.37567012004E+03  0.41876799097E+03  0.12219957254E+03 0.  0.
         35    2    3    3    0    0  0.13889240620E+03 -0.38412418840E+01  0.20842462896E+04  0.22368348883E+04  0.80002616585E+03 0.  0.
         22    1    5    5    0    0 -0.14549740920E+03  0.27649341520E+03  0.40917909665E+03  0.51482583256E+03  0.00000000000E+00 0.  1.
         22    1    5    5    0    0  0.28438981540E+03 -0.28033465709E+03  0.16750671930E+04  0.17220090557E+04  0.00000000000E+00 0.  1.
          5    1    4    4  502    0 -0.86286505331E+02  0.34969060026E+02  0.32834129621E+03  0.34131846267E+03  0.47000000000E+01 0. -1.
         -5    1    4    4    0  502 -0.52605900871E+02 -0.31127818142E+02  0.47328823829E+02  0.77449528299E+02  0.47000000000E+01 0. -1.
<mgrwt>
<rscale>  0 0.10005188E+04</rscale>
<asrwt>0</asrwt>
<pdfrwt beam="1">  1        2 0.39350143E+00 0.10005188E+04</pdfrwt>
<pdfrwt beam="2">  1       -2 0.15052807E-01 0.10005188E+04</pdfrwt>
<totfact> 0.12762372E+02</totfact>
</mgrwt>
</event>
<event>
 9    1  0.4412976E-036  0.1000060E+04  0.7818608E-02  0.8680981E-01
          1   -1    0    0  501    0  0.00000000000E+00  0.00000000000E+00  0.42553750184E+03  0.42553750184E+03  0.00000000000E+00 0. -1.
         -1   -1    0    0    0  501 -0.00000000000E+00 -0.00000000000E+00 -0.58756239786E+03  0.58756239786E+03  0.00000000000E+00 0. -1.
         36    2    1    2    0    0 -0.14210854715E-13  0.14210854715E-13 -0.16202489602E+03  0.10130998997E+04  0.10000596681E+04 0.  0.
         25    2    3    3    0    0 -0.41323865561E+02 -0.81893560943E+02 -0.13930852398E+03  0.20843398023E+03  0.12499456816E+03 0.  0.
         35    2    3    3    0    0  0.41323865561E+02  0.81893560943E+02 -0.22716372038E+02  0.80466591947E+03  0.79909761056E+03 0.  0.
         22    1    5    5    0    0 -0.37919421473E+03  0.39520485099E+02 -0.24205875749E+02  0.38201576623E+03  0.00000000000E+00 0.  1.
         22    1    5    5    0    0  0.42051808029E+03  0.42373075844E+02  0.14895037106E+01  0.42265015324E+03  0.00000000000E+00 0.  1.
          5    1    4    4  502    0 -0.35800880921E+02 -0.70192143134E+02 -0.11361451068E+02  0.79748433231E+02  0.47000000000E+01 0.  1.
         -5    1    4    4    0  502 -0.55229846395E+01 -0.11701417810E+02 -0.12794707291E+03  0.12868554700E+03  0.47000000000E+01 0.  1.
<mgrwt>
<rscale>  0 0.10000597E+04</rscale>
<asrwt>0</asrwt>
<pdfrwt beam="1">  1        1 0.65467307E-01 0.10000597E+04</pdfrwt>
<pdfrwt beam="2">  1       -1 0.90394216E-01 0.10000597E+04</pdfrwt>
<totfact> 0.78647955E+01</totfact>
</mgrwt>
</event>
<event>
 9    1  0.4412976E-036  0.9904871E+03  0.7818608E-02  0.8690150E-01
          1   -1    0    0  501    0  0.00000000000E+00  0.00000000000E+00  0.29897876346E+04  0.29897876346E+04  0.00000000000E+00 0.  1.
         -1   -1    0    0    0  501 -0.00000000000E+00 -0.00000000000E+00 -0.82034649506E+02  0.82034649506E+02  0.00000000000E+00 0.  1.
         36    2    1    2    0    0  0.00000000000E+00 -0.35527136788E-14  0.29077529851E+04  0.30718222841E+04  0.99048711389E+03 0.  0.
         25    2    3    3    0    0 -0.10544306693E+03 -0.25254926622E+02  0.73883084095E+03  0.75722309407E+03  0.12553784678E+03 0.  0.
         35    2    3    3    0    0  0.10544306693E+03  0.25254926622E+02  0.21689221441E+04  0.23145991900E+04  0.80086833591E+03 0.  0.
         22    1    5    5    0    0 -0.13170890308E+03 -0.15313125552E+02  0.22442151731E+00  0.13259629456E+03  0.00000000000E+00 0.  1.
         22    1    5    5    0    0  0.23715197001E+03  0.40568052174E+02  0.21686977226E+04  0.21820028954E+04  0.00000000000E+00 0.  1.
          5    1    4    4  502    0 -0.11619217983E+03  0.14332191156E+00  0.38226403263E+03  0.39956041325E+03  0.47000000000E+01 0.  1.
         -5    1    4    4    0  502  0.10749112898E+02 -0.25398248533E+02  0.35656680831E+03  0.35766268082E+03  0.47000000000E+01 0.  1.
<mgrwt>
<rscale>  0 0.99048711E+03</rscale>
<asrwt>0</asrwt>
<pdfrwt beam="1">  1        1 0.45996724E+00 0.99048711E+03</pdfrwt>
<pdfrwt beam="2">  1       -1 0.12620718E-01 0.99048711E+03</pdfrwt>
<totfact> 0.26903711E+01</totfact>
</mgrwt>
</event>
<event>
 9    1  0.4412976E-036  0.1000056E+04  0.7818608E-02  0.8680984E-01
          2   -1    0    0  501    0  0.00000000000E+00  0.00000000000E+00  0.13549635505E+04  0.13549635505E+04  0.00000000000E+00 0.  1.
         -2   -1    0    0    0  501 -0.00000000000E+00 -0.00000000000E+00 -0.18452759669E+03  0.18452759669E+03  0.00000000000E+00 0.  1.
         36    2    1    2    0    0  0.28421709430E-13  0.35527136788E-14  0.11704359538E+04  0.15394911472E+04  0.10000563336E+04 0.  0.
         25    2    3    3    0    0  0.99825440004E+02  0.24645072404E+02  0.72519141001E+02  0.17658307682E+03  0.12389535560E+03 0.  0.
         35    2    3    3    0    0 -0.99825440004E+02 -0.24645072404E+02  0.10979168128E+04  0.13629080704E+04  0.80095229718E+03 0.  0.
         22    1    5    5    0    0  0.24976686113E+03  0.44915667796E+02  0.93891664617E+03  0.97260751107E+03  0.00000000000E+00 0. -1.
         22    1    5    5    0    0 -0.34959230114E+03 -0.69560740200E+02  0.15900016663E+03  0.39030055929E+03  0.00000000000E+00 0. -1.
          5    1    4    4  502    0  0.19511540750E+02  0.39861611627E+01  0.89495267777E+02  0.91804589524E+02  0.47000000000E+01 0. -1.
         -5    1    4    4    0  502  0.80313899255E+02  0.20658911241E+02 -0.16976126775E+02  0.84778487292E+02  0.47000000000E+01 0. -1.
<mgrwt>
<rscale>  0 0.10000563E+04</rscale>
<asrwt>0</asrwt>
<pdfrwt beam="1">  1        2 0.20845592E+00 0.10000563E+04</pdfrwt>
<pdfrwt beam="2">  1       -2 0.28388862E-01 0.10000563E+04</pdfrwt>
<totfact> 0.20938957E+02</totfact>
</mgrwt>
</event>
<event>
 9    1  0.4412976E-036  0.1000812E+04  0.7818608E-02  0.8680265E-01
          2   -1    0    0  501    0  0.00000000000E+00  0.00000000000E+00  0.85496454815E+03  0.85496454815E+03  0.00000000000E+00 0. -1.
         -2   -1    0    0    0  501 -0.00000000000E+00 -0.00000000000E+00 -0.29288499677E+03  0.29288499677E+03  0.00000000000E+00 0. -1.
         36    2    1    2    0    0  0.21316282073E-13  0.00000000000E+00  0.56207955138E+03  0.11478495449E+04  0.10008122480E+04 0.  0.
         25    2    3    3    0    0 -0.73104901418E+01 -0.11955059073E+03  0.18898474752E+03  0.25635530349E+03  0.12512801372E+03 0.  0.
         35    2    3    3    0    0  0.73104901418E+01  0.11955059073E+03  0.37309480386E+03  0.89149424143E+03  0.80075992834E+03 0.  0.
         22    1    5    5    0    0  0.37672207152E+03  0.12529992129E+03  0.33612671626E+03  0.52019300152E+03  0.00000000000E+00 0.  1.
         22    1    5    5    0    0 -0.36941158138E+03 -0.57493305564E+01  0.36968087595E+02  0.37130123991E+03  0.00000000000E+00 0.  1.
          5    1    4    4  502    0 -0.22205996210E+02 -0.13641394895E+03  0.11816287557E+03  0.18189674791E+03  0.47000000000E+01 0. -1.
         -5    1    4    4    0  502  0.14895506068E+02  0.16863358222E+02  0.70821871951E+02  0.74458555574E+02  0.47000000000E+01 0. -1.
<mgrwt>
<rscale>  0 0.10008122E+04</rscale>
<asrwt>0</asrwt>
<pdfrwt beam="1">  1        2 0.13153301E+00 0.10008122E+04</pdfrwt>
<pdfrwt beam="2">  1       -2 0.45059231E-01 0.10008122E+04</pdfrwt>
<totfact> 0.17797659E+02</totfact>
</mgrwt>
</event>
<event>
 9    1  0.4412976E-036  0.1001088E+04  0.7818608E-02  0.8680003E-01
          2   -1    0    0  501    0  0.00000000000E+00  0.00000000000E+00  0.19100184373E+04  0.19100184373E+04  0.00000000000E+00 0.  1.
         -2   -1    0    0    0  501 -0.00000000000E+00 -0.00000000000E+00 -0.13117365383E+03  0.13117365383E+03  0.00000000000E+00 0.  1.
         36    2    1    2    0    0  0.00000000000E+00  0.00000000000E+00  0.17788447835E+04  0.20411920911E+04  0.10010876032E+04 0.  0.
         25    2    3    3    0    0  0.44088112859E+02 -0.69780158412E+02  0.57467384585E+03  0.59406888251E+03  0.12591574907E+03 0.  0.
         35    2    3    3    0    0 -0.44088112859E+02  0.69780158412E+02  0.12041709376E+04  0.14471232086E+04  0.79832631279E+03 0.  0.
         22    1    5    5    0    0  0.33610226252E+02 -0.35627599154E+02  0.12897561481E+04  0.12906858234E+04  0.00000000000E+00 0. -1.
         22    1    5    5    0    0 -0.77698339111E+02  0.10540775757E+03 -0.85585210456E+02  0.15643738525E+03  0.00000000000E+00 0. -1.
          5    1    4    4  502    0  0.32692940759E+02 -0.61345016229E+02  0.57492438011E+03  0.57913053126E+03  0.47000000000E+01 0. -1.
         -5    1    4    4    0  502  0.11395172101E+02 -0.84351421823E+01 -0.25053425783E+00  0.14938351256E+02  0.47000000000E+01 0. -1.
<mgrwt>
<rscale>  0 0.10010876E+04</rscale>
<asrwt>0</asrwt>
<pdfrwt beam="1">  1        2 0.29384897E+00 0.10010876E+04</pdfrwt>
<pdfrwt beam="2">  1       -2 0.20180564E-01 0.10010876E+04</pdfrwt>
<totfact> 0.18565881E+02</totfact>
</mgrwt>
</event>
<event>
 9    1  0.4412976E-036  0.9941471E+03  0.7818608E-02  0.8686632E-01
         -1   -1    0    0    0  501 -0.00000000000E+00  0.00000000000E+00  0.23023776232E+03  0.23023776232E+03  0.00000000000E+00 0. -1.
          1   -1    0    0  501    0  0.00000000000E+00 -0.00000000000E+00 -0.10731607297E+04  0.10731607297E+04  0.00000000000E+00 0. -1.
         36    2    1    2    0    0  0.00000000000E+00  0.10658141036E-13 -0.84292296737E+03  0.13033984920E+04  0.99414712194E+03 0.  0.
         25    2    3    3    0    0  0.11998814388E+03  0.29234013989E+02 -0.87735536710E+02  0.19661813984E+03  0.12533709054E+03 0.  0.
         35    2    3    3    0    0 -0.11998814388E+03 -0.29234013989E+02 -0.75518743066E+03  0.11067803522E+04  0.79962673186E+03 0.  0.
         22    1    5    5    0    0  0.29798725099E+02  0.25563736208E+03  0.29113121768E+02  0.25900964995E+03  0.00000000000E+00 0. -1.
         22    1    5    5    0    0 -0.14978686898E+03 -0.28487137607E+03 -0.78430055243E+03  0.84777070223E+03  0.00000000000E+00 0. -1.
          5    1    4    4  502    0 -0.16949538048E+02  0.33215242642E+02 -0.29072656960E+02  0.47516824037E+02  0.47000000000E+01 0. -1.
         -5    1    4    4    0  502  0.13693768193E+03 -0.39812286536E+01 -0.58662879750E+02  0.14910131580E+03  0.47000000000E+01 0. -1.
<mgrwt>
<rscale>  0 0.99414712E+03</rscale>
<asrwt>0</asrwt>
<pdfrwt beam="1">  1        1 0.16510165E+00 0.99414712E+03</pdfrwt>
<pdfrwt beam="2">  1       -1 0.35421195E-01 0.99414712E+03</pdfrwt>
<totfact> 0.11230035E+02</totfact>
</mgrwt>
</event>
<event>
 9    1  0.4412976E-036  0.9997756E+03  0.7818608E-02  0.8681252E-01
         -1   -1    0    0    0  501 -0.00000000000E+00  0.00000000000E+00  0.38158471249E+03  0.38158471249E+03  0.00000000000E+00 0. -1.
          1   -1    0    0  501    0  0.00000000000E+00 -0.00000000000E+00 -0.65486857463E+03  0.65486857463E+03  0.00000000000E+00 0. -1.
         36    2    1    2    0    0  0.71054273576E-14  0.00000000000E+00 -0.27328386214E+03  0.10364532871E+04  0.99977564837E+03 0.  0.
         25    2    3    3    0    0  0.37628539482E+02  0.29713539789E+02  0.86810714558E+02  0.15788807202E+03  0.12285658995E+03 0.  0.
         35    2    3    3    0    0 -0.37628539482E+02 -0.29713539789E+02 -0.36009457670E+03  0.87856521509E+03  0.79994370525E+03 0.  0.
         22    1    5    5    0    0  0.10897873067E+03  0.12515594919E+03  0.21129617228E+03  0.26867535759E+03  0.00000000000E+00 0. -1.
         22    1    5    5    0    0 -0.14660727015E+03 -0.15486948898E+03 -0.57139074897E+03  0.60988985751E+03  0.00000000000E+00 0. -1.
          5    1    4    4  502    0  0.58407752973E+02  0.63573674023E+02  0.79024786812E+02  0.11713276470E+03  0.47000000000E+01 0.  1.
         -5    1    4    4    0  502 -0.20779213491E+02 -0.33860134235E+02  0.77859277465E+01  0.40755307318E+02  0.47000000000E+01 0.  1.
<mgrwt>
<rscale>  0 0.99977565E+03</rscale>
<asrwt>0</asrwt>
<pdfrwt beam="1">  1        1 0.10074901E+00 0.99977565E+03</pdfrwt>
<pdfrwt beam="2">  1       -1 0.58705341E-01 0.99977565E+03</pdfrwt>
<totfact> 0.10237090E+02</totfact>
</mgrwt>
</event>
<event>
 9    1  0.4412976E-036  0.9937331E+03  0.7818608E-02  0.8687029E-01
          2   -1    0    0  501    0  0.00000000000E+00  0.00000000000E+00  0.87168535296E+03  0.87168535296E+03  0.00000000000E+00 0.  1.
         -2   -1    0    0    0  501 -0.00000000000E+00 -0.00000000000E+00 -0.28321731801E+03  0.28321731801E+03  0.00000000000E+00 0.  1.
         36    2    1    2    0    0 -0.28421709430E-13  0.00000000000E+00  0.58846803495E+03  0.11549026710E+04  0.99373313886E+03 0.  0.
         25    2    3    3    0    0 -0.68182022105E+02 -0.10794891529E+03  0.16271823777E+03  0.24049421483E+03  0.12271302299E+03 0.  0.
         35    2    3    3    0    0  0.68182022105E+02  0.10794891529E+03  0.42574979717E+03  0.91440845614E+03  0.79911086742E+03 0.  0.
         22    1    5    5    0    0  0.35529287763E+03  0.25299386841E+03  0.39983381678E+03  0.59169756413E+03  0.00000000000E+00 0.  1.
         22    1    5    5    0    0 -0.28711085553E+03 -0.14504495312E+03  0.25915980389E+02  0.32271089202E+03  0.00000000000E+00 0.  1.
          5    1    4    4  502    0 -0.54033990247E+02 -0.78777541747E+00  0.13008866017E+02  0.55781836534E+02  0.47000000000E+01 0. -1.
         -5    1    4    4    0  502 -0.14148031858E+02 -0.10716113987E+03  0.14970937176E+03  0.18471237830E+03  0.47000000000E+01 0. -1.
<mgrwt>
<rscale>  0 0.99373314E+03</rscale>
<asrwt>0</asrwt>
<pdfrwt beam="1">  1        2 0.13410544E+00 0.99373314E+03</pdfrwt>
<pdfrwt beam="2">  1       -2 0.43571896E-01 0.99373314E+03</pdfrwt>
<totfact> 0.18519107E+02</totfact>
</mgrwt>
</event>
<event>
 9    1  0.4412976E-036  0.1000973E+04  0.7818608E-02  0.8680112E-01
          1   -1    0    0  501    0  0.00000000000E+00  0.00000000000E+00  0.11673556473E+04  0.11673556473E+04  0.00000000000E+00 0.  1.
         -1   -1    0    0    0  501 -0.00000000000E+00 -0.00000000000E+00 -0.21457602683E+03  0.21457602683E+03  0.00000000000E+00 0.  1.
         36    2    1    2    0    0 -0.71054273576E-14 -0.35527136788E-13  0.95277962045E+03  0.13819316741E+04  0.10009726004E+04 0.  0.
         25    2    3    3    0    0 -0.90379926224E+01  0.94961506629E+01 -0.14559021424E+02  0.12646644469E+03  0.12493972282E+03 0.  0.
         35    2    3    3    0    0  0.90379926224E+01 -0.94961506629E+01  0.96733864188E+03  0.12554652294E+04  0.80017312631E+03 0.  0.
         22    1    5    5    0    0  0.61513971958E+02 -0.39935556354E+03  0.43727566484E+03  0.59538125762E+03  0.00000000000E+00 0. -1.
         22    1    5    5    0    0 -0.52475979336E+02  0.38985941287E+03  0.53006297704E+03  0.66008397181E+03  0.00000000000E+00 0. -1.
          5    1    4    4  502    0 -0.48216507767E+02 -0.13924658307E+02  0.33103960322E+02  0.60304974249E+02  0.47000000000E+01 0. -1.
         -5    1    4    4    0  502  0.39178515144E+02  0.23420808970E+02 -0.47662981745E+02  0.66161470438E+02  0.47000000000E+01 0. -1.
<mgrwt>
<rscale>  0 0.10009726E+04</rscale>
<asrwt>0</asrwt>
<pdfrwt beam="1">  1        1 0.17959317E+00 0.10009726E+04</pdfrwt>
<pdfrwt beam="2">  1       -1 0.33011697E-01 0.10009726E+04</pdfrwt>
<totfact> 0.10751709E+02</totfact>
</mgrwt>
</event>
<event>
 9    1  0.4412976E-036  0.1000433E+04  0.7818608E-02  0.8680625E-01
         -1   -1    0    0    0  501 -0.00000000000E+00  0.00000000000E+00  0.79052485317E+03  0.79052485317E+03  0.00000000000E+00 0.  1.
          1   -1    0    0  501    0  0.00000000000E+00 -0.00000000000E+00 -0.31651972058E+03  0.31651972058E+03  0.00000000000E+00 0.  1.
         36    2    1    2    0    0  0.00000000000E+00  0.00000000000E+00  0.47400513258E+03  0.11070445738E+04  0.10004333174E+04 0.  0.
         25    2    3    3    0    0 -0.92708626093E+02  0.26154309152E+02  0.20300145208E+03  0.25730362488E+03  0.12536597860E+03 0.  0.
         35    2    3    3    0    0  0.92708626093E+02 -0.26154309152E+02  0.27100368051E+03  0.84974094888E+03  0.79958598544E+03 0.  0.
         22    1    5    5    0    0  0.69911686483E+02 -0.11092749160E+03 -0.27079877129E+03  0.30087294134E+03  0.00000000000E+00 0.  1.
         22    1    5    5    0    0  0.22796939611E+02  0.84773182450E+02  0.54180245180E+03  0.54886800753E+03  0.00000000000E+00 0.  1.
          5    1    4    4  502    0  0.24727928906E+01  0.57487031614E+02  0.70996745302E+02  0.91506837733E+02  0.47000000000E+01 0. -1.
         -5    1    4    4    0  502 -0.95181418984E+02 -0.31332722462E+02  0.13200470677E+03  0.16579678714E+03  0.47000000000E+01 0. -1.
<mgrwt>
<rscale>  0 0.10004333E+04</rscale>
<asrwt>0</asrwt>
<pdfrwt beam="1">  1        1 0.48695342E-01 0.10004333E+04</pdfrwt>
<pdfrwt beam="2">  1       -1 0.12161921E+00 0.10004333E+04</pdfrwt>
<totfact> 0.58825418E+01</totfact>
</mgrwt>
</event>
<event>
 9    1  0.4412976E-036  0.1000172E+04  0.7818608E-02  0.8680874E-01
          1   -1    0    0  501    0  0.00000000000E+00  0.00000000000E+00  0.21169182673E+04  0.21169182673E+04  0.00000000000E+00 0. -1.
         -1   -1    0    0    0  501 -0.00000000000E+00 -0.00000000000E+00 -0.11813675478E+03  0.11813675478E+03  0.00000000000E+00 0. -1.
         36    2    1    2    0    0  0.14210854715E-13  0.14210854715E-13  0.19987815125E+04  0.22350550220E+04  0.10001716937E+04 0.  0.
         25    2    3    3    0    0  0.23841085203E+02  0.11979293621E+03  0.28806943419E+03  0.33673078839E+03  0.12443825788E+03 0.  0.
         35    2    3    3    0    0 -0.23841085203E+02 -0.11979293621E+03  0.17107120783E+04  0.18983242336E+04  0.81374463827E+03 0.  0.
         22    1    5    5    0    0  0.13195438042E+03 -0.39230113737E+03  0.13868826637E+04  0.14473270756E+04  0.00000000000E+00 0.  1.
         22    1    5    5    0    0 -0.15579546562E+03  0.27250820116E+03  0.32382941459E+03  0.45099715804E+03  0.00000000000E+00 0.  1.
          5    1    4    4  502    0  0.18806579481E+02  0.12793057312E+03  0.14935803513E+03  0.19761030243E+03  0.47000000000E+01 0. -1.
         -5    1    4    4    0  502  0.50345057222E+01 -0.81376369082E+01  0.13871139907E+03  0.13912048596E+03  0.47000000000E+01 0. -1.
<mgrwt>
<rscale>  0 0.10001717E+04</rscale>
<asrwt>0</asrwt>
<pdfrwt beam="1">  1        1 0.32567971E+00 0.10001717E+04</pdfrwt>
<pdfrwt beam="2">  1       -1 0.18174887E-01 0.10001717E+04</pdfrwt>
<totfact> 0.61736597E+01</totfact>
</mgrwt>
</event>
<event>
 9    1  0.4412976E-036  0.1000422E+04  0.7818608E-02  0.8680636E-01
         -2   -1    0    0    0  501 -0.00000000000E+00  0.00000000000E+00  0.34955398448E+03  0.34955398448E+03  0.00000000000E+00 0. -1.
          2   -1    0    0  501    0  0.00000000000E+00 -0.00000000000E+00 -0.71580043094E+03  0.71580043094E+03  0.00000000000E+00 0. -1.
         36    2    1    2    0    0  0.14210854715E-13  0.14210854715E-13 -0.36624644646E+03  0.10653544154E+04  0.10004216965E+04 0.  0.
         25    2    3    3    0    0  0.75255295413E+02  0.11260036471E+03 -0.30844083673E+02  0.18745035951E+03  0.12587326230E+03 0.  0.
         35    2    3    3    0    0 -0.75255295413E+02 -0.11260036471E+03 -0.33540236278E+03  0.87790405590E+03  0.79992411189E+03 0.  0.
         22    1    5    5    0    0 -0.95564882074E+02  0.69100365875E+02 -0.56909690472E+03  0.58118740026E+03  0.00000000000E+00 0. -1.
         22    1    5    5    0    0  0.20309586661E+02 -0.18170073059E+03  0.23369454194E+03  0.29671665565E+03  0.00000000000E+00 0. -1.
          5    1    4    4  502    0  0.10039094458E+03  0.12135946146E+03 -0.30039056330E+02  0.16040852703E+03  0.47000000000E+01 0. -1.
         -5    1    4    4    0  502 -0.25135649168E+02 -0.87590967424E+01 -0.80502734306E+00  0.27041832480E+02  0.47000000000E+01 0. -1.
<mgrwt>
<rscale>  0 0.10004217E+04</rscale>
<asrwt>0</asrwt>
<pdfrwt beam="1">  1        2 0.11012314E+00 0.10004217E+04</pdfrwt>
<pdfrwt beam="2">  1       -2 0.53777536E-01 0.10004217E+04</pdfrwt>
<totfact> 0.15702017E+02</totfact>
</mgrwt>
</event>
<event>
 9    1  0.4412976E-036  0.9995075E+03  0.7818608E-02  0.8681507E-01
         -2   -1    0    0    0  501 -0.00000000000E+00  0.00000000000E+00  0.10381626870E+03  0.10381626870E+03  0.00000000000E+00 0. -1.
          2   -1    0    0  501    0  0.00000000000E+00 -0.00000000000E+00 -0.24057288884E+04  0.24057288884E+04  0.00000000000E+00 0. -1.
         36    2    1    2    0    0  0.00000000000E+00 -0.26645352591E-13 -0.23019126197E+04  0.25095451571E+04  0.99950747213E+03 0.  0.
         25    2    3    3    0    0  0.50293447030E+02 -0.71015872212E+01 -0.10593487217E+03  0.17163404682E+03  0.12512467994E+03 0.  0.
         35    2    3    3    0    0 -0.50293447030E+02  0.71015872212E+01 -0.21959777476E+04  0.23379111103E+04  0.80058118178E+03 0.  0.
         22    1    5    5    0    0  0.12173175767E+03  0.28632480491E+03 -0.37326921627E+03  0.48593252881E+03  0.00000000000E+00 0.  1.
         22    1    5    5    0    0 -0.17202520470E+03 -0.27922321769E+03 -0.18227085313E+04  0.18519785815E+04  0.00000000000E+00 0.  1.
          5    1    4    4  502    0  0.90691039244E+02 -0.76503844718E+00 -0.55097767785E+02  0.10622289724E+03  0.47000000000E+01 0.  1.
         -5    1    4    4    0  502 -0.40397592214E+02 -0.63365487740E+01 -0.50837104382E+02  0.65411149577E+02  0.47000000000E+01 0.  1.
<mgrwt>
<rscale>  0 0.99950747E+03</rscale>
<asrwt>0</asrwt>
<pdfrwt beam="1">  1        2 0.37011210E+00 0.99950747E+03</pdfrwt>
<pdfrwt beam="2">  1       -2 0.15971735E-01 0.99950747E+03</pdfrwt>
<totfact> 0.14284525E+02</totfact>
</mgrwt>
</event>
<event>
 9    1  0.4412976E-036  0.1013181E+04  0.7818608E-02  0.8668586E-01
         -2   -1    0    0    0  501 -0.00000000000E+00  0.00000000000E+00  0.48694645588E+03  0.48694645588E+03  0.00000000000E+00 0. -1.
          2   -1    0    0  501    0  0.00000000000E+00 -0.00000000000E+00 -0.52702744380E+03  0.52702744380E+03  0.00000000000E+00 0. -1.
         36    2    1    2    0    0 -0.35527136788E-14  0.42632564146E-13 -0.40080987916E+02  0.10139738997E+04  0.10131814169E+04 0.  0.
         25    2    3    3    0    0  0.26893658102E+02  0.34882157669E+02 -0.15303872730E+03  0.20276331738E+03  0.12550727887E+03 0.  0.
         35    2    3    3    0    0 -0.26893658102E+02 -0.34882157669E+02  0.11295773939E+03  0.81121058230E+03  0.80209919846E+03 0.  0.
         22    1    5    5    0    0  0.91547105919E+01  0.31530406798E+03  0.27978992778E+03  0.42164305721E+03  0.00000000000E+00 0. -1.
         22    1    5    5    0    0 -0.36048368694E+02 -0.35018622564E+03 -0.16683218839E+03  0.38956752509E+03  0.00000000000E+00 0. -1.
          5    1    4    4  502    0 -0.24880963503E+01 -0.15257054383E+02  0.16732160430E+02  0.23259912393E+02  0.47000000000E+01 0.  1.
         -5    1    4    4    0  502  0.29381754453E+02  0.50139212052E+02 -0.16977088773E+03  0.17950340499E+03  0.47000000000E+01 0.  1.
<mgrwt>
<rscale>  0 0.10131814E+04</rscale>
<asrwt>0</asrwt>
<pdfrwt beam="1">  1        2 0.81081145E-01 0.10131814E+04</pdfrwt>
<pdfrwt beam="2">  1       -2 0.74914839E-01 0.10131814E+04</pdfrwt>
<totfact> 0.11197883E+02</totfact>
</mgrwt>
</event>
<event>
 9    1  0.4412976E-036  0.1000050E+04  0.7818608E-02  0.8680991E-01
          2   -1    0    0  501    0  0.00000000000E+00  0.00000000000E+00  0.83832865600E+03  0.83832865600E+03  0.00000000000E+00 0. -1.
         -2   -1    0    0    0  501 -0.00000000000E+00 -0.00000000000E+00 -0.29824192501E+03  0.29824192501E+03  0.00000000000E+00 0. -1.
         36    2    1    2    0    0  0.28421709430E-13 -0.35527136788E-14  0.54008673099E+03  0.11365705810E+04  0.10000495031E+04 0.  0.
         25    2    3    3    0    0 -0.11923525459E+03  0.31020663804E+02  0.15039980721E+03  0.23851433635E+03  0.13816533254E+03 0.  0.
         35    2    3    3    0    0  0.11923525459E+03 -0.31020663804E+02  0.38968692378E+03  0.89805624466E+03  0.79966855164E+03 0.  0.
         22    1    5    5    0    0  0.90684307592E+02  0.69121336361E+00  0.63885566094E+03  0.64526016221E+03  0.00000000000E+00 0. -1.
         22    1    5    5    0    0  0.28550946994E+02 -0.31711877168E+02 -0.24916873715E+03  0.25279608245E+03  0.00000000000E+00 0. -1.
          5    1    4    4  502    0 -0.13067825562E+03  0.49228473285E+02  0.72197669314E+02  0.15727314624E+03  0.47000000000E+01 0.  1.
         -5    1    4    4    0  502  0.11443001031E+02 -0.18207809481E+02  0.78202137898E+02  0.81241190110E+02  0.47000000000E+01 0.  1.
<mgrwt>
<rscale>  0 0.10000495E+04</rscale>
<asrwt>0</asrwt>
<pdfrwt beam="1">  1        2 0.12897364E+00 0.10000495E+04</pdfrwt>
<pdfrwt beam="2">  1       -2 0.45883373E-01 0.10000495E+04</pdfrwt>
<totfact> 0.17628941E+02</totfact>
</mgrwt>
</event>
<event>
 9    1  0.4412976E-036  0.9994823E+03  0.7818608E-02  0.8681531E-01
          2   -1    0    0  501    0  0.00000000000E+00  0.00000000000E+00  0.17743932736E+04  0.17743932736E+04  0.00000000000E+00 0.  1.
         -2   -1    0    0    0  501 -0.00000000000E+00 -0.00000000000E+00 -0.14074739822E+03  0.14074739822E+03  0.00000000000E+00 0.  1.
         36    2    1    2    0    0  0.00000000000E+00  0.14210854715E-13  0.16336458754E+04  0.19151406719E+04  0.99948233940E+03 0.  0.
         25    2    3    3    0    0 -0.54533596394E+02  0.72917662224E+02  0.50922823789E+03  0.53206802539E+03  0.12446721167E+03 0.  0.
         35    2    3    3    0    0  0.54533596394E+02 -0.72917662224E+02  0.11244176375E+04  0.13830726465E+04  0.80017749484E+03 0.  0.
         22    1    5    5    0    0 -0.31074147108E+03 -0.12104792695E+03  0.87965626009E+03  0.94074863720E+03  0.00000000000E+00 0.  1.
         22    1    5    5    0    0  0.36527506747E+03  0.48130264727E+02  0.24476137744E+03  0.44232400928E+03  0.00000000000E+00 0.  1.
          5    1    4    4  502    0 -0.23254093108E+01  0.61505825839E+02  0.88314651959E+02  0.10774944033E+03  0.47000000000E+01 0. -1.
         -5    1    4    4    0  502 -0.52208187083E+02  0.11411836385E+02  0.42091358593E+03  0.42431858506E+03  0.47000000000E+01 0. -1.
<mgrwt>
<rscale>  0 0.99948234E+03</rscale>
<asrwt>0</asrwt>
<pdfrwt beam="1">  1        2 0.27298356E+00 0.99948234E+03</pdfrwt>
<pdfrwt beam="2">  1       -2 0.21653447E-01 0.99948234E+03</pdfrwt>
<totfact> 0.19596348E+02</totfact>
</mgrwt>
</event>
<event>
 9    1  0.4412976E-036  0.9997088E+03  0.7818608E-02  0.8681315E-01
         -1   -1    0    0    0  501 -0.00000000000E+00  0.00000000000E+00  0.18444232921E+03  0.18444232921E+03  0.00000000000E+00 0. -1.
          1   -1    0    0  501    0  0.00000000000E+00 -0.00000000000E+00 -0.13546480217E+04  0.13546480217E+04  0.00000000000E+00 0. -1.
         36    2    1    2    0    0  0.00000000000E+00 -0.14210854715E-13 -0.11702056925E+04  0.15390903509E+04  0.99970883039E+03 0.  0.
         25    2    3    3    0    0 -0.89925576288E+02  0.44677771060E+02 -0.37182712798E+03  0.40499306478E+03  0.12522482547E+03 0.  0.
         35    2    3    3    0    0  0.89925576288E+02 -0.44677771060E+02 -0.79837856454E+03  0.11340972862E+04  0.79917808383E+03 0.  0.
         22    1    5    5    0    0 -0.14956215128E+03 -0.14874087293E+03  0.73954250072E+02  0.22352162195E+03  0.00000000000E+00 0.  1.
         22    1    5    5    0    0  0.23948772756E+03  0.10406310187E+03 -0.87233281461E+03  0.91057566422E+03  0.00000000000E+00 0.  1.
          5    1    4    4  502    0 -0.32852094818E+02 -0.14513843995E+02 -0.27714817998E+03  0.27950512601E+03  0.47000000000E+01 0.  1.
         -5    1    4    4    0  502 -0.57073481470E+02  0.59191615055E+02 -0.94678948004E+02  0.12548793876E+03  0.47000000000E+01 0.  1.
<mgrwt>
<rscale>  0 0.99970883E+03</rscale>
<asrwt>0</asrwt>
<pdfrwt beam="1">  1        1 0.20840738E+00 0.99970883E+03</pdfrwt>
<pdfrwt beam="2">  1       -1 0.28375744E-01 0.99970883E+03</pdfrwt>
<totfact> 0.10143884E+02</totfact>
</mgrwt>
</event>
<event>
 9    1  0.4412976E-036  0.9973422E+03  0.7818608E-02  0.8683573E-01
         -2   -1    0    0    0  501 -0.00000000000E+00  0.00000000000E+00  0.83607457780E+02  0.83607457780E+02  0.00000000000E+00 0.  1.
          2   -1    0    0  501    0  0.00000000000E+00 -0.00000000000E+00 -0.29742907357E+04  0.29742907357E+04  0.00000000000E+00 0.  1.
         36    2    1    2    0    0  0.00000000000E+00 -0.14210854715E-13 -0.28906832779E+04  0.30578981935E+04  0.99734224238E+03 0.  0.
         25    2    3    3    0    0  0.51969889722E+01  0.81857831440E+02 -0.20270497432E+03  0.25212831145E+03  0.12550563955E+03 0.  0.
         35    2    3    3    0    0 -0.51969889722E+01 -0.81857831440E+02 -0.26879783036E+04  0.28057698820E+04  0.80024343608E+03 0.  0.
         22    1    5    5    0    0  0.46673325002E+02 -0.18673351930E+03 -0.10330256932E+03  0.21844731018E+03  0.00000000000E+00 0.  1.
         22    1    5    5    0    0 -0.51870313974E+02  0.10487568786E+03 -0.25846757343E+04  0.25873225718E+04  0.00000000000E+00 0.  1.
          5    1    4    4  502    0  0.52421174390E+02  0.57781074323E+02 -0.17603000091E+03  0.19260135850E+03  0.47000000000E+01 0. -1.
         -5    1    4    4    0  502 -0.47224185417E+02  0.24076757117E+02 -0.26674973404E+02  0.59526952952E+02  0.47000000000E+01 0. -1.
<mgrwt>
<rscale>  0 0.99734224E+03</rscale>
<asrwt>0</asrwt>
<pdfrwt beam="1">  1        2 0.45758324E+00 0.99734224E+03</pdfrwt>
<pdfrwt beam="2">  1       -2 0.12862684E-01 0.99734224E+03</pdfrwt>
<totfact> 0.89930396E+01</totfact>
</mgrwt>
</event>
<event>
 9    1  0.4412976E-036  0.1000986E+04  0.7818608E-02  0.8680100E-01
         -2   -1    0    0    0  501 -0.00000000000E+00  0.00000000000E+00  0.90120659722E+03  0.90120659722E+03  0.00000000000E+00 0. -1.
          2   -1    0    0  501    0  0.00000000000E+00 -0.00000000000E+00 -0.27795318998E+03  0.27795318998E+03  0.00000000000E+00 0. -1.
         36    2    1    2    0    0  0.00000000000E+00  0.28421709430E-13  0.62325340724E+03  0.11791597872E+04  0.10009860109E+04 0.  0.
         25    2    3    3    0    0  0.13407627608E+03 -0.36599101402E+02  0.13843779356E+03  0.23268576653E+03  0.12514671881E+03 0.  0.
         35    2    3    3    0    0 -0.13407627608E+03  0.36599101402E+02  0.48481561368E+03  0.94647402066E+03  0.80090633066E+03 0.  0.
         22    1    5    5    0    0 -0.24506613648E+03 -0.32669240396E+03  0.13515326907E+03  0.43017641055E+03  0.00000000000E+00 0.  1.
         22    1    5    5    0    0  0.11098986040E+03  0.36329150536E+03  0.34966234460E+03  0.51629761011E+03  0.00000000000E+00 0.  1.
          5    1    4    4  502    0  0.73006865965E+02 -0.76495719757E+01 -0.53359854855E+01  0.73750126579E+02  0.47000000000E+01 0.  1.
         -5    1    4    4    0  502  0.61069410115E+02 -0.28949529427E+02  0.14377377905E+03  0.15893563995E+03  0.47000000000E+01 0.  1.
<mgrwt>
<rscale>  0 0.10009860E+04</rscale>
<asrwt>0</asrwt>
<pdfrwt beam="1">  1        2 0.42762030E-01 0.10009860E+04</pdfrwt>
<pdfrwt beam="2">  1       -2 0.13864717E+00 0.10009860E+04</pdfrwt>
<totfact> 0.50382521E+01</totfact>
</mgrwt>
</event>
<event>
 9    1  0.4412976E-036  0.9994220E+03  0.7818608E-02  0.8681589E-01
         -1   -1    0    0    0  501 -0.00000000000E+00  0.00000000000E+00  0.10013866337E+03  0.10013866337E+03  0.00000000000E+00 0. -1.
          1   -1    0    0  501    0  0.00000000000E+00 -0.00000000000E+00 -0.24936531937E+04  0.24936531937E+04  0.00000000000E+00 0. -1.
         36    2    1    2    0    0 -0.28421709430E-13 -0.14210854715E-13 -0.23935145303E+04  0.25937918571E+04  0.99942202845E+03 0.  0.
         25    2    3    3    0    0 -0.85962689124E+02 -0.72662767959E+02 -0.23538374882E+03  0.28932801598E+03  0.12504291204E+03 0.  0.
         35    2    3    3    0    0  0.85962689124E+02  0.72662767959E+02 -0.21581307815E+04  0.23044638411E+04  0.80022225855E+03 0.  0.
         22    1    5    5    0    0  0.35224335826E+03 -0.21010964173E+03 -0.12841832607E+04  0.13480905355E+04  0.00000000000E+00 0.  1.
         22    1    5    5    0    0 -0.26628066913E+03  0.28277240969E+03 -0.87394752083E+03  0.95637330557E+03  0.00000000000E+00 0.  1.
          5    1    4    4  502    0 -0.11473819815E+03 -0.77409491676E+02 -0.19934061315E+03  0.24272588153E+03  0.47000000000E+01 0.  1.
         -5    1    4    4    0  502  0.28775509024E+02  0.47467237166E+01 -0.36043135676E+02  0.46602134447E+02  0.47000000000E+01 0.  1.
<mgrwt>
<rscale>  0 0.99942203E+03</rscale>
<asrwt>0</asrwt>
<pdfrwt beam="1">  1        1 0.38363895E+00 0.99942203E+03</pdfrwt>
<pdfrwt beam="2">  1       -1 0.15405948E-01 0.99942203E+03</pdfrwt>
<totfact> 0.43936080E+01</totfact>
</mgrwt>
</event>
<event>
 9    1  0.4412976E-036  0.9933351E+03  0.7818608E-02  0.8687411E-01
         -2   -1    0    0    0  501 -0.00000000000E+00  0.00000000000E+00  0.81744978399E+02  0.81744978399E+02  0.00000000000E+00 0.  1.
          2   -1    0    0  501    0  0.00000000000E+00 -0.00000000000E+00 -0.30176610437E+04  0.30176610437E+04  0.00000000000E+00 0.  1.
         36    2    1    2    0    0  0.00000000000E+00  0.28421709430E-13 -0.29359160653E+04  0.30994060221E+04  0.99333506297E+03 0.  0.
         25    2    3    3    0    0  0.21225767871E+02 -0.13129003186E+03 -0.51864462162E+03  0.54998166711E+03  0.12569799094E+03 0.  0.
         35    2    3    3    0    0 -0.21225767871E+02  0.13129003186E+03 -0.24172714436E+04  0.25494243550E+04  0.79917188622E+03 0.  0.
         22    1    5    5    0    0 -0.74835956268E+02 -0.33260465779E+03 -0.92709498646E+03  0.98779116855E+03  0.00000000000E+00 0.  1.
         22    1    5    5    0    0  0.53610188397E+02  0.46389468964E+03 -0.14901764572E+04  0.15616331864E+04  0.00000000000E+00 0.  1.
          5    1    4    4  502    0 -0.36892134823E+02 -0.11054144051E+03 -0.39268370202E+03  0.40963766857E+03  0.47000000000E+01 0. -1.
         -5    1    4    4    0  502  0.58117902694E+02 -0.20748591342E+02 -0.12596091961E+03  0.14034399854E+03  0.47000000000E+01 0. -1.
<mgrwt>
<rscale>  0 0.99333506E+03</rscale>
<asrwt>0</asrwt>
<pdfrwt beam="1">  1        2 0.46425549E+00 0.99333506E+03</pdfrwt>
<pdfrwt beam="2">  1       -2 0.12576152E-01 0.99333506E+03</pdfrwt>
<totfact> 0.87340386E+01</totfact>
</mgrwt>
</event>
<event>
 9    1  0.4412976E-036  0.9993431E+03  0.7818608E-02  0.8681664E-01
          2   -1    0    0  501    0  0.00000000000E+00  0.00000000000E+00  0.12331920000E+04  0.12331920000E+04  0.00000000000E+00 0.  1.
         -2   -1    0    0    0  501 -0.00000000000E+00 -0.00000000000E+00 -0.20245966639E+03  0.20245966639E+03  0.00000000000E+00 0.  1.
         36    2    1    2    0    0 -0.14210854715E-13  0.71054273576E-14  0.10307323337E+04  0.14356516664E+04  0.99934306606E+03 0.  0.
         25    2    3    3    0    0 -0.10271600447E+03  0.67384469760E+01  0.55062155782E+02  0.16968957284E+03  0.12315326178E+03 0.  0.
         35    2    3    3    0    0  0.10271600447E+03 -0.67384469760E+01  0.97567017787E+03  0.12659620936E+04  0.80008233462E+03 0.  0.
         22    1    5    5    0    0  0.29902554764E+03  0.31116195782E+03  0.56122735441E+03  0.70796481938E+03  0.00000000000E+00 0. -1.
         22    1    5    5    0    0 -0.19630954317E+03 -0.31790040480E+03  0.41444282346E+03  0.55799727421E+03  0.00000000000E+00 0. -1.
          5    1    4    4  502    0 -0.55000663689E+02  0.29071922166E+02  0.87633120948E+02  0.10757278258E+03  0.47000000000E+01 0. -1.
         -5    1    4    4    0  502 -0.47715340785E+02 -0.22333475191E+02 -0.32570965166E+02  0.62116790259E+02  0.47000000000E+01 0. -1.
<mgrwt>
<rscale>  0 0.99934307E+03</rscale>
<asrwt>0</asrwt>
<pdfrwt beam="1">  1        2 0.18972184E+00 0.99934307E+03</pdfrwt>
<pdfrwt beam="2">  1       -2 0.31147642E-01 0.99934307E+03</pdfrwt>
<totfact> 0.20813476E+02</totfact>
</mgrwt>
</event>
<event>
 9    1  0.4412976E-036  0.1000277E+04  0.7818608E-02  0.8680774E-01
         -2   -1    0    0    0  501 -0.00000000000E+00  0.00000000000E+00  0.65023388038E+03  0.65023388038E+03  0.00000000000E+00 0. -1.
          2   -1    0    0  501    0  0.00000000000E+00 -0.00000000000E+00 -0.38468987467E+03  0.38468987467E+03  0.00000000000E+00 0. -1.
         36    2    1    2    0    0  0.00000000000E+00  0.00000000000E+00  0.26554400571E+03  0.10349237551E+04  0.10002767416E+04 0.  0.
         25    2    3    3    0    0  0.10106611220E+03  0.89566043385E+02  0.89083220099E+02  0.20456069804E+03  0.12519114951E+03 0.  0.
         35    2    3    3    0    0 -0.10106611220E+03 -0.89566043385E+02  0.17646078561E+03  0.83036305701E+03  0.80007997252E+03 0.  0.
         22    1    5    5    0    0 -0.17872122188E+03 -0.20276580977E+02  0.47834416415E+03  0.51104359331E+03  0.00000000000E+00 0.  1.
         22    1    5    5    0    0  0.77655109686E+02 -0.69289462408E+02 -0.30188337854E+03  0.31931946370E+03  0.00000000000E+00 0.  1.
          5    1    4    4  502    0  0.32983657116E+01  0.74501410460E+02  0.54202831471E+01  0.74918681557E+02  0.47000000000E+01 0.  1.
         -5    1    4    4    0  502  0.97767746485E+02  0.15064632925E+02  0.83662936952E+02  0.12964201648E+03  0.47000000000E+01 0.  1.
<mgrwt>
<rscale>  0 0.10002767E+04</rscale>
<asrwt>0</asrwt>
<pdfrwt beam="1">  1        2 0.59183058E-01 0.10002767E+04</pdfrwt>
<pdfrwt beam="2">  1       -2 0.10003598E+00 0.10002767E+04</pdfrwt>
<totfact> 0.81465860E+01</totfact>
</mgrwt>
</event>
<event>
 9    1  0.4412976E-036  0.1000927E+04  0.7818608E-02  0.8680156E-01
          1   -1    0    0  501    0  0.00000000000E+00  0.00000000000E+00  0.66674771952E+03  0.66674771952E+03  0.00000000000E+00 0.  1.
         -1   -1    0    0    0  501 -0.00000000000E+00 -0.00000000000E+00 -0.37564995119E+03  0.37564995119E+03  0.00000000000E+00 0.  1.
         36    2    1    2    0    0 -0.28421709430E-13  0.35527136788E-14  0.29109776833E+03  0.10423976707E+04  0.10009270669E+04 0.  0.
         25    2    3    3    0    0  0.11460190824E+03  0.11188877555E+02  0.13664506289E+03  0.21956621966E+03  0.12758786482E+03 0.  0.
         35    2    3    3    0    0 -0.11460190824E+03 -0.11188877555E+02  0.15445270544E+03  0.82283145105E+03  0.79996073045E+03 0.  0.
         22    1    5    5    0    0 -0.42078210290E+03  0.16840044910E+03  0.84230521012E+02  0.46098922986E+03  0.00000000000E+00 0. -1.
         22    1    5    5    0    0  0.30618019466E+03 -0.17958932666E+03  0.70222184430E+02  0.36184222119E+03  0.00000000000E+00 0. -1.
          5    1    4    4  502    0 -0.15122866058E+02  0.22176557442E+02  0.65923502678E+02  0.71333715612E+02  0.47000000000E+01 0. -1.
         -5    1    4    4    0  502  0.12972477430E+03 -0.10987679887E+02  0.70721560213E+02  0.14823250404E+03  0.47000000000E+01 0. -1.
<mgrwt>
<rscale>  0 0.10009271E+04</rscale>
<asrwt>0</asrwt>
<pdfrwt beam="1">  1        1 0.10257657E+00 0.10009271E+04</pdfrwt>
<pdfrwt beam="2">  1       -1 0.57792300E-01 0.10009271E+04</pdfrwt>
<totfact> 0.10265070E+02</totfact>
</mgrwt>
</event>
<event>
 9    1  0.4412976E-036  0.1001383E+04  0.7818608E-02  0.8679722E-01
          1   -1    0    0  501    0  0.00000000000E+00  0.00000000000E+00  0.44039899321E+03  0.44039899321E+03  0.00000000000E+00 0.  1.
         -1   -1    0    0    0  501 -0.00000000000E+00 -0.00000000000E+00 -0.56923785742E+03  0.56923785742E+03  0.00000000000E+00 0.  1.
         36    2    1    2    0    0 -0.28421709430E-13  0.21316282073E-13 -0.12883886421E+03  0.10096368506E+04  0.10013826028E+04 0.  0.
         25    2    3    3    0    0  0.11312072360E+03  0.13206155094E+02 -0.11040144660E+03  0.20127197959E+03  0.12390007957E+03 0.  0.
         35    2    3    3    0    0 -0.11312072360E+03 -0.13206155094E+02 -0.18437417616E+02  0.80836487104E+03  0.80008944858E+03 0.  0.
         22    1    5    5    0    0  0.15464412025E+03 -0.29380725536E+03 -0.19189484579E+03  0.38348551351E+03  0.00000000000E+00 0. -1.
         22    1    5    5    0    0 -0.26776484385E+03  0.28060110027E+03  0.17345742817E+03  0.42487935753E+03  0.00000000000E+00 0. -1.
          5    1    4    4  502    0  0.29742981457E+01 -0.26602484510E+02  0.13811495280E+02  0.30485833323E+02  0.47000000000E+01 0.  1.
         -5    1    4    4    0  502  0.11014642546E+03  0.39808639603E+02 -0.12421294188E+03  0.17078614627E+03  0.47000000000E+01 0.  1.
<mgrwt>
<rscale>  0 0.10013826E+04</rscale>
<asrwt>0</asrwt>
<pdfrwt beam="1">  1        1 0.67753692E-01 0.10013826E+04</pdfrwt>
<pdfrwt beam="2">  1       -1 0.87575054E-01 0.10013826E+04</pdfrwt>
<totfact> 0.80340850E+01</totfact>
</mgrwt>
</event>
<event>
 9    1  0.4412976E-036  0.1000197E+04  0.7818608E-02  0.8680850E-01
         -1   -1    0    0    0  501 -0.00000000000E+00  0.00000000000E+00  0.15570247999E+04  0.15570247999E+04  0.00000000000E+00 0.  1.
          1   -1    0    0  501    0  0.00000000000E+00 -0.00000000000E+00 -0.16062589436E+03  0.16062589436E+03  0.00000000000E+00 0.  1.
         36    2    1    2    0    0  0.00000000000E+00  0.28421709430E-13  0.13963989055E+04  0.17176506942E+04  0.10001969827E+04 0.  0.
         25    2    3    3    0    0  0.32270824006E+02  0.13080505103E+03  0.29069439071E+03  0.34639642003E+03  0.13166580256E+03 0.  0.
         35    2    3    3    0    0 -0.32270824006E+02 -0.13080505103E+03  0.11057045148E+04  0.13712542742E+04  0.79975273868E+03 0.  0.
         22    1    5    5    0    0 -0.12758242924E+03  0.34313190716E+02  0.11643223691E+04  0.11717940308E+04  0.00000000000E+00 0.  1.
         22    1    5    5    0    0  0.95311605236E+02 -0.16511824175E+03 -0.58617854352E+02  0.19946024341E+03  0.00000000000E+00 0.  1.
          5    1    4    4  502    0  0.23735829611E+00 -0.26756130810E+02  0.49943416653E+02  0.56854038923E+02  0.47000000000E+01 0. -1.
         -5    1    4    4    0  502  0.32033465710E+02  0.15756118184E+03  0.24075097406E+03  0.28954238111E+03  0.47000000000E+01 0. -1.
<mgrwt>
<rscale>  0 0.10001970E+04</rscale>
<asrwt>0</asrwt>
<pdfrwt beam="1">  1        1 0.24711677E-01 0.10001970E+04</pdfrwt>
<pdfrwt beam="2">  1       -1 0.23954227E+00 0.10001970E+04</pdfrwt>
<totfact> 0.13911620E+01</totfact>
</mgrwt>
</event>
<event>
 9    1  0.4412976E-036  0.9968592E+03  0.7818608E-02  0.8684035E-01
         -2   -1    0    0    0  501 -0.00000000000E+00  0.00000000000E+00  0.42387470141E+03  0.42387470141E+03  0.00000000000E+00 0. -1.
          2   -1    0    0  501    0  0.00000000000E+00 -0.00000000000E+00 -0.58609791127E+03  0.58609791127E+03  0.00000000000E+00 0. -1.
         36    2    1    2    0    0  0.00000000000E+00  0.21316282073E-13 -0.16222320986E+03  0.10099726127E+04  0.99685922203E+03 0.  0.
         25    2    3    3    0    0 -0.10140633802E+02  0.41915609195E+02 -0.16304909613E+03  0.20991261214E+03  0.12497418228E+03 0.  0.
         35    2    3    3    0    0  0.10140633802E+02 -0.41915609195E+02  0.82588627084E+00  0.80006000055E+03  0.79889647116E+03 0.  0.
         22    1    5    5    0    0  0.25098512733E+03  0.22660118565E+03  0.19507291372E+03  0.39037811561E+03  0.00000000000E+00 0.  1.
         22    1    5    5    0    0 -0.24084449353E+03 -0.26851679484E+03 -0.19424702745E+03  0.40968188494E+03  0.00000000000E+00 0.  1.
          5    1    4    4  502    0  0.43913044641E+02 -0.59153152288E+01 -0.18439932266E+02  0.48223101786E+02  0.47000000000E+01 0.  1.
         -5    1    4    4    0  502 -0.54053678443E+02  0.47830924423E+02 -0.14460916386E+03  0.16168951035E+03  0.47000000000E+01 0.  1.
<mgrwt>
<rscale>  0 0.99685922E+03</rscale>
<asrwt>0</asrwt>
<pdfrwt beam="1">  1        2 0.90168909E-01 0.99685922E+03</pdfrwt>
<pdfrwt beam="2">  1       -2 0.65211493E-01 0.99685922E+03</pdfrwt>
<totfact> 0.13381846E+02</totfact>
</mgrwt>
</event>
<event>
 9    1  0.4412976E-036  0.9998019E+03  0.7818608E-02  0.8681227E-01
         -2   -1    0    0    0  501 -0.00000000000E+00  0.00000000000E+00  0.44600712306E+03  0.44600712306E+03  0.00000000000E+00 0.  1.
          2   -1    0    0  501    0  0.00000000000E+00 -0.00000000000E+00 -0.56030709412E+03  0.56030709412E+03  0.00000000000E+00 0.  1.
         36    2    1    2    0    0  0.14210854715E-13  0.14210854715E-13 -0.11429997106E+03  0.10063142172E+04  0.99980189053E+03 0.  0.
         25    2    3    3    0    0  0.12544279850E+03  0.60146155170E+02 -0.29236478245E+02  0.18984606530E+03  0.12583044614E+03 0.  0.
         35    2    3    3    0    0 -0.12544279850E+03 -0.60146155170E+02 -0.85063492812E+02  0.81646815187E+03  0.80001936822E+03 0.  0.
         22    1    5    5    0    0 -0.11379901412E+03 -0.49903542697E+02 -0.44203075146E+03  0.45916420203E+03  0.00000000000E+00 0.  1.
         22    1    5    5    0    0 -0.11643784377E+02 -0.10242612473E+02  0.35696725865E+03  0.35730394984E+03  0.00000000000E+00 0.  1.
          5    1    4    4  502    0  0.12429017754E+03 -0.27876623937E+01 -0.17291482961E+02  0.12560614905E+03  0.47000000000E+01 0. -1.
         -5    1    4    4    0  502  0.11526209517E+01  0.62933817564E+02 -0.11944995284E+02  0.64239916256E+02  0.47000000000E+01 0. -1.
<mgrwt>
<rscale>  0 0.99980189E+03</rscale>
<asrwt>0</asrwt>
<pdfrwt beam="1">  1        2 0.86201092E-01 0.99980189E+03</pdfrwt>
<pdfrwt beam="2">  1       -2 0.68616480E-01 0.99980189E+03</pdfrwt>
<totfact> 0.12648069E+02</totfact>
</mgrwt>
</event>
<event>
 9    1  0.4412976E-036  0.1000301E+04  0.7818608E-02  0.8680752E-01
          1   -1    0    0  501    0  0.00000000000E+00  0.00000000000E+00  0.33482295956E+03  0.33482295956E+03  0.00000000000E+00 0.  1.
         -1   -1    0    0    0  501 -0.00000000000E+00 -0.00000000000E+00 -0.74711215097E+03  0.74711215097E+03  0.00000000000E+00 0.  1.
         36    2    1    2    0    0 -0.14210854715E-13 -0.28421709430E-13 -0.41228919141E+03  0.10819351105E+04  0.10003005579E+04 0.  0.
         25    2    3    3    0    0 -0.12727032581E+03  0.57164724289E+02 -0.70604251760E+02  0.20059280910E+03  0.12564622222E+03 0.  0.
         35    2    3    3    0    0  0.12727032581E+03 -0.57164724289E+02 -0.34168493964E+03  0.88134230143E+03  0.80034374663E+03 0.  0.
         22    1    5    5    0    0 -0.19838441388E+03  0.26842996777E+03 -0.53350952055E+02  0.33801974403E+03  0.00000000000E+00 0. -1.
         22    1    5    5    0    0  0.32565473969E+03 -0.32559469206E+03 -0.28833398759E+03  0.54332255740E+03  0.00000000000E+00 0. -1.
          5    1    4    4  502    0 -0.38099450977E+02  0.25189591913E+02  0.35675157758E+02  0.58145426188E+02  0.47000000000E+01 0. -1.
         -5    1    4    4    0  502 -0.89170874837E+02  0.31975132376E+02 -0.10627940952E+03  0.14244738291E+03  0.47000000000E+01 0. -1.
<mgrwt>
<rscale>  0 0.10003006E+04</rscale>
<asrwt>0</asrwt>
<pdfrwt beam="1">  1        1 0.51511225E-01 0.10003006E+04</pdfrwt>
<pdfrwt beam="2">  1       -1 0.11494033E+00 0.10003006E+04</pdfrwt>
<totfact> 0.62768303E+01</totfact>
</mgrwt>
</event>
<event>
 9    1  0.4412976E-036  0.1000458E+04  0.7818608E-02  0.8680602E-01
          2   -1    0    0  501    0  0.00000000000E+00  0.00000000000E+00  0.18360420880E+04  0.18360420880E+04  0.00000000000E+00 0.  1.
         -2   -1    0    0    0  501 -0.00000000000E+00 -0.00000000000E+00 -0.13628713979E+03  0.13628713979E+03  0.00000000000E+00 0.  1.
         36    2    1    2    0    0  0.14210854715E-13  0.35527136788E-14  0.16997549483E+04  0.19723292278E+04  0.10004577446E+04 0.  0.
         25    2    3    3    0    0 -0.25546283660E+02 -0.11256611769E+02  0.59262314029E+03  0.60615336765E+03  0.12425938510E+03 0.  0.
         35    2    3    3    0    0  0.25546283660E+02  0.11256611769E+02  0.11071318080E+04  0.13661758602E+04  0.79994769630E+03 0.  0.
         22    1    5    5    0    0 -0.35231432120E+03  0.13733710374E+03  0.70583433789E+03  0.80074276365E+03  0.00000000000E+00 0.  1.
         22    1    5    5    0    0  0.37786060486E+03 -0.12608049197E+03  0.40129747007E+03  0.56543309652E+03  0.00000000000E+00 0.  1.
          5    1    4    4  502    0 -0.68986748947E+02  0.16108898568E+02  0.25836556551E+03  0.26794313498E+03  0.47000000000E+01 0. -1.
         -5    1    4    4    0  502  0.43440465287E+02 -0.27365510337E+02  0.33425757479E+03  0.33821023267E+03  0.47000000000E+01 0. -1.
<mgrwt>
<rscale>  0 0.10004577E+04</rscale>
<asrwt>0</asrwt>
<pdfrwt beam="1">  1        2 0.28246800E+00 0.10004577E+04</pdfrwt>
<pdfrwt beam="2">  1       -2 0.20967254E-01 0.10004577E+04</pdfrwt>
<totfact> 0.19131247E+02</totfact>
</mgrwt>
</event>
<event>
 9    1  0.4412976E-036  0.1000735E+04  0.7818608E-02  0.8680338E-01
          2   -1    0    0  501    0  0.00000000000E+00  0.00000000000E+00  0.51035803793E+03  0.51035803793E+03  0.00000000000E+00 0.  1.
         -2   -1    0    0    0  501 -0.00000000000E+00 -0.00000000000E+00 -0.49057275187E+03  0.49057275187E+03  0.00000000000E+00 0.  1.
         36    2    1    2    0    0  0.14210854715E-13  0.00000000000E+00  0.19785286058E+02  0.10009307898E+04  0.10007352239E+04 0.  0.
         25    2    3    3    0    0  0.22262968315E+02 -0.10136315974E+03 -0.90174691565E+02  0.18625790180E+03  0.12565986262E+03 0.  0.
         35    2    3    3    0    0 -0.22262968315E+02  0.10136315974E+03  0.10995997762E+03  0.81467288800E+03  0.80051894909E+03 0.  0.
         22    1    5    5    0    0  0.25848417773E+03 -0.15564356534E+03 -0.16615276378E+03  0.34444989546E+03  0.00000000000E+00 0. -1.
         22    1    5    5    0    0 -0.28074714605E+03  0.25700672508E+03  0.27611274141E+03  0.47022299254E+03  0.00000000000E+00 0. -1.
          5    1    4    4  502    0  0.72577027463E+01 -0.11564512707E+03 -0.26257495912E+02  0.11890338832E+03  0.47000000000E+01 0. -1.
         -5    1    4    4    0  502  0.15005265569E+02  0.14281967326E+02 -0.63917195653E+02  0.67354513476E+02  0.47000000000E+01 0. -1.
<mgrwt>
<rscale>  0 0.10007352E+04</rscale>
<asrwt>0</asrwt>
<pdfrwt beam="1">  1        2 0.78516622E-01 0.10007352E+04</pdfrwt>
<pdfrwt beam="2">  1       -2 0.75472731E-01 0.10007352E+04</pdfrwt>
<totfact> 0.11435278E+02</totfact>
</mgrwt>
</event>
<event>
 9    1  0.4412976E-036  0.9999367E+03  0.7818608E-02  0.8681098E-01
         -2   -1    0    0    0  501 -0.00000000000E+00  0.00000000000E+00  0.14317648948E+03  0.14317648948E+03  0.00000000000E+00 0.  1.
          2   -1    0    0  501    0  0.00000000000E+00 -0.00000000000E+00 -0.17458758403E+04  0.17458758403E+04  0.00000000000E+00 0.  1.
         36    2    1    2    0    0  0.14210854715E-13  0.28421709430E-13 -0.16026993508E+04  0.18890523298E+04  0.99993674579E+03 0.  0.
         25    2    3    3    0    0 -0.11934291921E+03  0.73964975011E+02 -0.29350232260E+03  0.34849637846E+03  0.12487018273E+03 0.  0.
         35    2    3    3    0    0  0.11934291921E+03 -0.73964975011E+02 -0.13091970282E+04  0.15405559513E+04  0.79975135548E+03 0.  0.
         22    1    5    5    0    0 -0.12644443215E+03  0.31445235917E+03 -0.69673376615E+03  0.77479443822E+03  0.00000000000E+00 0. -1.
         22    1    5    5    0    0  0.24578735136E+03 -0.38841733418E+03 -0.61246326208E+03  0.76576151312E+03  0.00000000000E+00 0. -1.
          5    1    4    4  502    0 -0.85430144573E+02  0.85549278499E+02 -0.11692309249E+03  0.16825601984E+03  0.47000000000E+01 0. -1.
         -5    1    4    4    0  502 -0.33912774634E+02 -0.11584303488E+02 -0.17657923011E+03  0.18024035862E+03  0.47000000000E+01 0. -1.
<mgrwt>
<rscale>  0 0.99993675E+03</rscale>
<asrwt>0</asrwt>
<pdfrwt beam="1">  1        2 0.26859628E+00 0.99993675E+03</pdfrwt>
<pdfrwt beam="2">  1       -2 0.22027153E-01 0.99993675E+03</pdfrwt>
<totfact> 0.19736663E+02</totfact>
</mgrwt>
</event>
<event>
 9    1  0.4412976E-036  0.9999916E+03  0.7818608E-02  0.8681046E-01
         -1   -1    0    0    0  501 -0.00000000000E+00  0.00000000000E+00  0.15256746509E+03  0.15256746509E+03  0.00000000000E+00 0. -1.
          1   -1    0    0  501    0  0.00000000000E+00 -0.00000000000E+00 -0.16385918620E+04  0.16385918620E+04  0.00000000000E+00 0. -1.
         36    2    1    2    0    0 -0.14210854715E-13 -0.14210854715E-13 -0.14860243969E+04  0.17911593271E+04  0.99999161336E+03 0.  0.
         25    2    3    3    0    0  0.41775455450E+02  0.98032027645E+02 -0.11533099448E+03  0.20042144250E+03  0.12454737735E+03 0.  0.
         35    2    3    3    0    0 -0.41775455450E+02 -0.98032027645E+02 -0.13706934024E+04  0.15907378846E+04  0.80018194609E+03 0.  0.
         22    1    5    5    0    0  0.11018475673E+03 -0.29664143394E+03 -0.12895783743E+04  0.13278362867E+04  0.00000000000E+00 0. -1.
         22    1    5    5    0    0 -0.15196021218E+03  0.19860940629E+03 -0.81115028131E+02  0.26290159783E+03  0.00000000000E+00 0. -1.
          5    1    4    4  502    0  0.32718029136E+02  0.12310507334E+03 -0.11737386714E+03  0.17327447360E+03  0.47000000000E+01 0. -1.
         -5    1    4    4    0  502  0.90574263138E+01 -0.25073045699E+02  0.20428726610E+01  0.27146968906E+02  0.47000000000E+01 0. -1.
<mgrwt>
<rscale>  0 0.99999161E+03</rscale>
<asrwt>0</asrwt>
<pdfrwt beam="1">  1        1 0.25209105E+00 0.99999161E+03</pdfrwt>
<pdfrwt beam="2">  1       -1 0.23471918E-01 0.99999161E+03</pdfrwt>
<totfact> 0.87601390E+01</totfact>
</mgrwt>
</event>
<event>
 9    1  0.4412976E-036  0.9995682E+03  0.7818608E-02  0.8681449E-01
         -2   -1    0    0    0  501 -0.00000000000E+00  0.00000000000E+00  0.14849221879E+03  0.14849221879E+03  0.00000000000E+00 0. -1.
          2   -1    0    0  501    0  0.00000000000E+00 -0.00000000000E+00 -0.16821363824E+04  0.16821363824E+04  0.00000000000E+00 0. -1.
         36    2    1    2    0    0 -0.14210854715E-13  0.56843418861E-13 -0.15336441636E+04  0.18306286011E+04  0.99956823422E+03 0.  0.
         25    2    3    3    0    0  0.99947705945E+02 -0.66965079029E+02 -0.14307946824E+03  0.22311434388E+03  0.12179659471E+03 0.  0.
         35    2    3    3    0    0 -0.99947705945E+02  0.66965079029E+02 -0.13905646953E+04  0.16075142573E+04  0.79746977977E+03 0.  0.
         22    1    5    5    0    0  0.41588242561E+02  0.38817222348E+03 -0.41053070951E+03  0.56651806718E+03  0.00000000000E+00 0. -1.
         22    1    5    5    0    0 -0.14153594851E+03 -0.32120714445E+03 -0.98003398583E+03  0.10409961901E+04  0.00000000000E+00 0. -1.
          5    1    4    4  502    0  0.92657174949E+02  0.80745890820E+01 -0.59772907871E+02  0.11065912332E+03  0.47000000000E+01 0.  1.
         -5    1    4    4    0  502  0.72905309961E+01 -0.75039668111E+02 -0.83306560365E+02  0.11245522056E+03  0.47000000000E+01 0.  1.
<mgrwt>
<rscale>  0 0.99956823E+03</rscale>
<asrwt>0</asrwt>
<pdfrwt beam="1">  1        2 0.25879022E+00 0.99956823E+03</pdfrwt>
<pdfrwt beam="2">  1       -2 0.22844956E-01 0.99956823E+03</pdfrwt>
<totfact> 0.20111061E+02</totfact>
</mgrwt>
</event>
<event>
 9    1  0.4412976E-036  0.9992969E+03  0.7818608E-02  0.8681708E-01
         -1   -1    0    0    0  501 -0.00000000000E+00  0.00000000000E+00  0.93397873046E+02  0.93397873046E+02  0.00000000000E+00 0. -1.
          1   -1    0    0  501    0  0.00000000000E+00 -0.00000000000E+00 -0.26729578313E+04  0.26729578313E+04  0.00000000000E+00 0. -1.
         36    2    1    2    0    0  0.28421709430E-13  0.71054273576E-14 -0.25795599582E+04  0.27663557043E+04  0.99929690519E+03 0.  0.
         25    2    3    3    0    0 -0.13063319953E+03 -0.44185197393E+02 -0.42007165626E+03  0.45948673138E+03  0.12510194019E+03 0.  0.
         35    2    3    3    0    0  0.13063319953E+03  0.44185197393E+02 -0.21594883020E+04  0.23068689729E+04  0.79952321258E+03 0.  0.
         22    1    5    5    0    0 -0.23073649847E+03  0.14857592038E+03 -0.28746284717E+03  0.39742801153E+03  0.00000000000E+00 0. -1.
         22    1    5    5    0    0  0.36136969801E+03 -0.10439072298E+03 -0.18720254548E+04  0.19094409614E+04  0.00000000000E+00 0. -1.
          5    1    4    4  502    0  0.14627532522E+02  0.71534860925E+01 -0.12912486086E+03  0.13023231843E+03  0.47000000000E+01 0.  1.
         -5    1    4    4    0  502 -0.14526073206E+03 -0.51338683485E+02 -0.29094679539E+03  0.32925441295E+03  0.47000000000E+01 0.  1.
<mgrwt>
<rscale>  0 0.99929691E+03</rscale>
<asrwt>0</asrwt>
<pdfrwt beam="1">  1        1 0.41122432E+00 0.99929691E+03</pdfrwt>
<pdfrwt beam="2">  1       -1 0.14368902E-01 0.99929691E+03</pdfrwt>
<totfact> 0.36785026E+01</totfact>
</mgrwt>
</event>
<event>
 9    1  0.4412976E-036  0.9970998E+03  0.7818608E-02  0.8683805E-01
         -1   -1    0    0    0  501 -0.00000000000E+00  0.00000000000E+00  0.20180772203E+03  0.20180772203E+03  0.00000000000E+00 0.  1.
          1   -1    0    0  501    0  0.00000000000E+00 -0.00000000000E+00 -0.12316277538E+04  0.12316277538E+04  0.00000000000E+00 0.  1.
         36    2    1    2    0    0 -0.71054273576E-14 -0.56843418861E-13 -0.10298200317E+04  0.14334354758E+04  0.99709977711E+03 0.  0.
         25    2    3    3    0    0  0.15988675248E+01  0.12510566166E+03 -0.27455042908E+03  0.32649850619E+03  0.12477721538E+03 0.  0.
         35    2    3    3    0    0 -0.15988675248E+01 -0.12510566166E+03 -0.75526960266E+03  0.11069369696E+04  0.79951441453E+03 0.  0.
         22    1    5    5    0    0  0.80713417305E+02 -0.39863632726E+03 -0.14268555853E+03  0.43102754640E+03  0.00000000000E+00 0. -1.
         22    1    5    5    0    0 -0.82312284830E+02  0.27353066560E+03 -0.61258404414E+03  0.67590942321E+03  0.00000000000E+00 0. -1.
          5    1    4    4  502    0  0.37188835789E+02  0.13358688510E+03 -0.20128711300E+03  0.24447301944E+03  0.47000000000E+01 0. -1.
         -5    1    4    4    0  502 -0.35589968264E+02 -0.84812234390E+01 -0.73263316082E+02  0.82025486743E+02  0.47000000000E+01 0. -1.
<mgrwt>
<rscale>  0 0.99709978E+03</rscale>
<asrwt>0</asrwt>
<pdfrwt beam="1">  1        1 0.18948119E+00 0.99709978E+03</pdfrwt>
<pdfrwt beam="2">  1       -1 0.31047342E-01 0.99709978E+03</pdfrwt>
<totfact> 0.10704017E+02</totfact>
</mgrwt>
</event>
<event>
 9    1  0.4412976E-036  0.1001377E+04  0.7818608E-02  0.8679728E-01
          1   -1    0    0  501    0  0.00000000000E+00  0.00000000000E+00  0.50187189721E+03  0.50187189721E+03  0.00000000000E+00 0.  1.
         -1   -1    0    0    0  501 -0.00000000000E+00 -0.00000000000E+00 -0.49950801939E+03  0.49950801939E+03  0.00000000000E+00 0.  1.
         36    2    1    2    0    0  0.00000000000E+00 -0.28421709430E-13  0.23638778188E+01  0.10013799166E+04  0.10013771265E+04 0.  0.
         25    2    3    3    0    0 -0.10872814155E+03 -0.82845871231E+02 -0.34102324982E+02  0.18897216008E+03  0.12594547063E+03 0.  0.
         35    2    3    3    0    0  0.10872814155E+03  0.82845871231E+02  0.36466202801E+02  0.81240775652E+03  0.79999458233E+03 0.  0.
         22    1    5    5    0    0 -0.32332584765E+03  0.46482396281E+02 -0.12498119469E+03  0.34974350023E+03  0.00000000000E+00 0.  1.
         22    1    5    5    0    0  0.43205398920E+03  0.36363474951E+02  0.16144739749E+03  0.46266425629E+03  0.00000000000E+00 0.  1.
          5    1    4    4  502    0 -0.12425466018E+03 -0.92062657756E+02 -0.54883743928E+01  0.15481267966E+03  0.47000000000E+01 0.  1.
         -5    1    4    4    0  502  0.15526518631E+02  0.92167865242E+01 -0.28613950589E+02  0.34159480426E+02  0.47000000000E+01 0.  1.
<mgrwt>
<rscale>  0 0.10013771E+04</rscale>
<asrwt>0</asrwt>
<pdfrwt beam="1">  1        1 0.77211062E-01 0.10013771E+04</pdfrwt>
<pdfrwt beam="2">  1       -1 0.76847387E-01 0.10013771E+04</pdfrwt>
<totfact> 0.88390047E+01</totfact>
</mgrwt>
</event>
<event>
 9    1  0.4412976E-036  0.1000642E+04  0.7818608E-02  0.8680427E-01
          1   -1    0    0  501    0  0.00000000000E+00  0.00000000000E+00  0.90253170289E+03  0.90253170289E+03  0.00000000000E+00 0.  1.
         -1   -1    0    0    0  501 -0.00000000000E+00 -0.00000000000E+00 -0.27735410065E+03  0.27735410065E+03  0.00000000000E+00 0.  1.
         36    2    1    2    0    0  0.00000000000E+00 -0.56843418861E-13  0.62517760224E+03  0.11798858035E+04  0.10006415318E+04 0.  0.
         25    2    3    3    0    0  0.10688916175E+03  0.88033472532E+02  0.15343843698E+03  0.24148420279E+03  0.12488427070E+03 0.  0.
         35    2    3    3    0    0 -0.10688916175E+03 -0.88033472532E+02  0.47173916526E+03  0.93840160076E+03  0.79930253288E+03 0.  0.
         22    1    5    5    0    0 -0.14212199695E+03 -0.42579081320E+03  0.15745890231E+03  0.47569925850E+03  0.00000000000E+00 0. -1.
         22    1    5    5    0    0  0.35232835201E+02  0.33775734066E+03  0.31428026295E+03  0.46270234226E+03  0.00000000000E+00 0. -1.
          5    1    4    4  502    0 -0.99060521376E+01  0.88203836752E+01  0.82076466534E+02  0.83274037946E+02  0.47000000000E+01 0. -1.
         -5    1    4    4    0  502  0.11679521389E+03  0.79213088857E+02  0.71361970441E+02  0.15821016484E+03  0.47000000000E+01 0. -1.
<mgrwt>
<rscale>  0 0.10006415E+04</rscale>
<asrwt>0</asrwt>
<pdfrwt beam="1">  1        1 0.13885103E+00 0.10006415E+04</pdfrwt>
<pdfrwt beam="2">  1       -1 0.42669862E-01 0.10006415E+04</pdfrwt>
<totfact> 0.11048687E+02</totfact>
</mgrwt>
</event>
<event>
 9    1  0.4412976E-036  0.1000387E+04  0.7818608E-02  0.8680670E-01
          1   -1    0    0  501    0  0.00000000000E+00  0.00000000000E+00  0.39593890636E+03  0.39593890636E+03  0.00000000000E+00 0.  1.
         -1   -1    0    0    0  501 -0.00000000000E+00 -0.00000000000E+00 -0.63189928329E+03  0.63189928329E+03  0.00000000000E+00 0.  1.
         36    2    1    2    0    0  0.28421709430E-13 -0.28421709430E-13 -0.23596037694E+03  0.10278381896E+04  0.10003869474E+04 0.  0.
         25    2    3    3    0    0 -0.11455323563E+03  0.58261746039E+01 -0.12862173370E+03  0.21312071703E+03  0.12538142423E+03 0.  0.
         35    2    3    3    0    0  0.11455323563E+03 -0.58261746039E+01 -0.10733864323E+03  0.81471747262E+03  0.79942891351E+03 0.  0.
         22    1    5    5    0    0  0.95768060981E+02  0.35613577381E+03  0.11886901857E+03  0.38747135954E+03  0.00000000000E+00 0.  1.
         22    1    5    5    0    0  0.18785174650E+02 -0.36196194841E+03 -0.22620766180E+03  0.42724611308E+03  0.00000000000E+00 0.  1.
          5    1    4    4  502    0 -0.49971662605E+02 -0.55097954210E+02 -0.30010360113E+02  0.80347142673E+02  0.47000000000E+01 0. -1.
         -5    1    4    4    0  502 -0.64581573026E+02  0.60924128814E+02 -0.98611373591E+02  0.13277357436E+03  0.47000000000E+01 0. -1.
<mgrwt>
<rscale>  0 0.10003869E+04</rscale>
<asrwt>0</asrwt>
<pdfrwt beam="1">  1        1 0.60913679E-01 0.10003869E+04</pdfrwt>
<pdfrwt beam="2">  1       -1 0.97215272E-01 0.10003869E+04</pdfrwt>
<totfact> 0.73948571E+01</totfact>
</mgrwt>
</event>
<event>
 9    1  0.4412976E-036  0.9996097E+03  0.7818608E-02  0.8681410E-01
         -2   -1    0    0    0  501 -0.00000000000E+00  0.00000000000E+00  0.71582565937E+02  0.71582565937E+02  0.00000000000E+00 0. -1.
          2   -1    0    0  501    0  0.00000000000E+00 -0.00000000000E+00 -0.34897451403E+04  0.34897451403E+04  0.00000000000E+00 0. -1.
         36    2    1    2    0    0  0.71054273576E-14 -0.14210854715E-13 -0.34181625743E+04  0.35613277062E+04  0.99960974706E+03 0.  0.
         25    2    3    3    0    0 -0.28027006764E+01 -0.12305554174E+03 -0.40461490861E+03  0.44064960535E+03  0.12372683194E+03 0.  0.
         35    2    3    3    0    0  0.28027006764E+01  0.12305554174E+03 -0.30135476657E+04  0.31206781009E+04  0.80125635978E+03 0.  0.
         22    1    5    5    0    0  0.12012339440E+03 -0.22596355139E+03 -0.35990533227E+03  0.44161182574E+03  0.00000000000E+00 0.  1.
         22    1    5    5    0    0 -0.11732069372E+03  0.34901909314E+03 -0.26536423335E+04  0.26790662751E+04  0.00000000000E+00 0.  1.
          5    1    4    4  502    0 -0.47653528349E+02 -0.19472339191E+02 -0.20363426262E+03  0.21009291675E+03  0.47000000000E+01 0. -1.
         -5    1    4    4    0  502  0.44850827672E+02 -0.10358320255E+03 -0.20098064599E+03  0.23055668860E+03  0.47000000000E+01 0. -1.
<mgrwt>
<rscale>  0 0.99960975E+03</rscale>
<asrwt>0</asrwt>
<pdfrwt beam="1">  1        2 0.53688381E+00 0.99960975E+03</pdfrwt>
<pdfrwt beam="2">  1       -2 0.11012704E-01 0.99960975E+03</pdfrwt>
<totfact> 0.50206217E+01</totfact>
</mgrwt>
</event>
<event>
 9    1  0.4412976E-036  0.1000410E+04  0.7818608E-02  0.8680648E-01
         -2   -1    0    0    0  501 -0.00000000000E+00  0.00000000000E+00  0.58381903148E+03  0.58381903148E+03  0.00000000000E+00 0.  1.
          2   -1    0    0  501    0  0.00000000000E+00 -0.00000000000E+00 -0.42856570271E+03  0.42856570271E+03  0.00000000000E+00 0.  1.
         36    2    1    2    0    0  0.14210854715E-13  0.14210854715E-13  0.15525332877E+03  0.10123847342E+04  0.10004095431E+04 0.  0.
         25    2    3    3    0    0  0.93694879846E+02  0.37118441485E+02  0.12642038059E+03  0.20571537412E+03  0.12720138881E+03 0.  0.
         35    2    3    3    0    0 -0.93694879846E+02 -0.37118441485E+02  0.28832948185E+02  0.80666936006E+03  0.79982973710E+03 0.  0.
         22    1    5    5    0    0 -0.42083322682E+03  0.10198637060E+03 -0.67784782886E+02  0.43828826288E+03  0.00000000000E+00 0. -1.
         22    1    5    5    0    0  0.32713834697E+03 -0.13910481209E+03  0.96617731071E+02  0.36838109719E+03  0.00000000000E+00 0. -1.
          5    1    4    4  502    0  0.45331144060E+02 -0.46792903652E+02  0.50437467857E+02  0.82525854238E+02  0.47000000000E+01 0.  1.
         -5    1    4    4    0  502  0.48363735787E+02  0.83911345137E+02  0.75982912729E+02  0.12318951988E+03  0.47000000000E+01 0.  1.
<mgrwt>
<rscale>  0 0.10004095E+04</rscale>
<asrwt>0</asrwt>
<pdfrwt beam="1">  1        2 0.65933185E-01 0.10004095E+04</pdfrwt>
<pdfrwt beam="2">  1       -2 0.89818312E-01 0.10004095E+04</pdfrwt>
<totfact> 0.93322937E+01</totfact>
</mgrwt>
</event>
<event>
 9    1  0.4412976E-036  0.9991195E+03  0.7818608E-02  0.8681877E-01
          2   -1    0    0  501    0  0.00000000000E+00  0.00000000000E+00  0.90397087252E+03  0.90397087252E+03  0.00000000000E+00 0. -1.
         -2   -1    0    0    0  501 -0.00000000000E+00 -0.00000000000E+00 -0.27607079231E+03  0.27607079231E+03  0.00000000000E+00 0. -1.
         36    2    1    2    0    0  0.10658141036E-13  0.28421709430E-13  0.62790008022E+03  0.11800416648E+04  0.99911952238E+03 0.  0.
         25    2    3    3    0    0  0.74444330217E+01 -0.13143420870E+03  0.17539781104E+03  0.25293324513E+03  0.12601771135E+03 0.  0.
         35    2    3    3    0    0 -0.74444330217E+01  0.13143420870E+03  0.45250226918E+03  0.92710841970E+03  0.79839924065E+03 0.  0.
         22    1    5    5    0    0 -0.38799632122E+02 -0.15535558697E+03  0.58725214928E+03  0.60869192265E+03  0.00000000000E+00 0.  1.
         22    1    5    5    0    0  0.31355199100E+02  0.28678979566E+03 -0.13474988011E+03  0.31841649705E+03  0.00000000000E+00 0.  1.
          5    1    4    4  502    0 -0.57248643386E+02 -0.39749021166E+02  0.63737114707E+02  0.94561628816E+02  0.47000000000E+01 0. -1.
         -5    1    4    4    0  502  0.64693076408E+02 -0.91685187530E+02  0.11166069633E+03  0.15837161631E+03  0.47000000000E+01 0. -1.
<mgrwt>
<rscale>  0 0.99911952E+03</rscale>
<asrwt>0</asrwt>
<pdfrwt beam="1">  1        2 0.13907244E+00 0.99911952E+03</pdfrwt>
<pdfrwt beam="2">  1       -2 0.42472430E-01 0.99911952E+03</pdfrwt>
<totfact> 0.18523261E+02</totfact>
</mgrwt>
</event>
<event>
 9    1  0.4412976E-036  0.9998660E+03  0.7818608E-02  0.8681166E-01
         -1   -1    0    0    0  501 -0.00000000000E+00  0.00000000000E+00  0.13309387638E+03  0.13309387638E+03  0.00000000000E+00 0. -1.
          1   -1    0    0  501    0  0.00000000000E+00 -0.00000000000E+00 -0.18778700510E+04  0.18778700510E+04  0.00000000000E+00 0. -1.
         36    2    1    2    0    0 -0.42632564146E-13  0.00000000000E+00 -0.17447761746E+04  0.20109639274E+04  0.99986599986E+03 0.  0.
         25    2    3    3    0    0  0.12719092776E+03  0.54207724313E+02 -0.36716694072E+03  0.41204698086E+03  0.12591720532E+03 0.  0.
         35    2    3    3    0    0 -0.12719092776E+03 -0.54207724313E+02 -0.13776092339E+04  0.15989169465E+04  0.79975758268E+03 0.  0.
         22    1    5    5    0    0 -0.10244874642E+03  0.53927120182E+02 -0.14575774004E+04  0.14621681703E+04  0.00000000000E+00 0. -1.
         22    1    5    5    0    0 -0.24742181341E+02 -0.10813484450E+03  0.79968166561E+02  0.13674877621E+03  0.00000000000E+00 0. -1.
          5    1    4    4  502    0  0.41227304433E+02 -0.35976722825E+02 -0.64547329950E+02  0.84749413093E+02  0.47000000000E+01 0. -1.
         -5    1    4    4    0  502  0.85963623331E+02  0.90184447138E+02 -0.30261961077E+03  0.32729756777E+03  0.47000000000E+01 0. -1.
<mgrwt>
<rscale>  0 0.99986600E+03</rscale>
<asrwt>0</asrwt>
<pdfrwt beam="1">  1        1 0.28890304E+00 0.99986600E+03</pdfrwt>
<pdfrwt beam="2">  1       -1 0.20475984E-01 0.99986600E+03</pdfrwt>
<totfact> 0.74616463E+01</totfact>
</mgrwt>
</event>
<event>
 9    1  0.4412976E-036  0.9995701E+03  0.7818608E-02  0.8681447E-01
         -1   -1    0    0    0  501 -0.00000000000E+00  0.00000000000E+00  0.18854820722E+03  0.18854820722E+03  0.00000000000E+00 0.  1.
          1   -1    0    0  501    0  0.00000000000E+00 -0.00000000000E+00 -0.13247809650E+04  0.13247809650E+04  0.00000000000E+00 0.  1.
         36    2    1    2    0    0  0.28421709430E-13  0.00000000000E+00 -0.11362327577E+04  0.15133291722E+04  0.99957005938E+03 0.  0.
         25    2    3    3    0    0 -0.13914852453E+03  0.12704208245E+02 -0.18099272028E+03  0.26065955255E+03  0.12514523065E+03 0.  0.
         35    2    3    3    0    0  0.13914852453E+03 -0.12704208245E+02 -0.95524003746E+03  0.12526696196E+04  0.79823175707E+03 0.  0.
         22    1    5    5    0    0  0.17337460099E+03 -0.23429090724E+03 -0.98433080447E+03  0.10265759174E+04  0.00000000000E+00 0. -1.
         22    1    5    5    0    0 -0.34226076464E+02  0.22158669900E+03  0.29090767002E+02  0.22609370227E+03  0.00000000000E+00 0. -1.
          5    1    4    4  502    0 -0.41123693393E+02  0.23371348247E+02 -0.14975750153E+03  0.15712026394E+03  0.47000000000E+01 0. -1.
         -5    1    4    4    0  502 -0.98024831135E+02 -0.10667140002E+02 -0.31235218752E+02  0.10353928861E+03  0.47000000000E+01 0. -1.
<mgrwt>
<rscale>  0 0.99957006E+03</rscale>
<asrwt>0</asrwt>
<pdfrwt beam="1">  1        1 0.20381245E+00 0.99957006E+03</pdfrwt>
<pdfrwt beam="2">  1       -1 0.29007417E-01 0.99957006E+03</pdfrwt>
<totfact> 0.10270711E+02</totfact>
</mgrwt>
</event>
<event>
 9    1  0.4412976E-036  0.1003986E+04  0.7818608E-02  0.8677251E-01
         -2   -1    0    0    0  501 -0.00000000000E+00  0.00000000000E+00  0.14983960484E+03  0.14983960484E+03  0.00000000000E+00 0. -1.
          2   -1    0    0  501    0  0.00000000000E+00 -0.00000000000E+00 -0.16817777271E+04  0.16817777271E+04  0.00000000000E+00 0. -1.
         36    2    1    2    0    0  0.00000000000E+00  0.00000000000E+00 -0.15319381223E+04  0.18316173320E+04  0.10039858765E+04 0.  0.
         25    2    3    3    0    0  0.48070550930E+02 -0.12790112125E+03 -0.20691215122E+03  0.27774427211E+03  0.12513899347E+03 0.  0.
         35    2    3    3    0    0 -0.48070550930E+02  0.12790112125E+03 -0.13250259711E+04  0.15538730599E+04  0.80009886105E+03 0.  0.
         22    1    5    5    0    0 -0.35251400191E+03 -0.15080176183E+03 -0.79012774820E+03  0.87824208017E+03  0.00000000000E+00 0. -1.
         22    1    5    5    0    0  0.30444345098E+03  0.27870288307E+03 -0.53489822289E+03  0.67563097970E+03  0.00000000000E+00 0. -1.
          5    1    4    4  502    0  0.56038768261E+02 -0.14825361056E+03 -0.15740407504E+03  0.22342249088E+03  0.47000000000E+01 0.  1.
         -5    1    4    4    0  502 -0.79682173311E+01  0.20352489317E+02 -0.49508076179E+02  0.54321781228E+02  0.47000000000E+01 0.  1.
<mgrwt>
<rscale>  0 0.10039859E+04</rscale>
<asrwt>0</asrwt>
<pdfrwt beam="1">  1        2 0.25873501E+00 0.10039859E+04</pdfrwt>
<pdfrwt beam="2">  1       -2 0.23052249E-01 0.10039859E+04</pdfrwt>
<totfact> 0.19803720E+02</totfact>
</mgrwt>
</event>
<event>
 9    1  0.4412976E-036  0.9989658E+03  0.7818608E-02  0.8682023E-01
         -2   -1    0    0    0  501 -0.00000000000E+00  0.00000000000E+00  0.42442949562E+03  0.42442949562E+03  0.00000000000E+00 0. -1.
          2   -1    0    0  501    0  0.00000000000E+00 -0.00000000000E+00 -0.58780822460E+03  0.58780822460E+03  0.00000000000E+00 0. -1.
         36    2    1    2    0    0 -0.14210854715E-13  0.00000000000E+00 -0.16337872899E+03  0.10122377202E+04  0.99896576175E+03 0.  0.
         25    2    3    3    0    0 -0.70886337157E+02 -0.65502395391E+02  0.72189838262E+02  0.17330982822E+03  0.12453709171E+03 0.  0.
         35    2    3    3    0    0  0.70886337157E+02  0.65502395391E+02 -0.23556856725E+03  0.83892789200E+03  0.79936976519E+03 0.  0.
         22    1    5    5    0    0  0.37092172566E+03 -0.16489462337E+03 -0.26687219385E+02  0.40679893198E+03  0.00000000000E+00 0.  1.
         22    1    5    5    0    0 -0.30003538850E+03  0.23039701876E+03 -0.20888134786E+03  0.43212896002E+03  0.00000000000E+00 0.  1.
          5    1    4    4  502    0 -0.49839279653E+02 -0.17086066208E+02  0.10024195540E+03  0.11334207991E+03  0.47000000000E+01 0.  1.
         -5    1    4    4    0  502 -0.21047057504E+02 -0.48416329183E+02 -0.28052117141E+02  0.59967748309E+02  0.47000000000E+01 0.  1.
<mgrwt>
<rscale>  0 0.99896576E+03</rscale>
<asrwt>0</asrwt>
<pdfrwt beam="1">  1        2 0.90432033E-01 0.99896576E+03</pdfrwt>
<pdfrwt beam="2">  1       -2 0.65296846E-01 0.99896576E+03</pdfrwt>
<totfact> 0.13298100E+02</totfact>
</mgrwt>
</event>
<event>
 9    1  0.4412976E-036  0.9994921E+03  0.7818608E-02  0.8681522E-01
          2   -1    0    0  501    0  0.00000000000E+00  0.00000000000E+00  0.63329149869E+03  0.63329149869E+03  0.00000000000E+00 0.  1.
         -2   -1    0    0    0  501 -0.00000000000E+00 -0.00000000000E+00 -0.39436199077E+03  0.39436199077E+03  0.00000000000E+00 0.  1.
         36    2    1    2    0    0  0.44408920985E-14  0.28421709430E-13  0.23892950792E+03  0.10276534895E+04  0.99949206332E+03 0.  0.
         25    2    3    3    0    0  0.35007374722E+01  0.10197266392E+03 -0.51964803172E+02  0.17028001438E+03  0.12603278613E+03 0.  0.
         35    2    3    3    0    0 -0.35007374722E+01 -0.10197266392E+03  0.29089431110E+03  0.85737347507E+03  0.80003693426E+03 0.  0.
         22    1    5    5    0    0  0.84128250351E+02  0.25264776176E+03 -0.13312301954E+03  0.29770823362E+03  0.00000000000E+00 0. -1.
         22    1    5    5    0    0 -0.87628987823E+02 -0.35462042568E+03  0.42401733064E+03  0.55966524146E+03  0.00000000000E+00 0. -1.
          5    1    4    4  502    0 -0.43625467894E+01  0.74232301003E+02  0.32215147192E+02  0.81174947091E+02  0.47000000000E+01 0. -1.
         -5    1    4    4    0  502  0.78632842616E+01  0.27740362916E+02 -0.84179950364E+02  0.89105067293E+02  0.47000000000E+01 0. -1.
<mgrwt>
<rscale>  0 0.99949206E+03</rscale>
<asrwt>0</asrwt>
<pdfrwt beam="1">  1        2 0.97429461E-01 0.99949206E+03</pdfrwt>
<pdfrwt beam="2">  1       -2 0.60671076E-01 0.99949206E+03</pdfrwt>
<totfact> 0.14210958E+02</totfact>
</mgrwt>
</event>
<event>
 9    1  0.4412976E-036  0.1000549E+04  0.7818608E-02  0.8680516E-01
         -1   -1    0    0    0  501 -0.00000000000E+00  0.00000000000E+00  0.32988806263E+03  0.32988806263E+03  0.00000000000E+00 0.  1.
          1   -1    0    0  501    0  0.00000000000E+00 -0.00000000000E+00 -0.75866440951E+03  0.75866440951E+03  0.00000000000E+00 0.  1.
         36    2    1    2    0    0 -0.28421709430E-13  0.00000000000E+00 -0.42877634688E+03  0.10885524721E+04  0.10005485140E+04 0.  0.
         25    2    3    3    0    0  0.10604380046E+03 -0.85463411388E+02 -0.93145639049E+02  0.20683876556E+03  0.12472723265E+03 0.  0.
         35    2    3    3    0    0 -0.10604380046E+03  0.85463411388E+02 -0.33563070784E+03  0.88171370657E+03  0.80387922353E+03 0.  0.
         22    1    5    5    0    0 -0.39543564990E+03 -0.14399578194E+03 -0.28657896728E+03  0.50914795778E+03  0.00000000000E+00 0.  1.
         22    1    5    5    0    0  0.28939184944E+03  0.22945919332E+03 -0.49051740559E+02  0.37256574879E+03  0.00000000000E+00 0.  1.
          5    1    4    4  502    0 -0.56034713731E+00  0.28305167945E+02 -0.14567996470E+02  0.32184049503E+02  0.47000000000E+01 0.  1.
         -5    1    4    4    0  502  0.10660414760E+03 -0.11376857933E+03 -0.78577642579E+02  0.17465471606E+03  0.47000000000E+01 0.  1.
<mgrwt>
<rscale>  0 0.10005485E+04</rscale>
<asrwt>0</asrwt>
<pdfrwt beam="1">  1        1 0.11671760E+00 0.10005485E+04</pdfrwt>
<pdfrwt beam="2">  1       -1 0.50752010E-01 0.10005485E+04</pdfrwt>
<totfact> 0.10729967E+02</totfact>
</mgrwt>
</event>
<event>
 9    1  0.4412976E-036  0.9999885E+03  0.7818608E-02  0.8681049E-01
         -1   -1    0    0    0  501 -0.00000000000E+00  0.00000000000E+00  0.25962223505E+03  0.25962223505E+03  0.00000000000E+00 0.  1.
          1   -1    0    0  501    0  0.00000000000E+00 -0.00000000000E+00 -0.96291532001E+03  0.96291532001E+03  0.00000000000E+00 0.  1.
         36    2    1    2    0    0  0.71054273576E-14  0.35527136788E-14 -0.70329308496E+03  0.12225375551E+04  0.99998845503E+03 0.  0.
         25    2    3    3    0    0 -0.40392416360E+02  0.13591833889E+01 -0.29752189406E+03  0.32533526686E+03  0.12526118208E+03 0.  0.
         35    2    3    3    0    0  0.40392416360E+02 -0.13591833889E+01 -0.40577119089E+03  0.89720228821E+03  0.79917976196E+03 0.  0.
         22    1    5    5    0    0  0.86461735035E+02 -0.33788765959E+03  0.23777242802E+02  0.34958412350E+03  0.00000000000E+00 0.  1.
         22    1    5    5    0    0 -0.46069318675E+02  0.33652847620E+03 -0.42954843370E+03  0.54761816470E+03  0.00000000000E+00 0.  1.
          5    1    4    4  502    0 -0.72447844049E+02 -0.22008132489E+02 -0.25884643110E+03  0.26973433763E+03  0.47000000000E+01 0.  1.
         -5    1    4    4    0  502  0.32055427689E+02  0.23367315878E+02 -0.38675462960E+02  0.55600929226E+02  0.47000000000E+01 0.  1.
<mgrwt>
<rscale>  0 0.99998846E+03</rscale>
<asrwt>0</asrwt>
<pdfrwt beam="1">  1        1 0.14814082E+00 0.99998846E+03</pdfrwt>
<pdfrwt beam="2">  1       -1 0.39941882E-01 0.99998846E+03</pdfrwt>
<totfact> 0.11097011E+02</totfact>
</mgrwt>
</event>
<event>
 9    1  0.4412976E-036  0.9996273E+03  0.7818608E-02  0.8681393E-01
         -2   -1    0    0    0  501 -0.00000000000E+00  0.00000000000E+00  0.14730784627E+03  0.14730784627E+03  0.00000000000E+00 0.  1.
          2   -1    0    0  501    0  0.00000000000E+00 -0.00000000000E+00 -0.16958614500E+04  0.16958614500E+04  0.00000000000E+00 0.  1.
         36    2    1    2    0    0  0.00000000000E+00 -0.56843418861E-13 -0.15485536037E+04  0.18431692962E+04  0.99962732609E+03 0.  0.
         25    2    3    3    0    0 -0.76511351975E+02  0.10209826668E+03 -0.34047566814E+03  0.38442649702E+03  0.12482791345E+03 0.  0.
         35    2    3    3    0    0  0.76511351975E+02 -0.10209826668E+03 -0.12080779356E+04  0.14587427992E+04  0.80758913616E+03 0.  0.
         22    1    5    5    0    0 -0.20786327943E+03  0.24958584113E+03 -0.73854201669E+03  0.80681134440E+03  0.00000000000E+00 0. -1.
         22    1    5    5    0    0  0.28437463140E+03 -0.35168410782E+03 -0.46953591887E+03  0.65193145482E+03  0.00000000000E+00 0. -1.
          5    1    4    4  502    0 -0.71412821566E+02 -0.28100150667E+01 -0.16483695533E+03  0.17972478714E+03  0.47000000000E+01 0.  1.
         -5    1    4    4    0  502 -0.50985304090E+01  0.10490828175E+03 -0.17563871281E+03  0.20470170988E+03  0.47000000000E+01 0.  1.
<mgrwt>
<rscale>  0 0.99962733E+03</rscale>
<asrwt>0</asrwt>
<pdfrwt beam="1">  1        2 0.26090175E+00 0.99962733E+03</pdfrwt>
<pdfrwt beam="2">  1       -2 0.22662746E-01 0.99962733E+03</pdfrwt>
<totfact> 0.20035657E+02</totfact>
</mgrwt>
</event>
<event>
 9    1  0.4412976E-036  0.9996806E+03  0.7818608E-02  0.8681342E-01
          2   -1    0    0  501    0  0.00000000000E+00  0.00000000000E+00  0.74757051985E+03  0.74757051985E+03  0.00000000000E+00 0. -1.
         -2   -1    0    0    0  501 -0.00000000000E+00 -0.00000000000E+00 -0.33420303812E+03  0.33420303812E+03  0.00000000000E+00 0. -1.
         36    2    1    2    0    0 -0.35527136788E-14 -0.17763568394E-14  0.41336748173E+03  0.10817735580E+04  0.99968062689E+03 0.  0.
         25    2    3    3    0    0 -0.41790828743E+01 -0.11342481696E+02 -0.72618503896E+02  0.14533815148E+03  0.12531406363E+03 0.  0.
         35    2    3    3    0    0  0.41790828743E+01  0.11342481696E+02  0.48598598562E+03  0.93643540649E+03  0.80036415192E+03 0.  0.
         22    1    5    5    0    0 -0.72587036471E+02 -0.14743376866E+02 -0.21674044069E+03  0.22904729567E+03  0.00000000000E+00 0.  1.
         22    1    5    5    0    0  0.76766119345E+02  0.26085858561E+02  0.70272642631E+03  0.70738811082E+03  0.00000000000E+00 0.  1.
          5    1    4    4  502    0 -0.28414635098E+02  0.32056075610E+02 -0.83747113750E+02  0.94184141620E+02  0.47000000000E+01 0.  1.
         -5    1    4    4    0  502  0.24235552224E+02 -0.43398557305E+02  0.11128609854E+02  0.51154009863E+02  0.47000000000E+01 0.  1.
<mgrwt>
<rscale>  0 0.99968063E+03</rscale>
<asrwt>0</asrwt>
<pdfrwt beam="1">  1        2 0.11501085E+00 0.99968063E+03</pdfrwt>
<pdfrwt beam="2">  1       -2 0.51415852E-01 0.99968063E+03</pdfrwt>
<totfact> 0.16289963E+02</totfact>
</mgrwt>
</event>
<event>
 9    1  0.4412976E-036  0.1001022E+04  0.7818608E-02  0.8680066E-01
         -2   -1    0    0    0  501 -0.00000000000E+00  0.00000000000E+00  0.80076485878E+02  0.80076485878E+02  0.00000000000E+00 0. -1.
          2   -1    0    0  501    0  0.00000000000E+00 -0.00000000000E+00 -0.31283974732E+04  0.31283974732E+04  0.00000000000E+00 0. -1.
         36    2    1    2    0    0  0.00000000000E+00  0.14210854715E-13 -0.30483209873E+04  0.32084739591E+04  0.10010216303E+04 0.  0.
         25    2    3    3    0    0  0.65267121164E+02 -0.11677359871E+03 -0.70563466355E+03  0.72924805102E+03  0.12643801270E+03 0.  0.
         35    2    3    3    0    0 -0.65267121164E+02  0.11677359871E+03 -0.23426863238E+04  0.24792259081E+04  0.80030370556E+03 0.  0.
         22    1    5    5    0    0  0.13668760811E+03  0.19504212001E+03 -0.16254038136E+03  0.28834754440E+03  0.00000000000E+00 0. -1.
         22    1    5    5    0    0 -0.20195472928E+03 -0.78268521302E+02 -0.21801459424E+04  0.21908783637E+04  0.00000000000E+00 0. -1.
          5    1    4    4  502    0 -0.34646757243E+02 -0.71814274475E+01 -0.13541132826E+03  0.14003673985E+03  0.47000000000E+01 0. -1.
         -5    1    4    4    0  502  0.99913878408E+02 -0.10959217126E+03 -0.57022333529E+03  0.58921131117E+03  0.47000000000E+01 0. -1.
<mgrwt>
<rscale>  0 0.10010216E+04</rscale>
<asrwt>0</asrwt>
<pdfrwt beam="1">  1        2 0.48129180E+00 0.10010216E+04</pdfrwt>
<pdfrwt beam="2">  1       -2 0.12319463E-01 0.10010216E+04</pdfrwt>
<totfact> 0.75979168E+01</totfact>
</mgrwt>
</event>
<event>
 9    1  0.4412976E-036  0.9983208E+03  0.7818608E-02  0.8682639E-01
         -2   -1    0    0    0  501 -0.00000000000E+00  0.00000000000E+00  0.27568013484E+03  0.27568013484E+03  0.00000000000E+00 0. -1.
          2   -1    0    0  501    0  0.00000000000E+00 -0.00000000000E+00 -0.90380514052E+03  0.90380514052E+03  0.00000000000E+00 0. -1.
         36    2    1    2    0    0  0.14210854715E-13  0.14210854715E-13 -0.62812500567E+03  0.11794852754E+04  0.99832083623E+03 0.  0.
         25    2    3    3    0    0  0.21417680712E+01  0.12192019641E+03 -0.18469751106E+03  0.25426237007E+03  0.12516813005E+03 0.  0.
         35    2    3    3    0    0 -0.21417680712E+01 -0.12192019641E+03 -0.44342749462E+03  0.92522290529E+03  0.80283270987E+03 0.  0.
         22    1    5    5    0    0  0.17338804007E+03  0.22061849851E+02 -0.61583033526E+03  0.64015399669E+03  0.00000000000E+00 0.  1.
         22    1    5    5    0    0 -0.17552980814E+03 -0.14398204626E+03  0.17240284064E+03  0.28506890860E+03  0.00000000000E+00 0.  1.
          5    1    4    4  502    0 -0.27729054176E+02  0.50739738467E+02 -0.45203717064E+01  0.58188875789E+02  0.47000000000E+01 0.  1.
         -5    1    4    4    0  502  0.29870822247E+02  0.71180457945E+02 -0.18017713935E+03  0.19607349428E+03  0.47000000000E+01 0.  1.
<mgrwt>
<rscale>  0 0.99832084E+03</rscale>
<asrwt>0</asrwt>
<pdfrwt beam="1">  1        2 0.13904694E+00 0.99832084E+03</pdfrwt>
<pdfrwt beam="2">  1       -2 0.42412329E-01 0.99832084E+03</pdfrwt>
<totfact> 0.18578960E+02</totfact>
</mgrwt>
</event>
<event>
 9    1  0.4412976E-036  0.1005808E+04  0.7818608E-02  0.8675526E-01
          2   -1    0    0  501    0  0.00000000000E+00  0.00000000000E+00  0.13597194667E+04  0.13597194667E+04  0.00000000000E+00 0. -1.
         -2   -1    0    0    0  501 -0.00000000000E+00 -0.00000000000E+00 -0.18600351565E+03  0.18600351565E+03  0.00000000000E+00 0. -1.
         36    2    1    2    0    0  0.00000000000E+00  0.00000000000E+00  0.11737159511E+04  0.15457229824E+04  0.10058083339E+04 0.  0.
         25    2    3    3    0    0  0.36804893850E+02  0.13746132602E+03  0.26983371818E+03  0.33007423735E+03  0.12604979307E+03 0.  0.
         35    2    3    3    0    0 -0.36804893850E+02 -0.13746132602E+03  0.90388223290E+03  0.12156487450E+04  0.80034277906E+03 0.  0.
         22    1    5    5    0    0 -0.23477555002E+03 -0.31948857330E+03  0.16516817970E+03  0.42950324206E+03  0.00000000000E+00 0. -1.
         22    1    5    5    0    0  0.19797065617E+03  0.18202724728E+03  0.73871405320E+03  0.78614550298E+03  0.00000000000E+00 0. -1.
          5    1    4    4  502    0  0.50005186903E+02  0.99366254369E+02  0.26711826871E+03  0.28939321123E+03  0.47000000000E+01 0. -1.
         -5    1    4    4    0  502 -0.13200293054E+02  0.38095071648E+02  0.27154494664E+01  0.40681026122E+02  0.47000000000E+01 0. -1.
<mgrwt>
<rscale>  0 0.10058083E+04</rscale>
<asrwt>0</asrwt>
<pdfrwt beam="1">  1        2 0.20918760E+00 0.10058083E+04</pdfrwt>
<pdfrwt beam="2">  1       -2 0.28615926E-01 0.10058083E+04</pdfrwt>
<totfact> 0.20509531E+02</totfact>
</mgrwt>
</event>
<event>
 9    1  0.4412976E-036  0.1001405E+04  0.7818608E-02  0.8679701E-01
          1   -1    0    0  501    0  0.00000000000E+00  0.00000000000E+00  0.20645380060E+04  0.20645380060E+04  0.00000000000E+00 0.  1.
         -1   -1    0    0    0  501 -0.00000000000E+00 -0.00000000000E+00 -0.12143292951E+03  0.12143292951E+03  0.00000000000E+00 0.  1.
         36    2    1    2    0    0 -0.14210854715E-13  0.00000000000E+00  0.19431050765E+04  0.21859709355E+04  0.10014048095E+04 0.  0.
         25    2    3    3    0    0 -0.12778134586E+03  0.32228872248E+02  0.47693709181E+03  0.51026781241E+03  0.12464942150E+03 0.  0.
         35    2    3    3    0    0  0.12778134586E+03 -0.32228872248E+02  0.14661679847E+04  0.16757031231E+04  0.80060328808E+03 0.  0.
         22    1    5    5    0    0  0.14604815825E+03 -0.13695148056E+03 -0.54130778996E+01  0.20028747831E+03  0.00000000000E+00 0. -1.
         22    1    5    5    0    0 -0.18266812392E+02  0.10472260831E+03  0.14715810626E+04  0.14754156448E+04  0.00000000000E+00 0. -1.
          5    1    4    4  502    0 -0.13717764906E+03  0.31139104688E+02  0.28323143398E+03  0.31627438473E+03  0.47000000000E+01 0. -1.
         -5    1    4    4    0  502  0.93963031978E+01  0.10897675605E+01  0.19370565783E+03  0.19399342768E+03  0.47000000000E+01 0. -1.
<mgrwt>
<rscale>  0 0.10014048E+04</rscale>
<asrwt>0</asrwt>
<pdfrwt beam="1">  1        1 0.31762120E+00 0.10014048E+04</pdfrwt>
<pdfrwt beam="2">  1       -1 0.18681991E-01 0.10014048E+04</pdfrwt>
<totfact> 0.64212077E+01</totfact>
</mgrwt>
</event>
<event>
 9    1  0.4412976E-036  0.9997057E+03  0.7818608E-02  0.8681318E-01
          2   -1    0    0  501    0  0.00000000000E+00  0.00000000000E+00  0.14907096250E+04  0.14907096250E+04  0.00000000000E+00 0. -1.
         -2   -1    0    0    0  501 -0.00000000000E+00 -0.00000000000E+00 -0.16760667103E+03  0.16760667103E+03  0.00000000000E+00 0. -1.
         36    2    1    2    0    0  0.28421709430E-13  0.00000000000E+00  0.13231029539E+04  0.16583162960E+04  0.99970571212E+03 0.  0.
         25    2    3    3    0    0 -0.11118122892E+03 -0.73272765097E+02  0.17595898334E+03  0.25365017273E+03  0.12508670009E+03 0.  0.
         35    2    3    3    0    0  0.11118122892E+03  0.73272765097E+02  0.11471439706E+04  0.14046661233E+04  0.79963583262E+03 0.  0.
         22    1    5    5    0    0  0.29603200292E+03 -0.89419957835E+02  0.11140848984E+04  0.11562076096E+04  0.00000000000E+00 0.  1.
         22    1    5    5    0    0 -0.18485077400E+03  0.16269272293E+03  0.33059072141E+02  0.24845851363E+03  0.00000000000E+00 0.  1.
          5    1    4    4  502    0 -0.15197751768E+02 -0.65985279498E+02  0.20790440659E+02  0.70988458160E+02  0.47000000000E+01 0. -1.
         -5    1    4    4    0  502 -0.95983477152E+02 -0.72874855988E+01  0.15516854268E+03  0.18266171457E+03  0.47000000000E+01 0. -1.
<mgrwt>
<rscale>  0 0.99970571E+03</rscale>
<asrwt>0</asrwt>
<pdfrwt beam="1">  1        2 0.22933993E+00 0.99970571E+03</pdfrwt>
<pdfrwt beam="2">  1       -2 0.25785643E-01 0.99970571E+03</pdfrwt>
<totfact> 0.20821541E+02</totfact>
</mgrwt>
</event>
<event>
 9    1  0.4412976E-036  0.1001363E+04  0.7818608E-02  0.8679741E-01
         -2   -1    0    0    0  501 -0.00000000000E+00  0.00000000000E+00  0.22112311648E+03  0.22112311648E+03  0.00000000000E+00 0.  1.
          2   -1    0    0  501    0  0.00000000000E+00 -0.00000000000E+00 -0.11336752197E+04  0.11336752197E+04  0.00000000000E+00 0.  1.
         36    2    1    2    0    0  0.00000000000E+00  0.00000000000E+00 -0.91255210325E+03  0.13547983362E+04  0.10013626669E+04 0.  0.
         25    2    3    3    0    0  0.61989026753E+02  0.26042763817E+02 -0.33891659497E+03  0.36717016816E+03  0.12421195214E+03 0.  0.
         35    2    3    3    0    0 -0.61989026753E+02 -0.26042763817E+02 -0.57363550828E+03  0.98762816805E+03  0.80114345593E+03 0.  0.
         22    1    5    5    0    0 -0.12794703185E+01  0.48905230783E+02  0.20107287025E+03  0.20693877789E+03  0.00000000000E+00 0. -1.
         22    1    5    5    0    0 -0.60709556435E+02 -0.74947994600E+02 -0.77470837853E+03  0.78068939016E+03  0.00000000000E+00 0. -1.
          5    1    4    4  502    0  0.45817360844E+02 -0.17581921448E+02 -0.30609312173E+03  0.31003781009E+03  0.47000000000E+01 0.  1.
         -5    1    4    4    0  502  0.16171665909E+02  0.43624685265E+02 -0.32823473242E+02  0.57132358068E+02  0.47000000000E+01 0.  1.
<mgrwt>
<rscale>  0 0.10013627E+04</rscale>
<asrwt>0</asrwt>
<pdfrwt beam="1">  1        2 0.17441157E+00 0.10013627E+04</pdfrwt>
<pdfrwt beam="2">  1       -2 0.34018941E-01 0.10013627E+04</pdfrwt>
<totfact> 0.20265889E+02</totfact>
</mgrwt>
</event>
<event>
 9    1  0.4412976E-036  0.9997630E+03  0.7818608E-02  0.8681264E-01
         -2   -1    0    0    0  501 -0.00000000000E+00  0.00000000000E+00  0.16786456641E+04  0.16786456641E+04  0.00000000000E+00 0. -1.
          2   -1    0    0  501    0  0.00000000000E+00 -0.00000000000E+00 -0.14885900028E+03  0.14885900028E+03  0.00000000000E+00 0. -1.
         36    2    1    2    0    0  0.28421709430E-13  0.35527136788E-14  0.15297866638E+04  0.18275046644E+04  0.99976300269E+03 0.  0.
         25    2    3    3    0    0  0.14128488913E+03  0.13942699001E+02  0.22732724307E+03  0.29512539845E+03  0.12355365885E+03 0.  0.
         35    2    3    3    0    0 -0.14128488913E+03 -0.13942699001E+02  0.13024594208E+04  0.15323792659E+04  0.79475144116E+03 0.  0.
         22    1    5    5    0    0 -0.19358935172E+03 -0.25893479307E+02  0.14040082551E+04  0.14175283029E+04  0.00000000000E+00 0. -1.
         22    1    5    5    0    0  0.52304462590E+02  0.11950780306E+02 -0.10154883430E+03  0.11485096301E+03  0.00000000000E+00 0. -1.
          5    1    4    4  502    0  0.12225625814E+03 -0.27405507341E+02  0.10174921538E+03  0.16147026760E+03  0.47000000000E+01 0.  1.
         -5    1    4    4    0  502  0.19028630995E+02  0.41348206342E+02  0.12557802769E+03  0.13365513085E+03  0.47000000000E+01 0.  1.
<mgrwt>
<rscale>  0 0.99976300E+03</rscale>
<asrwt>0</asrwt>
<pdfrwt beam="1">  1        2 0.22901386E-01 0.99976300E+03</pdfrwt>
<pdfrwt beam="2">  1       -2 0.25825317E+00 0.99976300E+03</pdfrwt>
<totfact> 0.14866748E+01</totfact>
</mgrwt>
</event>
<event>
 9    1  0.4412976E-036  0.9997696E+03  0.7818608E-02  0.8681257E-01
          2   -1    0    0  501    0  0.00000000000E+00  0.00000000000E+00  0.33231090476E+03  0.33231090476E+03  0.00000000000E+00 0. -1.
         -2   -1    0    0    0  501 -0.00000000000E+00 -0.00000000000E+00 -0.75196090796E+03  0.75196090796E+03  0.00000000000E+00 0. -1.
         36    2    1    2    0    0  0.00000000000E+00  0.00000000000E+00 -0.41965000321E+03  0.10842718127E+04  0.99976959279E+03 0.  0.
         25    2    3    3    0    0  0.89638093576E+02 -0.13356795289E+02  0.37495882079E+02  0.15880954839E+03  0.12490452229E+03 0.  0.
         35    2    3    3    0    0 -0.89638093576E+02  0.13356795289E+02 -0.45714588529E+03  0.92546226433E+03  0.79955278154E+03 0.  0.
         22    1    5    5    0    0 -0.11114262889E+03  0.37180539947E+03 -0.64521293982E+02  0.39338903951E+03  0.00000000000E+00 0.  1.
         22    1    5    5    0    0  0.21504535309E+02 -0.35844860418E+03 -0.39262459130E+03  0.53207322482E+03  0.00000000000E+00 0.  1.
          5    1    4    4  502    0 -0.85664054783E+00 -0.84457124083E+01 -0.38957501240E+02  0.40147737097E+02  0.47000000000E+01 0.  1.
         -5    1    4    4    0  502  0.90494734124E+02 -0.49110828811E+01  0.76453383319E+02  0.11866181130E+03  0.47000000000E+01 0.  1.
<mgrwt>
<rscale>  0 0.99976959E+03</rscale>
<asrwt>0</asrwt>
<pdfrwt beam="1">  1        2 0.51124755E-01 0.99976959E+03</pdfrwt>
<pdfrwt beam="2">  1       -2 0.11568629E+00 0.99976959E+03</pdfrwt>
<totfact> 0.66681585E+01</totfact>
</mgrwt>
</event>
<event>
 9    1  0.4412976E-036  0.1000364E+04  0.7818608E-02  0.8680691E-01
         -2   -1    0    0    0  501 -0.00000000000E+00  0.00000000000E+00  0.27219968398E+03  0.27219968398E+03  0.00000000000E+00 0.  1.
          2   -1    0    0  501    0  0.00000000000E+00 -0.00000000000E+00 -0.91911292991E+03  0.91911292991E+03  0.00000000000E+00 0.  1.
         36    2    1    2    0    0  0.00000000000E+00 -0.28421709430E-13 -0.64691324593E+03  0.11913126139E+04  0.10003644317E+04 0.  0.
         25    2    3    3    0    0 -0.95202917363E+02 -0.10375557212E+03 -0.13115339427E+03  0.22943684616E+03  0.12494494518E+03 0.  0.
         35    2    3    3    0    0  0.95202917363E+02  0.10375557212E+03 -0.51575985166E+03  0.96187576774E+03  0.79960487352E+03 0.  0.
         22    1    5    5    0    0 -0.29022452070E+03 -0.11887522399E+03 -0.49922051073E+02  0.31757487697E+03  0.00000000000E+00 0.  1.
         22    1    5    5    0    0  0.38542743807E+03  0.22263079612E+03 -0.46583780059E+03  0.64430089078E+03  0.00000000000E+00 0.  1.
          5    1    4    4  502    0 -0.95662000609E+02 -0.12544396240E+03 -0.13402408091E+03  0.20705542815E+03  0.47000000000E+01 0. -1.
         -5    1    4    4    0  502  0.45908324626E+00  0.21688390275E+02  0.28706866423E+01  0.22381418006E+02  0.47000000000E+01 0. -1.
<mgrwt>
<rscale>  0 0.10003644E+04</rscale>
<asrwt>0</asrwt>
<pdfrwt beam="1">  1        2 0.14140199E+00 0.10003644E+04</pdfrwt>
<pdfrwt beam="2">  1       -2 0.41876874E-01 0.10003644E+04</pdfrwt>
<totfact> 0.18606066E+02</totfact>
</mgrwt>
</event>
<event>
 9    1  0.4412976E-036  0.1000521E+04  0.7818608E-02  0.8680542E-01
         -2   -1    0    0    0  501 -0.00000000000E+00  0.00000000000E+00  0.26895990290E+03  0.26895990290E+03  0.00000000000E+00 0.  1.
          2   -1    0    0  501    0  0.00000000000E+00 -0.00000000000E+00 -0.93047515725E+03  0.93047515725E+03  0.00000000000E+00 0.  1.
         36    2    1    2    0    0  0.71054273576E-14  0.00000000000E+00 -0.66151525436E+03  0.11994350602E+04  0.10005208802E+04 0.  0.
         25    2    3    3    0    0  0.50242116897E+02  0.33331787463E+02  0.27320698502E+02  0.14147986994E+03  0.12503941245E+03 0.  0.
         35    2    3    3    0    0 -0.50242116897E+02 -0.33331787463E+02 -0.68883595286E+03  0.10579551902E+04  0.80071151870E+03 0.  0.
         22    1    5    5    0    0  0.38900693584E+01  0.88034694936E+02  0.16862255923E+03  0.19025984241E+03  0.00000000000E+00 0. -1.
         22    1    5    5    0    0 -0.54132186256E+02 -0.12136648240E+03 -0.85745851209E+03  0.86769534780E+03  0.00000000000E+00 0. -1.
          5    1    4    4  502    0  0.77187022726E+01 -0.12840126370E+02 -0.43785288382E+02  0.46515467198E+02  0.47000000000E+01 0.  1.
         -5    1    4    4    0  502  0.42523414625E+02  0.46171913832E+02  0.71105986884E+02  0.94964402746E+02  0.47000000000E+01 0.  1.
<mgrwt>
<rscale>  0 0.10005209E+04</rscale>
<asrwt>0</asrwt>
<pdfrwt beam="1">  1        2 0.14315002E+00 0.10005209E+04</pdfrwt>
<pdfrwt beam="2">  1       -2 0.41378447E-01 0.10005209E+04</pdfrwt>
<totfact> 0.18719522E+02</totfact>
</mgrwt>
</event>
<event>
 9    1  0.4412976E-036  0.1000742E+04  0.7818608E-02  0.8680332E-01
          2   -1    0    0  501    0  0.00000000000E+00  0.00000000000E+00  0.15852502692E+04  0.15852502692E+04  0.00000000000E+00 0.  1.
         -2   -1    0    0    0  501 -0.00000000000E+00 -0.00000000000E+00 -0.15793785246E+03  0.15793785246E+03  0.00000000000E+00 0.  1.
         36    2    1    2    0    0  0.56843418861E-13 -0.14210854715E-13  0.14273124167E+04  0.17431881216E+04  0.10007417711E+04 0.  0.
         25    2    3    3    0    0 -0.12554229596E+03 -0.53472192953E+02  0.23963920796E+03  0.30432270450E+03  0.12870592446E+03 0.  0.
         35    2    3    3    0    0  0.12554229596E+03  0.53472192953E+02  0.11876732088E+04  0.14388654171E+04  0.80071586366E+03 0.  0.
         22    1    5    5    0    0 -0.33621659708E+03 -0.23094229619E+02  0.59311401818E+03  0.68217239915E+03  0.00000000000E+00 0.  1.
         22    1    5    5    0    0  0.46175889304E+03  0.76566422571E+02  0.59455919057E+03  0.75669301798E+03  0.00000000000E+00 0.  1.
          5    1    4    4  502    0 -0.56221262767E+02 -0.34403585667E+02  0.14116780284E+02  0.67570781995E+02  0.47000000000E+01 0. -1.
         -5    1    4    4    0  502 -0.69321033196E+02 -0.19068607285E+02  0.22552242767E+03  0.23675192251E+03  0.47000000000E+01 0. -1.
<mgrwt>
<rscale>  0 0.10007418E+04</rscale>
<asrwt>0</asrwt>
<pdfrwt beam="1">  1        2 0.24388465E+00 0.10007418E+04</pdfrwt>
<pdfrwt beam="2">  1       -2 0.24298132E-01 0.10007418E+04</pdfrwt>
<totfact> 0.20457735E+02</totfact>
</mgrwt>
</event>
<event>
 9    1  0.4412976E-036  0.9976453E+03  0.7818608E-02  0.8683284E-01
         -1   -1    0    0    0  501 -0.00000000000E+00  0.00000000000E+00  0.49760890597E+03  0.49760890597E+03  0.00000000000E+00 0. -1.
          1   -1    0    0  501    0  0.00000000000E+00 -0.00000000000E+00 -0.50003933161E+03  0.50003933161E+03  0.00000000000E+00 0. -1.
         36    2    1    2    0    0  0.00000000000E+00  0.00000000000E+00 -0.24304256427E+01  0.99764823757E+03  0.99764527712E+03 0.  0.
         25    2    3    3    0    0 -0.70175181101E+02 -0.11661997649E+03 -0.10652298226E+02  0.18614971172E+03  0.12654433514E+03 0.  0.
         35    2    3    3    0    0  0.70175181101E+02  0.11661997649E+03  0.82218725829E+01  0.81149852586E+03  0.79996092612E+03 0.  0.
         22    1    5    5    0    0  0.90335748548E+02 -0.33661882867E+03  0.64127962338E+02  0.35437999215E+03  0.00000000000E+00 0. -1.
         22    1    5    5    0    0 -0.20160567447E+02  0.45323880516E+03 -0.55906089755E+02  0.45711853371E+03  0.00000000000E+00 0. -1.
          5    1    4    4  502    0  0.71665693989E+01 -0.10707297770E+03 -0.11874569572E+02  0.10806978150E+03  0.47000000000E+01 0.  1.
         -5    1    4    4    0  502 -0.77341750500E+02 -0.95469987938E+01  0.12222713462E+01  0.78079930223E+02  0.47000000000E+01 0.  1.
<mgrwt>
<rscale>  0 0.99764528E+03</rscale>
<asrwt>0</asrwt>
<pdfrwt beam="1">  1        1 0.76929128E-01 0.99764528E+03</pdfrwt>
<pdfrwt beam="2">  1       -1 0.76555216E-01 0.99764528E+03</pdfrwt>
<totfact> 0.89568816E+01</totfact>
</mgrwt>
</event>
<event>
 9    1  0.4412976E-036  0.1001796E+04  0.7818608E-02  0.8679330E-01
         -3   -1    0    0    0  501 -0.00000000000E+00  0.00000000000E+00  0.23207037249E+03  0.23207037249E+03  0.00000000000E+00 0. -1.
          3   -1    0    0  501    0  0.00000000000E+00 -0.00000000000E+00 -0.10811319687E+04  0.10811319687E+04  0.00000000000E+00 0. -1.
         36    2    1    2    0    0 -0.22204460493E-14  0.28421709430E-13 -0.84906159619E+03  0.13132023412E+04  0.10017957849E+04 0.  0.
         25    2    3    3    0    0 -0.35031325039E+01 -0.81771985273E+02 -0.61414783869E+01  0.14859571343E+03  0.12387105707E+03 0.  0.
         35    2    3    3    0    0  0.35031325039E+01  0.81771985273E+02 -0.84292011780E+03  0.11646066277E+04  0.79943438934E+03 0.  0.
         22    1    5    5    0    0  0.10651979045E+03  0.40763346742E+03 -0.27937739792E+03  0.50553263000E+03  0.00000000000E+00 0.  1.
         22    1    5    5    0    0 -0.10301665795E+03 -0.32586148215E+03 -0.56354271989E+03  0.65907399774E+03  0.00000000000E+00 0.  1.
          5    1    4    4  502    0  0.99799275454E+00  0.65459988999E+01  0.45407344215E+02  0.46127681491E+02  0.47000000000E+01 0.  1.
         -5    1    4    4    0  502 -0.45011252584E+01 -0.88317984173E+02 -0.51548822602E+02  0.10246803194E+03  0.47000000000E+01 0.  1.
<mgrwt>
<rscale>  0 0.10017958E+04</rscale>
<asrwt>0</asrwt>
<pdfrwt beam="1">  1        3 0.16632799E+00 0.10017958E+04</pdfrwt>
<pdfrwt beam="2">  1       -3 0.35703135E-01 0.10017958E+04</pdfrwt>
<totfact> 0.78696551E+00</totfact>
</mgrwt>
</event>
<event>
 9    1  0.4412976E-036  0.1002365E+04  0.7818608E-02  0.8678789E-01
         -1   -1    0    0    0  501 -0.00000000000E+00  0.00000000000E+00  0.24805540484E+03  0.24805540484E+03  0.00000000000E+00 0. -1.
          1   -1    0    0  501    0  0.00000000000E+00 -0.00000000000E+00 -0.10126117484E+04  0.10126117484E+04  0.00000000000E+00 0. -1.
         36    2    1    2    0    0  0.14210854715E-13 -0.28421709430E-13 -0.76455634354E+03  0.12606671532E+04  0.10023648382E+04 0.  0.
         25    2    3    3    0    0 -0.57427340249E+02  0.12883426354E+03 -0.17266106421E+03  0.25544018394E+03  0.12466626491E+03 0.  0.
         35    2    3    3    0    0  0.57427340249E+02 -0.12883426354E+03 -0.59189527933E+03  0.10052269693E+04  0.80015315486E+03 0.  0.
         22    1    5    5    0    0  0.30217469343E+03 -0.99336252423E+02  0.45964379833E+02  0.32138755515E+03  0.00000000000E+00 0.  1.
         22    1    5    5    0    0 -0.24474735318E+03 -0.29498011113E+02 -0.63785965916E+03  0.68383941414E+03  0.00000000000E+00 0.  1.
          5    1    4    4  502    0 -0.28628502156E+02  0.13285086024E+03 -0.17950979320E+03  0.22519946282E+03  0.47000000000E+01 0. -1.
         -5    1    4    4    0  502 -0.28798838093E+02 -0.40165966997E+01  0.68487289904E+01  0.30240721112E+02  0.47000000000E+01 0. -1.
<mgrwt>
<rscale>  0 0.10023648E+04</rscale>
<asrwt>0</asrwt>
<pdfrwt beam="1">  1        1 0.15578642E+00 0.10023648E+04</pdfrwt>
<pdfrwt beam="2">  1       -1 0.38162371E-01 0.10023648E+04</pdfrwt>
<totfact> 0.10978376E+02</totfact>
</mgrwt>
</event>
<event>
 9    1  0.4412976E-036  0.9987265E+03  0.7818608E-02  0.8682252E-01
         -2   -1    0    0    0  501 -0.00000000000E+00  0.00000000000E+00  0.21210996236E+03  0.21210996236E+03  0.00000000000E+00 0. -1.
          2   -1    0    0  501    0  0.00000000000E+00 -0.00000000000E+00 -0.11756339396E+04  0.11756339396E+04  0.00000000000E+00 0. -1.
         36    2    1    2    0    0  0.28421709430E-13  0.14210854715E-13 -0.96352397727E+03  0.13877439020E+04  0.99872653049E+03 0.  0.
         25    2    3    3    0    0 -0.91768249358E+02 -0.10317322847E+03 -0.20593429998E+03  0.27736020149E+03  0.12431258505E+03 0.  0.
         35    2    3    3    0    0  0.91768249358E+02  0.10317322847E+03 -0.75758967729E+03  0.11103837005E+04  0.79996482204E+03 0.  0.
         22    1    5    5    0    0 -0.14794706231E+03 -0.37837900784E+01  0.12241567725E+03  0.19206313636E+03  0.00000000000E+00 0.  1.
         22    1    5    5    0    0  0.23971531167E+03  0.10695701855E+03 -0.88000535454E+03  0.91832056412E+03  0.00000000000E+00 0.  1.
          5    1    4    4  502    0 -0.53319589559E+02  0.12918651798E+02 -0.10564480332E+03  0.11913347415E+03  0.47000000000E+01 0. -1.
         -5    1    4    4    0  502 -0.38448659799E+02 -0.11609188027E+03 -0.10028949666E+03  0.15822672734E+03  0.47000000000E+01 0. -1.
<mgrwt>
<rscale>  0 0.99872653E+03</rscale>
<asrwt>0</asrwt>
<pdfrwt beam="1">  1        2 0.18086676E+00 0.99872653E+03</pdfrwt>
<pdfrwt beam="2">  1       -2 0.32632302E-01 0.99872653E+03</pdfrwt>
<totfact> 0.20661381E+02</totfact>
</mgrwt>
</event>
<event>
 9    1  0.4412976E-036  0.1001078E+04  0.7818608E-02  0.8680012E-01
         -2   -1    0    0    0  501 -0.00000000000E+00  0.00000000000E+00  0.84085684644E+02  0.84085684644E+02  0.00000000000E+00 0.  1.
          2   -1    0    0  501    0  0.00000000000E+00 -0.00000000000E+00 -0.29795734492E+04  0.29795734492E+04  0.00000000000E+00 0.  1.
         36    2    1    2    0    0 -0.14210854715E-13  0.00000000000E+00 -0.28954877646E+04  0.30636591339E+04  0.10010783654E+04 0.  0.
         25    2    3    3    0    0 -0.12610213147E+03  0.53670527282E+02 -0.63581259233E+03  0.66246065125E+03  0.12575447839E+03 0.  0.
         35    2    3    3    0    0  0.12610213147E+03 -0.53670527282E+02 -0.22596751723E+04  0.24011984826E+04  0.80052482521E+03 0.  0.
         22    1    5    5    0    0 -0.16780965758E+03 -0.32644020552E+03 -0.14752708945E+04  0.15202458687E+04  0.00000000000E+00 0. -1.
         22    1    5    5    0    0  0.29391178905E+03  0.27276967824E+03 -0.78440427774E+03  0.88095261396E+03  0.00000000000E+00 0. -1.
          5    1    4    4  502    0 -0.43992758871E+02 -0.40756201582E+02 -0.23249637984E+03  0.24015221722E+03  0.47000000000E+01 0.  1.
         -5    1    4    4    0  502 -0.82109372601E+02  0.94426728864E+02 -0.40331621249E+03  0.42230843403E+03  0.47000000000E+01 0.  1.
<mgrwt>
<rscale>  0 0.10010784E+04</rscale>
<asrwt>0</asrwt>
<pdfrwt beam="1">  1        2 0.45839582E+00 0.10010784E+04</pdfrwt>
<pdfrwt beam="2">  1       -2 0.12936262E-01 0.10010784E+04</pdfrwt>
<totfact> 0.88354132E+01</totfact>
</mgrwt>
</event>
<event>
 9    1  0.4412976E-036  0.9972966E+03  0.7818608E-02  0.8683617E-01
          2   -1    0    0  501    0  0.00000000000E+00  0.00000000000E+00  0.22052496076E+04  0.22052496076E+04  0.00000000000E+00 0. -1.
         -2   -1    0    0    0  501 -0.00000000000E+00 -0.00000000000E+00 -0.11275373952E+03  0.11275373952E+03  0.00000000000E+00 0. -1.
         36    2    1    2    0    0 -0.28421709430E-13 -0.71054273576E-14  0.20924958681E+04  0.23180033471E+04  0.99729662554E+03 0.  0.
         25    2    3    3    0    0 -0.48436002843E+02  0.43508116596E+02  0.10829231276E+03  0.17754927707E+03  0.12472978075E+03 0.  0.
         35    2    3    3    0    0  0.48436002843E+02 -0.43508116596E+02  0.19842035553E+04  0.21404540700E+04  0.80015053235E+03 0.  0.
         22    1    5    5    0    0 -0.25382522151E+03  0.16380071588E+03  0.33533346292E+03  0.45133850816E+03  0.00000000000E+00 0.  1.
         22    1    5    5    0    0  0.30226122435E+03 -0.20730883248E+03  0.16488700924E+04  0.16891155619E+04  0.00000000000E+00 0.  1.
          5    1    4    4  502    0  0.16920814865E+02 -0.34326142499E+02  0.23930822655E+02  0.45380307485E+02  0.47000000000E+01 0. -1.
         -5    1    4    4    0  502 -0.65356817708E+02  0.77834259095E+02  0.84361490103E+02  0.13216896959E+03  0.47000000000E+01 0. -1.
<mgrwt>
<rscale>  0 0.99729663E+03</rscale>
<asrwt>0</asrwt>
<pdfrwt beam="1">  1        2 0.33926914E+00 0.99729663E+03</pdfrwt>
<pdfrwt beam="2">  1       -2 0.17346731E-01 0.99729663E+03</pdfrwt>
<totfact> 0.16307804E+02</totfact>
</mgrwt>
</event>
<event>
 9    1  0.4412976E-036  0.1000103E+04  0.7818608E-02  0.8680940E-01
         -2   -1    0    0    0  501 -0.00000000000E+00  0.00000000000E+00  0.17836856704E+03  0.17836856704E+03  0.00000000000E+00 0. -1.
          2   -1    0    0  501    0  0.00000000000E+00 -0.00000000000E+00 -0.14018806307E+04  0.14018806307E+04  0.00000000000E+00 0. -1.
         36    2    1    2    0    0  0.00000000000E+00 -0.42632564146E-13 -0.12235120637E+04  0.15802491978E+04  0.10001028732E+04 0.  0.
         25    2    3    3    0    0 -0.13123482973E+03 -0.55766444001E+02 -0.19678788020E+03  0.27093165213E+03  0.11977484510E+03 0.  0.
         35    2    3    3    0    0  0.13123482973E+03  0.55766444001E+02 -0.10267241835E+04  0.13093175456E+04  0.79988587283E+03 0.  0.
         22    1    5    5    0    0  0.25096556357E+03  0.38513209174E+03 -0.53278997575E+03  0.70368714671E+03  0.00000000000E+00 0.  1.
         22    1    5    5    0    0 -0.11973073383E+03 -0.32936564774E+03 -0.49393420771E+03  0.60563039891E+03  0.00000000000E+00 0.  1.
          5    1    4    4  502    0  0.94372355139E+01  0.15034053814E+02  0.60223655247E+00  0.18372176711E+02  0.47000000000E+01 0.  1.
         -5    1    4    4    0  502 -0.14067206525E+03 -0.70800497815E+02 -0.19739011676E+03  0.25255947542E+03  0.47000000000E+01 0.  1.
<mgrwt>
<rscale>  0 0.10001029E+04</rscale>
<asrwt>0</asrwt>
<pdfrwt beam="1">  1        2 0.21567394E+00 0.10001029E+04</pdfrwt>
<pdfrwt beam="2">  1       -2 0.27441319E-01 0.10001029E+04</pdfrwt>
<totfact> 0.20924939E+02</totfact>
</mgrwt>
</event>
<event>
 9    1  0.4412976E-036  0.1000792E+04  0.7818608E-02  0.8680284E-01
          1   -1    0    0  501    0  0.00000000000E+00  0.00000000000E+00  0.94587467404E+03  0.94587467404E+03  0.00000000000E+00 0.  1.
         -1   -1    0    0    0  501 -0.00000000000E+00 -0.00000000000E+00 -0.26472466025E+03  0.26472466025E+03  0.00000000000E+00 0.  1.
         36    2    1    2    0    0  0.00000000000E+00 -0.71054273576E-14  0.68115001379E+03  0.12105993343E+04  0.10007923895E+04 0.  0.
         25    2    3    3    0    0  0.44219248276E+02 -0.11331010162E+02  0.28770948267E+03  0.31678228144E+03  0.12446097263E+03 0.  0.
         35    2    3    3    0    0 -0.44219248276E+02  0.11331010162E+02  0.39344053113E+03  0.89381705285E+03  0.80126758247E+03 0.  0.
         22    1    5    5    0    0  0.32011342827E+03 -0.10167877711E+03 -0.13369585814E+02  0.33613974251E+03  0.00000000000E+00 0. -1.
         22    1    5    5    0    0 -0.36433267654E+03  0.11300978727E+03  0.40681011694E+03  0.55767731034E+03  0.00000000000E+00 0. -1.
          5    1    4    4  502    0  0.61017078875E+00 -0.93667400017E+01 -0.10800031247E+02  0.15061168666E+02  0.47000000000E+01 0.  1.
         -5    1    4    4    0  502  0.43609077487E+02 -0.19642701608E+01  0.29850951391E+03  0.30172111277E+03  0.47000000000E+01 0.  1.
<mgrwt>
<rscale>  0 0.10007924E+04</rscale>
<asrwt>0</asrwt>
<pdfrwt beam="1">  1        1 0.14551918E+00 0.10007924E+04</pdfrwt>
<pdfrwt beam="2">  1       -1 0.40726871E-01 0.10007924E+04</pdfrwt>
<totfact> 0.11064271E+02</totfact>
</mgrwt>
</event>
<event>
 9    1  0.4412976E-036  0.1003081E+04  0.7818608E-02  0.8678110E-01
         -2   -1    0    0    0  501 -0.00000000000E+00  0.00000000000E+00  0.97569696871E+03  0.97569696871E+03  0.00000000000E+00 0.  1.
          2   -1    0    0  501    0  0.00000000000E+00 -0.00000000000E+00 -0.25780822901E+03  0.25780822901E+03  0.00000000000E+00 0.  1.
         36    2    1    2    0    0  0.35527136788E-13  0.28421709430E-13  0.71788873969E+03  0.12335051977E+04  0.10030806698E+04 0.  0.
         25    2    3    3    0    0  0.29872879753E+02  0.14074356617E+03  0.12705054174E+03  0.22852517346E+03  0.12401925006E+03 0.  0.
         35    2    3    3    0    0 -0.29872879753E+02 -0.14074356617E+03  0.59083819795E+03  0.10049800243E+04  0.80012119872E+03 0.  0.
         22    1    5    5    0    0  0.20700379407E+03 -0.42716993762E+02 -0.12435212658E+03  0.24523206092E+03  0.00000000000E+00 0.  1.
         22    1    5    5    0    0 -0.23687667383E+03 -0.98026572413E+02  0.71519032453E+03  0.75974796334E+03  0.00000000000E+00 0.  1.
          5    1    4    4  502    0  0.75716822024E+02  0.11269973826E+03  0.86774449528E+02  0.16120224326E+03  0.47000000000E+01 0.  1.
         -5    1    4    4    0  502 -0.45843942270E+02  0.28043827916E+02  0.40276092211E+02  0.67322930201E+02  0.47000000000E+01 0.  1.
<mgrwt>
<rscale>  0 0.10030807E+04</rscale>
<asrwt>0</asrwt>
<pdfrwt beam="1">  1        2 0.39662805E-01 0.10030807E+04</pdfrwt>
<pdfrwt beam="2">  1       -2 0.15010722E+00 0.10030807E+04</pdfrwt>
<totfact> 0.44018236E+01</totfact>
</mgrwt>
</event>
<event>
 9    1  0.4412976E-036  0.9994556E+03  0.7818608E-02  0.8681557E-01
          1   -1    0    0  501    0  0.00000000000E+00  0.00000000000E+00  0.36315771093E+03  0.36315771093E+03  0.00000000000E+00 0. -1.
         -1   -1    0    0    0  501 -0.00000000000E+00 -0.00000000000E+00 -0.68765679914E+03  0.68765679914E+03  0.00000000000E+00 0. -1.
         36    2    1    2    0    0 -0.14210854715E-13  0.14210854715E-13 -0.32449908821E+03  0.10508145101E+04  0.99945558998E+03 0.  0.
         25    2    3    3    0    0 -0.94949111343E+02 -0.95731358819E+02 -0.23731197821E+02  0.18516378561E+03  0.12467008842E+03 0.  0.
         35    2    3    3    0    0  0.94949111343E+02  0.95731358819E+02 -0.30076789039E+03  0.86565072446E+03  0.80044364328E+03 0.  0.
         22    1    5    5    0    0  0.37135107000E+03 -0.87923960354E+02 -0.36450917684E+03  0.52773021516E+03  0.00000000000E+00 0. -1.
         22    1    5    5    0    0 -0.27640195866E+03  0.18365531917E+03  0.63741286448E+02  0.33792050930E+03  0.00000000000E+00 0. -1.
          5    1    4    4  502    0 -0.30213150987E+02 -0.70284562074E+02  0.43651548130E+02  0.88206019141E+02  0.47000000000E+01 0. -1.
         -5    1    4    4    0  502 -0.64735960356E+02 -0.25446796745E+02 -0.67382745951E+02  0.96957766474E+02  0.47000000000E+01 0. -1.
<mgrwt>
<rscale>  0 0.99945559E+03</rscale>
<asrwt>0</asrwt>
<pdfrwt beam="1">  1        1 0.55870418E-01 0.99945559E+03</pdfrwt>
<pdfrwt beam="2">  1       -1 0.10579335E+00 0.99945559E+03</pdfrwt>
<totfact> 0.68548828E+01</totfact>
</mgrwt>
</event>
<event>
 9    1  0.4412976E-036  0.1000243E+04  0.7818608E-02  0.8680807E-01
          2   -1    0    0  501    0  0.00000000000E+00  0.00000000000E+00  0.16078303557E+04  0.16078303557E+04  0.00000000000E+00 0. -1.
         -2   -1    0    0    0  501 -0.00000000000E+00 -0.00000000000E+00 -0.15556449348E+03  0.15556449348E+03  0.00000000000E+00 0. -1.
         36    2    1    2    0    0  0.28421709430E-13  0.28421709430E-13  0.14522658622E+04  0.17633948491E+04  0.10002426003E+04 0.  0.
         25    2    3    3    0    0 -0.13001799780E+03  0.50974045603E+02  0.30868949250E+03  0.36097587812E+03  0.12454456523E+03 0.  0.
         35    2    3    3    0    0  0.13001799780E+03 -0.50974045603E+02  0.11435763697E+04  0.14024189710E+04  0.79969308107E+03 0.  0.
         22    1    5    5    0    0 -0.19410286739E+03  0.20835309261E+03  0.84335606068E+03  0.89013278752E+03  0.00000000000E+00 0.  1.
         22    1    5    5    0    0  0.32412086519E+03 -0.25932713821E+03  0.30022030899E+03  0.51228618349E+03  0.00000000000E+00 0.  1.
          5    1    4    4  502    0 -0.11237685160E+03  0.62609675725E+02  0.31341155282E+03  0.33881767915E+03  0.47000000000E+01 0.  1.
         -5    1    4    4    0  502 -0.17641146203E+02 -0.11635630122E+02 -0.47220603198E+01  0.22158198965E+02  0.47000000000E+01 0.  1.
<mgrwt>
<rscale>  0 0.10002426E+04</rscale>
<asrwt>0</asrwt>
<pdfrwt beam="1">  1        2 0.24735850E+00 0.10002426E+04</pdfrwt>
<pdfrwt beam="2">  1       -2 0.23933000E-01 0.10002426E+04</pdfrwt>
<totfact> 0.20405542E+02</totfact>
</mgrwt>
</event>
<event>
 9    1  0.4412976E-036  0.9999916E+03  0.7818608E-02  0.8681046E-01
         -2   -1    0    0    0  501 -0.00000000000E+00  0.00000000000E+00  0.20160127651E+03  0.20160127651E+03  0.00000000000E+00 0. -1.
          2   -1    0    0  501    0  0.00000000000E+00 -0.00000000000E+00 -0.12400507421E+04  0.12400507421E+04  0.00000000000E+00 0. -1.
         36    2    1    2    0    0 -0.21316282073E-13  0.00000000000E+00 -0.10384494656E+04  0.14416520186E+04  0.99999162506E+03 0.  0.
         25    2    3    3    0    0  0.43081629403E+02  0.94683402315E+02 -0.61453732931E+02  0.17471049748E+03  0.12619914093E+03 0.  0.
         35    2    3    3    0    0 -0.43081629403E+02 -0.94683402315E+02 -0.97699573267E+03  0.12669415211E+04  0.79987447946E+03 0.  0.
         22    1    5    5    0    0  0.33171050438E+03 -0.98943944164E+02 -0.18910392191E+03  0.39443891300E+03  0.00000000000E+00 0. -1.
         22    1    5    5    0    0 -0.37479213379E+03  0.42605418488E+01 -0.78789181076E+03  0.87250260815E+03  0.00000000000E+00 0. -1.
          5    1    4    4  502    0  0.93056162202E+01  0.40764474800E+02 -0.94075330148E+02  0.10305626930E+03  0.47000000000E+01 0.  1.
         -5    1    4    4    0  502  0.33776013183E+02  0.53918927515E+02  0.32621597217E+02  0.71654228179E+02  0.47000000000E+01 0.  1.
<mgrwt>
<rscale>  0 0.99999163E+03</rscale>
<asrwt>0</asrwt>
<pdfrwt beam="1">  1        2 0.19077704E+00 0.99999163E+03</pdfrwt>
<pdfrwt beam="2">  1       -2 0.31015581E-01 0.99999163E+03</pdfrwt>
<totfact> 0.20782774E+02</totfact>
</mgrwt>
</event>
<event>
 9    1  0.4412976E-036  0.1000686E+04  0.7818608E-02  0.8680385E-01
          1   -1    0    0  501    0  0.00000000000E+00  0.00000000000E+00  0.17082491402E+04  0.17082491402E+04  0.00000000000E+00 0.  1.
         -1   -1    0    0    0  501 -0.00000000000E+00 -0.00000000000E+00 -0.14654951751E+03  0.14654951751E+03  0.00000000000E+00 0.  1.
         36    2    1    2    0    0  0.00000000000E+00  0.00000000000E+00  0.15616996227E+04  0.18547986577E+04  0.10006859393E+04 0.  0.
         25    2    3    3    0    0  0.85124265662E+02  0.87830144454E+02  0.16576382739E+03  0.24109553296E+03  0.12525627594E+03 0.  0.
         35    2    3    3    0    0 -0.85124265662E+02 -0.87830144454E+02  0.13959357953E+04  0.16137031247E+04  0.80027542466E+03 0.  0.
         22    1    5    5    0    0 -0.73637080496E+02 -0.34196299815E+02 -0.93173257107E+02  0.12358423194E+03  0.00000000000E+00 0.  1.
         22    1    5    5    0    0 -0.11487185166E+02 -0.53633844639E+02  0.14891090524E+04  0.14901188928E+04  0.00000000000E+00 0.  1.
          5    1    4    4  502    0  0.74590693325E+01  0.23220729530E+02  0.13223468700E+03  0.13454717552E+03  0.47000000000E+01 0. -1.
         -5    1    4    4    0  502  0.77665196329E+02  0.64609414923E+02  0.33529140392E+02  0.10654835744E+03  0.47000000000E+01 0. -1.
<mgrwt>
<rscale>  0 0.10006859E+04</rscale>
<asrwt>0</asrwt>
<pdfrwt beam="1">  1        1 0.26280755E+00 0.10006859E+04</pdfrwt>
<pdfrwt beam="2">  1       -1 0.22546081E-01 0.10006859E+04</pdfrwt>
<totfact> 0.83655863E+01</totfact>
</mgrwt>
</event>
<event>
 9    1  0.4412976E-036  0.9995481E+03  0.7818608E-02  0.8681468E-01
         -2   -1    0    0    0  501 -0.00000000000E+00  0.00000000000E+00  0.19849098679E+03  0.19849098679E+03  0.00000000000E+00 0. -1.
          2   -1    0    0  501    0  0.00000000000E+00 -0.00000000000E+00 -0.12583648415E+04  0.12583648415E+04  0.00000000000E+00 0. -1.
         36    2    1    2    0    0 -0.28421709430E-13  0.71054273576E-14 -0.10598738547E+04  0.14568558283E+04  0.99954805613E+03 0.  0.
         25    2    3    3    0    0 -0.12123718205E+03 -0.32427139750E+02 -0.11300174867E+03  0.21138035011E+03  0.12713096991E+03 0.  0.
         35    2    3    3    0    0  0.12123718205E+03  0.32427139750E+02 -0.94687210603E+03  0.12454754782E+04  0.79930745513E+03 0.  0.
         22    1    5    5    0    0  0.15955256869E+03  0.32451349109E+03 -0.86829662211E+03  0.94058760998E+03  0.00000000000E+00 0.  1.
         22    1    5    5    0    0 -0.38315386645E+02 -0.29208635134E+03 -0.78575483928E+02  0.30488786819E+03  0.00000000000E+00 0.  1.
          5    1    4    4  502    0 -0.38767483992E+02 -0.38226400495E+01 -0.11747022445E+03  0.12385020801E+03  0.47000000000E+01 0.  1.
         -5    1    4    4    0  502 -0.82469698056E+02 -0.28604499701E+02  0.44684757848E+01  0.87530142102E+02  0.47000000000E+01 0.  1.
<mgrwt>
<rscale>  0 0.99954806E+03</rscale>
<asrwt>0</asrwt>
<pdfrwt beam="1">  1        2 0.19359459E+00 0.99954806E+03</pdfrwt>
<pdfrwt beam="2">  1       -2 0.30537074E-01 0.99954806E+03</pdfrwt>
<totfact> 0.20861664E+02</totfact>
</mgrwt>
</event>
<event>
 9    1  0.4412976E-036  0.9994366E+03  0.7818608E-02  0.8681575E-01
         -4   -1    0    0    0  501 -0.00000000000E+00  0.00000000000E+00  0.38770132946E+03  0.38770132946E+03  0.00000000000E+00 0. -1.
          4   -1    0    0  501    0  0.00000000000E+00 -0.00000000000E+00 -0.64409987665E+03  0.64409987665E+03  0.00000000000E+00 0. -1.
         36    2    1    2    0    0  0.71054273576E-14  0.14210854715E-13 -0.25639854718E+03  0.10318012061E+04  0.99943659825E+03 0.  0.
         25    2    3    3    0    0  0.24569741689E+02  0.94187218746E+02  0.55645215875E+02  0.16774622856E+03  0.12476979909E+03 0.  0.
         35    2    3    3    0    0 -0.24569741689E+02 -0.94187218746E+02 -0.31204376306E+03  0.86405497755E+03  0.79984047770E+03 0.  0.
         22    1    5    5    0    0 -0.11443532470E+03  0.33920926450E+03 -0.18816453139E+03  0.40443078460E+03  0.00000000000E+00 0. -1.
         22    1    5    5    0    0  0.89865583009E+02 -0.43339648324E+03 -0.12387923167E+03  0.45962419294E+03  0.00000000000E+00 0. -1.
          5    1    4    4  502    0  0.34989876376E+02  0.63572633692E+02 -0.28016910884E+02  0.77928226586E+02  0.47000000000E+01 0. -1.
         -5    1    4    4    0  502 -0.10420134687E+02  0.30614585053E+02  0.83662126759E+02  0.89818001974E+02  0.47000000000E+01 0. -1.
<mgrwt>
<rscale>  0 0.99943660E+03</rscale>
<asrwt>0</asrwt>
<pdfrwt beam="1">  1        4 0.99092289E-01 0.99943660E+03</pdfrwt>
<pdfrwt beam="2">  1       -4 0.59646358E-01 0.99943660E+03</pdfrwt>
<totfact> 0.50276892E+00</totfact>
</mgrwt>
</event>
<event>
 9    1  0.4412976E-036  0.9997380E+03  0.7818608E-02  0.8681287E-01
         -2   -1    0    0    0  501 -0.00000000000E+00  0.00000000000E+00  0.15915816782E+03  0.15915816782E+03  0.00000000000E+00 0. -1.
          2   -1    0    0  501    0  0.00000000000E+00 -0.00000000000E+00 -0.15699415723E+04  0.15699415723E+04  0.00000000000E+00 0. -1.
         36    2    1    2    0    0  0.00000000000E+00  0.14210854715E-13 -0.14107834045E+04  0.17290997402E+04  0.99973801414E+03 0.  0.
         25    2    3    3    0    0 -0.95921535687E+02  0.77334329763E+02 -0.15513493535E+03  0.23524377385E+03  0.12685127277E+03 0.  0.
         35    2    3    3    0    0  0.95921535687E+02 -0.77334329763E+02 -0.12556484692E+04  0.14938559663E+04  0.79985688116E+03 0.  0.
         22    1    5    5    0    0  0.15436235026E+03  0.15923654542E+03 -0.72460511228E+01  0.22189303241E+03  0.00000000000E+00 0. -1.
         22    1    5    5    0    0 -0.58440814574E+02 -0.23657087518E+03 -0.12484024181E+04  0.12719629339E+04  0.00000000000E+00 0. -1.
          5    1    4    4  502    0 -0.67645795887E+02  0.88147335899E+02 -0.43391261184E+02  0.11937670658E+03  0.47000000000E+01 0. -1.
         -5    1    4    4    0  502 -0.28275739801E+02 -0.10813006136E+02 -0.11174367416E+03  0.11586706727E+03  0.47000000000E+01 0. -1.
<mgrwt>
<rscale>  0 0.99973801E+03</rscale>
<asrwt>0</asrwt>
<pdfrwt beam="1">  1        2 0.24152946E+00 0.99973801E+03</pdfrwt>
<pdfrwt beam="2">  1       -2 0.24485873E-01 0.99973801E+03</pdfrwt>
<totfact> 0.20586587E+02</totfact>
</mgrwt>
</event>
<event>
 9    1  0.4412976E-036  0.1000093E+04  0.7818608E-02  0.8680950E-01
         -2   -1    0    0    0  501 -0.00000000000E+00  0.00000000000E+00  0.19239259017E+03  0.19239259017E+03  0.00000000000E+00 0.  1.
          2   -1    0    0  501    0  0.00000000000E+00 -0.00000000000E+00 -0.12996672922E+04  0.12996672922E+04  0.00000000000E+00 0.  1.
         36    2    1    2    0    0  0.00000000000E+00  0.00000000000E+00 -0.11072747020E+04  0.14920598823E+04  0.10000927091E+04 0.  0.
         25    2    3    3    0    0 -0.64504197942E+02  0.11430691320E+03 -0.28212754565E+03  0.33528510316E+03  0.12487308128E+03 0.  0.
         35    2    3    3    0    0  0.64504197942E+02 -0.11430691320E+03 -0.82514715633E+03  0.11567747792E+04  0.80002074856E+03 0.  0.
         22    1    5    5    0    0 -0.27673139702E+03 -0.27362845689E+03 -0.22872544921E+03  0.45140683384E+03  0.00000000000E+00 0. -1.
         22    1    5    5    0    0  0.34123559497E+03  0.15932154369E+03 -0.59642170712E+03  0.70536794532E+03  0.00000000000E+00 0. -1.
          5    1    4    4  502    0 -0.54280543027E+01 -0.10361625337E+02 -0.12704077721E+03  0.12766470197E+03  0.47000000000E+01 0.  1.
         -5    1    4    4    0  502 -0.59076143640E+02  0.12466853853E+03 -0.15508676844E+03  0.20762040120E+03  0.47000000000E+01 0.  1.
<mgrwt>
<rscale>  0 0.10000927E+04</rscale>
<asrwt>0</asrwt>
<pdfrwt beam="1">  1        2 0.19994881E+00 0.10000927E+04</pdfrwt>
<pdfrwt beam="2">  1       -2 0.29598861E-01 0.10000927E+04</pdfrwt>
<totfact> 0.20893673E+02</totfact>
</mgrwt>
</event>
<event>
 9    1  0.4412976E-036  0.1000203E+04  0.7818608E-02  0.8680844E-01
         -1   -1    0    0    0  501 -0.00000000000E+00  0.00000000000E+00  0.25113414270E+03  0.25113414270E+03  0.00000000000E+00 0.  1.
          1   -1    0    0  501    0  0.00000000000E+00 -0.00000000000E+00 -0.99588911531E+03  0.99588911531E+03  0.00000000000E+00 0.  1.
         36    2    1    2    0    0  0.00000000000E+00  0.71054273576E-14 -0.74475497261E+03  0.12470232580E+04  0.10002034977E+04 0.  0.
         25    2    3    3    0    0  0.46846969006E+01  0.18475903344E+02 -0.30155371811E+03  0.33237138218E+03  0.13846582754E+03 0.  0.
         35    2    3    3    0    0 -0.46846969006E+01 -0.18475903344E+02 -0.44320125450E+03  0.91465187583E+03  0.79987336284E+03 0.  0.
         22    1    5    5    0    0  0.12291957424E+03  0.15983887377E+03 -0.60786676258E+03  0.64043710726E+03  0.00000000000E+00 0.  1.
         22    1    5    5    0    0 -0.12760427114E+03 -0.17831477712E+03  0.16466550808E+03  0.27421476857E+03  0.00000000000E+00 0.  1.
          5    1    4    4  502    0 -0.15042836492E+02 -0.35366817118E+02 -0.17396565060E+02  0.42447958239E+02  0.47000000000E+01 0.  1.
         -5    1    4    4    0  502  0.19727533392E+02  0.53842720462E+02 -0.28415715305E+03  0.28992342394E+03  0.47000000000E+01 0.  1.
<mgrwt>
<rscale>  0 0.10002035E+04</rscale>
<asrwt>0</asrwt>
<pdfrwt beam="1">  1        1 0.15321371E+00 0.10002035E+04</pdfrwt>
<pdfrwt beam="2">  1       -1 0.38636022E-01 0.10002035E+04</pdfrwt>
<totfact> 0.11076472E+02</totfact>
</mgrwt>
</event>
<event>
 9    1  0.4412976E-036  0.1000184E+04  0.7818608E-02  0.8680862E-01
          2   -1    0    0  501    0  0.00000000000E+00  0.00000000000E+00  0.14476079081E+04  0.14476079081E+04  0.00000000000E+00 0.  1.
         -2   -1    0    0    0  501 -0.00000000000E+00 -0.00000000000E+00 -0.17276241893E+03  0.17276241893E+03  0.00000000000E+00 0.  1.
         36    2    1    2    0    0  0.14210854715E-13  0.00000000000E+00  0.12748454892E+04  0.16203703270E+04  0.10001844707E+04 0.  0.
         25    2    3    3    0    0 -0.70500057961E+02 -0.11874319433E+03  0.19924748120E+03  0.27281032843E+03  0.12512278833E+03 0.  0.
         35    2    3    3    0    0  0.70500057961E+02  0.11874319433E+03  0.10755980080E+04  0.13475599986E+04  0.79996041823E+03 0.  0.
         22    1    5    5    0    0  0.13592170918E+03 -0.30374818733E+03  0.24447276925E+03  0.41292203530E+03  0.00000000000E+00 0. -1.
         22    1    5    5    0    0 -0.65421651215E+02  0.42249138166E+03  0.83112523871E+03  0.93463796330E+03  0.00000000000E+00 0. -1.
          5    1    4    4  502    0 -0.87780355586E+02 -0.12574634770E+03  0.13048510681E+03  0.20140999947E+03  0.47000000000E+01 0. -1.
         -5    1    4    4    0  502  0.17280297625E+02  0.70031533746E+01  0.68762374394E+02  0.71400328960E+02  0.47000000000E+01 0. -1.
<mgrwt>
<rscale>  0 0.10001845E+04</rscale>
<asrwt>0</asrwt>
<pdfrwt beam="1">  1        2 0.22270890E+00 0.10001845E+04</pdfrwt>
<pdfrwt beam="2">  1       -2 0.26578835E-01 0.10001845E+04</pdfrwt>
<totfact> 0.20867660E+02</totfact>
</mgrwt>
</event>
<event>
 9    1  0.4412976E-036  0.9995308E+03  0.7818608E-02  0.8681485E-01
         -2   -1    0    0    0  501 -0.00000000000E+00  0.00000000000E+00  0.31791358520E+03  0.31791358520E+03  0.00000000000E+00 0. -1.
          2   -1    0    0  501    0  0.00000000000E+00 -0.00000000000E+00 -0.78563949641E+03  0.78563949641E+03  0.00000000000E+00 0. -1.
         36    2    1    2    0    0  0.71054273576E-14  0.00000000000E+00 -0.46772591121E+03  0.11035530816E+04  0.99953082790E+03 0.  0.
         25    2    3    3    0    0 -0.17925415328E+02 -0.13513870324E+03 -0.12239133011E+03  0.22206973093E+03  0.12550513169E+03 0.  0.
         35    2    3    3    0    0  0.17925415328E+02  0.13513870324E+03 -0.34533458110E+03  0.88148335068E+03  0.79948304235E+03 0.  0.
         22    1    5    5    0    0 -0.26510858008E+03  0.29925995932E+03  0.80737559341E+01  0.39988031712E+03  0.00000000000E+00 0.  1.
         22    1    5    5    0    0  0.28303399541E+03 -0.16412125608E+03 -0.35340833703E+03  0.48160303357E+03  0.00000000000E+00 0.  1.
          5    1    4    4  502    0 -0.57127884453E+02 -0.23137536145E+02 -0.66582882035E+02  0.90853238473E+02  0.47000000000E+01 0.  1.
         -5    1    4    4    0  502  0.39202469125E+02 -0.11200116709E+03 -0.55808448080E+02  0.13121649246E+03  0.47000000000E+01 0.  1.
<mgrwt>
<rscale>  0 0.99953083E+03</rscale>
<asrwt>0</asrwt>
<pdfrwt beam="1">  1        2 0.12086761E+00 0.99953083E+03</pdfrwt>
<pdfrwt beam="2">  1       -2 0.48909783E-01 0.99953083E+03</pdfrwt>
<totfact> 0.16903992E+02</totfact>
</mgrwt>
</event>
<event>
 9    1  0.4412976E-036  0.1001673E+04  0.7818608E-02  0.8679446E-01
          2   -1    0    0  501    0  0.00000000000E+00  0.00000000000E+00  0.83106135582E+03  0.83106135582E+03  0.00000000000E+00 0. -1.
         -2   -1    0    0    0  501 -0.00000000000E+00 -0.00000000000E+00 -0.30182768646E+03  0.30182768646E+03  0.00000000000E+00 0. -1.
         36    2    1    2    0    0  0.00000000000E+00  0.00000000000E+00  0.52923366936E+03  0.11328890423E+04  0.10016732528E+04 0.  0.
         25    2    3    3    0    0 -0.13768675638E+03  0.11900302207E+02  0.10315632379E+03  0.21262623284E+03  0.12437615399E+03 0.  0.
         35    2    3    3    0    0  0.13768675638E+03 -0.11900302207E+02  0.42607734557E+03  0.92026280943E+03  0.80389207854E+03 0.  0.
         22    1    5    5    0    0  0.14225622232E+03 -0.15358079210E+03 -0.19326050883E+03  0.28490966422E+03  0.00000000000E+00 0. -1.
         22    1    5    5    0    0 -0.45694659380E+01  0.14168048989E+03  0.61933785440E+03  0.63535314521E+03  0.00000000000E+00 0. -1.
          5    1    4    4  502    0 -0.24413201115E+02  0.50740900383E+02  0.66588719152E+02  0.87331499923E+02  0.47000000000E+01 0.  1.
         -5    1    4    4    0  502 -0.11327355526E+03 -0.38840598176E+02  0.36567604640E+02  0.12529473292E+03  0.47000000000E+01 0.  1.
<mgrwt>
<rscale>  0 0.10016733E+04</rscale>
<asrwt>0</asrwt>
<pdfrwt beam="1">  1        2 0.12785559E+00 0.10016733E+04</pdfrwt>
<pdfrwt beam="2">  1       -2 0.46435029E-01 0.10016733E+04</pdfrwt>
<totfact> 0.17417005E+02</totfact>
</mgrwt>
</event>
<event>
 9    1  0.4412976E-036  0.1000518E+04  0.7818608E-02  0.8680545E-01
         -2   -1    0    0    0  501 -0.00000000000E+00  0.00000000000E+00  0.37620559548E+03  0.37620559548E+03  0.00000000000E+00 0. -1.
          2   -1    0    0  501    0  0.00000000000E+00 -0.00000000000E+00 -0.66521915260E+03  0.66521915260E+03  0.00000000000E+00 0. -1.
         36    2    1    2    0    0  0.00000000000E+00  0.35527136788E-14 -0.28901355711E+03  0.10414247481E+04  0.10005182006E+04 0.  0.
         25    2    3    3    0    0  0.14084211699E+03 -0.10436613972E+02 -0.59755772623E+02  0.19772926332E+03  0.12482261167E+03 0.  0.
         35    2    3    3    0    0 -0.14084211699E+03  0.10436613972E+02 -0.22925778449E+03  0.84369548476E+03  0.79957333273E+03 0.  0.
         22    1    5    5    0    0 -0.72569871971E+02  0.32527145445E+03 -0.36486941008E+03  0.49416352740E+03  0.00000000000E+00 0.  1.
         22    1    5    5    0    0 -0.68272245017E+02 -0.31483484048E+03  0.13561162559E+03  0.34953195736E+03  0.00000000000E+00 0.  1.
          5    1    4    4  502    0  0.15132529359E+03 -0.38457052200E+02 -0.60298001172E+02  0.16744022303E+03  0.47000000000E+01 0.  1.
         -5    1    4    4    0  502 -0.10483176601E+02  0.28020438228E+02  0.54222854848E+00  0.30289040294E+02  0.47000000000E+01 0.  1.
<mgrwt>
<rscale>  0 0.10005182E+04</rscale>
<asrwt>0</asrwt>
<pdfrwt beam="1">  1        2 0.10234141E+00 0.10005182E+04</pdfrwt>
<pdfrwt beam="2">  1       -2 0.57877785E-01 0.10005182E+04</pdfrwt>
<totfact> 0.14771345E+02</totfact>
</mgrwt>
</event>
<event>
 9    1  0.4412976E-036  0.9998127E+03  0.7818608E-02  0.8681216E-01
         -1   -1    0    0    0  501 -0.00000000000E+00  0.00000000000E+00  0.57004037203E+03  0.57004037203E+03  0.00000000000E+00 0.  1.
          1   -1    0    0  501    0  0.00000000000E+00 -0.00000000000E+00 -0.43840118222E+03  0.43840118222E+03  0.00000000000E+00 0.  1.
         36    2    1    2    0    0  0.00000000000E+00  0.00000000000E+00  0.13163918981E+03  0.10084415542E+04  0.99981272848E+03 0.  0.
         25    2    3    3    0    0 -0.75116410067E+02  0.67580121396E+02 -0.75673688607E+02  0.17769763631E+03  0.12506156457E+03 0.  0.
         35    2    3    3    0    0  0.75116410067E+02 -0.67580121396E+02  0.20731287842E+03  0.83074391793E+03  0.79808976923E+03 0.  0.
         22    1    5    5    0    0 -0.17062370924E+02  0.31972245057E+03 -0.91459148137E+02  0.33298400214E+03  0.00000000000E+00 0. -1.
         22    1    5    5    0    0  0.92178780991E+02 -0.38730257197E+03  0.29877202656E+03  0.49775991580E+03  0.00000000000E+00 0. -1.
          5    1    4    4  502    0 -0.22552949530E+02  0.90989619600E+02 -0.74698617927E+02  0.11995715872E+03  0.47000000000E+01 0.  1.
         -5    1    4    4    0  502 -0.52563460536E+02 -0.23409498205E+02 -0.97507067998E+00  0.57740477592E+02  0.47000000000E+01 0.  1.
<mgrwt>
<rscale>  0 0.99981273E+03</rscale>
<asrwt>0</asrwt>
<pdfrwt beam="1">  1        1 0.67446336E-01 0.99981273E+03</pdfrwt>
<pdfrwt beam="2">  1       -1 0.87698519E-01 0.99981273E+03</pdfrwt>
<totfact> 0.80608004E+01</totfact>
</mgrwt>
</event>
<event>
 9    1  0.4412976E-036  0.1000038E+04  0.7818608E-02  0.8681002E-01
          2   -1    0    0  501    0  0.00000000000E+00  0.00000000000E+00  0.46983712667E+03  0.46983712667E+03  0.00000000000E+00 0. -1.
         -2   -1    0    0    0  501 -0.00000000000E+00 -0.00000000000E+00 -0.53213998934E+03  0.53213998934E+03  0.00000000000E+00 0. -1.
         36    2    1    2    0    0  0.00000000000E+00  0.00000000000E+00 -0.62302862678E+02  0.10019771160E+04  0.10000382464E+04 0.  0.
         25    2    3    3    0    0  0.45599647562E+02 -0.63224336320E+02  0.10525865224E+03  0.18066640560E+03  0.12443601439E+03 0.  0.
         35    2    3    3    0    0 -0.45599647562E+02  0.63224336320E+02 -0.16756151492E+03  0.82131071042E+03  0.80024857213E+03 0.  0.
         22    1    5    5    0    0 -0.27125842200E+03 -0.28218674776E+03 -0.84810948806E+02  0.40050391903E+03  0.00000000000E+00 0. -1.
         22    1    5    5    0    0  0.22565877444E+03  0.34541108408E+03 -0.82750566116E+02  0.42080679139E+03  0.00000000000E+00 0. -1.
          5    1    4    4  502    0 -0.20176954449E+02  0.87658680014E+01 -0.14036442083E+02  0.26515309522E+02  0.47000000000E+01 0. -1.
         -5    1    4    4    0  502  0.65776602011E+02 -0.71990204321E+02  0.11929509433E+03  0.15415109607E+03  0.47000000000E+01 0. -1.
<mgrwt>
<rscale>  0 0.10000382E+04</rscale>
<asrwt>0</asrwt>
<pdfrwt beam="1">  1        2 0.72282635E-01 0.10000382E+04</pdfrwt>
<pdfrwt beam="2">  1       -2 0.81867691E-01 0.10000382E+04</pdfrwt>
<totfact> 0.10446363E+02</totfact>
</mgrwt>
</event>
<event>
 9    1  0.4412976E-036  0.1002678E+04  0.7818608E-02  0.8678492E-01
         -1   -1    0    0    0  501 -0.00000000000E+00  0.00000000000E+00  0.10847960792E+03  0.10847960792E+03  0.00000000000E+00 0. -1.
          1   -1    0    0  501    0  0.00000000000E+00 -0.00000000000E+00 -0.23169382469E+04  0.23169382469E+04  0.00000000000E+00 0. -1.
         36    2    1    2    0    0  0.46629367034E-13  0.00000000000E+00 -0.22084586390E+04  0.24254178548E+04  0.10026775206E+04 0.  0.
         25    2    3    3    0    0 -0.32577754951E+01  0.83867914687E+02 -0.13095650998E+03  0.19923012575E+03  0.12449335439E+03 0.  0.
         35    2    3    3    0    0  0.32577754951E+01 -0.83867914687E+02 -0.20775021290E+04  0.22261877290E+04  0.79552012470E+03 0.  0.
         22    1    5    5    0    0 -0.35878521375E+03 -0.53154028962E+02 -0.15052407878E+04  0.15483223209E+04  0.00000000000E+00 0. -1.
         22    1    5    5    0    0  0.36204298924E+03 -0.30713885724E+02 -0.57226134122E+03  0.67786540809E+03  0.00000000000E+00 0. -1.
          5    1    4    4  502    0 -0.49960622544E+01  0.39204993715E+02 -0.14639529020E+03  0.15170914001E+03  0.47000000000E+01 0. -1.
         -5    1    4    4    0  502  0.17382867593E+01  0.44662920972E+02  0.15438780226E+02  0.47520985738E+02  0.47000000000E+01 0. -1.
<mgrwt>
<rscale>  0 0.10026775E+04</rscale>
<asrwt>0</asrwt>
<pdfrwt beam="1">  1        1 0.35645203E+00 0.10026775E+04</pdfrwt>
<pdfrwt beam="2">  1       -1 0.16689171E-01 0.10026775E+04</pdfrwt>
<totfact> 0.51345656E+01</totfact>
</mgrwt>
</event>
<event>
 9    1  0.4412976E-036  0.1000389E+04  0.7818608E-02  0.8680668E-01
         -2   -1    0    0    0  501 -0.00000000000E+00  0.00000000000E+00  0.28961871473E+03  0.28961871473E+03  0.00000000000E+00 0.  1.
          2   -1    0    0  501    0  0.00000000000E+00 -0.00000000000E+00 -0.86387550749E+03  0.86387550749E+03  0.00000000000E+00 0.  1.
         36    2    1    2    0    0 -0.10658141036E-13 -0.14210854715E-13 -0.57425679276E+03  0.11534942222E+04  0.10003889527E+04 0.  0.
         25    2    3    3    0    0 -0.16313359086E+02  0.10947582154E+03 -0.14663364896E+01  0.16695623638E+03  0.12498461320E+03 0.  0.
         35    2    3    3    0    0  0.16313359086E+02 -0.10947582154E+03 -0.57279045627E+03  0.98653798584E+03  0.79556094016E+03 0.  0.
         22    1    5    5    0    0 -0.36188093992E+03 -0.15855967011E+03 -0.16487325397E+03  0.42811467335E+03  0.00000000000E+00 0.  1.
         22    1    5    5    0    0  0.37819429901E+03  0.49083848567E+02 -0.40791720230E+03  0.55842331248E+03  0.00000000000E+00 0.  1.
          5    1    4    4  502    0 -0.31800577830E+02  0.54846614656E+02 -0.58460945959E+02  0.86366660767E+02  0.47000000000E+01 0.  1.
         -5    1    4    4    0  502  0.15487218744E+02  0.54629206887E+02  0.56994609470E+02  0.80589575617E+02  0.47000000000E+01 0.  1.
<mgrwt>
<rscale>  0 0.10003890E+04</rscale>
<asrwt>0</asrwt>
<pdfrwt beam="1">  1        2 0.13290392E+00 0.10003890E+04</pdfrwt>
<pdfrwt beam="2">  1       -2 0.44556726E-01 0.10003890E+04</pdfrwt>
<totfact> 0.17942711E+02</totfact>
</mgrwt>
</event>
<event>
 9    1  0.4412976E-036  0.1000555E+04  0.7818608E-02  0.8680509E-01
         -1   -1    0    0    0  501 -0.00000000000E+00  0.00000000000E+00  0.23191830961E+03  0.23191830961E+03  0.00000000000E+00 0.  1.
          1   -1    0    0  501    0  0.00000000000E+00 -0.00000000000E+00 -0.10791632988E+04  0.10791632988E+04  0.00000000000E+00 0.  1.
         36    2    1    2    0    0  0.00000000000E+00  0.28421709430E-13 -0.84724498922E+03  0.13110816084E+04  0.10005553019E+04 0.  0.
         25    2    3    3    0    0  0.10734884667E+03  0.23370717025E+02 -0.45854740521E+02  0.17315391396E+03  0.12573645214E+03 0.  0.
         35    2    3    3    0    0 -0.10734884667E+03 -0.23370717025E+02 -0.80139024870E+03  0.11379276945E+04  0.80036438068E+03 0.  0.
         22    1    5    5    0    0 -0.19475809774E+02  0.13143403776E+03  0.13225099983E+03  0.18746877181E+03  0.00000000000E+00 0.  1.
         22    1    5    5    0    0 -0.87873036891E+02 -0.15480475479E+03 -0.93364124853E+03  0.95045892267E+03  0.00000000000E+00 0.  1.
          5    1    4    4  502    0  0.56317447809E+02  0.13345106380E+01  0.41066943148E+02  0.69871451007E+02  0.47000000000E+01 0.  1.
         -5    1    4    4    0  502  0.51031398856E+02  0.22036206387E+02 -0.86921683668E+02  0.10328246295E+03  0.47000000000E+01 0.  1.
<mgrwt>
<rscale>  0 0.10005553E+04</rscale>
<asrwt>0</asrwt>
<pdfrwt beam="1">  1        1 0.16602512E+00 0.10005553E+04</pdfrwt>
<pdfrwt beam="2">  1       -1 0.35679740E-01 0.10005553E+04</pdfrwt>
<totfact> 0.10963938E+02</totfact>
</mgrwt>
</event>
<event>
 9    1  0.4412976E-036  0.9994395E+03  0.7818608E-02  0.8681572E-01
         -1   -1    0    0    0  501 -0.00000000000E+00  0.00000000000E+00  0.34749976037E+03  0.34749976037E+03  0.00000000000E+00 0. -1.
          1   -1    0    0  501    0  0.00000000000E+00 -0.00000000000E+00 -0.71861866753E+03  0.71861866753E+03  0.00000000000E+00 0. -1.
         36    2    1    2    0    0 -0.71054273576E-14 -0.14210854715E-13 -0.37111890716E+03  0.10661184279E+04  0.99943947243E+03 0.  0.
         25    2    3    3    0    0 -0.46822552252E+02 -0.11888336490E+02 -0.20735978927E+03  0.24802417669E+03  0.12721723969E+03 0.  0.
         35    2    3    3    0    0  0.46822552252E+02  0.11888336490E+02 -0.16375911789E+03  0.81809425120E+03  0.80007966554E+03 0.  0.
         22    1    5    5    0    0 -0.23451203634E+02  0.21599016015E+03  0.26222815843E+03  0.34053680463E+03  0.00000000000E+00 0. -1.
         22    1    5    5    0    0  0.70273755886E+02 -0.20410182366E+03 -0.42598727632E+03  0.47755744657E+03  0.00000000000E+00 0. -1.
          5    1    4    4  502    0  0.79664980142E+01 -0.61004974192E+02 -0.82530949695E+02  0.10304620141E+03  0.47000000000E+01 0.  1.
         -5    1    4    4    0  502 -0.54789050266E+02  0.49116637702E+02 -0.12482883957E+03  0.14497797528E+03  0.47000000000E+01 0.  1.
<mgrwt>
<rscale>  0 0.99943947E+03</rscale>
<asrwt>0</asrwt>
<pdfrwt beam="1">  1        1 0.11055672E+00 0.99943947E+03</pdfrwt>
<pdfrwt beam="2">  1       -1 0.53461502E-01 0.99943947E+03</pdfrwt>
<totfact> 0.10605422E+02</totfact>
</mgrwt>
</event>
<event>
 9    1  0.4412976E-036  0.1000618E+04  0.7818608E-02  0.8680450E-01
         -1   -1    0    0    0  501 -0.00000000000E+00  0.00000000000E+00  0.17977766397E+04  0.17977766397E+04  0.00000000000E+00 0.  1.
          1   -1    0    0  501    0  0.00000000000E+00 -0.00000000000E+00 -0.13923262846E+03  0.13923262846E+03  0.00000000000E+00 0.  1.
         36    2    1    2    0    0 -0.21316282073E-13 -0.71054273576E-14  0.16585440112E+04  0.19370092681E+04  0.10006181428E+04 0.  0.
         25    2    3    3    0    0 -0.19368225682E+02 -0.37677768194E+02  0.57468843103E+03  0.58933452300E+03  0.12350564707E+03 0.  0.
         35    2    3    3    0    0  0.19368225682E+02  0.37677768194E+02  0.10838555802E+04  0.13476747451E+04  0.79980594997E+03 0.  0.
         22    1    5    5    0    0 -0.24951907848E+03  0.25608189498E+01  0.20596216422E+02  0.25038077492E+03  0.00000000000E+00 0.  1.
         22    1    5    5    0    0  0.26888730416E+03  0.35116949244E+02  0.10632593638E+04  0.10972939702E+04  0.00000000000E+00 0.  1.
          5    1    4    4  502    0  0.29469708203E+02  0.31819657135E+02  0.15026487478E+03  0.15646909239E+03  0.47000000000E+01 0. -1.
         -5    1    4    4    0  502 -0.48837933886E+02 -0.69497425329E+02  0.42442355625E+03  0.43286543061E+03  0.47000000000E+01 0. -1.
<mgrwt>
<rscale>  0 0.10006181E+04</rscale>
<asrwt>0</asrwt>
<pdfrwt beam="1">  1        1 0.21420406E-01 0.10006181E+04</pdfrwt>
<pdfrwt beam="2">  1       -1 0.27658101E+00 0.10006181E+04</pdfrwt>
<totfact> 0.72749762E+00</totfact>
</mgrwt>
</event>
<event>
 9    1  0.4412976E-036  0.9998191E+03  0.7818608E-02  0.8681210E-01
          1   -1    0    0  501    0  0.00000000000E+00  0.00000000000E+00  0.11527707637E+04  0.11527707637E+04  0.00000000000E+00 0. -1.
         -1   -1    0    0    0  501 -0.00000000000E+00 -0.00000000000E+00 -0.21679034932E+03  0.21679034932E+03  0.00000000000E+00 0. -1.
         36    2    1    2    0    0 -0.14210854715E-13 -0.14210854715E-13  0.93598041439E+03  0.13695611130E+04  0.99981913673E+03 0.  0.
         25    2    3    3    0    0  0.61139119422E+02 -0.10215796792E+03  0.73870832107E+02  0.18769792719E+03  0.12489743673E+03 0.  0.
         35    2    3    3    0    0 -0.61139119422E+02  0.10215796792E+03  0.86210958228E+03  0.11818631858E+04  0.79962079502E+03 0.  0.
         22    1    5    5    0    0  0.29097179752E+03 -0.19011052196E+03  0.42512105112E+03  0.54912157635E+03  0.00000000000E+00 0.  1.
         22    1    5    5    0    0 -0.35211091694E+03  0.29226848988E+03  0.43698853116E+03  0.63274160948E+03  0.00000000000E+00 0.  1.
          5    1    4    4  502    0  0.30826416514E+02 -0.12398843699E+03  0.32817396789E+02  0.13199421197E+03  0.47000000000E+01 0.  1.
         -5    1    4    4    0  502  0.30312702907E+02  0.21830469071E+02  0.41053435319E+02  0.55703715216E+02  0.47000000000E+01 0.  1.
<mgrwt>
<rscale>  0 0.99981914E+03</rscale>
<asrwt>0</asrwt>
<pdfrwt beam="1">  1        1 0.17734935E+00 0.99981914E+03</pdfrwt>
<pdfrwt beam="2">  1       -1 0.33352362E-01 0.99981914E+03</pdfrwt>
<totfact> 0.10834351E+02</totfact>
</mgrwt>
</event>
<event>
 9    1  0.4412976E-036  0.9998711E+03  0.7818608E-02  0.8681161E-01
         -1   -1    0    0    0  501 -0.00000000000E+00  0.00000000000E+00  0.37671903717E+03  0.37671903717E+03  0.00000000000E+00 0.  1.
          1   -1    0    0  501    0  0.00000000000E+00 -0.00000000000E+00 -0.66345351457E+03  0.66345351457E+03  0.00000000000E+00 0.  1.
         36    2    1    2    0    0 -0.28421709430E-13  0.17763568394E-13 -0.28673447740E+03  0.10401725517E+04  0.99987113012E+03 0.  0.
         25    2    3    3    0    0 -0.13656181926E+03 -0.28854025621E+02 -0.41414434558E+02  0.19200507848E+03  0.12517631364E+03 0.  0.
         35    2    3    3    0    0  0.13656181926E+03  0.28854025621E+02 -0.24532004284E+03  0.84816747326E+03  0.79982776521E+03 0.  0.
         22    1    5    5    0    0  0.22048479108E+03 -0.34563465061E+03 -0.21568986821E+03  0.46324828554E+03  0.00000000000E+00 0.  1.
         22    1    5    5    0    0 -0.83922971819E+02  0.37448867624E+03 -0.29630174631E+02  0.38491918772E+03  0.00000000000E+00 0.  1.
          5    1    4    4  502    0 -0.11476619286E+03 -0.30406768074E+02  0.25441390100E+02  0.12151215947E+03  0.47000000000E+01 0. -1.
         -5    1    4    4    0  502 -0.21795626394E+02  0.15527424531E+01 -0.66855824658E+02  0.70492919004E+02  0.47000000000E+01 0. -1.
<mgrwt>
<rscale>  0 0.99987113E+03</rscale>
<asrwt>0</asrwt>
<pdfrwt beam="1">  1        1 0.10206977E+00 0.99987113E+03</pdfrwt>
<pdfrwt beam="2">  1       -1 0.57956775E-01 0.99987113E+03</pdfrwt>
<totfact> 0.10287212E+02</totfact>
</mgrwt>
</event>
<event>
 9    1  0.4412976E-036  0.1000860E+04  0.7818608E-02  0.8680220E-01
          1   -1    0    0  501    0  0.00000000000E+00  0.00000000000E+00  0.54068797575E+03  0.54068797575E+03  0.00000000000E+00 0. -1.
         -1   -1    0    0    0  501 -0.00000000000E+00 -0.00000000000E+00 -0.46316921417E+03  0.46316921417E+03  0.00000000000E+00 0. -1.
         36    2    1    2    0    0  0.49737991503E-13  0.00000000000E+00  0.77518761584E+02  0.10038571899E+04  0.10008596801E+04 0.  0.
         25    2    3    3    0    0 -0.12317814177E+02 -0.11725586222E+03  0.93815612551E+02  0.19579352060E+03  0.12503226695E+03 0.  0.
         35    2    3    3    0    0  0.12317814177E+02  0.11725586222E+03 -0.16296850967E+02  0.80806366931E+03  0.79925004882E+03 0.  0.
         22    1    5    5    0    0  0.39830489418E+03  0.32371381996E+01 -0.61576040416E+02  0.40304947159E+03  0.00000000000E+00 0. -1.
         22    1    5    5    0    0 -0.38598708001E+03  0.11401872403E+03  0.45279189449E+02  0.40501419772E+03  0.00000000000E+00 0. -1.
          5    1    4    4  502    0  0.44493174100E+02 -0.60588017527E+01  0.13013649149E+02  0.46987197026E+02  0.47000000000E+01 0.  1.
         -5    1    4    4    0  502 -0.56810988276E+02 -0.11119706047E+03  0.80801963402E+02  0.14880632358E+03  0.47000000000E+01 0.  1.
<mgrwt>
<rscale>  0 0.10008597E+04</rscale>
<asrwt>0</asrwt>
<pdfrwt beam="1">  1        1 0.83182766E-01 0.10008597E+04</pdfrwt>
<pdfrwt beam="2">  1       -1 0.71256802E-01 0.10008597E+04</pdfrwt>
<totfact> 0.92763621E+01</totfact>
</mgrwt>
</event>
<event>
 9    1  0.4412976E-036  0.1005350E+04  0.7818608E-02  0.8675960E-01
         -1   -1    0    0    0  501 -0.00000000000E+00  0.00000000000E+00  0.89129808043E+03  0.89129808043E+03  0.00000000000E+00 0. -1.
          1   -1    0    0  501    0  0.00000000000E+00 -0.00000000000E+00 -0.28349902130E+03  0.28349902130E+03  0.00000000000E+00 0. -1.
         36    2    1    2    0    0  0.00000000000E+00  0.71054273576E-14  0.60779905913E+03  0.11747971017E+04  0.10053499560E+04 0.  0.
         25    2    3    3    0    0 -0.72076053417E+02  0.52849025983E+02  0.24924742617E+03  0.29285793794E+03  0.12511400936E+03 0.  0.
         35    2    3    3    0    0  0.72076053417E+02 -0.52849025983E+02  0.35855163296E+03  0.88193916379E+03  0.80079300578E+03 0.  0.
         22    1    5    5    0    0 -0.42999210369E+02 -0.40866583987E+03  0.87652557287E+02  0.42016624278E+03  0.00000000000E+00 0.  1.
         22    1    5    5    0    0  0.11507526379E+03  0.35581681389E+03  0.27089907567E+03  0.46177292102E+03  0.00000000000E+00 0.  1.
          5    1    4    4  502    0 -0.78828557449E+02  0.12859673481E+02  0.62022705770E+02  0.10123348607E+03  0.47000000000E+01 0. -1.
         -5    1    4    4    0  502  0.67525040320E+01  0.39989352502E+02  0.18722472040E+03  0.19162445186E+03  0.47000000000E+01 0. -1.
<mgrwt>
<rscale>  0 0.10053500E+04</rscale>
<asrwt>0</asrwt>
<pdfrwt beam="1">  1        1 0.43615234E-01 0.10053500E+04</pdfrwt>
<pdfrwt beam="2">  1       -1 0.13712278E+00 0.10053500E+04</pdfrwt>
<totfact> 0.49725027E+01</totfact>
</mgrwt>
</event>
<event>
 9    1  0.4412976E-036  0.1000332E+04  0.7818608E-02  0.8680722E-01
         -2   -1    0    0    0  501 -0.00000000000E+00  0.00000000000E+00  0.37587272016E+03  0.37587272016E+03  0.00000000000E+00 0. -1.
          2   -1    0    0  501    0  0.00000000000E+00 -0.00000000000E+00 -0.66555988868E+03  0.66555988868E+03  0.00000000000E+00 0. -1.
         36    2    1    2    0    0  0.00000000000E+00 -0.71054273576E-14 -0.28968716853E+03  0.10414326088E+04  0.10003315566E+04 0.  0.
         25    2    3    3    0    0 -0.13365338477E+03 -0.22915038743E+02 -0.88053421586E+02  0.20515390908E+03  0.12627903665E+03 0.  0.
         35    2    3    3    0    0  0.13365338477E+03  0.22915038743E+02 -0.20163374694E+03  0.83627869976E+03  0.80019845632E+03 0.  0.
         22    1    5    5    0    0  0.29703131488E+03  0.22128498174E+03  0.15095197272E+03  0.39997642835E+03  0.00000000000E+00 0. -1.
         22    1    5    5    0    0 -0.16337793011E+03 -0.19836994300E+03 -0.35258571966E+03  0.43630227141E+03  0.00000000000E+00 0. -1.
          5    1    4    4  502    0 -0.15069866028E+02 -0.57266990266E+02 -0.13716434283E+02  0.60965888870E+02  0.47000000000E+01 0.  1.
         -5    1    4    4    0  502 -0.11858351874E+03  0.34351951523E+02 -0.74336987303E+02  0.14418802021E+03  0.47000000000E+01 0.  1.
<mgrwt>
<rscale>  0 0.10003316E+04</rscale>
<asrwt>0</asrwt>
<pdfrwt beam="1">  1        2 0.10239383E+00 0.10003316E+04</pdfrwt>
<pdfrwt beam="2">  1       -2 0.57826573E-01 0.10003316E+04</pdfrwt>
<totfact> 0.14789327E+02</totfact>
</mgrwt>
</event>
<event>
 9    1  0.4412976E-036  0.9990032E+03  0.7818608E-02  0.8681988E-01
         -2   -1    0    0    0  501 -0.00000000000E+00  0.00000000000E+00  0.18533166014E+03  0.18533166014E+03  0.00000000000E+00 0.  1.
          2   -1    0    0  501    0  0.00000000000E+00 -0.00000000000E+00 -0.13462452297E+04  0.13462452297E+04  0.00000000000E+00 0.  1.
         36    2    1    2    0    0 -0.28421709430E-13  0.14210854715E-13 -0.11609135696E+04  0.15315768899E+04  0.99900322998E+03 0.  0.
         25    2    3    3    0    0  0.68064418374E+02  0.88740775011E+02 -0.34243722815E+03  0.38081164723E+03  0.12347698265E+03 0.  0.
         35    2    3    3    0    0 -0.68064418374E+02 -0.88740775011E+02 -0.81847634144E+03  0.11507652426E+04  0.80115506112E+03 0.  0.
         22    1    5    5    0    0 -0.40578711653E+03  0.65749793412E+02 -0.57445621064E+03  0.70638952230E+03  0.00000000000E+00 0.  1.
         22    1    5    5    0    0  0.33772269816E+03 -0.15449056842E+03 -0.24402013080E+03  0.44437572033E+03  0.00000000000E+00 0.  1.
          5    1    4    4  502    0  0.19329318458E+02 -0.27833275133E+02 -0.37828875167E+02  0.51004191524E+02  0.47000000000E+01 0.  1.
         -5    1    4    4    0  502  0.48735099916E+02  0.11657405014E+03 -0.30460835298E+03  0.32980745570E+03  0.47000000000E+01 0.  1.
<mgrwt>
<rscale>  0 0.99900323E+03</rscale>
<asrwt>0</asrwt>
<pdfrwt beam="1">  1        2 0.20711465E+00 0.99900323E+03</pdfrwt>
<pdfrwt beam="2">  1       -2 0.28512563E-01 0.99900323E+03</pdfrwt>
<totfact> 0.21016245E+02</totfact>
</mgrwt>
</event>
<event>
 9    1  0.4412976E-036  0.9996160E+03  0.7818608E-02  0.8681404E-01
          1   -1    0    0  501    0  0.00000000000E+00  0.00000000000E+00  0.40596960463E+03  0.40596960463E+03  0.00000000000E+00 0. -1.
         -1   -1    0    0    0  501 -0.00000000000E+00 -0.00000000000E+00 -0.61533675271E+03  0.61533675271E+03  0.00000000000E+00 0. -1.
         36    2    1    2    0    0  0.28421709430E-13 -0.14210854715E-13 -0.20936714808E+03  0.10213063573E+04  0.99961596268E+03 0.  0.
         25    2    3    3    0    0  0.60437275661E+02  0.73198645803E+01 -0.16773474563E+03  0.21772269554E+03  0.12474767554E+03 0.  0.
         35    2    3    3    0    0 -0.60437275661E+02 -0.73198645803E+01 -0.41632402446E+02  0.80358366180E+03  0.80019197689E+03 0.  0.
         22    1    5    5    0    0 -0.30497721032E+03  0.26433282154E+03  0.92834885809E+02  0.41412710052E+03  0.00000000000E+00 0.  1.
         22    1    5    5    0    0  0.24453993466E+03 -0.27165268612E+03 -0.13446728825E+03  0.38945656129E+03  0.00000000000E+00 0.  1.
          5    1    4    4  502    0 -0.52851436237E+01  0.27480235863E+02  0.75648539444E+01  0.29366871155E+02  0.47000000000E+01 0.  1.
         -5    1    4    4    0  502  0.65722419284E+02 -0.20160371283E+02 -0.17529959958E+03  0.18835582438E+03  0.47000000000E+01 0.  1.
<mgrwt>
<rscale>  0 0.99961596E+03</rscale>
<asrwt>0</asrwt>
<pdfrwt beam="1">  1        1 0.62456862E-01 0.99961596E+03</pdfrwt>
<pdfrwt beam="2">  1       -1 0.94667193E-01 0.99961596E+03</pdfrwt>
<totfact> 0.75816683E+01</totfact>
</mgrwt>
</event>
<event>
 9    1  0.4412976E-036  0.1000497E+04  0.7818608E-02  0.8680565E-01
         -2   -1    0    0    0  501 -0.00000000000E+00  0.00000000000E+00  0.12688657018E+03  0.12688657018E+03  0.00000000000E+00 0.  1.
          2   -1    0    0  501    0  0.00000000000E+00 -0.00000000000E+00 -0.19722220203E+04  0.19722220203E+04  0.00000000000E+00 0.  1.
         36    2    1    2    0    0  0.00000000000E+00  0.00000000000E+00 -0.18453354501E+04  0.20991085905E+04  0.10004968522E+04 0.  0.
         25    2    3    3    0    0 -0.35587341859E+02  0.12723170714E+03 -0.45788363765E+03  0.49235069254E+03  0.12368270943E+03 0.  0.
         35    2    3    3    0    0  0.35587341859E+02 -0.12723170714E+03 -0.13874518125E+04  0.16067578979E+04  0.79949611912E+03 0.  0.
         22    1    5    5    0    0 -0.16421657112E+03  0.28722314171E+03 -0.75814577296E+03  0.82719358582E+03  0.00000000000E+00 0. -1.
         22    1    5    5    0    0  0.19980391298E+03 -0.41445484885E+03 -0.62930603950E+03  0.77956431212E+03  0.00000000000E+00 0. -1.
          5    1    4    4  502    0 -0.61205887124E+01  0.76896107101E+02 -0.84907260689E+02  0.11481204558E+03  0.47000000000E+01 0. -1.
         -5    1    4    4    0  502 -0.29466753146E+02  0.50335600041E+02 -0.37297637696E+03  0.37753864695E+03  0.47000000000E+01 0. -1.
<mgrwt>
<rscale>  0 0.10004969E+04</rscale>
<asrwt>0</asrwt>
<pdfrwt beam="1">  1        2 0.30341877E+00 0.10004969E+04</pdfrwt>
<pdfrwt beam="2">  1       -2 0.19521011E-01 0.10004969E+04</pdfrwt>
<totfact> 0.18128291E+02</totfact>
</mgrwt>
</event>
<event>
 9    1  0.4412976E-036  0.9993125E+03  0.7818608E-02  0.8681693E-01
         -2   -1    0    0    0  501 -0.00000000000E+00  0.00000000000E+00  0.21158770059E+03  0.21158770059E+03  0.00000000000E+00 0. -1.
          2   -1    0    0  501    0  0.00000000000E+00 -0.00000000000E+00 -0.11799191869E+04  0.11799191869E+04  0.00000000000E+00 0. -1.
         36    2    1    2    0    0  0.00000000000E+00  0.14210854715E-13 -0.96833148634E+03  0.13915068875E+04  0.99931253899E+03 0.  0.
         25    2    3    3    0    0  0.92649494015E+02  0.69697663313E+02 -0.28642176288E+03  0.33331471190E+03  0.12497830972E+03 0.  0.
         35    2    3    3    0    0 -0.92649494015E+02 -0.69697663313E+02 -0.68190972346E+03  0.10581921756E+04  0.80082964268E+03 0.  0.
         22    1    5    5    0    0 -0.37029216218E+03  0.89486831292E+02 -0.99642573038E+02  0.39376747036E+03  0.00000000000E+00 0. -1.
         22    1    5    5    0    0  0.27764266817E+03 -0.15918449460E+03 -0.58226715042E+03  0.66442470527E+03  0.00000000000E+00 0. -1.
          5    1    4    4  502    0  0.34237000258E+02  0.98987918083E+02 -0.18214057348E+03  0.21016198187E+03  0.47000000000E+01 0.  1.
         -5    1    4    4    0  502  0.58412493757E+02 -0.29290254770E+02 -0.10428118940E+03  0.12315273003E+03  0.47000000000E+01 0.  1.
<mgrwt>
<rscale>  0 0.99931254E+03</rscale>
<asrwt>0</asrwt>
<pdfrwt beam="1">  1        2 0.18152603E+00 0.99931254E+03</pdfrwt>
<pdfrwt beam="2">  1       -2 0.32551953E-01 0.99931254E+03</pdfrwt>
<totfact> 0.20634139E+02</totfact>
</mgrwt>
</event>
<event>
 9    1  0.4412976E-036  0.9981751E+03  0.7818608E-02  0.8682778E-01
         -2   -1    0    0    0  501 -0.00000000000E+00  0.00000000000E+00  0.16522010343E+03  0.16522010343E+03  0.00000000000E+00 0.  1.
          2   -1    0    0  501    0  0.00000000000E+00 -0.00000000000E+00 -0.15076154239E+04  0.15076154239E+04  0.00000000000E+00 0.  1.
         36    2    1    2    0    0  0.42632564146E-13 -0.14210854715E-13 -0.13423953205E+04  0.16728355273E+04  0.99817508739E+03 0.  0.
         25    2    3    3    0    0  0.88666961202E+02 -0.65494633294E+02 -0.38398465642E+03  0.41853784113E+03  0.12481318477E+03 0.  0.
         35    2    3    3    0    0 -0.88666961202E+02  0.65494633294E+02 -0.95841066404E+03  0.12542976862E+04  0.80159859508E+03 0.  0.
         22    1    5    5    0    0 -0.39376134645E+03  0.22176397908E+03 -0.65956083821E+03  0.79952971157E+03  0.00000000000E+00 0.  1.
         22    1    5    5    0    0  0.30509438525E+03 -0.15626934579E+03 -0.29884982582E+03  0.45476797462E+03  0.00000000000E+00 0.  1.
          5    1    4    4  502    0  0.66743800053E+02 -0.92950125429E+02 -0.35414407473E+03  0.37220233252E+03  0.47000000000E+01 0. -1.
         -5    1    4    4    0  502  0.21923161149E+02  0.27455492134E+02 -0.29840581688E+02  0.46335508615E+02  0.47000000000E+01 0. -1.
<mgrwt>
<rscale>  0 0.99817509E+03</rscale>
<asrwt>0</asrwt>
<pdfrwt beam="1">  1        2 0.23194084E+00 0.99817509E+03</pdfrwt>
<pdfrwt beam="2">  1       -2 0.25418477E-01 0.99817509E+03</pdfrwt>
<totfact> 0.20894421E+02</totfact>
</mgrwt>
</event>
<event>
 9    1  0.4412976E-036  0.1000431E+04  0.7818608E-02  0.8680627E-01
         -2   -1    0    0    0  501 -0.00000000000E+00  0.00000000000E+00  0.15782058202E+03  0.15782058202E+03  0.00000000000E+00 0. -1.
          2   -1    0    0  501    0  0.00000000000E+00 -0.00000000000E+00 -0.15854437033E+04  0.15854437033E+04  0.00000000000E+00 0. -1.
         36    2    1    2    0    0 -0.14210854715E-13  0.28421709430E-13 -0.14276231212E+04  0.17432642853E+04  0.10004312030E+04 0.  0.
         25    2    3    3    0    0  0.34083876250E+02  0.79523772043E+02 -0.46441962654E+03  0.48884376238E+03  0.12568569353E+03 0.  0.
         35    2    3    3    0    0 -0.34083876250E+02 -0.79523772043E+02 -0.96320349470E+03  0.12544205229E+04  0.79895189788E+03 0.  0.
         22    1    5    5    0    0  0.23112801090E+03  0.26250801175E+03 -0.57500826326E+03  0.67302683191E+03  0.00000000000E+00 0. -1.
         22    1    5    5    0    0 -0.26521188715E+03 -0.34203178379E+03 -0.38819523145E+03  0.58139369099E+03  0.00000000000E+00 0. -1.
          5    1    4    4  502    0  0.78909273495E+02  0.66808291895E+02 -0.35606061611E+03  0.37079815756E+03  0.47000000000E+01 0. -1.
         -5    1    4    4    0  502 -0.44825397245E+02  0.12715480148E+02 -0.10835901043E+03  0.11804560481E+03  0.47000000000E+01 0. -1.
<mgrwt>
<rscale>  0 0.10004312E+04</rscale>
<asrwt>0</asrwt>
<pdfrwt beam="1">  1        2 0.24391441E+00 0.10004312E+04</pdfrwt>
<pdfrwt beam="2">  1       -2 0.24280090E-01 0.10004312E+04</pdfrwt>
<totfact> 0.20479484E+02</totfact>
</mgrwt>
</event>
<event>
 9    1  0.4412976E-036  0.9999856E+03  0.7818608E-02  0.8681052E-01
         -2   -1    0    0    0  501 -0.00000000000E+00  0.00000000000E+00  0.11184627537E+03  0.11184627537E+03  0.00000000000E+00 0. -1.
          2   -1    0    0  501    0  0.00000000000E+00 -0.00000000000E+00 -0.22351464760E+04  0.22351464760E+04  0.00000000000E+00 0. -1.
         36    2    1    2    0    0  0.00000000000E+00  0.00000000000E+00 -0.21233002007E+04  0.23469927514E+04  0.99998561640E+03 0.  0.
         25    2    3    3    0    0 -0.84752005968E+02 -0.11067971155E+03 -0.36981025213E+03  0.41428797911E+03  0.12426586816E+03 0.  0.
         35    2    3    3    0    0  0.84752005968E+02  0.11067971155E+03 -0.17534899485E+04  0.19327047723E+04  0.80074205346E+03 0.  0.
         22    1    5    5    0    0  0.29692158044E+03 -0.24783291245E+03 -0.99166055859E+03  0.10644126272E+04  0.00000000000E+00 0. -1.
         22    1    5    5    0    0 -0.21216957447E+03  0.35851262400E+03 -0.76182938996E+03  0.86829214514E+03  0.00000000000E+00 0. -1.
          5    1    4    4  502    0 -0.15930009251E+02 -0.51423018542E+02 -0.28453585425E+03  0.28962188174E+03  0.47000000000E+01 0.  1.
         -5    1    4    4    0  502 -0.68821996716E+02 -0.59256693010E+02 -0.85274397876E+02  0.12466609736E+03  0.47000000000E+01 0.  1.
<mgrwt>
<rscale>  0 0.99998562E+03</rscale>
<asrwt>0</asrwt>
<pdfrwt beam="1">  1        2 0.34386867E+00 0.99998562E+03</pdfrwt>
<pdfrwt beam="2">  1       -2 0.17207120E-01 0.99998562E+03</pdfrwt>
<totfact> 0.15882884E+02</totfact>
</mgrwt>
</event>
<event>
 9    1  0.4412976E-036  0.1000412E+04  0.7818608E-02  0.8680646E-01
          1   -1    0    0  501    0  0.00000000000E+00  0.00000000000E+00  0.44991083605E+03  0.44991083605E+03  0.00000000000E+00 0. -1.
         -1   -1    0    0    0  501 -0.00000000000E+00 -0.00000000000E+00 -0.55612381038E+03  0.55612381038E+03  0.00000000000E+00 0. -1.
         36    2    1    2    0    0  0.21316282073E-13 -0.14210854715E-13 -0.10621297433E+03  0.10060346464E+04  0.10004121720E+04 0.  0.
         25    2    3    3    0    0  0.61483478848E+02 -0.10807163367E+03  0.44908429873E+02  0.18147969580E+03  0.12433188143E+03 0.  0.
         35    2    3    3    0    0 -0.61483478848E+02  0.10807163367E+03 -0.15112140421E+03  0.82455495064E+03  0.80099531312E+03 0.  0.
         22    1    5    5    0    0  0.24893477631E+03  0.26333516992E+03  0.12257410442E+03  0.38254195279E+03  0.00000000000E+00 0. -1.
         22    1    5    5    0    0 -0.31041825515E+03 -0.15526353625E+03 -0.27369550863E+03  0.44201299785E+03  0.00000000000E+00 0. -1.
          5    1    4    4  502    0  0.14328989785E+02  0.26931446866E+02  0.18496503861E+02  0.35983794042E+02  0.47000000000E+01 0.  1.
         -5    1    4    4    0  502  0.47154489062E+02 -0.13500308054E+03  0.26411926012E+02  0.14549590176E+03  0.47000000000E+01 0.  1.
<mgrwt>
<rscale>  0 0.10004122E+04</rscale>
<asrwt>0</asrwt>
<pdfrwt beam="1">  1        1 0.69217051E-01 0.10004122E+04</pdfrwt>
<pdfrwt beam="2">  1       -1 0.85557510E-01 0.10004122E+04</pdfrwt>
<totfact> 0.82025294E+01</totfact>
</mgrwt>
</event>
<event>
 9    1  0.4412976E-036  0.1000357E+04  0.7818608E-02  0.8680698E-01
          1   -1    0    0  501    0  0.00000000000E+00  0.00000000000E+00  0.15622431238E+04  0.15622431238E+04  0.00000000000E+00 0.  1.
         -1   -1    0    0    0  501 -0.00000000000E+00 -0.00000000000E+00 -0.16014046933E+03  0.16014046933E+03  0.00000000000E+00 0.  1.
         36    2    1    2    0    0  0.00000000000E+00  0.35527136788E-14  0.14021026545E+04  0.17223835931E+04  0.10003566305E+04 0.  0.
         25    2    3    3    0    0 -0.12531638110E+03 -0.19893851691E+02  0.36438434369E+03  0.40547284864E+03  0.12462873005E+03 0.  0.
         35    2    3    3    0    0  0.12531638110E+03  0.19893851691E+02  0.10377183108E+04  0.13169107445E+04  0.80080875102E+03 0.  0.
         22    1    5    5    0    0  0.16874042526E+03  0.15217991269E+02 -0.87609088064E+02  0.19073612842E+03  0.00000000000E+00 0.  1.
         22    1    5    5    0    0 -0.43424044163E+02  0.46758604220E+01  0.11253273988E+04  0.11261746160E+04  0.00000000000E+00 0.  1.
          5    1    4    4  502    0 -0.59311571247E+02  0.14161841776E+02  0.30268371321E+03  0.30880081038E+03  0.47000000000E+01 0.  1.
         -5    1    4    4    0  502 -0.66004809849E+02 -0.34055693467E+02  0.61700630475E+02  0.96672038262E+02  0.47000000000E+01 0.  1.
<mgrwt>
<rscale>  0 0.10003566E+04</rscale>
<asrwt>0</asrwt>
<pdfrwt beam="1">  1        1 0.24034508E+00 0.10003566E+04</pdfrwt>
<pdfrwt beam="2">  1       -1 0.24636996E-01 0.10003566E+04</pdfrwt>
<totfact> 0.91473852E+01</totfact>
</mgrwt>
</event>
<event>
 9    1  0.4412976E-036  0.1000567E+04  0.7818608E-02  0.8680498E-01
         -2   -1    0    0    0  501 -0.00000000000E+00  0.00000000000E+00  0.16693014783E+03  0.16693014783E+03  0.00000000000E+00 0.  1.
          2   -1    0    0  501    0  0.00000000000E+00 -0.00000000000E+00 -0.14993321277E+04  0.14993321277E+04  0.00000000000E+00 0.  1.
         36    2    1    2    0    0 -0.49737991503E-13 -0.14210854715E-13 -0.13324019798E+04  0.16662622755E+04  0.10005673065E+04 0.  0.
         25    2    3    3    0    0  0.42712001183E+02  0.10209075833E+03 -0.10711106072E+03  0.19869065452E+03  0.12553230215E+03 0.  0.
         35    2    3    3    0    0 -0.42712001183E+02 -0.10209075833E+03 -0.12252909191E+04  0.14675716210E+04  0.80011360958E+03 0.  0.
         22    1    5    5    0    0  0.37130681512E+03 -0.17733329048E+02 -0.70797104426E+03  0.79962880228E+03  0.00000000000E+00 0. -1.
         22    1    5    5    0    0 -0.41401881630E+03 -0.84357429284E+02 -0.51731987486E+03  0.66794281870E+03  0.00000000000E+00 0. -1.
          5    1    4    4  502    0  0.76320708516E+02  0.23807615854E+02 -0.66972741671E+02  0.10439871287E+03  0.47000000000E+01 0. -1.
         -5    1    4    4    0  502 -0.33608707333E+02  0.78283142478E+02 -0.40138319046E+02  0.94291941653E+02  0.47000000000E+01 0. -1.
<mgrwt>
<rscale>  0 0.10005673E+04</rscale>
<asrwt>0</asrwt>
<pdfrwt beam="1">  1        2 0.23066649E+00 0.10005673E+04</pdfrwt>
<pdfrwt beam="2">  1       -2 0.25681560E-01 0.10005673E+04</pdfrwt>
<totfact> 0.20737579E+02</totfact>
</mgrwt>
</event>
<event>
 9    1  0.4412976E-036  0.9998153E+03  0.7818608E-02  0.8681214E-01
          2   -1    0    0  501    0  0.00000000000E+00  0.00000000000E+00  0.31119031358E+04  0.31119031358E+04  0.00000000000E+00 0. -1.
         -2   -1    0    0    0  501 -0.00000000000E+00 -0.00000000000E+00 -0.80307021228E+02  0.80307021228E+02  0.00000000000E+00 0. -1.
         36    2    1    2    0    0  0.00000000000E+00  0.28421709430E-13  0.30315961145E+04  0.31922101570E+04  0.99981532531E+03 0.  0.
         25    2    3    3    0    0  0.11233273084E+03 -0.47829836967E+02  0.34751411038E+03  0.38849233079E+03  0.12350667369E+03 0.  0.
         35    2    3    3    0    0 -0.11233273084E+03  0.47829836967E+02  0.26840820042E+04  0.28037178262E+04  0.80101879392E+03 0.  0.
         22    1    5    5    0    0  0.66217916728E+02 -0.18841468306E+03  0.14346389016E+03  0.24589996557E+03  0.00000000000E+00 0.  1.
         22    1    5    5    0    0 -0.17855064757E+03  0.23624452003E+03  0.25406181140E+04  0.25578178606E+04  0.00000000000E+00 0.  1.
          5    1    4    4  502    0  0.64102219017E+02 -0.91581477880E+01  0.30846116938E+03  0.31521952536E+03  0.47000000000E+01 0. -1.
         -5    1    4    4    0  502  0.48230511822E+02 -0.38671689179E+02  0.39052941001E+02  0.73272805428E+02  0.47000000000E+01 0. -1.
<mgrwt>
<rscale>  0 0.99981533E+03</rscale>
<asrwt>0</asrwt>
<pdfrwt beam="1">  1        2 0.47875424E+00 0.99981533E+03</pdfrwt>
<pdfrwt beam="2">  1       -2 0.12354929E-01 0.99981533E+03</pdfrwt>
<totfact> 0.77620374E+01</totfact>
</mgrwt>
</event>
<event>
 9    1  0.4412976E-036  0.1001345E+04  0.7818608E-02  0.8679758E-01
         -2   -1    0    0    0  501 -0.00000000000E+00  0.00000000000E+00  0.19080196791E+03  0.19080196791E+03  0.00000000000E+00 0.  1.
          2   -1    0    0  501    0  0.00000000000E+00 -0.00000000000E+00 -0.13137862368E+04  0.13137862368E+04  0.00000000000E+00 0.  1.
         36    2    1    2    0    0  0.00000000000E+00 -0.71054273576E-14 -0.11229842689E+04  0.15045882047E+04  0.10013450941E+04 0.  0.
         25    2    3    3    0    0 -0.12391052188E+03  0.89294923449E+01 -0.10993864728E+03  0.20781089613E+03  0.12516113261E+03 0.  0.
         35    2    3    3    0    0  0.12391052188E+03 -0.89294923449E+01 -0.10130456216E+04  0.12967773086E+04  0.79996025109E+03 0.  0.
         22    1    5    5    0    0 -0.21892792664E+03 -0.31480488365E+02  0.61118058353E+01  0.22126412357E+03  0.00000000000E+00 0. -1.
         22    1    5    5    0    0  0.34283844852E+03  0.22550996020E+02 -0.10191574274E+04  0.10755131850E+04  0.00000000000E+00 0. -1.
          5    1    4    4  502    0 -0.43624788745E+02 -0.43422960617E+02 -0.91056043089E+02  0.11000894820E+03  0.47000000000E+01 0. -1.
         -5    1    4    4    0  502 -0.80285733139E+02  0.52352452962E+02 -0.18882604194E+02  0.97801947925E+02  0.47000000000E+01 0. -1.
<mgrwt>
<rscale>  0 0.10013451E+04</rscale>
<asrwt>0</asrwt>
<pdfrwt beam="1">  1        2 0.20212096E+00 0.10013451E+04</pdfrwt>
<pdfrwt beam="2">  1       -2 0.29354149E-01 0.10013451E+04</pdfrwt>
<totfact> 0.20815424E+02</totfact>
</mgrwt>
</event>
<event>
 9    1  0.4412976E-036  0.9992897E+03  0.7818608E-02  0.8681715E-01
          2   -1    0    0  501    0  0.00000000000E+00  0.00000000000E+00  0.38228396910E+04  0.38228396910E+04  0.00000000000E+00 0. -1.
         -2   -1    0    0    0  501 -0.00000000000E+00 -0.00000000000E+00 -0.65303548366E+02  0.65303548366E+02  0.00000000000E+00 0. -1.
         36    2    1    2    0    0 -0.28421709430E-13  0.10658141036E-13  0.37575361427E+04  0.38881432394E+04  0.99928974108E+03 0.  0.
         25    2    3    3    0    0 -0.63919523334E+02 -0.16279807764E+02  0.11681269917E+04  0.11766388449E+04  0.12493023989E+03 0.  0.
         35    2    3    3    0    0  0.63919523334E+02  0.16279807764E+02  0.25894091509E+04  0.27115043945E+04  0.80178899531E+03 0.  0.
         22    1    5    5    0    0  0.31174033483E+03 -0.97208070724E+02  0.22621702862E+04  0.22856171703E+04  0.00000000000E+00 0. -1.
         22    1    5    5    0    0 -0.24782081150E+03  0.11348787849E+03  0.32723886475E+03  0.42588722425E+03  0.00000000000E+00 0. -1.
          5    1    4    4  502    0 -0.71240636963E+02  0.40635376032E+01  0.30665260032E+03  0.31488037089E+03  0.47000000000E+01 0.  1.
         -5    1    4    4    0  502  0.73211136298E+01 -0.20343345367E+02  0.86147439142E+03  0.86175847398E+03  0.47000000000E+01 0.  1.
<mgrwt>
<rscale>  0 0.99928974E+03</rscale>
<asrwt>0</asrwt>
<pdfrwt beam="1">  1        2 0.58812901E+00 0.99928974E+03</pdfrwt>
<pdfrwt beam="2">  1       -2 0.10046703E-01 0.99928974E+03</pdfrwt>
<totfact> 0.31830483E+01</totfact>
</mgrwt>
</event>
<event>
 9    1  0.4412976E-036  0.1000186E+04  0.7818608E-02  0.8680861E-01
         -3   -1    0    0    0  501 -0.00000000000E+00  0.00000000000E+00  0.18160646219E+03  0.18160646219E+03  0.00000000000E+00 0.  1.
          3   -1    0    0  501    0  0.00000000000E+00 -0.00000000000E+00 -0.13771138535E+04  0.13771138535E+04  0.00000000000E+00 0.  1.
         36    2    1    2    0    0 -0.14210854715E-13  0.14210854715E-13 -0.11955073913E+04  0.15587203156E+04  0.10001855327E+04 0.  0.
         25    2    3    3    0    0 -0.91297822722E+02  0.91568145394E+02 -0.31309799593E+03  0.36126947751E+03  0.12555979708E+03 0.  0.
         35    2    3    3    0    0  0.91297822722E+02 -0.91568145394E+02 -0.88240939534E+03  0.11974508381E+04  0.79907581059E+03 0.  0.
         22    1    5    5    0    0  0.10262872961E+03 -0.18725026164E+03  0.81634994650E+02  0.22860356292E+03  0.00000000000E+00 0.  1.
         22    1    5    5    0    0 -0.11330906889E+02  0.95682116251E+02 -0.96404438999E+03  0.96884727521E+03  0.00000000000E+00 0.  1.
          5    1    4    4  502    0 -0.66130238472E+01  0.11947142369E+02 -0.19487276600E+03  0.19540714220E+03  0.47000000000E+01 0. -1.
         -5    1    4    4    0  502 -0.84684798874E+02  0.79621003025E+02 -0.11822522993E+03  0.16586233531E+03  0.47000000000E+01 0. -1.
<mgrwt>
<rscale>  0 0.10001855E+04</rscale>
<asrwt>0</asrwt>
<pdfrwt beam="1">  1        3 0.21186367E+00 0.10001855E+04</pdfrwt>
<pdfrwt beam="2">  1       -3 0.27939456E-01 0.10001855E+04</pdfrwt>
<totfact> 0.61244356E+00</totfact>
</mgrwt>
</event>
<event>
 9    1  0.4412976E-036  0.9998143E+03  0.7818608E-02  0.8681215E-01
          2   -1    0    0  501    0  0.00000000000E+00  0.00000000000E+00  0.24115959814E+04  0.24115959814E+04  0.00000000000E+00 0.  1.
         -2   -1    0    0    0  501 -0.00000000000E+00 -0.00000000000E+00 -0.10362730058E+03  0.10362730058E+03  0.00000000000E+00 0.  1.
         36    2    1    2    0    0  0.00000000000E+00 -0.28421709430E-13  0.23079686808E+04  0.25152232819E+04  0.99981434605E+03 0.  0.
         25    2    3    3    0    0  0.66566782917E+02 -0.11963908197E+03  0.41107861319E+03  0.45111239641E+03  0.12558710702E+03 0.  0.
         35    2    3    3    0    0 -0.66566782917E+02  0.11963908197E+03  0.18968900676E+04  0.20641108855E+04  0.80225754763E+03 0.  0.
         22    1    5    5    0    0 -0.11405461658E+03  0.42130182107E+03  0.66879593230E+03  0.79861860676E+03  0.00000000000E+00 0. -1.
         22    1    5    5    0    0  0.47487833661E+02 -0.30166273909E+03  0.12280941353E+04  0.12654922788E+04  0.00000000000E+00 0. -1.
          5    1    4    4  502    0 -0.30319274814E+02 -0.67397302345E+02  0.19453503156E+03  0.20815288442E+03  0.47000000000E+01 0. -1.
         -5    1    4    4    0  502  0.96886057732E+02 -0.52241779630E+02  0.21654358163E+03  0.24295951199E+03  0.47000000000E+01 0. -1.
<mgrwt>
<rscale>  0 0.99981435E+03</rscale>
<asrwt>0</asrwt>
<pdfrwt beam="1">  1        2 0.37101473E+00 0.99981435E+03</pdfrwt>
<pdfrwt beam="2">  1       -2 0.15942663E-01 0.99981435E+03</pdfrwt>
<totfact> 0.14212880E+02</totfact>
</mgrwt>
</event>
<event>
 9    1  0.4412976E-036  0.9984478E+03  0.7818608E-02  0.8682518E-01
         -2   -1    0    0    0  501 -0.00000000000E+00  0.00000000000E+00  0.11462309810E+03  0.11462309810E+03  0.00000000000E+00 0.  1.
          2   -1    0    0  501    0  0.00000000000E+00 -0.00000000000E+00 -0.21742956072E+04  0.21742956072E+04  0.00000000000E+00 0.  1.
         36    2    1    2    0    0  0.49737991503E-13 -0.14210854715E-13 -0.20596725091E+04  0.22889187053E+04  0.99844779269E+03 0.  0.
         25    2    3    3    0    0 -0.54310498464E+02  0.11408608803E+03 -0.30314485571E+03  0.35435702652E+03  0.13306702436E+03 0.  0.
         35    2    3    3    0    0  0.54310498464E+02 -0.11408608803E+03 -0.17565276534E+04  0.19345616788E+04  0.80073355504E+03 0.  0.
         22    1    5    5    0    0 -0.29186526678E+03  0.55832164457E+02 -0.13158192208E+04  0.13489561840E+04  0.00000000000E+00 0.  1.
         22    1    5    5    0    0  0.34617576524E+03 -0.16991825249E+03 -0.44070843263E+03  0.58560549482E+03  0.00000000000E+00 0.  1.
          5    1    4    4  502    0  0.30332782552E+01  0.12232456917E+03 -0.17435671800E+03  0.21306068645E+03  0.47000000000E+01 0. -1.
         -5    1    4    4    0  502 -0.57343776719E+02 -0.82384811430E+01 -0.12878813771E+03  0.14129634006E+03  0.47000000000E+01 0. -1.
<mgrwt>
<rscale>  0 0.99844779E+03</rscale>
<asrwt>0</asrwt>
<pdfrwt beam="1">  1        2 0.33450699E+00 0.99844779E+03</pdfrwt>
<pdfrwt beam="2">  1       -2 0.17634324E-01 0.99844779E+03</pdfrwt>
<totfact> 0.16526856E+02</totfact>
</mgrwt>
</event>
<event>
 9    1  0.4412976E-036  0.1000265E+04  0.7818608E-02  0.8680786E-01
         -2   -1    0    0    0  501 -0.00000000000E+00  0.00000000000E+00  0.10699464699E+03  0.10699464699E+03  0.00000000000E+00 0. -1.
          2   -1    0    0  501    0  0.00000000000E+00 -0.00000000000E+00 -0.23378045934E+04  0.23378045934E+04  0.00000000000E+00 0. -1.
         36    2    1    2    0    0 -0.28421709430E-13  0.14210854715E-13 -0.22308099464E+04  0.24447992403E+04  0.10002651192E+04 0.  0.
         25    2    3    3    0    0  0.66994947131E+02  0.88376087929E+02 -0.21397374428E+03  0.27239852706E+03  0.12695486775E+03 0.  0.
         35    2    3    3    0    0 -0.66994947131E+02 -0.88376087929E+02 -0.20168362021E+04  0.21724007133E+04  0.79962362218E+03 0.  0.
         22    1    5    5    0    0  0.22005676100E+03  0.38017733745E+01 -0.11789858266E+03  0.24967880834E+03  0.00000000000E+00 0. -1.
         22    1    5    5    0    0 -0.28705170813E+03 -0.92177861303E+02 -0.18989376194E+04  0.19227219049E+04  0.00000000000E+00 0. -1.
          5    1    4    4  502    0  0.10474430965E+03  0.60621193462E+02 -0.16194815836E+03  0.20222659444E+03  0.47000000000E+01 0.  1.
         -5    1    4    4    0  502 -0.37749362522E+02  0.27754894466E+02 -0.52025585919E+02  0.70171932622E+02  0.47000000000E+01 0.  1.
<mgrwt>
<rscale>  0 0.10002651E+04</rscale>
<asrwt>0</asrwt>
<pdfrwt beam="1">  1        2 0.35966225E+00 0.10002651E+04</pdfrwt>
<pdfrwt beam="2">  1       -2 0.16460715E-01 0.10002651E+04</pdfrwt>
<totfact> 0.14900800E+02</totfact>
</mgrwt>
</event>
<event>
 9    1  0.4412976E-036  0.9996092E+03  0.7818608E-02  0.8681410E-01
          1   -1    0    0  501    0  0.00000000000E+00  0.00000000000E+00  0.14896120375E+04  0.14896120375E+04  0.00000000000E+00 0.  1.
         -1   -1    0    0    0  501 -0.00000000000E+00 -0.00000000000E+00 -0.16769778128E+03  0.16769778128E+03  0.00000000000E+00 0.  1.
         36    2    1    2    0    0  0.00000000000E+00  0.00000000000E+00  0.13219142563E+04  0.16573098188E+04  0.99960919095E+03 0.  0.
         25    2    3    3    0    0 -0.11477200251E+03  0.66130746789E+02  0.19303452641E+03  0.26716807692E+03  0.12872670548E+03 0.  0.
         35    2    3    3    0    0  0.11477200251E+03 -0.66130746789E+02  0.11288797298E+04  0.13901417419E+04  0.80036162444E+03 0.  0.
         22    1    5    5    0    0  0.12771837907E+03 -0.41971228453E+03  0.47451945729E+03  0.64625003016E+03  0.00000000000E+00 0. -1.
         22    1    5    5    0    0 -0.12946376554E+02  0.35358153774E+03  0.65436027256E+03  0.74389171174E+03  0.00000000000E+00 0. -1.
          5    1    4    4  502    0 -0.70730504278E+02 -0.31359897432E+02  0.85683002456E+02  0.11554182928E+03  0.47000000000E+01 0. -1.
         -5    1    4    4    0  502 -0.44041498235E+02  0.97490644222E+02  0.10735152396E+03  0.15162624764E+03  0.47000000000E+01 0. -1.
<mgrwt>
<rscale>  0 0.99960919E+03</rscale>
<asrwt>0</asrwt>
<pdfrwt beam="1">  1        1 0.22917107E+00 0.99960919E+03</pdfrwt>
<pdfrwt beam="2">  1       -1 0.25799660E-01 0.99960919E+03</pdfrwt>
<totfact> 0.95347202E+01</totfact>
</mgrwt>
</event>
<event>
 9    1  0.4412976E-036  0.1000243E+04  0.7818608E-02  0.8680806E-01
         -1   -1    0    0    0  501 -0.00000000000E+00  0.00000000000E+00  0.21304014317E+03  0.21304014317E+03  0.00000000000E+00 0.  1.
          1   -1    0    0  501    0  0.00000000000E+00 -0.00000000000E+00 -0.11740589500E+04  0.11740589500E+04  0.00000000000E+00 0.  1.
         36    2    1    2    0    0  0.28421709430E-13 -0.28421709430E-13 -0.96101880681E+03  0.13870990931E+04  0.10002433440E+04 0.  0.
         25    2    3    3    0    0 -0.48998975988E+02  0.11505752103E+03 -0.27045953504E+03  0.32301783793E+03  0.12471179068E+03 0.  0.
         35    2    3    3    0    0  0.48998975988E+02 -0.11505752103E+03 -0.69055927176E+03  0.10640812552E+04  0.79984853383E+03 0.  0.
         22    1    5    5    0    0  0.32823524725E+03  0.18933666941E+03 -0.22090370580E+03  0.43861737215E+03  0.00000000000E+00 0. -1.
         22    1    5    5    0    0 -0.27923627126E+03 -0.30439419044E+03 -0.46965556597E+03  0.62546388305E+03  0.00000000000E+00 0. -1.
          5    1    4    4  502    0 -0.17292206563E+02 -0.42977748975E+01 -0.14763144427E+03  0.14877709707E+03  0.47000000000E+01 0.  1.
         -5    1    4    4    0  502 -0.31706769425E+02  0.11935529592E+03 -0.12282809078E+03  0.17424074086E+03  0.47000000000E+01 0.  1.
<mgrwt>
<rscale>  0 0.10002433E+04</rscale>
<asrwt>0</asrwt>
<pdfrwt beam="1">  1        1 0.18062446E+00 0.10002433E+04</pdfrwt>
<pdfrwt beam="2">  1       -1 0.32775406E-01 0.10002433E+04</pdfrwt>
<totfact> 0.10761142E+02</totfact>
</mgrwt>
</event>
<event>
 9    1  0.4412976E-036  0.1001143E+04  0.7818608E-02  0.8679950E-01
          2   -1    0    0  501    0  0.00000000000E+00  0.00000000000E+00  0.32398730786E+04  0.32398730786E+04  0.00000000000E+00 0.  1.
         -2   -1    0    0    0  501 -0.00000000000E+00 -0.00000000000E+00 -0.77340075502E+02  0.77340075502E+02  0.00000000000E+00 0.  1.
         36    2    1    2    0    0  0.35527136788E-14 -0.71054273576E-14  0.31625330031E+04  0.33172131541E+04  0.10011434033E+04 0.  0.
         25    2    3    3    0    0  0.38773354003E+00 -0.35132092895E+01  0.10604281963E+04  0.10678127553E+04  0.12531411717E+03 0.  0.
         35    2    3    3    0    0 -0.38773354003E+00  0.35132092895E+01  0.21021048068E+04  0.22494003988E+04  0.80059043353E+03 0.  0.
         22    1    5    5    0    0  0.33416727942E+02  0.13436076176E+03 -0.44399185047E+01  0.13852510560E+03  0.00000000000E+00 0.  1.
         22    1    5    5    0    0 -0.33804461482E+02 -0.13084755247E+03  0.21065447253E+04  0.21108752932E+04  0.00000000000E+00 0.  1.
          5    1    4    4  502    0 -0.21953335434E+02  0.48836838964E+02  0.26845963568E+03  0.27378760338E+03  0.47000000000E+01 0.  1.
         -5    1    4    4    0  502  0.22341068974E+02 -0.52350048254E+02  0.79196856058E+03  0.79402515191E+03  0.47000000000E+01 0.  1.
<mgrwt>
<rscale>  0 0.10011434E+04</rscale>
<asrwt>0</asrwt>
<pdfrwt beam="1">  1        2 0.49844191E+00 0.10011434E+04</pdfrwt>
<pdfrwt beam="2">  1       -2 0.11898476E-01 0.10011434E+04</pdfrwt>
<totfact> 0.67282516E+01</totfact>
</mgrwt>
</event>
<event>
 9    1  0.4412976E-036  0.9984719E+03  0.7818608E-02  0.8682495E-01
          2   -1    0    0  501    0  0.00000000000E+00  0.00000000000E+00  0.41034312000E+03  0.41034312000E+03  0.00000000000E+00 0. -1.
         -2   -1    0    0    0  501 -0.00000000000E+00 -0.00000000000E+00 -0.60738564775E+03  0.60738564775E+03  0.00000000000E+00 0. -1.
         36    2    1    2    0    0 -0.71054273576E-14  0.71054273576E-14 -0.19704252775E+03  0.10177287678E+04  0.99847187590E+03 0.  0.
         25    2    3    3    0    0  0.39068601412E+02 -0.13593765395E+02  0.95950607578E+02  0.16330259200E+03  0.12549928838E+03 0.  0.
         35    2    3    3    0    0 -0.39068601412E+02  0.13593765395E+02 -0.29299313532E+03  0.85442617576E+03  0.80155347070E+03 0.  0.
         22    1    5    5    0    0  0.17950775458E+03 -0.71417468909E+02 -0.50349400352E+03  0.53928628798E+03  0.00000000000E+00 0. -1.
         22    1    5    5    0    0 -0.21857635599E+03  0.85011234304E+02  0.21050086820E+03  0.31513988778E+03  0.00000000000E+00 0. -1.
          5    1    4    4  502    0  0.48481330112E+02  0.33686160113E+02  0.98352890376E+02  0.11480669753E+03  0.47000000000E+01 0.  1.
         -5    1    4    4    0  502 -0.94127286996E+01 -0.47279925508E+02 -0.24022827985E+01  0.48495894468E+02  0.47000000000E+01 0.  1.
<mgrwt>
<rscale>  0 0.99847188E+03</rscale>
<asrwt>0</asrwt>
<pdfrwt beam="1">  1        2 0.63129711E-01 0.99847188E+03</pdfrwt>
<pdfrwt beam="2">  1       -2 0.93443946E-01 0.99847188E+03</pdfrwt>
<totfact> 0.89274066E+01</totfact>
</mgrwt>
</event>
<event>
 9    1  0.4412976E-036  0.1000911E+04  0.7818608E-02  0.8680171E-01
          1   -1    0    0  501    0  0.00000000000E+00  0.00000000000E+00  0.11830171273E+04  0.11830171273E+04  0.00000000000E+00 0.  1.
         -1   -1    0    0    0  501 -0.00000000000E+00 -0.00000000000E+00 -0.21170927896E+03  0.21170927896E+03  0.00000000000E+00 0.  1.
         36    2    1    2    0    0  0.00000000000E+00  0.14210854715E-13  0.97130784829E+03  0.13947264062E+04  0.10009109911E+04 0.  0.
         25    2    3    3    0    0 -0.13854118926E+03 -0.28203040062E+02  0.16922259284E+03  0.25420124350E+03  0.12646309216E+03 0.  0.
         35    2    3    3    0    0  0.13854118926E+03  0.28203040062E+02  0.80208525546E+03  0.11405251627E+04  0.79841581720E+03 0.  0.
         22    1    5    5    0    0  0.41377177577E+03  0.21738940567E+03  0.55190616794E+03  0.72323278019E+03  0.00000000000E+00 0. -1.
         22    1    5    5    0    0 -0.27523058651E+03 -0.18918636561E+03  0.25017908751E+03  0.41729238252E+03  0.00000000000E+00 0. -1.
          5    1    4    4  502    0 -0.61835871464E+02  0.28219009115E+02  0.13796320978E+03  0.15386983047E+03  0.47000000000E+01 0. -1.
         -5    1    4    4    0  502 -0.76705317799E+02 -0.56422049177E+02  0.31259383057E+02  0.10033141303E+03  0.47000000000E+01 0. -1.
<mgrwt>
<rscale>  0 0.10009110E+04</rscale>
<asrwt>0</asrwt>
<pdfrwt beam="1">  1        1 0.18200263E+00 0.10009110E+04</pdfrwt>
<pdfrwt beam="2">  1       -1 0.32570659E-01 0.10009110E+04</pdfrwt>
<totfact> 0.10710471E+02</totfact>
</mgrwt>
</event>
<event>
 9    1  0.4412976E-036  0.9993626E+03  0.7818608E-02  0.8681645E-01
          2   -1    0    0  501    0  0.00000000000E+00  0.00000000000E+00  0.68228457523E+03  0.68228457523E+03  0.00000000000E+00 0. -1.
         -2   -1    0    0    0  501 -0.00000000000E+00 -0.00000000000E+00 -0.36594905992E+03  0.36594905992E+03  0.00000000000E+00 0. -1.
         36    2    1    2    0    0  0.28421709430E-13  0.71054273576E-14  0.31633551531E+03  0.10482336352E+04  0.99936259467E+03 0.  0.
         25    2    3    3    0    0  0.12584386825E+03  0.23162631775E+01  0.10745058357E+03  0.20750512859E+03  0.12518269142E+03 0.  0.
         35    2    3    3    0    0 -0.12584386825E+03 -0.23162631775E+01  0.20888493174E+03  0.84072850656E+03  0.80458030226E+03 0.  0.
         22    1    5    5    0    0 -0.27220870515E+03 -0.11656379647E+03  0.44859750031E+03  0.53751689749E+03  0.00000000000E+00 0. -1.
         22    1    5    5    0    0  0.14636483690E+03  0.11424753329E+03 -0.23971256857E+03  0.30321160907E+03  0.00000000000E+00 0. -1.
          5    1    4    4  502    0  0.61251676192E+02  0.50622491887E+02  0.97854649856E+02  0.12614288335E+03  0.47000000000E+01 0. -1.
         -5    1    4    4    0  502  0.64592192061E+02 -0.48306228709E+02  0.95959337145E+01  0.81362245244E+02  0.47000000000E+01 0. -1.
<mgrwt>
<rscale>  0 0.99936259E+03</rscale>
<asrwt>0</asrwt>
<pdfrwt beam="1">  1        2 0.10496686E+00 0.99936259E+03</pdfrwt>
<pdfrwt beam="2">  1       -2 0.56299856E-01 0.99936259E+03</pdfrwt>
<totfact> 0.15164601E+02</totfact>
</mgrwt>
</event>
<event>
 9    1  0.4412976E-036  0.9988096E+03  0.7818608E-02  0.8682172E-01
          1   -1    0    0  501    0  0.00000000000E+00  0.00000000000E+00  0.12924150867E+04  0.12924150867E+04  0.00000000000E+00 0. -1.
         -1   -1    0    0    0  501 -0.00000000000E+00 -0.00000000000E+00 -0.19297602951E+03  0.19297602951E+03  0.00000000000E+00 0. -1.
         36    2    1    2    0    0 -0.28421709430E-13  0.00000000000E+00  0.10994390572E+04  0.14853911163E+04  0.99880955526E+03 0.  0.
         25    2    3    3    0    0  0.98631689270E+02 -0.97940262355E+02  0.20519683994E+03  0.27738646972E+03  0.12456727237E+03 0.  0.
         35    2    3    3    0    0 -0.98631689270E+02  0.97940262355E+02  0.89424221730E+03  0.12080046465E+04  0.80017846617E+03 0.  0.
         22    1    5    5    0    0  0.29602767279E+03  0.41453173999E+02  0.92991119865E+02  0.31304647748E+03  0.00000000000E+00 0.  1.
         22    1    5    5    0    0 -0.39465936206E+03  0.56487088356E+02  0.80125109743E+03  0.89495816905E+03  0.00000000000E+00 0.  1.
          5    1    4    4  502    0 -0.18918154504E+01  0.26267680046E+02  0.31407027252E+02  0.41256046120E+02  0.47000000000E+01 0. -1.
         -5    1    4    4    0  502  0.10052350472E+03 -0.12420794240E+03  0.17378981269E+03  0.23613042360E+03  0.47000000000E+01 0. -1.
<mgrwt>
<rscale>  0 0.99880956E+03</rscale>
<asrwt>0</asrwt>
<pdfrwt beam="1">  1        1 0.19883309E+00 0.99880956E+03</pdfrwt>
<pdfrwt beam="2">  1       -1 0.29688621E-01 0.99880956E+03</pdfrwt>
<totfact> 0.10424232E+02</totfact>
</mgrwt>
</event>
<event>
 9    1  0.4412976E-036  0.1001076E+04  0.7818608E-02  0.8680014E-01
          2   -1    0    0  501    0  0.00000000000E+00  0.00000000000E+00  0.64387086474E+03  0.64387086474E+03  0.00000000000E+00 0.  1.
         -2   -1    0    0    0  501 -0.00000000000E+00 -0.00000000000E+00 -0.38911232259E+03  0.38911232259E+03  0.00000000000E+00 0.  1.
         36    2    1    2    0    0 -0.71054273576E-14  0.28421709430E-13  0.25475854215E+03  0.10329831873E+04  0.10010755968E+04 0.  0.
         25    2    3    3    0    0  0.61875321692E+02  0.98863243080E+02  0.12386459597E+03  0.21158389134E+03  0.12578874621E+03 0.  0.
         35    2    3    3    0    0 -0.61875321692E+02 -0.98863243080E+02  0.13089394618E+03  0.82139929600E+03  0.80247185748E+03 0.  0.
         22    1    5    5    0    0 -0.37433967046E+02  0.33354530813E+03 -0.71772687523E+02  0.34322746559E+03  0.00000000000E+00 0.  1.
         22    1    5    5    0    0 -0.24441354646E+02 -0.43240855121E+03  0.20266663370E+03  0.47817183040E+03  0.00000000000E+00 0.  1.
          5    1    4    4  502    0  0.59893466966E+02 -0.89611520358E+01  0.26707788914E+02  0.66354544831E+02  0.47000000000E+01 0. -1.
         -5    1    4    4    0  502  0.19818547263E+01  0.10782439512E+03  0.97156807054E+02  0.14522934651E+03  0.47000000000E+01 0. -1.
<mgrwt>
<rscale>  0 0.10010756E+04</rscale>
<asrwt>0</asrwt>
<pdfrwt beam="1">  1        2 0.99057056E-01 0.10010756E+04</pdfrwt>
<pdfrwt beam="2">  1       -2 0.59863434E-01 0.10010756E+04</pdfrwt>
<totfact> 0.14325443E+02</totfact>
</mgrwt>
</event>
<event>
 9    1  0.4412976E-036  0.9997995E+03  0.7818608E-02  0.8681229E-01
          2   -1    0    0  501    0  0.00000000000E+00  0.00000000000E+00  0.67907304183E+03  0.67907304183E+03  0.00000000000E+00 0.  1.
         -2   -1    0    0    0  501 -0.00000000000E+00 -0.00000000000E+00 -0.36800131583E+03  0.36800131583E+03  0.00000000000E+00 0.  1.
         36    2    1    2    0    0  0.28421709430E-13  0.28421709430E-13  0.31107172600E+03  0.10470743577E+04  0.99979952578E+03 0.  0.
         25    2    3    3    0    0 -0.90070563730E+01  0.13788394623E+03  0.30870934418E+02  0.18688024699E+03  0.12197582724E+03 0.  0.
         35    2    3    3    0    0  0.90070563730E+01 -0.13788394623E+03  0.28020079159E+03  0.86019411066E+03  0.80145387560E+03 0.  0.
         22    1    5    5    0    0  0.29010947812E+03  0.12254775213E+03 -0.89835528038E+02  0.32749333268E+03  0.00000000000E+00 0.  1.
         22    1    5    5    0    0 -0.28110242175E+03 -0.26043169836E+03  0.37003631962E+03  0.53270077799E+03  0.00000000000E+00 0.  1.
          5    1    4    4  502    0 -0.40055775480E+02  0.75060226499E+01 -0.17110902386E+02  0.44448605218E+02  0.47000000000E+01 0. -1.
         -5    1    4    4    0  502  0.31048719107E+02  0.13037792358E+03  0.47981836804E+02  0.14243164178E+03  0.47000000000E+01 0. -1.
<mgrwt>
<rscale>  0 0.99979953E+03</rscale>
<asrwt>0</asrwt>
<pdfrwt beam="1">  1        2 0.10447278E+00 0.99979953E+03</pdfrwt>
<pdfrwt beam="2">  1       -2 0.56615587E-01 0.99979953E+03</pdfrwt>
<totfact> 0.15077329E+02</totfact>
</mgrwt>
</event>
<event>
 9    1  0.4412976E-036  0.1001370E+04  0.7818608E-02  0.8679735E-01
         -2   -1    0    0    0  501 -0.00000000000E+00  0.00000000000E+00  0.15354086722E+03  0.15354086722E+03  0.00000000000E+00 0.  1.
          2   -1    0    0  501    0  0.00000000000E+00 -0.00000000000E+00 -0.16326946656E+04  0.16326946656E+04  0.00000000000E+00 0.  1.
         36    2    1    2    0    0 -0.28421709430E-13  0.00000000000E+00 -0.14791537984E+04  0.17862355329E+04  0.10013697716E+04 0.  0.
         25    2    3    3    0    0 -0.17876758836E+02 -0.72659996365E+02 -0.49730288422E+03  0.51814970355E+03  0.12477941761E+03 0.  0.
         35    2    3    3    0    0  0.17876758836E+02  0.72659996365E+02 -0.98185091418E+03  0.12680858293E+04  0.79900650761E+03 0.  0.
         22    1    5    5    0    0  0.33687664486E+03  0.15759469588E+03 -0.82006237911E+03  0.90045781004E+03  0.00000000000E+00 0. -1.
         22    1    5    5    0    0 -0.31899988602E+03 -0.84934699512E+02 -0.16178853507E+03  0.36762801926E+03  0.00000000000E+00 0. -1.
          5    1    4    4  502    0  0.14264022674E+01 -0.95069071284E+01  0.47806944121E+01  0.11720108602E+02  0.47000000000E+01 0. -1.
         -5    1    4    4    0  502 -0.19303161103E+02 -0.63153089237E+02 -0.50208357864E+03  0.50642959495E+03  0.47000000000E+01 0. -1.
<mgrwt>
<rscale>  0 0.10013698E+04</rscale>
<asrwt>0</asrwt>
<pdfrwt beam="1">  1        2 0.25118379E+00 0.10013698E+04</pdfrwt>
<pdfrwt beam="2">  1       -2 0.23621673E-01 0.10013698E+04</pdfrwt>
<totfact> 0.20219290E+02</totfact>
</mgrwt>
</event>
<event>
 9    1  0.4412976E-036  0.9984983E+03  0.7818608E-02  0.8682469E-01
         -2   -1    0    0    0  501 -0.00000000000E+00  0.00000000000E+00  0.19834995119E+03  0.19834995119E+03  0.00000000000E+00 0. -1.
          2   -1    0    0  501    0  0.00000000000E+00 -0.00000000000E+00 -0.12566159857E+04  0.12566159857E+04  0.00000000000E+00 0. -1.
         36    2    1    2    0    0  0.35527136788E-13  0.28421709430E-13 -0.10582660345E+04  0.14549659369E+04  0.99849831131E+03 0.  0.
         25    2    3    3    0    0 -0.24855582621E+02 -0.13190445638E+03 -0.24735792906E+03  0.30821924139E+03  0.12568440672E+03 0.  0.
         35    2    3    3    0    0  0.24855582621E+02  0.13190445638E+03 -0.81090810546E+03  0.11467466955E+04  0.79964957484E+03 0.  0.
         22    1    5    5    0    0  0.37048901944E+03 -0.63634158360E+02 -0.56833875748E+03  0.68141056851E+03  0.00000000000E+00 0. -1.
         22    1    5    5    0    0 -0.34563343681E+03  0.19553861475E+03 -0.24256934798E+03  0.46533612699E+03  0.00000000000E+00 0. -1.
          5    1    4    4  502    0 -0.29729780695E+02 -0.16548928782E+02  0.92739398651E+00  0.34360980248E+02  0.47000000000E+01 0. -1.
         -5    1    4    4    0  502  0.48741980732E+01 -0.11535552760E+03 -0.24828532304E+03  0.27385826114E+03  0.47000000000E+01 0. -1.
<mgrwt>
<rscale>  0 0.99849831E+03</rscale>
<asrwt>0</asrwt>
<pdfrwt beam="1">  1        2 0.19332554E+00 0.99849831E+03</pdfrwt>
<pdfrwt beam="2">  1       -2 0.30515377E-01 0.99849831E+03</pdfrwt>
<totfact> 0.20938004E+02</totfact>
</mgrwt>
</event>
<event>
 9    1  0.4412976E-036  0.9985020E+03  0.7818608E-02  0.8682466E-01
         -3   -1    0    0    0  501 -0.00000000000E+00  0.00000000000E+00  0.52925403881E+03  0.52925403881E+03  0.00000000000E+00 0. -1.
          3   -1    0    0  501    0  0.00000000000E+00 -0.00000000000E+00 -0.47094883239E+03  0.47094883239E+03  0.00000000000E+00 0. -1.
         36    2    1    2    0    0  0.14210854715E-13 -0.28421709430E-13  0.58305206421E+02  0.10002028712E+04  0.99850202125E+03 0.  0.
         25    2    3    3    0    0  0.83022753533E+02 -0.10890216711E+03 -0.16202083082E+02  0.18657358572E+03  0.12567710924E+03 0.  0.
         35    2    3    3    0    0 -0.83022753533E+02  0.10890216711E+03  0.74507289503E+02  0.81362928548E+03  0.79855420504E+03 0.  0.
         22    1    5    5    0    0 -0.23392671837E+03 -0.39765744814E+02 -0.30052340084E+03  0.38290643568E+03  0.00000000000E+00 0.  1.
         22    1    5    5    0    0  0.15090396484E+03  0.14866791192E+03  0.37503069035E+03  0.43072284980E+03  0.00000000000E+00 0.  1.
          5    1    4    4  502    0  0.96959765039E+02 -0.11627911700E+03  0.14063138101E+02  0.15212459019E+03  0.47000000000E+01 0. -1.
         -5    1    4    4    0  502 -0.13937011506E+02  0.73769498973E+01 -0.30265221183E+02  0.34448995526E+02  0.47000000000E+01 0. -1.
<mgrwt>
<rscale>  0 0.99850202E+03</rscale>
<asrwt>0</asrwt>
<pdfrwt beam="1">  1        3 0.72453666E-01 0.99850202E+03</pdfrwt>
<pdfrwt beam="2">  1       -3 0.81423699E-01 0.99850202E+03</pdfrwt>
<totfact> 0.99238118E+00</totfact>
</mgrwt>
</event>
<event>
 9    1  0.4412976E-036  0.1000276E+04  0.7818608E-02  0.8680775E-01
         -2   -1    0    0    0  501 -0.00000000000E+00  0.00000000000E+00  0.17763236785E+03  0.17763236785E+03  0.00000000000E+00 0. -1.
          2   -1    0    0  501    0  0.00000000000E+00 -0.00000000000E+00 -0.14081786697E+04  0.14081786697E+04  0.00000000000E+00 0. -1.
         36    2    1    2    0    0 -0.71054273576E-14  0.14210854715E-13 -0.12305463018E+04  0.15858110375E+04  0.10002761847E+04 0.  0.
         25    2    3    3    0    0 -0.41289857373E+02  0.11157641452E+03 -0.36137928182E+03  0.40040104191E+03  0.12478726072E+03 0.  0.
         35    2    3    3    0    0  0.41289857373E+02 -0.11157641452E+03 -0.86916702000E+03  0.11854099956E+04  0.79723986378E+03 0.  0.
         22    1    5    5    0    0  0.85229368314E+02  0.31818218440E+03 -0.18934764722E+03  0.37994273147E+03  0.00000000000E+00 0. -1.
         22    1    5    5    0    0 -0.43939510941E+02 -0.42975859892E+03 -0.67981937278E+03  0.80546726412E+03  0.00000000000E+00 0. -1.
          5    1    4    4  502    0 -0.74656025981E+01  0.18781960357E+01 -0.21081894467E+03  0.21101180126E+03  0.47000000000E+01 0.  1.
         -5    1    4    4    0  502 -0.33824254775E+02  0.10969821849E+03 -0.15056033715E+03  0.18938924065E+03  0.47000000000E+01 0.  1.
<mgrwt>
<rscale>  0 0.10002762E+04</rscale>
<asrwt>0</asrwt>
<pdfrwt beam="1">  1        2 0.21664287E+00 0.10002762E+04</pdfrwt>
<pdfrwt beam="2">  1       -2 0.27328057E-01 0.10002762E+04</pdfrwt>
<totfact> 0.20907164E+02</totfact>
</mgrwt>
</event>
<event>
 9    1  0.4412976E-036  0.9985511E+03  0.7818608E-02  0.8682419E-01
          2   -1    0    0  501    0  0.00000000000E+00  0.00000000000E+00  0.39468324168E+03  0.39468324168E+03  0.00000000000E+00 0.  1.
         -2   -1    0    0    0  501 -0.00000000000E+00 -0.00000000000E+00 -0.63158517903E+03  0.63158517903E+03  0.00000000000E+00 0.  1.
         36    2    1    2    0    0 -0.14210854715E-13  0.17763568394E-14 -0.23690193736E+03  0.10262684207E+04  0.99855112209E+03 0.  0.
         25    2    3    3    0    0  0.56883362603E+01  0.45389117431E+01 -0.18458123726E+03  0.22279549458E+03  0.12455777924E+03 0.  0.
         35    2    3    3    0    0 -0.56883362603E+01 -0.45389117431E+01 -0.52320700100E+02  0.80347292613E+03  0.80173457483E+03 0.  0.
         22    1    5    5    0    0  0.25786848000E+03  0.41894871126E+01 -0.33112746201E+03  0.41971311735E+03  0.00000000000E+00 0.  1.
         22    1    5    5    0    0 -0.26355681626E+03 -0.87283988557E+01  0.27880676191E+03  0.38375980878E+03  0.00000000000E+00 0.  1.
          5    1    4    4  502    0 -0.47020213463E+02  0.24451764739E+02 -0.37144147218E+02  0.64888881525E+02  0.47000000000E+01 0. -1.
         -5    1    4    4    0  502  0.52708549724E+02 -0.19912852996E+02 -0.14743709004E+03  0.15790661306E+03  0.47000000000E+01 0. -1.
<mgrwt>
<rscale>  0 0.99855112E+03</rscale>
<asrwt>0</asrwt>
<pdfrwt beam="1">  1        2 0.60720500E-01 0.99855112E+03</pdfrwt>
<pdfrwt beam="2">  1       -2 0.97166949E-01 0.99855112E+03</pdfrwt>
<totfact> 0.84953701E+01</totfact>
</mgrwt>
</event>
<event>
 9    1  0.4412976E-036  0.9997617E+03  0.7818608E-02  0.8681265E-01
         -2   -1    0    0    0  501 -0.00000000000E+00  0.00000000000E+00  0.23662280118E+03  0.23662280118E+03  0.00000000000E+00 0. -1.
          2   -1    0    0  501    0  0.00000000000E+00 -0.00000000000E+00 -0.10560304332E+04  0.10560304332E+04  0.00000000000E+00 0. -1.
         36    2    1    2    0    0  0.00000000000E+00  0.28421709430E-13 -0.81940763206E+03  0.12926532344E+04  0.99976173010E+03 0.  0.
         25    2    3    3    0    0 -0.13436317320E+03  0.38029986000E+02 -0.18176004312E+03  0.26064123944E+03  0.12408626144E+03 0.  0.
         35    2    3    3    0    0  0.13436317320E+03 -0.38029986000E+02 -0.63764758894E+03  0.10320119950E+04  0.79934633791E+03 0.  0.
         22    1    5    5    0    0  0.23858247585E+02 -0.41243798704E+03 -0.39969848755E+03  0.57483318456E+03  0.00000000000E+00 0. -1.
         22    1    5    5    0    0  0.11050492562E+03  0.37440800104E+03 -0.23794910140E+03  0.45717881040E+03  0.00000000000E+00 0. -1.
          5    1    4    4  502    0 -0.10091346737E+03 -0.12317198419E+02 -0.17110511516E+03  0.19908362993E+03  0.47000000000E+01 0.  1.
         -5    1    4    4    0  502 -0.33449705835E+02  0.50347184419E+02 -0.10654927956E+02  0.61557609514E+02  0.47000000000E+01 0.  1.
<mgrwt>
<rscale>  0 0.99976173E+03</rscale>
<asrwt>0</asrwt>
<pdfrwt beam="1">  1        2 0.16246622E+00 0.99976173E+03</pdfrwt>
<pdfrwt beam="2">  1       -2 0.36403508E-01 0.99976173E+03</pdfrwt>
<totfact> 0.19905879E+02</totfact>
</mgrwt>
</event>
<event>
 9    1  0.4412976E-036  0.1000291E+04  0.7818608E-02  0.8680761E-01
         -3   -1    0    0    0  501 -0.00000000000E+00  0.00000000000E+00  0.52711934096E+02  0.52711934096E+02  0.00000000000E+00 0. -1.
          3   -1    0    0  501    0  0.00000000000E+00 -0.00000000000E+00 -0.47455192096E+04  0.47455192096E+04  0.00000000000E+00 0. -1.
         36    2    1    2    0    0  0.00000000000E+00  0.35527136788E-14 -0.46928072755E+04  0.47982311437E+04  0.10002909493E+04 0.  0.
         25    2    3    3    0    0  0.13749376881E+03  0.25202300976E+02 -0.91284816260E+03  0.93185160223E+03  0.12456302890E+03 0.  0.
         35    2    3    3    0    0 -0.13749376881E+03 -0.25202300976E+02 -0.37799591129E+04  0.38663795415E+04  0.80078721958E+03 0.  0.
         22    1    5    5    0    0 -0.35940207366E+03 -0.27971895030E+02 -0.34496899713E+04  0.34684741855E+04  0.00000000000E+00 0. -1.
         22    1    5    5    0    0  0.22190830484E+03  0.27695940542E+01 -0.33026914162E+03  0.39790535598E+03  0.00000000000E+00 0. -1.
          5    1    4    4  502    0  0.12902128480E+03  0.45251037620E+02 -0.88803891355E+03  0.89851508074E+03  0.47000000000E+01 0.  1.
         -5    1    4    4    0  502  0.84724840156E+01 -0.20048736644E+02 -0.24809249058E+02  0.33336521493E+02  0.47000000000E+01 0.  1.
<mgrwt>
<rscale>  0 0.10002909E+04</rscale>
<asrwt>0</asrwt>
<pdfrwt beam="1">  1        3 0.73007980E+00 0.10002909E+04</pdfrwt>
<pdfrwt beam="2">  1       -3 0.81095292E-02 0.10002909E+04</pdfrwt>
<totfact> 0.68035240E-01</totfact>
</mgrwt>
</event>
<event>
 9    1  0.4412976E-036  0.9996458E+03  0.7818608E-02  0.8681375E-01
          1   -1    0    0  501    0  0.00000000000E+00  0.00000000000E+00  0.41236936441E+03  0.41236936441E+03  0.00000000000E+00 0.  1.
         -1   -1    0    0    0  501 -0.00000000000E+00 -0.00000000000E+00 -0.60582321723E+03  0.60582321723E+03  0.00000000000E+00 0.  1.
         36    2    1    2    0    0  0.42632564146E-13  0.71054273576E-14 -0.19345385282E+03  0.10181925816E+04  0.99964580734E+03 0.  0.
         25    2    3    3    0    0 -0.51784114823E+02  0.29270865246E+02 -0.14055437747E+03  0.20151496915E+03  0.13158408592E+03 0.  0.
         35    2    3    3    0    0  0.51784114823E+02 -0.29270865246E+02 -0.52899475354E+02  0.81667761248E+03  0.81278877338E+03 0.  0.
         22    1    5    5    0    0 -0.34508780790E+03  0.71988378421E+02 -0.16903006040E+03  0.39094639416E+03  0.00000000000E+00 0.  1.
         22    1    5    5    0    0  0.39687192272E+03 -0.10125924367E+03  0.11613058505E+03  0.42573121832E+03  0.00000000000E+00 0.  1.
          5    1    4    4  502    0 -0.47194038647E+02  0.60520314880E+02 -0.14970571820E+03  0.16829699301E+03  0.47000000000E+01 0.  1.
         -5    1    4    4    0  502 -0.45900761761E+01 -0.31249449633E+02  0.91513407287E+01  0.33217976140E+02  0.47000000000E+01 0.  1.
<mgrwt>
<rscale>  0 0.99964581E+03</rscale>
<asrwt>0</asrwt>
<pdfrwt beam="1">  1        1 0.63441441E-01 0.99964581E+03</pdfrwt>
<pdfrwt beam="2">  1       -1 0.93203571E-01 0.99964581E+03</pdfrwt>
<totfact> 0.76803112E+01</totfact>
</mgrwt>
</event>
<event>
 9    1  0.4412976E-036  0.1000693E+04  0.7818608E-02  0.8680379E-01
          1   -1    0    0  501    0  0.00000000000E+00  0.00000000000E+00  0.29563614043E+03  0.29563614043E+03  0.00000000000E+00 0.  1.
         -1   -1    0    0    0  501 -0.00000000000E+00 -0.00000000000E+00 -0.84680602829E+03  0.84680602829E+03  0.00000000000E+00 0.  1.
         36    2    1    2    0    0  0.00000000000E+00 -0.28421709430E-13 -0.55116988786E+03  0.11424421687E+04  0.10006926919E+04 0.  0.
         25    2    3    3    0    0 -0.11045260185E+03 -0.32126027829E+02 -0.19592326532E+03  0.25943182952E+03  0.12524811118E+03 0.  0.
         35    2    3    3    0    0  0.11045260185E+03  0.32126027829E+02 -0.35524662254E+03  0.88301033920E+03  0.80017200487E+03 0.  0.
         22    1    5    5    0    0  0.18367323634E+03  0.39409623358E+03 -0.14660926335E+03  0.45884853184E+03  0.00000000000E+00 0.  1.
         22    1    5    5    0    0 -0.73220634495E+02 -0.36197020575E+03 -0.20863735918E+03  0.42416180735E+03  0.00000000000E+00 0.  1.
          5    1    4    4  502    0 -0.96367097817E+02  0.22540962442E+02 -0.69878884494E+02  0.12124298342E+03  0.47000000000E+01 0.  1.
         -5    1    4    4    0  502 -0.14085504033E+02 -0.54666990271E+02 -0.12604438083E+03  0.13818884610E+03  0.47000000000E+01 0.  1.
<mgrwt>
<rscale>  0 0.10006927E+04</rscale>
<asrwt>0</asrwt>
<pdfrwt beam="1">  1        1 0.45482484E-01 0.10006927E+04</pdfrwt>
<pdfrwt beam="2">  1       -1 0.13027785E+00 0.10006927E+04</pdfrwt>
<totfact> 0.53970066E+01</totfact>
</mgrwt>
</event>
<event>
 9    1  0.4412976E-036  0.1001020E+04  0.7818608E-02  0.8680068E-01
         -1   -1    0    0    0  501 -0.00000000000E+00  0.00000000000E+00  0.99416739637E+02  0.99416739637E+02  0.00000000000E+00 0. -1.
          1   -1    0    0  501    0  0.00000000000E+00 -0.00000000000E+00 -0.25197971163E+04  0.25197971163E+04  0.00000000000E+00 0. -1.
         36    2    1    2    0    0  0.28421709430E-13  0.00000000000E+00 -0.24203803767E+04  0.26192138559E+04  0.10010195080E+04 0.  0.
         25    2    3    3    0    0 -0.12796295060E+03  0.24402092403E+02 -0.32956006386E+03  0.37577667844E+03  0.12501318941E+03 0.  0.
         35    2    3    3    0    0  0.12796295060E+03 -0.24402092403E+02 -0.20908203128E+04  0.22434371775E+04  0.80281430612E+03 0.  0.
         22    1    5    5    0    0  0.19536735277E+03 -0.11611376075E+03 -0.21149203218E+04  0.21270963249E+04  0.00000000000E+00 0.  1.
         22    1    5    5    0    0 -0.67404402164E+02  0.91711668345E+02  0.24100009002E+02  0.11634085257E+03  0.00000000000E+00 0.  1.
          5    1    4    4  502    0 -0.81923646375E+02 -0.47551574905E+02 -0.16540158133E+03  0.19066307775E+03  0.47000000000E+01 0.  1.
         -5    1    4    4    0  502 -0.46039304227E+02  0.71953667308E+02 -0.16415848253E+03  0.18511360068E+03  0.47000000000E+01 0.  1.
<mgrwt>
<rscale>  0 0.10010195E+04</rscale>
<asrwt>0</asrwt>
<pdfrwt beam="1">  1        1 0.38766111E+00 0.10010195E+04</pdfrwt>
<pdfrwt beam="2">  1       -1 0.15294883E-01 0.10010195E+04</pdfrwt>
<totfact> 0.42610366E+01</totfact>
</mgrwt>
</event>
<event>
 9    1  0.4412976E-036  0.1000044E+04  0.7818608E-02  0.8680996E-01
         -2   -1    0    0    0  501 -0.00000000000E+00  0.00000000000E+00  0.49400978602E+03  0.49400978602E+03  0.00000000000E+00 0. -1.
          2   -1    0    0  501    0  0.00000000000E+00 -0.00000000000E+00 -0.50610766244E+03  0.50610766244E+03  0.00000000000E+00 0. -1.
         36    2    1    2    0    0 -0.21316282073E-13 -0.28421709430E-13 -0.12097876418E+02  0.10001174485E+04  0.10000442751E+04 0.  0.
         25    2    3    3    0    0 -0.15724918751E+02 -0.13670508435E+03  0.16905241207E+02  0.18807270059E+03  0.12708265173E+03 0.  0.
         35    2    3    3    0    0  0.15724918751E+02  0.13670508435E+03 -0.29003117626E+02  0.81204474787E+03  0.79977492993E+03 0.  0.
         22    1    5    5    0    0 -0.31804028096E+03  0.27597875532E+03 -0.12241244330E+03  0.43851875669E+03  0.00000000000E+00 0.  1.
         22    1    5    5    0    0  0.33376519971E+03 -0.13927367096E+03  0.93409325679E+02  0.37352599117E+03  0.00000000000E+00 0.  1.
          5    1    4    4  502    0 -0.19417971529E+02 -0.93129287528E+02 -0.50330551161E+02  0.10772825161E+03  0.47000000000E+01 0. -1.
         -5    1    4    4    0  502  0.36930527781E+01 -0.43575796825E+02  0.67235792369E+02  0.80344448988E+02  0.47000000000E+01 0. -1.
<mgrwt>
<rscale>  0 0.10000443E+04</rscale>
<asrwt>0</asrwt>
<pdfrwt beam="1">  1        2 0.77862717E-01 0.10000443E+04</pdfrwt>
<pdfrwt beam="2">  1       -2 0.76001506E-01 0.10000443E+04</pdfrwt>
<totfact> 0.11367090E+02</totfact>
</mgrwt>
</event>
<event>
 9    1  0.4412976E-036  0.1000232E+04  0.7818608E-02  0.8680817E-01
         -2   -1    0    0    0  501 -0.00000000000E+00  0.00000000000E+00  0.18703988268E+03  0.18703988268E+03  0.00000000000E+00 0. -1.
          2   -1    0    0  501    0  0.00000000000E+00 -0.00000000000E+00 -0.13372332882E+04  0.13372332882E+04  0.00000000000E+00 0. -1.
         36    2    1    2    0    0  0.00000000000E+00  0.35527136788E-14 -0.11501934055E+04  0.15242731709E+04  0.10002318878E+04 0.  0.
         25    2    3    3    0    0 -0.94496679644E+02  0.29905509800E+02 -0.64040529570E+02  0.17184041872E+03  0.12491588409E+03 0.  0.
         35    2    3    3    0    0  0.94496679644E+02 -0.29905509800E+02 -0.10861528760E+04  0.13524327522E+04  0.79970139251E+03 0.  0.
         22    1    5    5    0    0  0.53707270143E+02  0.21410738994E+03 -0.10827381660E+04  0.11050105797E+04  0.00000000000E+00 0.  1.
         22    1    5    5    0    0  0.40789409501E+02 -0.24401289974E+03 -0.34147100056E+01  0.24742217243E+03  0.00000000000E+00 0.  1.
          5    1    4    4  502    0 -0.90815768999E+02  0.49646673586E+02  0.99645175365E+00  0.10361167412E+03  0.47000000000E+01 0. -1.
         -5    1    4    4    0  502 -0.36809106453E+01 -0.19741163786E+02 -0.65036981324E+02  0.68228744606E+02  0.47000000000E+01 0. -1.
<mgrwt>
<rscale>  0 0.10002319E+04</rscale>
<asrwt>0</asrwt>
<pdfrwt beam="1">  1        2 0.20572820E+00 0.10002319E+04</pdfrwt>
<pdfrwt beam="2">  1       -2 0.28775367E-01 0.10002319E+04</pdfrwt>
<totfact> 0.20918538E+02</totfact>
</mgrwt>
</event>
<event>
 9    1  0.4412976E-036  0.9999076E+03  0.7818608E-02  0.8681126E-01
          1   -1    0    0  501    0  0.00000000000E+00  0.00000000000E+00  0.88247171702E+03  0.88247171702E+03  0.00000000000E+00 0. -1.
         -1   -1    0    0    0  501 -0.00000000000E+00 -0.00000000000E+00 -0.28324283917E+03  0.28324283917E+03  0.00000000000E+00 0. -1.
         36    2    1    2    0    0  0.35527136788E-14 -0.28421709430E-13  0.59922887785E+03  0.11657145562E+04  0.99990758497E+03 0.  0.
         25    2    3    3    0    0 -0.25014692174E+02 -0.13731556015E+03  0.14307680167E+03  0.23474364012E+03  0.12309470955E+03 0.  0.
         35    2    3    3    0    0  0.25014692174E+02  0.13731556015E+03  0.45615207618E+03  0.93097091607E+03  0.79946909389E+03 0.  0.
         22    1    5    5    0    0  0.16870563746E+02  0.45665681935E+03  0.39859680949E+03  0.60638229123E+03  0.00000000000E+00 0. -1.
         22    1    5    5    0    0  0.81441284275E+01 -0.31934125920E+03  0.57555266684E+02  0.32458862484E+03  0.00000000000E+00 0. -1.
          5    1    4    4  502    0  0.21058108296E+02 -0.80074350707E+02  0.13792086419E+03  0.16093352772E+03  0.47000000000E+01 0.  1.
         -5    1    4    4    0  502 -0.46072800470E+02 -0.57241209442E+02  0.51559374832E+01  0.73810112402E+02  0.47000000000E+01 0.  1.
<mgrwt>
<rscale>  0 0.99990758E+03</rscale>
<asrwt>0</asrwt>
<pdfrwt beam="1">  1        1 0.13576488E+00 0.99990758E+03</pdfrwt>
<pdfrwt beam="2">  1       -1 0.43575822E-01 0.99990758E+03</pdfrwt>
<totfact> 0.11057385E+02</totfact>
</mgrwt>
</event>
<event>
 9    1  0.4412976E-036  0.9985974E+03  0.7818608E-02  0.8682375E-01
          2   -1    0    0  501    0  0.00000000000E+00  0.00000000000E+00  0.14430145110E+04  0.14430145110E+04  0.00000000000E+00 0. -1.
         -2   -1    0    0    0  501 -0.00000000000E+00 -0.00000000000E+00 -0.17276277282E+03  0.17276277282E+03  0.00000000000E+00 0. -1.
         36    2    1    2    0    0  0.00000000000E+00  0.00000000000E+00  0.12702517381E+04  0.16157772838E+04  0.99859739261E+03 0.  0.
         25    2    3    3    0    0 -0.13159173448E+03 -0.53558768357E+01  0.30779795134E+03  0.35719265518E+03  0.12450680329E+03 0.  0.
         35    2    3    3    0    0  0.13159173448E+03  0.53558768357E+01  0.96245378679E+03  0.12585846286E+04  0.80023303207E+03 0.  0.
         22    1    5    5    0    0 -0.32787290040E+03 -0.14123738821E+02  0.55194362841E+03  0.64213852692E+03  0.00000000000E+00 0.  1.
         22    1    5    5    0    0  0.45946463487E+03  0.19479615657E+02  0.41051015837E+03  0.61644610166E+03  0.00000000000E+00 0.  1.
          5    1    4    4  502    0 -0.54550666330E+02 -0.60296599135E+02  0.18467618955E+03  0.20183864855E+03  0.47000000000E+01 0. -1.
         -5    1    4    4    0  502 -0.77041068150E+02  0.54940722299E+02  0.12312176180E+03  0.15535400663E+03  0.47000000000E+01 0. -1.
<mgrwt>
<rscale>  0 0.99859739E+03</rscale>
<asrwt>0</asrwt>
<pdfrwt beam="1">  1        2 0.22200222E+00 0.99859739E+03</pdfrwt>
<pdfrwt beam="2">  1       -2 0.26578889E-01 0.99859739E+03</pdfrwt>
<totfact> 0.20993721E+02</totfact>
</mgrwt>
</event>
<event>
 9    1  0.4412976E-036  0.9998660E+03  0.7818608E-02  0.8681166E-01
         -2   -1    0    0    0  501 -0.00000000000E+00  0.00000000000E+00  0.61816918178E+03  0.61816918178E+03  0.00000000000E+00 0.  1.
          2   -1    0    0  501    0  0.00000000000E+00 -0.00000000000E+00 -0.40431162633E+03  0.40431162633E+03  0.00000000000E+00 0.  1.
         36    2    1    2    0    0  0.28421709430E-13  0.00000000000E+00  0.21385755545E+03  0.10224808081E+04  0.99986596548E+03 0.  0.
         25    2    3    3    0    0 -0.94104355480E+02 -0.82687520453E+02 -0.26487855654E+02  0.17874167236E+03  0.12471617049E+03 0.  0.
         35    2    3    3    0    0  0.94104355480E+02  0.82687520453E+02  0.24034541110E+03  0.84373913575E+03  0.79902250080E+03 0.  0.
         22    1    5    5    0    0 -0.32720507824E+02  0.30250459810E+03 -0.17941435041E+03  0.35322680057E+03  0.00000000000E+00 0.  1.
         22    1    5    5    0    0  0.12682486330E+03 -0.21981707765E+03  0.41975976151E+03  0.49051233518E+03  0.00000000000E+00 0.  1.
          5    1    4    4  502    0 -0.65921137669E+02  0.15657407950E+02  0.12688009642E+02  0.69092882440E+02  0.47000000000E+01 0.  1.
         -5    1    4    4    0  502 -0.28183217811E+02 -0.98344928402E+02 -0.39175865296E+02  0.10964878992E+03  0.47000000000E+01 0.  1.
<mgrwt>
<rscale>  0 0.99986597E+03</rscale>
<asrwt>0</asrwt>
<pdfrwt beam="1">  1        2 0.62201789E-01 0.99986597E+03</pdfrwt>
<pdfrwt beam="2">  1       -2 0.95102951E-01 0.99986597E+03</pdfrwt>
<totfact> 0.87043538E+01</totfact>
</mgrwt>
</event>
<event>
 9    1  0.4412976E-036  0.9995086E+03  0.7818608E-02  0.8681506E-01
         -2   -1    0    0    0  501 -0.00000000000E+00  0.00000000000E+00  0.15634345305E+03  0.15634345305E+03  0.00000000000E+00 0.  1.
          2   -1    0    0  501    0  0.00000000000E+00 -0.00000000000E+00 -0.15974725781E+04  0.15974725781E+04  0.00000000000E+00 0.  1.
         36    2    1    2    0    0  0.28421709430E-13  0.00000000000E+00 -0.14411291250E+04  0.17538160311E+04  0.99950863730E+03 0.  0.
         25    2    3    3    0    0  0.78265713756E+02  0.23396443461E+02 -0.46878796915E+03  0.49247615350E+03  0.12687665752E+03 0.  0.
         35    2    3    3    0    0 -0.78265713756E+02 -0.23396443461E+02 -0.97234115587E+03  0.12613398776E+04  0.79928596133E+03 0.  0.
         22    1    5    5    0    0  0.26737413362E+03  0.22324298715E+03 -0.27037535505E+03  0.44094125602E+03  0.00000000000E+00 0. -1.
         22    1    5    5    0    0 -0.34563984737E+03 -0.24663943061E+03 -0.70196580082E+03  0.82039862162E+03  0.00000000000E+00 0. -1.
          5    1    4    4  502    0  0.48076882765E+02  0.60502676761E+02 -0.40645676585E+03  0.41376461068E+03  0.47000000000E+01 0. -1.
         -5    1    4    4    0  502  0.30188830991E+02 -0.37106233299E+02 -0.62331203307E+02  0.78711542813E+02  0.47000000000E+01 0. -1.
<mgrwt>
<rscale>  0 0.99950864E+03</rscale>
<asrwt>0</asrwt>
<pdfrwt beam="1">  1        2 0.24576503E+00 0.99950864E+03</pdfrwt>
<pdfrwt beam="2">  1       -2 0.24052837E-01 0.99950864E+03</pdfrwt>
<totfact> 0.20500000E+02</totfact>
</mgrwt>
</event>
<event>
 9    1  0.4412976E-036  0.9997015E+03  0.7818608E-02  0.8681322E-01
         -1   -1    0    0    0  501 -0.00000000000E+00  0.00000000000E+00  0.18703630678E+03  0.18703630678E+03  0.00000000000E+00 0.  1.
          1   -1    0    0  501    0  0.00000000000E+00 -0.00000000000E+00 -0.13358410640E+04  0.13358410640E+04  0.00000000000E+00 0.  1.
         36    2    1    2    0    0 -0.28421709430E-13 -0.42632564146E-13 -0.11488047572E+04  0.15228773708E+04  0.99970151356E+03 0.  0.
         25    2    3    3    0    0  0.12671520358E+03 -0.52369282251E+02 -0.17276445465E+03  0.25476021332E+03  0.12749872532E+03 0.  0.
         35    2    3    3    0    0 -0.12671520358E+03  0.52369282251E+02 -0.97604030255E+03  0.12681171574E+04  0.79791426122E+03 0.  0.
         22    1    5    5    0    0 -0.25169685060E+03  0.37552819675E+03 -0.44730357935E+03  0.63596636960E+03  0.00000000000E+00 0. -1.
         22    1    5    5    0    0  0.12498164702E+03 -0.32315891450E+03 -0.52873672320E+03  0.63215078784E+03  0.00000000000E+00 0. -1.
          5    1    4    4  502    0  0.51981098156E+02  0.10039118790E+02  0.35766647292E+01  0.53270076048E+02  0.47000000000E+01 0.  1.
         -5    1    4    4    0  502  0.74734105424E+02 -0.62408401041E+02 -0.17634111938E+03  0.20149013728E+03  0.47000000000E+01 0.  1.
<mgrwt>
<rscale>  0 0.99970151E+03</rscale>
<asrwt>0</asrwt>
<pdfrwt beam="1">  1        1 0.20551401E+00 0.99970151E+03</pdfrwt>
<pdfrwt beam="2">  1       -1 0.28774817E-01 0.99970151E+03</pdfrwt>
<totfact> 0.10221479E+02</totfact>
</mgrwt>
</event>
<event>
 9    1  0.4412976E-036  0.1000873E+04  0.7818608E-02  0.8680207E-01
         -2   -1    0    0    0  501 -0.00000000000E+00  0.00000000000E+00  0.90557990727E+03  0.90557990727E+03  0.00000000000E+00 0.  1.
          2   -1    0    0  501    0  0.00000000000E+00 -0.00000000000E+00 -0.27654862875E+03  0.27654862875E+03  0.00000000000E+00 0.  1.
         36    2    1    2    0    0  0.28421709430E-13  0.00000000000E+00  0.62903127852E+03  0.11821285360E+04  0.10008733818E+04 0.  0.
         25    2    3    3    0    0  0.57909478173E+02 -0.75198135239E+02  0.24069830403E+03  0.28736978665E+03  0.12504980412E+03 0.  0.
         35    2    3    3    0    0 -0.57909478173E+02  0.75198135239E+02  0.38833297450E+03  0.89475874938E+03  0.80048888394E+03 0.  0.
         22    1    5    5    0    0  0.34461094155E+03 -0.50968303076E+02  0.30874382532E+03  0.46548600261E+03  0.00000000000E+00 0. -1.
         22    1    5    5    0    0 -0.40252041972E+03  0.12616643832E+03  0.79589149171E+02  0.42927274677E+03  0.00000000000E+00 0. -1.
          5    1    4    4  502    0 -0.30266827223E+02 -0.38674718513E+02  0.34785698296E+02  0.60365134707E+02  0.47000000000E+01 0. -1.
         -5    1    4    4    0  502  0.88176305396E+02 -0.36523416725E+02  0.20591260573E+03  0.22700465194E+03  0.47000000000E+01 0. -1.
<mgrwt>
<rscale>  0 0.10008734E+04</rscale>
<asrwt>0</asrwt>
<pdfrwt beam="1">  1        2 0.42545943E-01 0.10008734E+04</pdfrwt>
<pdfrwt beam="2">  1       -2 0.13931998E+00 0.10008734E+04</pdfrwt>
<totfact> 0.50003236E+01</totfact>
</mgrwt>
</event>
<event>
 9    1  0.4412976E-036  0.1005695E+04  0.7818608E-02  0.8675633E-01
          2   -1    0    0  501    0  0.00000000000E+00  0.00000000000E+00  0.39177428700E+03  0.39177428700E+03  0.00000000000E+00 0. -1.
         -2   -1    0    0    0  501 -0.00000000000E+00 -0.00000000000E+00 -0.64541168849E+03  0.64541168849E+03  0.00000000000E+00 0. -1.
         36    2    1    2    0    0 -0.28421709430E-13  0.00000000000E+00 -0.25363740149E+03  0.10371859755E+04  0.10056951906E+04 0.  0.
         25    2    3    3    0    0  0.94438454154E+02 -0.10585267815E+03 -0.10210831434E+02  0.18895155551E+03  0.12439862603E+03 0.  0.
         35    2    3    3    0    0 -0.94438454154E+02  0.10585267815E+03 -0.24342657006E+03  0.84823441998E+03  0.80007607459E+03 0.  0.
         22    1    5    5    0    0 -0.30474381725E+03 -0.23938276630E+03 -0.21456742605E+03  0.44295833131E+03  0.00000000000E+00 0.  1.
         22    1    5    5    0    0  0.21030536310E+03  0.34523544445E+03 -0.28859144009E+02  0.40527608867E+03  0.00000000000E+00 0.  1.
          5    1    4    4  502    0  0.27651447858E+02 -0.95018409780E+02  0.37604063015E+02  0.10596818542E+03  0.47000000000E+01 0. -1.
         -5    1    4    4    0  502  0.66787006297E+02 -0.10834268369E+02 -0.47814894448E+02  0.82983370095E+02  0.47000000000E+01 0. -1.
<mgrwt>
<rscale>  0 0.10056952E+04</rscale>
<asrwt>0</asrwt>
<pdfrwt beam="1">  1        2 0.60272969E-01 0.10056952E+04</pdfrwt>
<pdfrwt beam="2">  1       -2 0.99294104E-01 0.10056952E+04</pdfrwt>
<totfact> 0.81248211E+01</totfact>
</mgrwt>
</event>
<event>
 9    1  0.4412976E-036  0.1000195E+04  0.7818608E-02  0.8680853E-01
         -1   -1    0    0    0  501 -0.00000000000E+00  0.00000000000E+00  0.18590534561E+03  0.18590534561E+03  0.00000000000E+00 0.  1.
          1   -1    0    0  501    0  0.00000000000E+00 -0.00000000000E+00 -0.13452940736E+04  0.13452940736E+04  0.00000000000E+00 0.  1.
         36    2    1    2    0    0 -0.28421709430E-13 -0.14210854715E-13 -0.11593887280E+04  0.15311994192E+04  0.10001947004E+04 0.  0.
         25    2    3    3    0    0  0.80679112027E+02  0.61056581825E+02 -0.67970843367E+02  0.17547162723E+03  0.12622690328E+03 0.  0.
         35    2    3    3    0    0 -0.80679112027E+02 -0.61056581825E+02 -0.10914178846E+04  0.13557277920E+04  0.79785200493E+03 0.  0.
         22    1    5    5    0    0  0.30137438926E+03 -0.23689390858E+03 -0.50099437054E+03  0.63082533695E+03  0.00000000000E+00 0.  1.
         22    1    5    5    0    0 -0.38205350129E+03  0.17583732675E+03 -0.59042351410E+03  0.72490245505E+03  0.00000000000E+00 0.  1.
          5    1    4    4  502    0 -0.32038803140E+02 -0.10418205280E+01 -0.77677667056E+01  0.33316639931E+02  0.47000000000E+01 0.  1.
         -5    1    4    4    0  502  0.11271791517E+03  0.62098402353E+02 -0.60203076661E+02  0.14215498730E+03  0.47000000000E+01 0.  1.
<mgrwt>
<rscale>  0 0.10001947E+04</rscale>
<asrwt>0</asrwt>
<pdfrwt beam="1">  1        1 0.20696832E+00 0.10001947E+04</pdfrwt>
<pdfrwt beam="2">  1       -1 0.28600823E-01 0.10001947E+04</pdfrwt>
<totfact> 0.10165340E+02</totfact>
</mgrwt>
</event>
<event>
 9    1  0.4412976E-036  0.1003955E+04  0.7818608E-02  0.8677281E-01
         -2   -1    0    0    0  501 -0.00000000000E+00  0.00000000000E+00  0.37950294876E+03  0.37950294876E+03  0.00000000000E+00 0.  1.
          2   -1    0    0  501    0  0.00000000000E+00 -0.00000000000E+00 -0.66397713652E+03  0.66397713652E+03  0.00000000000E+00 0.  1.
         36    2    1    2    0    0  0.00000000000E+00 -0.42632564146E-13 -0.28447418776E+03  0.10434800853E+04  0.10039547424E+04 0.  0.
         25    2    3    3    0    0  0.66288089927E+02 -0.38238646369E+02  0.79309577529E+02  0.16508801933E+03  0.12291354724E+03 0.  0.
         35    2    3    3    0    0 -0.66288089927E+02  0.38238646369E+02 -0.36378376529E+03  0.87839206595E+03  0.79585029289E+03 0.  0.
         22    1    5    5    0    0 -0.19081063459E+03  0.36832574632E+03 -0.31791231694E+03  0.52262873527E+03  0.00000000000E+00 0. -1.
         22    1    5    5    0    0  0.12452254466E+03 -0.33008709995E+03 -0.45871448346E+02  0.35576333067E+03  0.00000000000E+00 0. -1.
          5    1    4    4  502    0  0.24852491077E+02 -0.24096535510E+02 -0.30754246321E+02  0.46542486000E+02  0.47000000000E+01 0.  1.
         -5    1    4    4    0  502  0.41435598850E+02 -0.14142110859E+02  0.11006382385E+03  0.11854553333E+03  0.47000000000E+01 0.  1.
<mgrwt>
<rscale>  0 0.10039547E+04</rscale>
<asrwt>0</asrwt>
<pdfrwt beam="1">  1        2 0.10215033E+00 0.10039547E+04</pdfrwt>
<pdfrwt beam="2">  1       -2 0.58385070E-01 0.10039547E+04</pdfrwt>
<totfact> 0.14538118E+02</totfact>
</mgrwt>
</event>
<event>
 9    1  0.4412976E-036  0.9995518E+03  0.7818608E-02  0.8681465E-01
         -2   -1    0    0    0  501 -0.00000000000E+00  0.00000000000E+00  0.12002943967E+03  0.12002943967E+03  0.00000000000E+00 0.  1.
          2   -1    0    0  501    0  0.00000000000E+00 -0.00000000000E+00 -0.20809559204E+04  0.20809559204E+04  0.00000000000E+00 0.  1.
         36    2    1    2    0    0  0.00000000000E+00  0.00000000000E+00 -0.19609264807E+04  0.22009853600E+04  0.99955184576E+03 0.  0.
         25    2    3    3    0    0 -0.80646999072E+02  0.11342403605E+03 -0.39523375905E+03  0.43713612712E+03  0.12453641608E+03 0.  0.
         35    2    3    3    0    0  0.80646999072E+02 -0.11342403605E+03 -0.15656927217E+04  0.17638492329E+04  0.80025087779E+03 0.  0.
         22    1    5    5    0    0 -0.13757440053E+03  0.69784013336E+01  0.36405401983E+02  0.14248076032E+03  0.00000000000E+00 0. -1.
         22    1    5    5    0    0  0.21822139961E+03 -0.12040243738E+03 -0.16020981236E+04  0.16213684726E+04  0.00000000000E+00 0. -1.
          5    1    4    4  502    0 -0.62018555645E+02  0.13044892793E+03 -0.24278945865E+03  0.28254563397E+03  0.47000000000E+01 0. -1.
         -5    1    4    4    0  502 -0.18628443427E+02 -0.17024891888E+02 -0.15244430040E+03  0.15459049316E+03  0.47000000000E+01 0. -1.
<mgrwt>
<rscale>  0 0.99955185E+03</rscale>
<asrwt>0</asrwt>
<pdfrwt beam="1">  1        2 0.32014704E+00 0.99955185E+03</pdfrwt>
<pdfrwt beam="2">  1       -2 0.18466069E-01 0.99955185E+03</pdfrwt>
<totfact> 0.17289346E+02</totfact>
</mgrwt>
</event>
<event>
 9    1  0.4412976E-036  0.9999583E+03  0.7818608E-02  0.8681078E-01
          1   -1    0    0  501    0  0.00000000000E+00  0.00000000000E+00  0.38560982063E+03  0.38560982063E+03  0.00000000000E+00 0. -1.
         -1   -1    0    0    0  501 -0.00000000000E+00 -0.00000000000E+00 -0.64826965010E+03  0.64826965010E+03  0.00000000000E+00 0. -1.
         36    2    1    2    0    0 -0.17763568394E-14  0.00000000000E+00 -0.26265982946E+03  0.10338794707E+04  0.99995828612E+03 0.  0.
         25    2    3    3    0    0 -0.52003294191E+01 -0.31534110834E+02  0.91985142690E+02  0.15864527774E+03  0.12524222172E+03 0.  0.
         35    2    3    3    0    0  0.52003294191E+01  0.31534110834E+02 -0.35464497215E+03  0.87523419299E+03  0.79952510451E+03 0.  0.
         22    1    5    5    0    0  0.35519080536E+02 -0.21195485689E+03 -0.53114681897E+03  0.57297766949E+03  0.00000000000E+00 0. -1.
         22    1    5    5    0    0 -0.30318751117E+02  0.24348896772E+03  0.17650184681E+03  0.30225652350E+03  0.00000000000E+00 0. -1.
          5    1    4    4  502    0  0.37237429468E+01 -0.51934585218E+02  0.11497110112E+03  0.12629929333E+03  0.47000000000E+01 0. -1.
         -5    1    4    4    0  502 -0.89240723659E+01  0.20400474384E+02 -0.22985958426E+02  0.32345984410E+02  0.47000000000E+01 0. -1.
<mgrwt>
<rscale>  0 0.99995829E+03</rscale>
<asrwt>0</asrwt>
<pdfrwt beam="1">  1        1 0.59324589E-01 0.99995829E+03</pdfrwt>
<pdfrwt beam="2">  1       -1 0.99733790E-01 0.99995829E+03</pdfrwt>
<totfact> 0.72366676E+01</totfact>
</mgrwt>
</event>
<event>
 9    1  0.4412976E-036  0.1000764E+04  0.7818608E-02  0.8680311E-01
         -2   -1    0    0    0  501 -0.00000000000E+00  0.00000000000E+00  0.16039274461E+03  0.16039274461E+03  0.00000000000E+00 0. -1.
          2   -1    0    0  501    0  0.00000000000E+00 -0.00000000000E+00 -0.15610560033E+04  0.15610560033E+04  0.00000000000E+00 0. -1.
         36    2    1    2    0    0 -0.14210854715E-13 -0.14210854715E-13 -0.14006632587E+04  0.17214487480E+04  0.10007638220E+04 0.  0.
         25    2    3    3    0    0 -0.79819219295E+02  0.11627888159E+03 -0.22618356648E+03  0.29204879063E+03  0.11933819291E+03 0.  0.
         35    2    3    3    0    0  0.79819219295E+02 -0.11627888159E+03 -0.11744796922E+04  0.14293999573E+04  0.80242744496E+03 0.  0.
         22    1    5    5    0    0  0.41561192038E+03 -0.66771758441E+02 -0.38666836050E+03  0.57158040300E+03  0.00000000000E+00 0.  1.
         22    1    5    5    0    0 -0.33579270108E+03 -0.49507123146E+02 -0.78781133175E+03  0.85781955432E+03  0.00000000000E+00 0.  1.
          5    1    4    4  502    0  0.26539397950E+02  0.15173339363E+02 -0.75849173069E+02  0.81913105949E+02  0.47000000000E+01 0.  1.
         -5    1    4    4    0  502 -0.10635861725E+03  0.10110554222E+03 -0.15033439342E+03  0.21013568468E+03  0.47000000000E+01 0.  1.
<mgrwt>
<rscale>  0 0.10007638E+04</rscale>
<asrwt>0</asrwt>
<pdfrwt beam="1">  1        2 0.24016246E+00 0.10007638E+04</pdfrwt>
<pdfrwt beam="2">  1       -2 0.24675807E-01 0.10007638E+04</pdfrwt>
<totfact> 0.20542799E+02</totfact>
</mgrwt>
</event>
<event>
 9    1  0.4412976E-036  0.1003726E+04  0.7818608E-02  0.8677498E-01
         -2   -1    0    0    0  501 -0.00000000000E+00  0.00000000000E+00  0.12412900035E+03  0.12412900035E+03  0.00000000000E+00 0. -1.
          2   -1    0    0  501    0  0.00000000000E+00 -0.00000000000E+00 -0.20290692400E+04  0.20290692400E+04  0.00000000000E+00 0. -1.
         36    2    1    2    0    0 -0.35527136788E-14  0.00000000000E+00 -0.19049402397E+04  0.21531982404E+04  0.10037257323E+04 0.  0.
         25    2    3    3    0    0  0.77085140116E+01 -0.14434068221E+03 -0.38295497747E+03  0.42827190572E+03  0.12597085666E+03 0.  0.
         35    2    3    3    0    0 -0.77085140116E+01  0.14434068221E+03 -0.15219852622E+04  0.17249263347E+04  0.79877285124E+03 0.  0.
         22    1    5    5    0    0  0.34138087117E+03 -0.45832807217E+02 -0.10645803384E+04  0.11189159229E+04  0.00000000000E+00 0.  1.
         22    1    5    5    0    0 -0.34908938518E+03  0.19017348943E+03 -0.45740492377E+03  0.60601041180E+03  0.00000000000E+00 0.  1.
          5    1    4    4  502    0 -0.50941480441E+01  0.16293192531E+02 -0.10879508837E+03  0.11022649283E+03  0.47000000000E+01 0.  1.
         -5    1    4    4    0  502  0.12802662056E+02 -0.16063387474E+03 -0.27415988910E+03  0.31804541289E+03  0.47000000000E+01 0.  1.
<mgrwt>
<rscale>  0 0.10037257E+04</rscale>
<asrwt>0</asrwt>
<pdfrwt beam="1">  1        2 0.31216452E+00 0.10037257E+04</pdfrwt>
<pdfrwt beam="2">  1       -2 0.19096768E-01 0.10037257E+04</pdfrwt>
<totfact> 0.17474048E+02</totfact>
</mgrwt>
</event>
<event>
 9    1  0.4412976E-036  0.9999820E+03  0.7818608E-02  0.8681055E-01
         -2   -1    0    0    0  501 -0.00000000000E+00  0.00000000000E+00  0.11095316931E+03  0.11095316931E+03  0.00000000000E+00 0.  1.
          2   -1    0    0  501    0  0.00000000000E+00 -0.00000000000E+00 -0.22531218617E+04  0.22531218617E+04  0.00000000000E+00 0.  1.
         36    2    1    2    0    0  0.31974423109E-13  0.00000000000E+00 -0.21421686924E+04  0.23640750310E+04  0.99998202261E+03 0.  0.
         25    2    3    3    0    0  0.30627183121E+01 -0.65354922899E+02 -0.68960140419E+03  0.70393381397E+03  0.12526799915E+03 0.  0.
         35    2    3    3    0    0 -0.30627183121E+01  0.65354922899E+02 -0.14525672882E+04  0.16601412170E+04  0.80114698247E+03 0.  0.
         22    1    5    5    0    0  0.35968742481E+03  0.14041291732E+03 -0.45926007866E+03  0.60000887557E+03  0.00000000000E+00 0. -1.
         22    1    5    5    0    0 -0.36275014312E+03 -0.75057994425E+02 -0.99330720956E+03  0.10601323415E+04  0.00000000000E+00 0. -1.
          5    1    4    4  502    0 -0.14666609282E+02 -0.96888583049E+02 -0.39133284220E+03  0.40344267293E+03  0.47000000000E+01 0.  1.
         -5    1    4    4    0  502  0.17729327594E+02  0.31533660150E+02 -0.29826856198E+03  0.30049114105E+03  0.47000000000E+01 0.  1.
<mgrwt>
<rscale>  0 0.99998202E+03</rscale>
<asrwt>0</asrwt>
<pdfrwt beam="1">  1        2 0.34663411E+00 0.99998202E+03</pdfrwt>
<pdfrwt beam="2">  1       -2 0.17069720E-01 0.99998202E+03</pdfrwt>
<totfact> 0.15715642E+02</totfact>
</mgrwt>
</event>
<event>
 9    1  0.4412976E-036  0.9992216E+03  0.7818608E-02  0.8681780E-01
         -2   -1    0    0    0  501 -0.00000000000E+00  0.00000000000E+00  0.20304370841E+03  0.20304370841E+03  0.00000000000E+00 0.  1.
          2   -1    0    0  501    0  0.00000000000E+00 -0.00000000000E+00 -0.12293459245E+04  0.12293459245E+04  0.00000000000E+00 0.  1.
         36    2    1    2    0    0 -0.14210854715E-13  0.71054273576E-14 -0.10263022161E+04  0.14323896329E+04  0.99922160790E+03 0.  0.
         25    2    3    3    0    0 -0.12037156658E+03 -0.23172190098E+02 -0.10050072438E+03  0.20233021745E+03  0.12574122974E+03 0.  0.
         35    2    3    3    0    0  0.12037156658E+03  0.23172190098E+02 -0.92580149173E+03  0.12300594155E+04  0.80056948421E+03 0.  0.
         22    1    5    5    0    0 -0.21470835486E+03 -0.98765646938E+02 -0.82691431738E+03  0.86002419673E+03  0.00000000000E+00 0.  1.
         22    1    5    5    0    0  0.33507992144E+03  0.12193783704E+03 -0.98887174342E+02  0.37003521873E+03  0.00000000000E+00 0.  1.
          5    1    4    4  502    0  0.18973222540E+02 -0.12286192315E+02 -0.47429920427E+02  0.52750554944E+02  0.47000000000E+01 0. -1.
         -5    1    4    4    0  502 -0.13934478912E+03 -0.10885997784E+02 -0.53070803948E+02  0.14957966251E+03  0.47000000000E+01 0. -1.
<mgrwt>
<rscale>  0 0.99922161E+03</rscale>
<asrwt>0</asrwt>
<pdfrwt beam="1">  1        2 0.18913014E+00 0.99922161E+03</pdfrwt>
<pdfrwt beam="2">  1       -2 0.31237495E-01 0.99922161E+03</pdfrwt>
<totfact> 0.20811783E+02</totfact>
</mgrwt>
</event>
<event>
 9    1  0.4412976E-036  0.9983039E+03  0.7818608E-02  0.8682655E-01
          2   -1    0    0  501    0  0.00000000000E+00  0.00000000000E+00  0.40728654186E+03  0.40728654186E+03  0.00000000000E+00 0. -1.
         -2   -1    0    0    0  501 -0.00000000000E+00 -0.00000000000E+00 -0.61173804216E+03  0.61173804216E+03  0.00000000000E+00 0. -1.
         36    2    1    2    0    0 -0.14210854715E-13  0.00000000000E+00 -0.20445150030E+03  0.10190245840E+04  0.99830390506E+03 0.  0.
         25    2    3    3    0    0 -0.21472080060E+02  0.10202654390E+03 -0.13018296536E+03  0.20839850255E+03  0.12494745101E+03 0.  0.
         35    2    3    3    0    0  0.21472080060E+02 -0.10202654390E+03 -0.74268534937E+02  0.81062608146E+03  0.80045509729E+03 0.  0.
         22    1    5    5    0    0  0.90139095065E+02 -0.27014541546E+03  0.28822455746E+03  0.40518760775E+03  0.00000000000E+00 0.  1.
         22    1    5    5    0    0 -0.68667015006E+02  0.16811887156E+03 -0.36249309240E+03  0.40543847371E+03  0.00000000000E+00 0.  1.
          5    1    4    4  502    0 -0.22385408126E+02  0.12141053169E+03 -0.63738912725E+02  0.13901928894E+03  0.47000000000E+01 0. -1.
         -5    1    4    4    0  502  0.91332806620E+00 -0.19383987788E+02 -0.66444052638E+02  0.69379213614E+02  0.47000000000E+01 0. -1.
<mgrwt>
<rscale>  0 0.99830391E+03</rscale>
<asrwt>0</asrwt>
<pdfrwt beam="1">  1        2 0.62659468E-01 0.99830391E+03</pdfrwt>
<pdfrwt beam="2">  1       -2 0.94113545E-01 0.99830391E+03</pdfrwt>
<totfact> 0.88515043E+01</totfact>
</mgrwt>
</event>
<event>
 9    1  0.4412976E-036  0.1000405E+04  0.7818608E-02  0.8680652E-01
          2   -1    0    0  501    0  0.00000000000E+00  0.00000000000E+00  0.21836071687E+03  0.21836071687E+03  0.00000000000E+00 0. -1.
         -2   -1    0    0    0  501 -0.00000000000E+00 -0.00000000000E+00 -0.11458225175E+04  0.11458225175E+04  0.00000000000E+00 0. -1.
         36    2    1    2    0    0 -0.28421709430E-13 -0.14210854715E-13 -0.92746180067E+03  0.13641832344E+04  0.10004051706E+04 0.  0.
         25    2    3    3    0    0 -0.11830247773E+03  0.72750257761E+02 -0.19913804700E+03  0.27302061235E+03  0.12488481398E+03 0.  0.
         35    2    3    3    0    0  0.11830247773E+03 -0.72750257761E+02 -0.72832375367E+03  0.10911626221E+04  0.80055749412E+03 0.  0.
         22    1    5    5    0    0  0.19834523752E+03 -0.24191915262E+03  0.26053038040E+02  0.31391793584E+03  0.00000000000E+00 0. -1.
         22    1    5    5    0    0 -0.80042759797E+02  0.16916889486E+03 -0.75437679171E+03  0.77724468622E+03  0.00000000000E+00 0. -1.
          5    1    4    4  502    0 -0.24170454520E+02  0.27061332989E+01  0.14885137887E+02  0.28899677491E+02  0.47000000000E+01 0. -1.
         -5    1    4    4    0  502 -0.94132023206E+02  0.70044124463E+02 -0.21402318489E+03  0.24412093486E+03  0.47000000000E+01 0. -1.
<mgrwt>
<rscale>  0 0.10004052E+04</rscale>
<asrwt>0</asrwt>
<pdfrwt beam="1">  1        2 0.33593957E-01 0.10004052E+04</pdfrwt>
<pdfrwt beam="2">  1       -2 0.17628039E+00 0.10004052E+04</pdfrwt>
<totfact> 0.33372503E+01</totfact>
</mgrwt>
</event>
<event>
 9    1  0.4412976E-036  0.9997556E+03  0.7818608E-02  0.8681271E-01
          2   -1    0    0  501    0  0.00000000000E+00  0.00000000000E+00  0.32621696922E+04  0.32621696922E+04  0.00000000000E+00 0.  1.
         -2   -1    0    0    0  501 -0.00000000000E+00 -0.00000000000E+00 -0.76598663412E+02  0.76598663412E+02  0.00000000000E+00 0.  1.
         36    2    1    2    0    0 -0.28421709430E-13 -0.14210854715E-13  0.31855710288E+04  0.33387683556E+04  0.99975564664E+03 0.  0.
         25    2    3    3    0    0  0.10524006646E+03  0.75568104599E+02  0.76627706720E+03  0.78717294938E+03  0.12519863617E+03 0.  0.
         35    2    3    3    0    0 -0.10524006646E+03 -0.75568104599E+02  0.24192939616E+04  0.25515954062E+04  0.80054346197E+03 0.  0.
         22    1    5    5    0    0  0.15441465326E+02 -0.42991682702E+03  0.11323439716E+04  0.12113091212E+04  0.00000000000E+00 0.  1.
         22    1    5    5    0    0 -0.12068153178E+03  0.35434872243E+03  0.12869499900E+04  0.13402862850E+04  0.00000000000E+00 0.  1.
          5    1    4    4  502    0  0.35278315806E+02 -0.97120273519E+01  0.48405593349E+02  0.60861108344E+02  0.47000000000E+01 0.  1.
         -5    1    4    4    0  502  0.69961750650E+02  0.85280131951E+02  0.71787147385E+03  0.72631184104E+03  0.47000000000E+01 0.  1.
<mgrwt>
<rscale>  0 0.99975565E+03</rscale>
<asrwt>0</asrwt>
<pdfrwt beam="1">  1        2 0.50187215E+00 0.99975565E+03</pdfrwt>
<pdfrwt beam="2">  1       -2 0.11784412E-01 0.99975565E+03</pdfrwt>
<totfact> 0.65920103E+01</totfact>
</mgrwt>
</event>
<event>
 9    1  0.4412976E-036  0.9998195E+03  0.7818608E-02  0.8681210E-01
          2   -1    0    0  501    0  0.00000000000E+00  0.00000000000E+00  0.14369544750E+04  0.14369544750E+04  0.00000000000E+00 0.  1.
         -2   -1    0    0    0  501 -0.00000000000E+00 -0.00000000000E+00 -0.17391626191E+03  0.17391626191E+03  0.00000000000E+00 0.  1.
         36    2    1    2    0    0  0.00000000000E+00  0.71054273576E-14  0.12630382130E+04  0.16108707369E+04  0.99981948535E+03 0.  0.
         25    2    3    3    0    0  0.13423806465E+03  0.32917736392E+02  0.22292828522E+03  0.29044090920E+03  0.12472155395E+03 0.  0.
         35    2    3    3    0    0 -0.13423806465E+03 -0.32917736392E+02  0.10401099278E+04  0.13204298277E+04  0.80162511965E+03 0.  0.
         22    1    5    5    0    0 -0.43021797236E+02 -0.41080338925E+03  0.42402008341E+03  0.59194875690E+03  0.00000000000E+00 0. -1.
         22    1    5    5    0    0 -0.91216267413E+02  0.37788565286E+03  0.61608984441E+03  0.72848107077E+03  0.00000000000E+00 0. -1.
          5    1    4    4  502    0  0.12935564079E+03  0.69605471410E+02  0.15976723640E+03  0.21708400052E+03  0.47000000000E+01 0. -1.
         -5    1    4    4    0  502  0.48824238550E+01 -0.36687735018E+02  0.63161048823E+02  0.73356908685E+02  0.47000000000E+01 0. -1.
<mgrwt>
<rscale>  0 0.99981949E+03</rscale>
<asrwt>0</asrwt>
<pdfrwt beam="1">  1        2 0.22106991E+00 0.99981949E+03</pdfrwt>
<pdfrwt beam="2">  1       -2 0.26756349E-01 0.99981949E+03</pdfrwt>
<totfact> 0.20910378E+02</totfact>
</mgrwt>
</event>
<event>
 9    1  0.4412976E-036  0.1011316E+04  0.7818608E-02  0.8670336E-01
         -2   -1    0    0    0  501 -0.00000000000E+00  0.00000000000E+00  0.14933366321E+03  0.14933366321E+03  0.00000000000E+00 0. -1.
          2   -1    0    0  501    0  0.00000000000E+00 -0.00000000000E+00 -0.17122051630E+04  0.17122051630E+04  0.00000000000E+00 0. -1.
         36    2    1    2    0    0  0.14210854715E-13 -0.56843418861E-13 -0.15628714998E+04  0.18615388262E+04  0.10113157156E+04 0.  0.
         25    2    3    3    0    0 -0.47850071054E+02  0.14105300403E+03 -0.33047917154E+03  0.38457190777E+03  0.12842698383E+03 0.  0.
         35    2    3    3    0    0  0.47850071054E+02 -0.14105300403E+03 -0.12323923282E+04  0.14769669184E+04  0.80028422963E+03 0.  0.
         22    1    5    5    0    0 -0.19743712726E+03  0.22564650775E+03 -0.81986274864E+03  0.87296774986E+03  0.00000000000E+00 0. -1.
         22    1    5    5    0    0  0.24528719831E+03 -0.36669951178E+03 -0.41252957957E+03  0.60399916856E+03  0.00000000000E+00 0. -1.
          5    1    4    4  502    0 -0.66224096834E+02  0.10922696681E+03 -0.13617389012E+03  0.18676610943E+03  0.47000000000E+01 0. -1.
         -5    1    4    4    0  502  0.18374025780E+02  0.31826037220E+02 -0.19430528142E+03  0.19780579834E+03  0.47000000000E+01 0. -1.
<mgrwt>
<rscale>  0 0.10113157E+04</rscale>
<asrwt>0</asrwt>
<pdfrwt beam="1">  1        2 0.26341617E+00 0.10113157E+04</pdfrwt>
<pdfrwt beam="2">  1       -2 0.22974411E-01 0.10113157E+04</pdfrwt>
<totfact> 0.19150615E+02</totfact>
</mgrwt>
</event>
<event>
 9    1  0.4412976E-036  0.9998512E+03  0.7818608E-02  0.8681180E-01
          2   -1    0    0  501    0  0.00000000000E+00  0.00000000000E+00  0.10075999568E+04  0.10075999568E+04  0.00000000000E+00 0.  1.
         -2   -1    0    0    0  501 -0.00000000000E+00 -0.00000000000E+00 -0.24804052919E+03  0.24804052919E+03  0.00000000000E+00 0.  1.
         36    2    1    2    0    0  0.00000000000E+00 -0.71054273576E-14  0.75955942759E+03  0.12556404860E+04  0.99985124191E+03 0.  0.
         25    2    3    3    0    0  0.13378673428E+03  0.17549807799E+02  0.13509645048E+03  0.23232368488E+03  0.13234937703E+03 0.  0.
         35    2    3    3    0    0 -0.13378673428E+03 -0.17549807799E+02  0.62446297711E+03  0.10233168011E+04  0.79938500085E+03 0.  0.
         22    1    5    5    0    0 -0.45251346600E+03 -0.11605959579E+03  0.28429149572E+03  0.54686371357E+03  0.00000000000E+00 0. -1.
         22    1    5    5    0    0  0.31872673172E+03  0.98509787987E+02  0.34017148140E+03  0.47645308751E+03  0.00000000000E+00 0. -1.
          5    1    4    4  502    0  0.36996955346E+02 -0.54661357327E+02  0.32144413866E+02  0.73566242479E+02  0.47000000000E+01 0. -1.
         -5    1    4    4    0  502  0.96789778931E+02  0.72211165127E+02  0.10295203661E+03  0.15875744240E+03  0.47000000000E+01 0. -1.
<mgrwt>
<rscale>  0 0.99985124E+03</rscale>
<asrwt>0</asrwt>
<pdfrwt beam="1">  1        2 0.15501538E+00 0.99985124E+03</pdfrwt>
<pdfrwt beam="2">  1       -2 0.38160082E-01 0.99985124E+03</pdfrwt>
<totfact> 0.19516699E+02</totfact>
</mgrwt>
</event>
<event>
 9    1  0.4412976E-036  0.9989893E+03  0.7818608E-02  0.8682001E-01
          2   -1    0    0  501    0  0.00000000000E+00  0.00000000000E+00  0.94428315271E+02  0.94428315271E+02  0.00000000000E+00 0.  1.
         -2   -1    0    0    0  501 -0.00000000000E+00 -0.00000000000E+00 -0.26421619524E+04  0.26421619524E+04  0.00000000000E+00 0.  1.
         36    2    1    2    0    0  0.00000000000E+00  0.14210854715E-13 -0.25477336372E+04  0.27365902677E+04  0.99898929292E+03 0.  0.
         25    2    3    3    0    0 -0.13024462010E+03  0.14871359410E+02 -0.56043796220E+03  0.58913835834E+03  0.12573176769E+03 0.  0.
         35    2    3    3    0    0  0.13024462010E+03 -0.14871359410E+02 -0.19872956750E+04  0.21474519094E+04  0.80313186020E+03 0.  0.
         22    1    5    5    0    0 -0.48182549591E+02 -0.35028922357E+03 -0.14293640578E+04  0.14724488813E+04  0.00000000000E+00 0.  1.
         22    1    5    5    0    0  0.17842716970E+03  0.33541786416E+03 -0.55793161713E+03  0.67500302805E+03  0.00000000000E+00 0.  1.
          5    1    4    4  502    0 -0.88913446717E+02  0.63141683538E+02 -0.25939674439E+03  0.28142713837E+03  0.47000000000E+01 0. -1.
         -5    1    4    4    0  502 -0.41331173388E+02 -0.48270324128E+02 -0.30104121780E+03  0.30771121998E+03  0.47000000000E+01 0. -1.
<mgrwt>
<rscale>  0 0.99898929E+03</rscale>
<asrwt>0</asrwt>
<pdfrwt beam="1">  1        2 0.14527434E-01 0.99898929E+03</pdfrwt>
<pdfrwt beam="2">  1       -2 0.40648644E+00 0.99898929E+03</pdfrwt>
<totfact> 0.42572209E+00</totfact>
</mgrwt>
</event>
<event>
 9    1  0.4412976E-036  0.1001724E+04  0.7818608E-02  0.8679397E-01
         -2   -1    0    0    0  501 -0.00000000000E+00  0.00000000000E+00  0.41952315267E+03  0.41952315267E+03  0.00000000000E+00 0.  1.
          2   -1    0    0  501    0  0.00000000000E+00 -0.00000000000E+00 -0.59797168899E+03  0.59797168899E+03  0.00000000000E+00 0.  1.
         36    2    1    2    0    0  0.00000000000E+00  0.00000000000E+00 -0.17844853632E+03  0.10174948417E+04  0.10017244495E+04 0.  0.
         25    2    3    3    0    0 -0.13363289934E+03 -0.26882977655E+02 -0.58601940495E+01  0.18615999137E+03  0.12665209923E+03 0.  0.
         35    2    3    3    0    0  0.13363289934E+03  0.26882977655E+02 -0.17258834227E+03  0.83133485030E+03  0.80171718901E+03 0.  0.
         22    1    5    5    0    0  0.41960567395E+03  0.13020889847E+03  0.66733127663E+02  0.44438338085E+03  0.00000000000E+00 0. -1.
         22    1    5    5    0    0 -0.28597277462E+03 -0.10332592081E+03 -0.23932146993E+03  0.38695146944E+03  0.00000000000E+00 0. -1.
          5    1    4    4  502    0 -0.14732984669E+03 -0.25839656478E+02 -0.34922378938E+02  0.15367314054E+03  0.47000000000E+01 0. -1.
         -5    1    4    4    0  502  0.13696947357E+02 -0.10433211767E+01  0.29062184888E+02  0.32486850824E+02  0.47000000000E+01 0. -1.
<mgrwt>
<rscale>  0 0.10017244E+04</rscale>
<asrwt>0</asrwt>
<pdfrwt beam="1">  1        2 0.91995645E-01 0.10017244E+04</pdfrwt>
<pdfrwt beam="2">  1       -2 0.64542023E-01 0.10017244E+04</pdfrwt>
<totfact> 0.13356678E+02</totfact>
</mgrwt>
</event>
<event>
 9    1  0.4412976E-036  0.1000011E+04  0.7818608E-02  0.8681028E-01
          1   -1    0    0  501    0  0.00000000000E+00  0.00000000000E+00  0.14035844427E+04  0.14035844427E+04  0.00000000000E+00 0.  1.
         -1   -1    0    0    0  501 -0.00000000000E+00 -0.00000000000E+00 -0.17811920039E+03  0.17811920039E+03  0.00000000000E+00 0.  1.
         36    2    1    2    0    0  0.00000000000E+00 -0.14210854715E-13  0.12254652423E+04  0.15817036431E+04  0.10000106772E+04 0.  0.
         25    2    3    3    0    0 -0.10523830461E+03  0.72752954586E+02  0.14114562581E+03  0.22806949375E+03  0.12540140802E+03 0.  0.
         35    2    3    3    0    0  0.10523830461E+03 -0.72752954586E+02  0.10843196165E+04  0.13536341494E+04  0.80013016842E+03 0.  0.
         22    1    5    5    0    0 -0.15177675150E+03 -0.30758425322E+03  0.89251585655E+03  0.95615313068E+03  0.00000000000E+00 0. -1.
         22    1    5    5    0    0  0.25701505610E+03  0.23483129863E+03  0.19180375998E+03  0.39748101869E+03  0.00000000000E+00 0. -1.
          5    1    4    4  502    0  0.11662212259E+02 -0.13512001377E+02  0.57437129288E+02  0.60329886432E+02  0.47000000000E+01 0. -1.
         -5    1    4    4    0  502 -0.11690051687E+03  0.86264955962E+02  0.83708496525E+02  0.16773960731E+03  0.47000000000E+01 0. -1.
<mgrwt>
<rscale>  0 0.10000107E+04</rscale>
<asrwt>0</asrwt>
<pdfrwt beam="1">  1        1 0.21593606E+00 0.10000107E+04</pdfrwt>
<pdfrwt beam="2">  1       -1 0.27402955E-01 0.10000107E+04</pdfrwt>
<totfact> 0.99226126E+01</totfact>
</mgrwt>
</event>
<event>
 9    1  0.4412976E-036  0.1000130E+04  0.7818608E-02  0.8680914E-01
         -2   -1    0    0    0  501 -0.00000000000E+00  0.00000000000E+00  0.13621277258E+03  0.13621277258E+03  0.00000000000E+00 0. -1.
          2   -1    0    0  501    0  0.00000000000E+00 -0.00000000000E+00 -0.18358417786E+04  0.18358417786E+04  0.00000000000E+00 0. -1.
         36    2    1    2    0    0  0.00000000000E+00  0.14210854715E-13 -0.16996290061E+04  0.19720545512E+04  0.10001301889E+04 0.  0.
         25    2    3    3    0    0 -0.10707923144E+03 -0.24049293265E+01 -0.50525855034E+03  0.53116035769E+03  0.12398942454E+03 0.  0.
         35    2    3    3    0    0  0.10707923144E+03  0.24049293265E+01 -0.11943704557E+04  0.14408941935E+04  0.79886390953E+03 0.  0.
         22    1    5    5    0    0  0.22984564544E+03  0.29662824711E+03 -0.99858866905E+03  0.10667692664E+04  0.00000000000E+00 0. -1.
         22    1    5    5    0    0 -0.12276641399E+03 -0.29422331778E+03 -0.19578178667E+03  0.37412492716E+03  0.00000000000E+00 0. -1.
          5    1    4    4  502    0 -0.45872990017E+02 -0.49214516015E+02 -0.11480954958E+03  0.13315300400E+03  0.47000000000E+01 0.  1.
         -5    1    4    4    0  502 -0.61206241426E+02  0.46809586689E+02 -0.39044900076E+03  0.39800735369E+03  0.47000000000E+01 0.  1.
<mgrwt>
<rscale>  0 0.10001302E+04</rscale>
<asrwt>0</asrwt>
<pdfrwt beam="1">  1        2 0.28243718E+00 0.10001302E+04</pdfrwt>
<pdfrwt beam="2">  1       -2 0.20955812E-01 0.10001302E+04</pdfrwt>
<totfact> 0.19154405E+02</totfact>
</mgrwt>
</event>
<event>
 9    1  0.4412976E-036  0.1000427E+04  0.7818608E-02  0.8680631E-01
          2   -1    0    0  501    0  0.00000000000E+00  0.00000000000E+00  0.12090931001E+04  0.12090931001E+04  0.00000000000E+00 0.  1.
         -2   -1    0    0    0  501 -0.00000000000E+00 -0.00000000000E+00 -0.20694331339E+03  0.20694331339E+03  0.00000000000E+00 0.  1.
         36    2    1    2    0    0  0.00000000000E+00  0.00000000000E+00  0.10021497867E+04  0.14160364135E+04  0.10004273733E+04 0.  0.
         25    2    3    3    0    0  0.12361959464E+03  0.68310273060E+02  0.16331606622E+03  0.24832719362E+03  0.12266278989E+03 0.  0.
         35    2    3    3    0    0 -0.12361959464E+03 -0.68310273060E+02  0.83883372047E+03  0.11677092198E+04  0.79997169570E+03 0.  0.
         22    1    5    5    0    0 -0.19344497968E+03 -0.79251049610E+02 -0.96119534755E+02  0.23008836126E+03  0.00000000000E+00 0.  1.
         22    1    5    5    0    0  0.69825385037E+02  0.10940776550E+02  0.93495325523E+03  0.93762085858E+03  0.00000000000E+00 0.  1.
          5    1    4    4  502    0  0.70759258754E+01 -0.21672499130E+01  0.95874886825E+02  0.96274864959E+02  0.47000000000E+01 0.  1.
         -5    1    4    4    0  502  0.11654366877E+03  0.70477522973E+02  0.67441179392E+02  0.15205232866E+03  0.47000000000E+01 0.  1.
<mgrwt>
<rscale>  0 0.10004274E+04</rscale>
<asrwt>0</asrwt>
<pdfrwt beam="1">  1        2 0.18601432E+00 0.10004274E+04</pdfrwt>
<pdfrwt beam="2">  1       -2 0.31837434E-01 0.10004274E+04</pdfrwt>
<totfact> 0.20656728E+02</totfact>
</mgrwt>
</event>
<event>
 9    1  0.4412976E-036  0.1000036E+04  0.7818608E-02  0.8681004E-01
         -1   -1    0    0    0  501 -0.00000000000E+00  0.00000000000E+00  0.13836395649E+03  0.13836395649E+03  0.00000000000E+00 0. -1.
          1   -1    0    0  501    0  0.00000000000E+00 -0.00000000000E+00 -0.18069575764E+04  0.18069575764E+04  0.00000000000E+00 0. -1.
         36    2    1    2    0    0  0.28421709430E-13  0.14210854715E-13 -0.16685936199E+04  0.19453215328E+04  0.10000355983E+04 0.  0.
         25    2    3    3    0    0  0.95919402906E+02  0.45690430948E+02 -0.13824567911E+03  0.21452178616E+03  0.12497832456E+03 0.  0.
         35    2    3    3    0    0 -0.95919402906E+02 -0.45690430948E+02 -0.15303479408E+04  0.17307997467E+04  0.80150782656E+03 0.  0.
         22    1    5    5    0    0  0.34621748367E+03 -0.42878510316E+02 -0.50086823730E+03  0.61038848595E+03  0.00000000000E+00 0.  1.
         22    1    5    5    0    0 -0.44213688657E+03 -0.28119206317E+01 -0.10294797035E+04  0.11204112607E+04  0.00000000000E+00 0.  1.
          5    1    4    4  502    0  0.15000261919E+02 -0.41505919765E+02 -0.45945931895E+02  0.63881671009E+02  0.47000000000E+01 0. -1.
         -5    1    4    4    0  502  0.80919140986E+02  0.87196350712E+02 -0.92299747218E+02  0.15064011515E+03  0.47000000000E+01 0. -1.
<mgrwt>
<rscale>  0 0.10000356E+04</rscale>
<asrwt>0</asrwt>
<pdfrwt beam="1">  1        1 0.27799348E+00 0.10000356E+04</pdfrwt>
<pdfrwt beam="2">  1       -1 0.21286762E-01 0.10000356E+04</pdfrwt>
<totfact> 0.78455734E+01</totfact>
</mgrwt>
</event>
<event>
 9    1  0.4412976E-036  0.9994799E+03  0.7818608E-02  0.8681533E-01
          2   -1    0    0  501    0  0.00000000000E+00  0.00000000000E+00  0.12696573969E+04  0.12696573969E+04  0.00000000000E+00 0. -1.
         -2   -1    0    0    0  501 -0.00000000000E+00 -0.00000000000E+00 -0.19669875248E+03  0.19669875248E+03  0.00000000000E+00 0. -1.
         36    2    1    2    0    0  0.00000000000E+00  0.00000000000E+00  0.10729586444E+04  0.14663561494E+04  0.99947991685E+03 0.  0.
         25    2    3    3    0    0 -0.96168477400E+02 -0.89200920772E+02  0.12634553554E+03  0.22025609667E+03  0.12387240797E+03 0.  0.
         35    2    3    3    0    0  0.96168477400E+02  0.89200920772E+02  0.94661310890E+03  0.12461000527E+04  0.79967729938E+03 0.  0.
         22    1    5    5    0    0  0.23132348168E+03 -0.30673156572E+03  0.53979097710E+03  0.66254743645E+03  0.00000000000E+00 0.  1.
         22    1    5    5    0    0 -0.13515500428E+03  0.39593248649E+03  0.40682213180E+03  0.58355261628E+03  0.00000000000E+00 0.  1.
          5    1    4    4  502    0 -0.39571835964E+02 -0.94941557749E+02  0.12658622445E+03  0.16317472785E+03  0.47000000000E+01 0. -1.
         -5    1    4    4    0  502 -0.56596641436E+02  0.57406369769E+01 -0.24068891235E+00  0.57081368816E+02  0.47000000000E+01 0. -1.
<mgrwt>
<rscale>  0 0.99947992E+03</rscale>
<asrwt>0</asrwt>
<pdfrwt beam="1">  1        2 0.19533190E+00 0.99947992E+03</pdfrwt>
<pdfrwt beam="2">  1       -2 0.30261347E-01 0.99947992E+03</pdfrwt>
<totfact> 0.20890760E+02</totfact>
</mgrwt>
</event>
<event>
 9    1  0.4412976E-036  0.1002098E+04  0.7818608E-02  0.8679042E-01
          3   -1    0    0  501    0  0.00000000000E+00  0.00000000000E+00  0.28535731029E+04  0.28535731029E+04  0.00000000000E+00 0.  1.
         -3   -1    0    0    0  501 -0.00000000000E+00 -0.00000000000E+00 -0.87977488354E+02  0.87977488354E+02  0.00000000000E+00 0.  1.
         36    2    1    2    0    0 -0.14210854715E-13  0.00000000000E+00  0.27655956146E+04  0.29415505913E+04  0.10020981877E+04 0.  0.
         25    2    3    3    0    0 -0.10604678062E+03  0.82144110171E+02  0.66566511795E+03  0.69059169542E+03  0.12575080916E+03 0.  0.
         35    2    3    3    0    0  0.10604678062E+03 -0.82144110171E+02  0.20999304966E+04  0.22509588959E+04  0.79944623692E+03 0.  0.
         22    1    5    5    0    0 -0.16167808256E+03 -0.27871717209E+02  0.19128386656E+04  0.19198615563E+04  0.00000000000E+00 0. -1.
         22    1    5    5    0    0  0.26772486317E+03 -0.54272392963E+02  0.18709183106E+03  0.33109733954E+03  0.00000000000E+00 0. -1.
          5    1    4    4  502    0 -0.31693062755E+01 -0.30625344262E+02  0.11417383935E+03  0.11834572998E+03  0.47000000000E+01 0.  1.
         -5    1    4    4    0  502 -0.10287747434E+03  0.11276945443E+03  0.55149127861E+03  0.57224596544E+03  0.47000000000E+01 0.  1.
<mgrwt>
<rscale>  0 0.10020982E+04</rscale>
<asrwt>0</asrwt>
<pdfrwt beam="1">  1        3 0.43901118E+00 0.10020982E+04</pdfrwt>
<pdfrwt beam="2">  1       -3 0.13535000E-01 0.10020982E+04</pdfrwt>
<totfact> 0.31876640E+00</totfact>
</mgrwt>
</event>
<event>
 9    1  0.4412976E-036  0.9997633E+03  0.7818608E-02  0.8681263E-01
         -1   -1    0    0    0  501 -0.00000000000E+00  0.00000000000E+00  0.31879888563E+03  0.31879888563E+03  0.00000000000E+00 0.  1.
          1   -1    0    0  501    0  0.00000000000E+00 -0.00000000000E+00 -0.78382230552E+03  0.78382230552E+03  0.00000000000E+00 0.  1.
         36    2    1    2    0    0 -0.53290705182E-14  0.28421709430E-13 -0.46502341989E+03  0.11026211911E+04  0.99976332706E+03 0.  0.
         25    2    3    3    0    0  0.59359503362E+01 -0.13246559222E+03 -0.13795986150E+03  0.22839901198E+03  0.12470291359E+03 0.  0.
         35    2    3    3    0    0 -0.59359503362E+01  0.13246559222E+03 -0.32706355839E+03  0.87422217917E+03  0.79981965386E+03 0.  0.
         22    1    5    5    0    0  0.29425808994E+03 -0.13590974382E+03 -0.34210936891E+03  0.47127285329E+03  0.00000000000E+00 0.  1.
         22    1    5    5    0    0 -0.30019404027E+03  0.26837533604E+03  0.15045810519E+02  0.40294932588E+03  0.00000000000E+00 0.  1.
          5    1    4    4  502    0  0.12795731379E+02 -0.11233422461E+02  0.21557046382E+02  0.27869638864E+02  0.47000000000E+01 0.  1.
         -5    1    4    4    0  502 -0.68597810431E+01 -0.12123216976E+03 -0.15951690788E+03  0.20052937311E+03  0.47000000000E+01 0.  1.
<mgrwt>
<rscale>  0 0.99976333E+03</rscale>
<asrwt>0</asrwt>
<pdfrwt beam="1">  1        1 0.12058805E+00 0.99976333E+03</pdfrwt>
<pdfrwt beam="2">  1       -1 0.49045983E-01 0.99976333E+03</pdfrwt>
<totfact> 0.10849479E+02</totfact>
</mgrwt>
</event>
<event>
 9    1  0.4412976E-036  0.9995981E+03  0.7818608E-02  0.8681421E-01
          2   -1    0    0  501    0  0.00000000000E+00  0.00000000000E+00  0.13570997477E+04  0.13570997477E+04  0.00000000000E+00 0. -1.
         -2   -1    0    0    0  501 -0.00000000000E+00 -0.00000000000E+00 -0.18406832535E+03  0.18406832535E+03  0.00000000000E+00 0. -1.
         36    2    1    2    0    0  0.14210854715E-13 -0.28421709430E-13  0.11730314224E+04  0.15411680731E+04  0.99959807502E+03 0.  0.
         25    2    3    3    0    0 -0.40955717445E+02 -0.12750653646E+03  0.24422686485E+03  0.30614155106E+03  0.12704566162E+03 0.  0.
         35    2    3    3    0    0  0.40955717445E+02  0.12750653646E+03  0.92880455753E+03  0.12350265220E+04  0.80291800103E+03 0.  0.
         22    1    5    5    0    0 -0.54676767318E+02 -0.17220834272E+03  0.90129162856E+03  0.91922351031E+03  0.00000000000E+00 0.  1.
         22    1    5    5    0    0  0.95632484763E+02  0.29971487919E+03  0.27512928971E+02  0.31580301172E+03  0.00000000000E+00 0.  1.
          5    1    4    4  502    0 -0.25535001605E+02  0.21153344616E+02  0.30487785001E+02  0.45289019969E+02  0.47000000000E+01 0. -1.
         -5    1    4    4    0  502 -0.15420715840E+02 -0.14865988108E+03  0.21373907985E+03  0.26085253109E+03  0.47000000000E+01 0. -1.
<mgrwt>
<rscale>  0 0.99959808E+03</rscale>
<asrwt>0</asrwt>
<pdfrwt beam="1">  1        2 0.20878457E+00 0.99959808E+03</pdfrwt>
<pdfrwt beam="2">  1       -2 0.28318205E-01 0.99959808E+03</pdfrwt>
<totfact> 0.20974167E+02</totfact>
</mgrwt>
</event>
<event>
 9    1  0.4412976E-036  0.1000234E+04  0.7818608E-02  0.8680815E-01
         -1   -1    0    0    0  501 -0.00000000000E+00  0.00000000000E+00  0.79430243750E+03  0.79430243750E+03  0.00000000000E+00 0.  1.
          1   -1    0    0  501    0  0.00000000000E+00 -0.00000000000E+00 -0.31488871718E+03  0.31488871718E+03  0.00000000000E+00 0.  1.
         36    2    1    2    0    0  0.00000000000E+00  0.00000000000E+00  0.47941372032E+03  0.11091911547E+04  0.10002337239E+04 0.  0.
         25    2    3    3    0    0  0.38451380158E+01 -0.13577077528E+03  0.51090004425E+02  0.19140401843E+03  0.12480713608E+03 0.  0.
         35    2    3    3    0    0 -0.38451380158E+01  0.13577077528E+03  0.42832371590E+03  0.91778713624E+03  0.80026466456E+03 0.  0.
         22    1    5    5    0    0  0.10120233719E+03 -0.31512372984E+03  0.85890200758E+02  0.34193859792E+03  0.00000000000E+00 0.  1.
         22    1    5    5    0    0 -0.10504747521E+03  0.45089450512E+03  0.34243351514E+03  0.57584853832E+03  0.00000000000E+00 0.  1.
          5    1    4    4  502    0  0.58797299298E+02 -0.38406664431E+02  0.34134040477E+02  0.78226702582E+02  0.47000000000E+01 0.  1.
         -5    1    4    4    0  502 -0.54952161283E+02 -0.97364110845E+02  0.16955963948E+02  0.11317731585E+03  0.47000000000E+01 0.  1.
<mgrwt>
<rscale>  0 0.10002337E+04</rscale>
<asrwt>0</asrwt>
<pdfrwt beam="1">  1        1 0.48444418E-01 0.10002337E+04</pdfrwt>
<pdfrwt beam="2">  1       -1 0.12220037E+00 0.10002337E+04</pdfrwt>
<totfact> 0.58524604E+01</totfact>
</mgrwt>
</event>
<event>
 9    1  0.4412976E-036  0.1000195E+04  0.7818608E-02  0.8680852E-01
         -2   -1    0    0    0  501 -0.00000000000E+00  0.00000000000E+00  0.10649888810E+03  0.10649888810E+03  0.00000000000E+00 0.  1.
          2   -1    0    0  501    0  0.00000000000E+00 -0.00000000000E+00 -0.23483572154E+04  0.23483572154E+04  0.00000000000E+00 0.  1.
         36    2    1    2    0    0 -0.14210854715E-13  0.00000000000E+00 -0.22418583273E+04  0.24548561035E+04  0.10001948456E+04 0.  0.
         25    2    3    3    0    0  0.95960357386E+02 -0.10120099466E+03 -0.31369568253E+03  0.36608815380E+03  0.12714371242E+03 0.  0.
         35    2    3    3    0    0 -0.95960357386E+02  0.10120099466E+03 -0.19281626448E+04  0.20887679497E+04  0.79100589854E+03 0.  0.
         22    1    5    5    0    0  0.22260011500E+03  0.13299416310E+03 -0.16325590388E+04  0.16530236761E+04  0.00000000000E+00 0.  1.
         22    1    5    5    0    0 -0.31856047239E+03 -0.31793168441E+02 -0.29560360605E+03  0.43574427367E+03  0.00000000000E+00 0.  1.
          5    1    4    4  502    0  0.17163715447E+02 -0.87305970254E+02 -0.24440070439E+03  0.26013596421E+03  0.47000000000E+01 0.  1.
         -5    1    4    4    0  502  0.78796641939E+02 -0.13895024407E+02 -0.69294978139E+02  0.10595218959E+03  0.47000000000E+01 0.  1.
<mgrwt>
<rscale>  0 0.10001948E+04</rscale>
<asrwt>0</asrwt>
<pdfrwt beam="1">  1        2 0.36128571E+00 0.10001948E+04</pdfrwt>
<pdfrwt beam="2">  1       -2 0.16384445E-01 0.10001948E+04</pdfrwt>
<totfact> 0.14803500E+02</totfact>
</mgrwt>
</event>
<event>
 9    1  0.4412976E-036  0.9992989E+03  0.7818608E-02  0.8681706E-01
          2   -1    0    0  501    0  0.00000000000E+00  0.00000000000E+00  0.36014616348E+04  0.36014616348E+04  0.00000000000E+00 0.  1.
         -2   -1    0    0    0  501 -0.00000000000E+00 -0.00000000000E+00 -0.69318952590E+02  0.69318952590E+02  0.00000000000E+00 0.  1.
         36    2    1    2    0    0  0.00000000000E+00 -0.14210854715E-13  0.35321426822E+04  0.36707805874E+04  0.99929885083E+03 0.  0.
         25    2    3    3    0    0  0.22002935295E+02 -0.47165688381E+02  0.11440511444E+04  0.11518914910E+04  0.12366185632E+03 0.  0.
         35    2    3    3    0    0 -0.22002935295E+02  0.47165688381E+02  0.23880915378E+04  0.25188890964E+04  0.79944502978E+03 0.  0.
         22    1    5    5    0    0 -0.16872696489E+03 -0.21690089462E+03  0.20381524231E+04  0.20565942931E+04  0.00000000000E+00 0.  1.
         22    1    5    5    0    0  0.14672402959E+03  0.26406658300E+03  0.34993911471E+03  0.46229480326E+03  0.00000000000E+00 0.  1.
          5    1    4    4  502    0  0.63180117594E+02  0.65082149566E+00  0.38208976123E+03  0.38730714745E+03  0.47000000000E+01 0. -1.
         -5    1    4    4    0  502 -0.41177182299E+02 -0.47816509877E+02  0.76196138315E+03  0.76458434353E+03  0.47000000000E+01 0. -1.
<mgrwt>
<rscale>  0 0.99929885E+03</rscale>
<asrwt>0</asrwt>
<pdfrwt beam="1">  1        2 0.55407087E+00 0.99929885E+03</pdfrwt>
<pdfrwt beam="2">  1       -2 0.10664457E-01 0.99929885E+03</pdfrwt>
<totfact> 0.43451172E+01</totfact>
</mgrwt>
</event>
<event>
 9    1  0.4412976E-036  0.1000869E+04  0.7818608E-02  0.8680210E-01
          1   -1    0    0  501    0  0.00000000000E+00  0.00000000000E+00  0.85884042560E+03  0.85884042560E+03  0.00000000000E+00 0. -1.
         -1   -1    0    0    0  501 -0.00000000000E+00 -0.00000000000E+00 -0.29159655892E+03  0.29159655892E+03  0.00000000000E+00 0. -1.
         36    2    1    2    0    0  0.71054273576E-14  0.00000000000E+00  0.56724386668E+03  0.11504369845E+04  0.10008694476E+04 0.  0.
         25    2    3    3    0    0 -0.54164513854E+01  0.13715818239E+03  0.63865513707E+02  0.19536809242E+03  0.12348353232E+03 0.  0.
         35    2    3    3    0    0  0.54164513854E+01 -0.13715818239E+03  0.50337835298E+03  0.95506889210E+03  0.79995319704E+03 0.  0.
         22    1    5    5    0    0 -0.11924587945E+03  0.90009367177E+02 -0.17428245326E+03  0.22955530806E+03  0.00000000000E+00 0. -1.
         22    1    5    5    0    0  0.12466233084E+03 -0.22716754957E+03  0.67766080624E+03  0.72551358403E+03  0.00000000000E+00 0. -1.
          5    1    4    4  502    0 -0.16333190566E+02  0.10546277484E+03  0.99666153896E+02  0.14609791998E+03  0.47000000000E+01 0.  1.
         -5    1    4    4    0  502  0.10916739181E+02  0.31695407549E+02 -0.35800640189E+02  0.49270172437E+02  0.47000000000E+01 0.  1.
<mgrwt>
<rscale>  0 0.10008694E+04</rscale>
<asrwt>0</asrwt>
<pdfrwt beam="1">  1        1 0.13212930E+00 0.10008694E+04</pdfrwt>
<pdfrwt beam="2">  1       -1 0.44861009E-01 0.10008694E+04</pdfrwt>
<totfact> 0.10983946E+02</totfact>
</mgrwt>
</event>
<event>
 9    1  0.4412976E-036  0.9992143E+03  0.7818608E-02  0.8681787E-01
         -2   -1    0    0    0  501 -0.00000000000E+00  0.00000000000E+00  0.75768326529E+03  0.75768326529E+03  0.00000000000E+00 0.  1.
          2   -1    0    0  501    0  0.00000000000E+00 -0.00000000000E+00 -0.32943488528E+03  0.32943488528E+03  0.00000000000E+00 0.  1.
         36    2    1    2    0    0  0.14210854715E-13  0.71054273576E-13  0.42824838001E+03  0.10871181506E+04  0.99921429049E+03 0.  0.
         25    2    3    3    0    0 -0.40155235870E+01 -0.12330620443E+03 -0.48168442304E+01  0.16808889889E+03  0.11406196324E+03 0.  0.
         35    2    3    3    0    0  0.40155235870E+01  0.12330620443E+03  0.43306522424E+03  0.91902925168E+03  0.80115462460E+03 0.  0.
         22    1    5    5    0    0 -0.11896043599E+03 -0.28181174706E+03 -0.10202238645E+02  0.30606132030E+03  0.00000000000E+00 0. -1.
         22    1    5    5    0    0  0.12297595958E+03  0.40511795149E+03  0.44326746289E+03  0.61296793139E+03  0.00000000000E+00 0. -1.
          5    1    4    4  502    0 -0.38201231736E+02 -0.10911167274E+03  0.27276329269E+02  0.11887295475E+03  0.47000000000E+01 0. -1.
         -5    1    4    4    0  502  0.34185708149E+02 -0.14194531699E+02 -0.32093173500E+02  0.49215944135E+02  0.47000000000E+01 0. -1.
<mgrwt>
<rscale>  0 0.99921429E+03</rscale>
<asrwt>0</asrwt>
<pdfrwt beam="1">  1        2 0.50682290E-01 0.99921429E+03</pdfrwt>
<pdfrwt beam="2">  1       -2 0.11656666E+00 0.99921429E+03</pdfrwt>
<totfact> 0.66030889E+01</totfact>
</mgrwt>
</event>
<event>
 9    1  0.4412976E-036  0.9999085E+03  0.7818608E-02  0.8681125E-01
          3   -1    0    0  501    0  0.00000000000E+00  0.00000000000E+00  0.19432291639E+04  0.19432291639E+04  0.00000000000E+00 0.  1.
         -3   -1    0    0    0  501 -0.00000000000E+00 -0.00000000000E+00 -0.12862830326E+03  0.12862830326E+03  0.00000000000E+00 0.  1.
         36    2    1    2    0    0  0.56843418861E-13 -0.14210854715E-13  0.18146008607E+04  0.20718574672E+04  0.99990853623E+03 0.  0.
         25    2    3    3    0    0  0.10255843533E+03 -0.71821066654E+02  0.27183003997E+03  0.32950197790E+03  0.13785312668E+03 0.  0.
         35    2    3    3    0    0 -0.10255843533E+03  0.71821066654E+02  0.15427708207E+04  0.17423554893E+04  0.79999021719E+03 0.  0.
         22    1    5    5    0    0 -0.37464875971E+03  0.27211617258E+03  0.10160513727E+04  0.11165882394E+04  0.00000000000E+00 0. -1.
         22    1    5    5    0    0  0.27209032437E+03 -0.20029510592E+03  0.52671944804E+03  0.62576724987E+03  0.00000000000E+00 0. -1.
          5    1    4    4  502    0  0.10154183642E+03 -0.15733509997E+02  0.24778810546E+03  0.26828962539E+03  0.47000000000E+01 0. -1.
         -5    1    4    4    0  502  0.10165989074E+01 -0.56087556657E+02  0.24041934503E+02  0.61212352510E+02  0.47000000000E+01 0. -1.
<mgrwt>
<rscale>  0 0.99990854E+03</rscale>
<asrwt>0</asrwt>
<pdfrwt beam="1">  1        3 0.29895831E+00 0.99990854E+03</pdfrwt>
<pdfrwt beam="2">  1       -3 0.19788971E-01 0.99990854E+03</pdfrwt>
<totfact> 0.40813680E+00</totfact>
</mgrwt>
</event>
<event>
 9    1  0.4412976E-036  0.1000278E+04  0.7818608E-02  0.8680773E-01
          2   -1    0    0  501    0  0.00000000000E+00  0.00000000000E+00  0.23586510766E+04  0.23586510766E+04  0.00000000000E+00 0.  1.
         -2   -1    0    0    0  501 -0.00000000000E+00 -0.00000000000E+00 -0.10605177247E+03  0.10605177247E+03  0.00000000000E+00 0.  1.
         36    2    1    2    0    0 -0.42632564146E-13 -0.14210854715E-13  0.22525993041E+04  0.24647028491E+04  0.10002782159E+04 0.  0.
         25    2    3    3    0    0  0.59823159160E+02 -0.38158938114E+02  0.12471913853E+03  0.19046929269E+03  0.12525483228E+03 0.  0.
         35    2    3    3    0    0 -0.59823159160E+02  0.38158938114E+02  0.21278801656E+04  0.22742335564E+04  0.79951820171E+03 0.  0.
         22    1    5    5    0    0  0.29682853701E+03  0.19275917665E+03  0.14523026329E+04  0.14948064149E+04  0.00000000000E+00 0.  1.
         22    1    5    5    0    0 -0.35665169617E+03 -0.15460023854E+03  0.67557753267E+03  0.77942714142E+03  0.00000000000E+00 0.  1.
          5    1    4    4  502    0  0.81514363117E+02 -0.60598872428E+02  0.58984740451E+02  0.11755043318E+03  0.47000000000E+01 0. -1.
         -5    1    4    4    0  502 -0.21691203957E+02  0.22439934314E+02  0.65734398081E+02  0.72918859510E+02  0.47000000000E+01 0. -1.
<mgrwt>
<rscale>  0 0.10002782E+04</rscale>
<asrwt>0</asrwt>
<pdfrwt beam="1">  1        2 0.36286936E+00 0.10002782E+04</pdfrwt>
<pdfrwt beam="2">  1       -2 0.16315659E-01 0.10002782E+04</pdfrwt>
<totfact> 0.14700688E+02</totfact>
</mgrwt>
</event>
<event>
 9    1  0.4412976E-036  0.1003138E+04  0.7818608E-02  0.8678055E-01
         -3   -1    0    0    0  501 -0.00000000000E+00  0.00000000000E+00  0.16545917203E+03  0.16545917203E+03  0.00000000000E+00 0. -1.
          3   -1    0    0  501    0  0.00000000000E+00 -0.00000000000E+00 -0.15204444661E+04  0.15204444661E+04  0.00000000000E+00 0. -1.
         36    2    1    2    0    0  0.00000000000E+00  0.14210854715E-13 -0.13549852941E+04  0.16859036382E+04  0.10031380413E+04 0.  0.
         25    2    3    3    0    0  0.10809028403E+03 -0.73736520138E+02 -0.15414312847E+03  0.23752575847E+03  0.12465070388E+03 0.  0.
         35    2    3    3    0    0 -0.10809028403E+03  0.73736520138E+02 -0.12008421656E+04  0.14483778797E+04  0.79915955338E+03 0.  0.
         22    1    5    5    0    0  0.28556314287E+03  0.15307151479E+03 -0.22877173274E+03  0.39662791494E+03  0.00000000000E+00 0.  1.
         22    1    5    5    0    0 -0.39365342690E+03 -0.79334994652E+02 -0.97207043289E+03  0.10517499648E+04  0.00000000000E+00 0.  1.
          5    1    4    4  502    0  0.71024155048E+00 -0.37593759492E+02 -0.10912977318E+03  0.11552139451E+03  0.47000000000E+01 0.  1.
         -5    1    4    4    0  502  0.10738004248E+03 -0.36142760646E+02 -0.45013355288E+02  0.12200436395E+03  0.47000000000E+01 0.  1.
<mgrwt>
<rscale>  0 0.10031380E+04</rscale>
<asrwt>0</asrwt>
<pdfrwt beam="1">  1        3 0.23391453E+00 0.10031380E+04</pdfrwt>
<pdfrwt beam="2">  1       -3 0.25455258E-01 0.10031380E+04</pdfrwt>
<totfact> 0.53496993E+00</totfact>
</mgrwt>
</event>
<event>
 9    1  0.4412976E-036  0.9988272E+03  0.7818608E-02  0.8682156E-01
         -1   -1    0    0    0  501 -0.00000000000E+00  0.00000000000E+00  0.33458958495E+03  0.33458958495E+03  0.00000000000E+00 0. -1.
          1   -1    0    0  501    0  0.00000000000E+00 -0.00000000000E+00 -0.74543241521E+03  0.74543241521E+03  0.00000000000E+00 0. -1.
         36    2    1    2    0    0  0.00000000000E+00 -0.14210854715E-13 -0.41084283026E+03  0.10800220002E+04  0.99882715704E+03 0.  0.
         25    2    3    3    0    0 -0.11686767348E+03  0.37611138575E+02 -0.14888607289E+03  0.22984859131E+03  0.12486256996E+03 0.  0.
         35    2    3    3    0    0  0.11686767348E+03 -0.37611138575E+02 -0.26195675737E+03  0.85017340884E+03  0.79943782217E+03 0.  0.
         22    1    5    5    0    0 -0.12734329123E+03 -0.22530406793E+03  0.17728626611E+03  0.31370154128E+03  0.00000000000E+00 0.  1.
         22    1    5    5    0    0  0.24421096472E+03  0.18769292935E+03 -0.43924302348E+03  0.53647186757E+03  0.00000000000E+00 0.  1.
          5    1    4    4  502    0 -0.40081531545E+02  0.59203738760E+02 -0.13898639557E+02  0.72985437148E+02  0.47000000000E+01 0.  1.
         -5    1    4    4    0  502 -0.76786141938E+02 -0.21592600185E+02 -0.13498743334E+03  0.15686315417E+03  0.47000000000E+01 0.  1.
<mgrwt>
<rscale>  0 0.99882716E+03</rscale>
<asrwt>0</asrwt>
<pdfrwt beam="1">  1        1 0.11468191E+00 0.99882716E+03</pdfrwt>
<pdfrwt beam="2">  1       -1 0.51475320E-01 0.99882716E+03</pdfrwt>
<totfact> 0.10748425E+02</totfact>
</mgrwt>
</event>
<event>
 9    1  0.4412976E-036  0.9974581E+03  0.7818608E-02  0.8683462E-01
          1   -1    0    0  501    0  0.00000000000E+00  0.00000000000E+00  0.24785623281E+04  0.24785623281E+04  0.00000000000E+00 0.  1.
         -1   -1    0    0    0  501 -0.00000000000E+00 -0.00000000000E+00 -0.10035280348E+03  0.10035280348E+03  0.00000000000E+00 0.  1.
         36    2    1    2    0    0  0.14210854715E-13  0.28421709430E-13  0.23782095246E+04  0.25789151316E+04  0.99745812589E+03 0.  0.
         25    2    3    3    0    0 -0.11151982506E+03  0.84048274862E+02  0.45488989347E+03  0.49195451089E+03  0.12487450388E+03 0.  0.
         35    2    3    3    0    0  0.11151982506E+03 -0.84048274862E+02  0.19233196312E+04  0.20869606207E+04  0.79796331046E+03 0.  0.
         22    1    5    5    0    0 -0.78616191681E+01  0.19268462387E+03  0.63724375231E+02  0.20310087477E+03  0.00000000000E+00 0. -1.
         22    1    5    5    0    0  0.11938144423E+03 -0.27673289873E+03  0.18595952559E+04  0.18838597459E+04  0.00000000000E+00 0. -1.
          5    1    4    4  502    0  0.28372086369E+01  0.47821544579E+02  0.24909694395E+03  0.25370519775E+03  0.47000000000E+01 0. -1.
         -5    1    4    4    0  502 -0.11435703370E+03  0.36226730282E+02  0.20579294952E+03  0.23824931314E+03  0.47000000000E+01 0. -1.
<mgrwt>
<rscale>  0 0.99745813E+03</rscale>
<asrwt>0</asrwt>
<pdfrwt beam="1">  1        1 0.38131724E+00 0.99745813E+03</pdfrwt>
<pdfrwt beam="2">  1       -1 0.15438895E-01 0.99745813E+03</pdfrwt>
<totfact> 0.44870637E+01</totfact>
</mgrwt>
</event>
<event>
 9    1  0.4412976E-036  0.1000218E+04  0.7818608E-02  0.8680830E-01
         -2   -1    0    0    0  501 -0.00000000000E+00  0.00000000000E+00  0.13980191744E+03  0.13980191744E+03  0.00000000000E+00 0.  1.
          2   -1    0    0  501    0  0.00000000000E+00 -0.00000000000E+00 -0.17890238095E+04  0.17890238095E+04  0.00000000000E+00 0.  1.
         36    2    1    2    0    0 -0.35527136788E-13  0.00000000000E+00 -0.16492218921E+04  0.19288257270E+04  0.10002178941E+04 0.  0.
         25    2    3    3    0    0 -0.38560179161E+02  0.67584330907E+02 -0.53189350001E+03  0.55185855945E+03  0.12483046537E+03 0.  0.
         35    2    3    3    0    0  0.38560179161E+02 -0.67584330907E+02 -0.11173283921E+04  0.13769671675E+04  0.80097522777E+03 0.  0.
         22    1    5    5    0    0 -0.23785441172E+03  0.12708651829E+03 -0.97244426397E+03  0.10091449603E+04  0.00000000000E+00 0.  1.
         22    1    5    5    0    0  0.27641459088E+03 -0.19467084919E+03 -0.14488412811E+03  0.36782220726E+03  0.00000000000E+00 0.  1.
          5    1    4    4  502    0 -0.82268536393E+02  0.55109980552E+02 -0.31611027425E+03  0.33128992971E+03  0.47000000000E+01 0.  1.
         -5    1    4    4    0  502  0.43708357232E+02  0.12474350355E+02 -0.21578322576E+03  0.22056862974E+03  0.47000000000E+01 0.  1.
<mgrwt>
<rscale>  0 0.10002179E+04</rscale>
<asrwt>0</asrwt>
<pdfrwt beam="1">  1        2 0.27523442E+00 0.10002179E+04</pdfrwt>
<pdfrwt beam="2">  1       -2 0.21507988E-01 0.10002179E+04</pdfrwt>
<totfact> 0.19454785E+02</totfact>
</mgrwt>
</event>
<event>
 9    1  0.4412976E-036  0.1003962E+04  0.7818608E-02  0.8677274E-01
         -2   -1    0    0    0  501 -0.00000000000E+00  0.00000000000E+00  0.33205073512E+03  0.33205073512E+03  0.00000000000E+00 0.  1.
          2   -1    0    0  501    0  0.00000000000E+00 -0.00000000000E+00 -0.75887489082E+03  0.75887489082E+03  0.00000000000E+00 0.  1.
         36    2    1    2    0    0  0.00000000000E+00  0.00000000000E+00 -0.42682415570E+03  0.10909256259E+04  0.10039620817E+04 0.  0.
         25    2    3    3    0    0  0.48845148937E+02 -0.10923497185E+03 -0.15923720028E+03  0.23854423066E+03  0.13125828117E+03 0.  0.
         35    2    3    3    0    0 -0.48845148937E+02  0.10923497185E+03 -0.26758695542E+03  0.85238139528E+03  0.80039561259E+03 0.  0.
         22    1    5    5    0    0 -0.87296463022E+02 -0.28393936976E+03 -0.33920661110E+03  0.45089174219E+03  0.00000000000E+00 0. -1.
         22    1    5    5    0    0  0.38451314085E+02  0.39317434162E+03  0.71619655678E+02  0.40148965309E+03  0.00000000000E+00 0. -1.
          5    1    4    4  502    0  0.26816904585E+02 -0.52380641890E+02  0.88361204986E+01  0.59691247615E+02  0.47000000000E+01 0. -1.
         -5    1    4    4    0  502  0.22028244351E+02 -0.56854329963E+02 -0.16807332078E+03  0.17885298304E+03  0.47000000000E+01 0. -1.
<mgrwt>
<rscale>  0 0.10039621E+04</rscale>
<asrwt>0</asrwt>
<pdfrwt beam="1">  1        2 0.11674998E+00 0.10039621E+04</pdfrwt>
<pdfrwt beam="2">  1       -2 0.51084729E-01 0.10039621E+04</pdfrwt>
<totfact> 0.16192042E+02</totfact>
</mgrwt>
</event>
<event>
 9    1  0.4412976E-036  0.9995383E+03  0.7818608E-02  0.8681478E-01
         -2   -1    0    0    0  501 -0.00000000000E+00  0.00000000000E+00  0.83824426676E+03  0.83824426676E+03  0.00000000000E+00 0.  1.
          2   -1    0    0  501    0  0.00000000000E+00 -0.00000000000E+00 -0.29796710945E+03  0.29796710945E+03  0.00000000000E+00 0.  1.
         36    2    1    2    0    0 -0.14210854715E-13  0.28421709430E-13  0.54027715732E+03  0.11362113762E+04  0.99953833579E+03 0.  0.
         25    2    3    3    0    0 -0.12199570759E+03  0.64969655263E+02  0.88563309925E+02  0.20636425887E+03  0.12505494272E+03 0.  0.
         35    2    3    3    0    0  0.12199570759E+03 -0.64969655263E+02  0.45171384739E+03  0.92984711734E+03  0.80091588380E+03 0.  0.
         22    1    5    5    0    0  0.36959642245E+03 -0.29080050411E+03  0.32459746727E+03  0.57142800459E+03  0.00000000000E+00 0. -1.
         22    1    5    5    0    0 -0.24760071486E+03  0.22583084884E+03  0.12711638013E+03  0.35841911275E+03  0.00000000000E+00 0. -1.
          5    1    4    4  502    0 -0.17652063718E+02  0.58160110716E+02  0.81059453126E+02  0.10142444860E+03  0.47000000000E+01 0.  1.
         -5    1    4    4    0  502 -0.10434364387E+03  0.68095445476E+01  0.75038567986E+01  0.10493981027E+03  0.47000000000E+01 0.  1.
<mgrwt>
<rscale>  0 0.99953834E+03</rscale>
<asrwt>0</asrwt>
<pdfrwt beam="1">  1        2 0.45841094E-01 0.99953834E+03</pdfrwt>
<pdfrwt beam="2">  1       -2 0.12896066E+00 0.99953834E+03</pdfrwt>
<totfact> 0.56678999E+01</totfact>
</mgrwt>
</event>
<event>
 9    1  0.4412976E-036  0.1007316E+04  0.7818608E-02  0.8674102E-01
          3   -1    0    0  501    0  0.00000000000E+00  0.00000000000E+00  0.21103588091E+03  0.21103588091E+03  0.00000000000E+00 0. -1.
         -3   -1    0    0    0  501 -0.00000000000E+00 -0.00000000000E+00 -0.12020286427E+04  0.12020286427E+04  0.00000000000E+00 0. -1.
         36    2    1    2    0    0  0.00000000000E+00  0.71054273576E-14 -0.99099276174E+03  0.14130645236E+04  0.10073155880E+04 0.  0.
         25    2    3    3    0    0  0.12642555236E+01 -0.10554906601E+02 -0.39778815457E+03  0.41703383130E+03  0.12477498201E+03 0.  0.
         35    2    3    3    0    0 -0.12642555236E+01  0.10554906601E+02 -0.59320460717E+03  0.99603069226E+03  0.80004526720E+03 0.  0.
         22    1    5    5    0    0  0.96663512905E+02 -0.32375838868E+03 -0.37218718393E+02  0.33992434741E+03  0.00000000000E+00 0.  1.
         22    1    5    5    0    0 -0.97927768428E+02  0.33431329528E+03 -0.55598588878E+03  0.65610634485E+03  0.00000000000E+00 0.  1.
          5    1    4    4  502    0 -0.43337129477E+02 -0.25357701873E+02 -0.72378564654E+02  0.88214887956E+02  0.47000000000E+01 0.  1.
         -5    1    4    4    0  502  0.44601385001E+02  0.14802795273E+02 -0.32540958992E+03  0.32881894335E+03  0.47000000000E+01 0.  1.
<mgrwt>
<rscale>  0 0.10073156E+04</rscale>
<asrwt>0</asrwt>
<pdfrwt beam="1">  1        3 0.32467058E-01 0.10073156E+04</pdfrwt>
<pdfrwt beam="2">  1       -3 0.18492748E+00 0.10073156E+04</pdfrwt>
<totfact> 0.49455260E+00</totfact>
</mgrwt>
</event>
<event>
 9    1  0.4412976E-036  0.9954018E+03  0.7818608E-02  0.8685429E-01
         -2   -1    0    0    0  501 -0.00000000000E+00  0.00000000000E+00  0.41059322649E+03  0.41059322649E+03  0.00000000000E+00 0. -1.
          2   -1    0    0  501    0  0.00000000000E+00 -0.00000000000E+00 -0.60328855888E+03  0.60328855888E+03  0.00000000000E+00 0. -1.
         36    2    1    2    0    0  0.00000000000E+00  0.00000000000E+00 -0.19269533239E+03  0.10138817854E+04  0.99540182016E+03 0.  0.
         25    2    3    3    0    0 -0.64751665742E+02 -0.37740097142E+02 -0.14850463806E+03  0.20847926099E+03  0.12566973220E+03 0.  0.
         35    2    3    3    0    0  0.64751665742E+02  0.37740097142E+02 -0.44190694326E+02  0.80540252438E+03  0.80068927535E+03 0.  0.
         22    1    5    5    0    0 -0.19945336474E+03 -0.47910642634E+02 -0.34160957093E+03  0.39846477051E+03  0.00000000000E+00 0.  1.
         22    1    5    5    0    0  0.26420503049E+03  0.85650739776E+02  0.29741887661E+03  0.40693775387E+03  0.00000000000E+00 0.  1.
          5    1    4    4  502    0 -0.66056855382E+02 -0.70783745118E+02 -0.60289785043E+02  0.11415250718E+03  0.47000000000E+01 0.  1.
         -5    1    4    4    0  502  0.13051896397E+01  0.33043647976E+02 -0.88214853017E+02  0.94326753810E+02  0.47000000000E+01 0.  1.
<mgrwt>
<rscale>  0 0.99540182E+03</rscale>
<asrwt>0</asrwt>
<pdfrwt beam="1">  1        2 0.92813625E-01 0.99540182E+03</pdfrwt>
<pdfrwt beam="2">  1       -2 0.63168188E-01 0.99540182E+03</pdfrwt>
<totfact> 0.13835690E+02</totfact>
</mgrwt>
</event>
<event>
 9    1  0.4412976E-036  0.9999241E+03  0.7818608E-02  0.8681110E-01
         -2   -1    0    0    0  501 -0.00000000000E+00  0.00000000000E+00  0.29856630820E+03  0.29856630820E+03  0.00000000000E+00 0. -1.
          2   -1    0    0  501    0  0.00000000000E+00 -0.00000000000E+00 -0.83720780061E+03  0.83720780061E+03  0.00000000000E+00 0. -1.
         36    2    1    2    0    0  0.71054273576E-14  0.71054273576E-14 -0.53864149240E+03  0.11357741088E+04  0.99992408157E+03 0.  0.
         25    2    3    3    0    0  0.29544109155E+02  0.27489406641E+02 -0.25377661215E+03  0.28564417682E+03  0.12474576151E+03 0.  0.
         35    2    3    3    0    0 -0.29544109155E+02 -0.27489406641E+02 -0.28486488025E+03  0.85012993199E+03  0.79996523637E+03 0.  0.
         22    1    5    5    0    0  0.19541651248E+03  0.21747329377E+03  0.12868023748E+03  0.31943833579E+03  0.00000000000E+00 0. -1.
         22    1    5    5    0    0 -0.22496062164E+03 -0.24496270041E+03 -0.41354511773E+03  0.53069159620E+03  0.00000000000E+00 0. -1.
          5    1    4    4  502    0  0.62070102979E+02  0.28258553832E+02 -0.66037677409E+02  0.95048978880E+02  0.47000000000E+01 0.  1.
         -5    1    4    4    0  502 -0.32525993824E+02 -0.76914719154E+00 -0.18773893474E+03  0.19059519794E+03  0.47000000000E+01 0.  1.
<mgrwt>
<rscale>  0 0.99992408E+03</rscale>
<asrwt>0</asrwt>
<pdfrwt beam="1">  1        2 0.12880120E+00 0.99992408E+03</pdfrwt>
<pdfrwt beam="2">  1       -2 0.45933278E-01 0.99992408E+03</pdfrwt>
<totfact> 0.17622396E+02</totfact>
</mgrwt>
</event>
<event>
 9    1  0.4412976E-036  0.1000196E+04  0.7818608E-02  0.8680852E-01
          2   -1    0    0  501    0  0.00000000000E+00  0.00000000000E+00  0.20823098719E+03  0.20823098719E+03  0.00000000000E+00 0.  1.
         -2   -1    0    0    0  501 -0.00000000000E+00 -0.00000000000E+00 -0.12010593955E+04  0.12010593955E+04  0.00000000000E+00 0.  1.
         36    2    1    2    0    0  0.00000000000E+00  0.35527136788E-14 -0.99282840828E+03  0.14092903827E+04  0.10001955481E+04 0.  0.
         25    2    3    3    0    0  0.13485093594E+03 -0.21921166534E+01 -0.24739275141E+03  0.30732152142E+03  0.12269378053E+03 0.  0.
         35    2    3    3    0    0 -0.13485093594E+03  0.21921166534E+01 -0.74543565687E+03  0.11019688612E+04  0.80029461593E+03 0.  0.
         22    1    5    5    0    0  0.16493220910E+03 -0.11217590147E+03  0.81114075397E+02  0.21532663489E+03  0.00000000000E+00 0. -1.
         22    1    5    5    0    0 -0.29978314504E+03  0.11436801812E+03 -0.82654973227E+03  0.88664222634E+03  0.00000000000E+00 0. -1.
          5    1    4    4  502    0  0.12389432182E+03 -0.33010073359E+02 -0.11986517066E+03  0.17558250784E+03  0.47000000000E+01 0. -1.
         -5    1    4    4    0  502  0.10956614122E+02  0.30817956706E+02 -0.12752758075E+03  0.13173901358E+03  0.47000000000E+01 0. -1.
<mgrwt>
<rscale>  0 0.10001955E+04</rscale>
<asrwt>0</asrwt>
<pdfrwt beam="1">  1        2 0.32035536E-01 0.10001955E+04</pdfrwt>
<pdfrwt beam="2">  1       -2 0.18477837E+00 0.10001955E+04</pdfrwt>
<totfact> 0.30574874E+01</totfact>
</mgrwt>
</event>
<event>
 9    1  0.4412976E-036  0.1000180E+04  0.7818608E-02  0.8680867E-01
          2   -1    0    0  501    0  0.00000000000E+00  0.00000000000E+00  0.17328185940E+04  0.17328185940E+04  0.00000000000E+00 0.  1.
         -2   -1    0    0    0  501 -0.00000000000E+00 -0.00000000000E+00 -0.14432554566E+03  0.14432554566E+03  0.00000000000E+00 0.  1.
         36    2    1    2    0    0  0.00000000000E+00  0.28421709430E-13  0.15884930484E+04  0.18771441397E+04  0.10001799620E+04 0.  0.
         25    2    3    3    0    0  0.51926383265E+02  0.12803532853E+03  0.24775348454E+03  0.30963224981E+03  0.12410054953E+03 0.  0.
         35    2    3    3    0    0 -0.51926383265E+02 -0.12803532853E+03  0.13407395638E+04  0.15675118899E+04  0.80026342679E+03 0.  0.
         22    1    5    5    0    0 -0.11836823664E+03 -0.42850761335E+03  0.48399196713E+03  0.65717428312E+03  0.00000000000E+00 0. -1.
         22    1    5    5    0    0  0.66441853377E+02  0.30047228482E+03  0.85674759670E+03  0.91033760676E+03  0.00000000000E+00 0. -1.
          5    1    4    4  502    0  0.22842087537E+02 -0.26607609443E+01 -0.46010734446E+01  0.23918622216E+02  0.47000000000E+01 0.  1.
         -5    1    4    4    0  502  0.29084295727E+02  0.13069608947E+03  0.25235455798E+03  0.28571362760E+03  0.47000000000E+01 0.  1.
<mgrwt>
<rscale>  0 0.10001800E+04</rscale>
<asrwt>0</asrwt>
<pdfrwt beam="1">  1        2 0.26658746E+00 0.10001800E+04</pdfrwt>
<pdfrwt beam="2">  1       -2 0.22203931E-01 0.10001800E+04</pdfrwt>
<totfact> 0.19795042E+02</totfact>
</mgrwt>
</event>
<event>
 9    1  0.4412976E-036  0.1000191E+04  0.7818608E-02  0.8680857E-01
         -2   -1    0    0    0  501 -0.00000000000E+00  0.00000000000E+00  0.13584483233E+03  0.13584483233E+03  0.00000000000E+00 0.  1.
          2   -1    0    0  501    0  0.00000000000E+00 -0.00000000000E+00 -0.18410364136E+04  0.18410364136E+04  0.00000000000E+00 0.  1.
         36    2    1    2    0    0 -0.28421709430E-13 -0.28421709430E-13 -0.17051915813E+04  0.19768812460E+04  0.10001905477E+04 0.  0.
         25    2    3    3    0    0 -0.10631006444E+03 -0.91278837045E+02 -0.33216721430E+03  0.38164562160E+03  0.12523843792E+03 0.  0.
         35    2    3    3    0    0  0.10631006444E+03  0.91278837045E+02 -0.13730243670E+04  0.15952356244E+04  0.79996695493E+03 0.  0.
         22    1    5    5    0    0 -0.22158416814E+03 -0.23881625995E+03 -0.74958588239E+03  0.81731985456E+03  0.00000000000E+00 0. -1.
         22    1    5    5    0    0  0.32789423258E+03  0.33009509699E+03 -0.62343848462E+03  0.77791576981E+03  0.00000000000E+00 0. -1.
          5    1    4    4  502    0 -0.61565392666E+02  0.15957925174E+02 -0.69159635711E+02  0.94074960333E+02  0.47000000000E+01 0.  1.
         -5    1    4    4    0  502 -0.44744671776E+02 -0.10723676222E+03 -0.26300757859E+03  0.28757066126E+03  0.47000000000E+01 0.  1.
<mgrwt>
<rscale>  0 0.10001905E+04</rscale>
<asrwt>0</asrwt>
<pdfrwt beam="1">  1        2 0.28323637E+00 0.10001905E+04</pdfrwt>
<pdfrwt beam="2">  1       -2 0.20899205E-01 0.10001905E+04</pdfrwt>
<totfact> 0.19115212E+02</totfact>
</mgrwt>
</event>
<event>
 9    1  0.4412976E-036  0.9985688E+03  0.7818608E-02  0.8682402E-01
          1   -1    0    0  501    0  0.00000000000E+00  0.00000000000E+00  0.34742260133E+03  0.34742260133E+03  0.00000000000E+00 0.  1.
         -1   -1    0    0    0  501 -0.00000000000E+00 -0.00000000000E+00 -0.71752645483E+03  0.71752645483E+03  0.00000000000E+00 0.  1.
         36    2    1    2    0    0  0.00000000000E+00  0.00000000000E+00 -0.37010385350E+03  0.10649490562E+04  0.99856879073E+03 0.  0.
         25    2    3    3    0    0  0.64443282365E+02  0.55213037649E+02  0.48755884347E+02  0.15722719845E+03  0.12305218204E+03 0.  0.
         35    2    3    3    0    0 -0.64443282365E+02 -0.55213037649E+02 -0.41885973785E+03  0.90772185771E+03  0.80082087560E+03 0.  0.
         22    1    5    5    0    0 -0.38874511257E+03  0.15352805834E+03 -0.18864715188E+03  0.45856447219E+03  0.00000000000E+00 0.  1.
         22    1    5    5    0    0  0.32430183020E+03 -0.20874109599E+03 -0.23021258597E+03  0.44915738552E+03  0.00000000000E+00 0.  1.
          5    1    4    4  502    0 -0.28788166474E+02 -0.14411141373E+02  0.54903422689E+01  0.32995050884E+02  0.47000000000E+01 0.  1.
         -5    1    4    4    0  502  0.93231448839E+02  0.69624179021E+02  0.43265542078E+02  0.12423214756E+03  0.47000000000E+01 0.  1.
<mgrwt>
<rscale>  0 0.99856879E+03</rscale>
<asrwt>0</asrwt>
<pdfrwt beam="1">  1        1 0.53449631E-01 0.99856879E+03</pdfrwt>
<pdfrwt beam="2">  1       -1 0.11038868E+00 0.99856879E+03</pdfrwt>
<totfact> 0.65840856E+01</totfact>
</mgrwt>
</event>
<event>
 9    1  0.4412976E-036  0.1000096E+04  0.7818608E-02  0.8680947E-01
         -2   -1    0    0    0  501 -0.00000000000E+00  0.00000000000E+00  0.48129578573E+03  0.48129578573E+03  0.00000000000E+00 0. -1.
          2   -1    0    0  501    0  0.00000000000E+00 -0.00000000000E+00 -0.51953069506E+03  0.51953069506E+03  0.00000000000E+00 0. -1.
         36    2    1    2    0    0  0.00000000000E+00 -0.28421709430E-13 -0.38234909332E+02  0.10008264808E+04  0.10000958636E+04 0.  0.
         25    2    3    3    0    0 -0.16922934636E+02  0.13120615291E+03 -0.74461904752E+02  0.18912189189E+03  0.11278774071E+03 0.  0.
         35    2    3    3    0    0  0.16922934636E+02 -0.13120615291E+03  0.36226995420E+02  0.81170458891E+03  0.80003156449E+03 0.  0.
         22    1    5    5    0    0  0.10298512288E+03 -0.39895875946E+03 -0.18714790978E+03  0.45254653619E+03  0.00000000000E+00 0. -1.
         22    1    5    5    0    0 -0.86062188240E+02  0.26775260655E+03  0.22337490520E+03  0.35915805271E+03  0.00000000000E+00 0. -1.
          5    1    4    4  502    0  0.35744539250E+02  0.10129734939E+03 -0.24047010665E+02  0.11017791885E+03  0.47000000000E+01 0.  1.
         -5    1    4    4    0  502 -0.52667473886E+02  0.29908803520E+02 -0.50414894087E+02  0.78943973040E+02  0.47000000000E+01 0.  1.
<mgrwt>
<rscale>  0 0.10000959E+04</rscale>
<asrwt>0</asrwt>
<pdfrwt beam="1">  1        2 0.79927800E-01 0.10000959E+04</pdfrwt>
<pdfrwt beam="2">  1       -2 0.74045505E-01 0.10000959E+04</pdfrwt>
<totfact> 0.11689553E+02</totfact>
</mgrwt>
</event>
<event>
 9    1  0.4412976E-036  0.1000180E+04  0.7818608E-02  0.8680867E-01
         -1   -1    0    0    0  501 -0.00000000000E+00  0.00000000000E+00  0.51110152666E+03  0.51110152666E+03  0.00000000000E+00 0. -1.
          1   -1    0    0  501    0  0.00000000000E+00 -0.00000000000E+00 -0.48931559846E+03  0.48931559846E+03  0.00000000000E+00 0. -1.
         36    2    1    2    0    0 -0.28421709430E-13  0.14210854715E-13  0.21785928201E+02  0.10004171251E+04  0.10001798826E+04 0.  0.
         25    2    3    3    0    0 -0.97308107811E+02  0.48523042169E+02 -0.84192386289E+02  0.18637402046E+03  0.12579174903E+03 0.  0.
         35    2    3    3    0    0  0.97308107811E+02 -0.48523042169E+02  0.10597831449E+03  0.81404310467E+03  0.79975710041E+03 0.  0.
         22    1    5    5    0    0  0.39314792065E+03  0.17908538344E+03  0.84196562252E+02  0.44014307124E+03  0.00000000000E+00 0.  1.
         22    1    5    5    0    0 -0.29583981283E+03 -0.22760842561E+03  0.21781752237E+02  0.37390003343E+03  0.00000000000E+00 0.  1.
          5    1    4    4  502    0  0.20717852007E+01  0.19881727314E+02  0.27341933779E+02  0.34194249775E+02  0.47000000000E+01 0.  1.
         -5    1    4    4    0  502 -0.99379893012E+02  0.28641314855E+02 -0.11153432007E+03  0.15217977068E+03  0.47000000000E+01 0.  1.
<mgrwt>
<rscale>  0 0.10001799E+04</rscale>
<asrwt>0</asrwt>
<pdfrwt beam="1">  1        1 0.75279323E-01 0.10001799E+04</pdfrwt>
<pdfrwt beam="2">  1       -1 0.78631004E-01 0.10001799E+04</pdfrwt>
<totfact> 0.87333356E+01</totfact>
</mgrwt>
</event>
<event>
 9    1  0.4412976E-036  0.1002656E+04  0.7818608E-02  0.8678513E-01
          2   -1    0    0  501    0  0.00000000000E+00  0.00000000000E+00  0.12945277384E+04  0.12945277384E+04  0.00000000000E+00 0. -1.
         -2   -1    0    0    0  501 -0.00000000000E+00 -0.00000000000E+00 -0.19414788026E+03  0.19414788026E+03  0.00000000000E+00 0. -1.
         36    2    1    2    0    0  0.42632564146E-13  0.00000000000E+00  0.11003798582E+04  0.14886756187E+04  0.10026561053E+04 0.  0.
         25    2    3    3    0    0  0.60685962642E+02 -0.12215830687E+03  0.21781703961E+03  0.28638628141E+03  0.12636218357E+03 0.  0.
         35    2    3    3    0    0 -0.60685962642E+02  0.12215830687E+03  0.88256281856E+03  0.12022893373E+04  0.80497023786E+03 0.  0.
         22    1    5    5    0    0  0.35253365812E+03 -0.53218214020E+02  0.29422187423E+03  0.46225390176E+03  0.00000000000E+00 0. -1.
         22    1    5    5    0    0 -0.41321962076E+03  0.17537652089E+03  0.58834094433E+03  0.74003543553E+03  0.00000000000E+00 0. -1.
          5    1    4    4  502    0  0.94098655922E+02 -0.73920156151E+02  0.18074829611E+03  0.21681970178E+03  0.47000000000E+01 0.  1.
         -5    1    4    4    0  502 -0.33412693280E+02 -0.48238150719E+02  0.37068743498E+02  0.69566579631E+02  0.47000000000E+01 0.  1.
<mgrwt>
<rscale>  0 0.10026561E+04</rscale>
<asrwt>0</asrwt>
<pdfrwt beam="1">  1        2 0.19915811E+00 0.10026561E+04</pdfrwt>
<pdfrwt beam="2">  1       -2 0.29868905E-01 0.10026561E+04</pdfrwt>
<totfact> 0.20692637E+02</totfact>
</mgrwt>
</event>
<event>
 9    1 -0.4412976E-036  0.1001387E+04  0.7818608E-02  0.8679718E-01
         -1   -1    0    0    0  501 -0.00000000000E+00  0.00000000000E+00  0.31571253222E+04  0.31571253222E+04  0.00000000000E+00 0. -1.
          1   -1    0    0  501    0  0.00000000000E+00 -0.00000000000E+00 -0.79405810868E+02  0.79405810868E+02  0.00000000000E+00 0. -1.
         36    2    1    2    0    0  0.28421709430E-13 -0.14210854715E-13  0.30777195113E+04  0.32365311331E+04  0.10013872302E+04 0.  0.
         25    2    3    3    0    0 -0.91450739588E+02 -0.43189457748E+02  0.90976718902E+03  0.92381914312E+03  0.12464711764E+03 0.  0.
         35    2    3    3    0    0  0.91450739588E+02  0.43189457748E+02  0.21679523223E+04  0.23127119899E+04  0.79899368560E+03 0.  0.
         22    1    5    5    0    0 -0.24279501310E+03 -0.18990305968E+03  0.43913225539E+03  0.53651628884E+03  0.00000000000E+00 0.  1.
         22    1    5    5    0    0  0.33424575269E+03  0.23309251743E+03  0.17288200669E+04  0.17761957011E+04  0.00000000000E+00 0.  1.
          5    1    4    4  502    0 -0.14093990918E+02  0.27700007062E+01  0.71554455100E+01  0.16721360123E+02  0.47000000000E+01 0.  1.
         -5    1    4    4    0  502 -0.77356748670E+02 -0.45959458454E+02  0.90261174351E+03  0.90709778300E+03  0.47000000000E+01 0.  1.
<mgrwt>
<rscale>  0 0.10013872E+04</rscale>
<asrwt>0</asrwt>
<pdfrwt beam="1">  1        1 0.12216281E-01 0.10013872E+04</pdfrwt>
<pdfrwt beam="2">  1       -1 0.48571149E+00 0.10013872E+04</pdfrwt>
<totfact>-0.29395584E+00</totfact>
</mgrwt>
</event>
<event>
 9    1  0.4412976E-036  0.1001729E+04  0.7818608E-02  0.8679394E-01
          2   -1    0    0  501    0  0.00000000000E+00  0.00000000000E+00  0.88685665089E+03  0.88685665089E+03  0.00000000000E+00 0. -1.
         -2   -1    0    0    0  501 -0.00000000000E+00 -0.00000000000E+00 -0.28286991331E+03  0.28286991331E+03  0.00000000000E+00 0. -1.
         36    2    1    2    0    0  0.00000000000E+00 -0.63948846218E-13  0.60398673758E+03  0.11697265642E+04  0.10017286338E+04 0.  0.
         25    2    3    3    0    0  0.11978903323E+03 -0.46062217245E+02  0.18684316671E+03  0.25871079758E+03  0.12469870689E+03 0.  0.
         35    2    3    3    0    0 -0.11978903323E+03  0.46062217245E+02  0.41714357087E+03  0.91101576661E+03  0.79966857382E+03 0.  0.
         22    1    5    5    0    0 -0.48887382507E+02 -0.37208355002E+03  0.26915730522E+03  0.46182442478E+03  0.00000000000E+00 0. -1.
         22    1    5    5    0    0 -0.70901650722E+02  0.41814576727E+03  0.14798626565E+03  0.44919134184E+03  0.00000000000E+00 0. -1.
          5    1    4    4  502    0 -0.24925325954E+02 -0.36303253804E+01  0.44126209643E+02  0.51026106198E+02  0.47000000000E+01 0. -1.
         -5    1    4    4    0  502  0.14471435918E+03 -0.42431891864E+02  0.14271695706E+03  0.20768469138E+03  0.47000000000E+01 0. -1.
<mgrwt>
<rscale>  0 0.10017286E+04</rscale>
<asrwt>0</asrwt>
<pdfrwt beam="1">  1        2 0.13643948E+00 0.10017286E+04</pdfrwt>
<pdfrwt beam="2">  1       -2 0.43518449E-01 0.10017286E+04</pdfrwt>
<totfact> 0.18134168E+02</totfact>
</mgrwt>
</event>
<event>
 9    1  0.4412976E-036  0.1000188E+04  0.7818608E-02  0.8680859E-01
         -2   -1    0    0    0  501 -0.00000000000E+00  0.00000000000E+00  0.25825198831E+03  0.25825198831E+03  0.00000000000E+00 0. -1.
          2   -1    0    0  501    0  0.00000000000E+00 -0.00000000000E+00 -0.96841058417E+03  0.96841058417E+03  0.00000000000E+00 0. -1.
         36    2    1    2    0    0  0.14210854715E-13 -0.56843418861E-13 -0.71015859586E+03  0.12266625725E+04  0.10001879001E+04 0.  0.
         25    2    3    3    0    0  0.90736920954E+01  0.14041756633E+03 -0.85895867221E+02  0.20618934012E+03  0.12384070071E+03 0.  0.
         35    2    3    3    0    0 -0.90736920954E+01 -0.14041756633E+03 -0.62426272864E+03  0.10204732324E+04  0.79489762786E+03 0.  0.
         22    1    5    5    0    0  0.32906057504E+03 -0.12542266086E+03 -0.58080978475E+03  0.67922876261E+03  0.00000000000E+00 0.  1.
         22    1    5    5    0    0 -0.33813426714E+03 -0.14994905468E+02 -0.43452943893E+02  0.34124446975E+03  0.00000000000E+00 0.  1.
          5    1    4    4  502    0 -0.22064102103E+02  0.46010548148E+01  0.20486366624E+02  0.30818428326E+02  0.47000000000E+01 0.  1.
         -5    1    4    4    0  502  0.31137794198E+02  0.13581651151E+03 -0.10638223385E+03  0.17537091180E+03  0.47000000000E+01 0.  1.
<mgrwt>
<rscale>  0 0.10001879E+04</rscale>
<asrwt>0</asrwt>
<pdfrwt beam="1">  1        2 0.14898624E+00 0.10001879E+04</pdfrwt>
<pdfrwt beam="2">  1       -2 0.39731076E-01 0.10001879E+04</pdfrwt>
<totfact> 0.19133035E+02</totfact>
</mgrwt>
</event>
<event>
 9    1  0.4412976E-036  0.9987229E+03  0.7818608E-02  0.8682255E-01
         -1   -1    0    0    0  501 -0.00000000000E+00  0.00000000000E+00  0.41424202528E+03  0.41424202528E+03  0.00000000000E+00 0. -1.
          1   -1    0    0  501    0  0.00000000000E+00 -0.00000000000E+00 -0.60197138059E+03  0.60197138059E+03  0.00000000000E+00 0. -1.
         36    2    1    2    0    0  0.00000000000E+00 -0.35527136788E-14 -0.18772935531E+03  0.10162134059E+04  0.99872287219E+03 0.  0.
         25    2    3    3    0    0  0.94542561995E+02 -0.51738075168E+01 -0.13652735756E+03  0.20785650429E+03  0.12489812929E+03 0.  0.
         35    2    3    3    0    0 -0.94542561995E+02  0.51738075168E+01 -0.51201997757E+02  0.80835690159E+03  0.80115801903E+03 0.  0.
         22    1    5    5    0    0  0.34007489831E+03  0.10528756217E+03 -0.66211273141E+02  0.36210542650E+03  0.00000000000E+00 0.  1.
         22    1    5    5    0    0 -0.43461746030E+03 -0.10011375465E+03  0.15009275384E+02  0.44625147509E+03  0.00000000000E+00 0.  1.
          5    1    4    4  502    0  0.12117393969E+03 -0.23264587719E+02 -0.99595954577E+02  0.15863735017E+03  0.47000000000E+01 0. -1.
         -5    1    4    4    0  502 -0.26631377690E+02  0.18090780202E+02 -0.36931402979E+02  0.49219154118E+02  0.47000000000E+01 0. -1.
<mgrwt>
<rscale>  0 0.99872287E+03</rscale>
<asrwt>0</asrwt>
<pdfrwt beam="1">  1        1 0.92610981E-01 0.99872287E+03</pdfrwt>
<pdfrwt beam="2">  1       -1 0.63729543E-01 0.99872287E+03</pdfrwt>
<totfact> 0.99026226E+01</totfact>
</mgrwt>
</event>
<event>
 9    1  0.4412976E-036  0.1000222E+04  0.7818608E-02  0.8680826E-01
          2   -1    0    0  501    0  0.00000000000E+00  0.00000000000E+00  0.47392467716E+03  0.47392467716E+03  0.00000000000E+00 0.  1.
         -2   -1    0    0    0  501 -0.00000000000E+00 -0.00000000000E+00 -0.52774455943E+03  0.52774455943E+03  0.00000000000E+00 0.  1.
         36    2    1    2    0    0 -0.28421709430E-13 -0.71054273576E-14 -0.53819882276E+02  0.10016692366E+04  0.10002223152E+04 0.  0.
         25    2    3    3    0    0 -0.13648307749E+03  0.22733642283E+02 -0.19531904518E+02  0.18896247320E+03  0.12720405675E+03 0.  0.
         35    2    3    3    0    0  0.13648307749E+03 -0.22733642283E+02 -0.34287977758E+02  0.81270676339E+03  0.80010759833E+03 0.  0.
         22    1    5    5    0    0  0.37794338732E+03 -0.21486958437E+03  0.14196109153E+03  0.45734351839E+03  0.00000000000E+00 0. -1.
         22    1    5    5    0    0 -0.24146030984E+03  0.19213594208E+03 -0.17624906929E+03  0.35536324499E+03  0.00000000000E+00 0. -1.
          5    1    4    4  502    0 -0.45486909252E+02 -0.11846532064E+02 -0.65862710195E+02  0.81051747849E+02  0.47000000000E+01 0.  1.
         -5    1    4    4    0  502 -0.90996168234E+02  0.34580174347E+02  0.46330805677E+02  0.10791072535E+03  0.47000000000E+01 0.  1.
<mgrwt>
<rscale>  0 0.10002223E+04</rscale>
<asrwt>0</asrwt>
<pdfrwt beam="1">  1        2 0.72911489E-01 0.10002223E+04</pdfrwt>
<pdfrwt beam="2">  1       -2 0.81191471E-01 0.10002223E+04</pdfrwt>
<totfact> 0.10544428E+02</totfact>
</mgrwt>
</event>
<event>
 9    1  0.4412976E-036  0.1002937E+04  0.7818608E-02  0.8678246E-01
          2   -1    0    0  501    0  0.00000000000E+00  0.00000000000E+00  0.46399495919E+03  0.46399495919E+03  0.00000000000E+00 0.  1.
         -2   -1    0    0    0  501 -0.00000000000E+00 -0.00000000000E+00 -0.54196821911E+03  0.54196821911E+03  0.00000000000E+00 0.  1.
         36    2    1    2    0    0  0.00000000000E+00  0.28421709430E-13 -0.77973259922E+02  0.10059631783E+04  0.10029367312E+04 0.  0.
         25    2    3    3    0    0 -0.28541377723E+02 -0.12212141086E+03  0.59508777122E+02  0.18650060854E+03  0.12455092614E+03 0.  0.
         35    2    3    3    0    0  0.28541377723E+02  0.12212141086E+03 -0.13748203704E+03  0.81946256975E+03  0.79805347157E+03 0.  0.
         22    1    5    5    0    0  0.17466901674E+02 -0.32820725937E+03 -0.16577129692E+03  0.36811033759E+03  0.00000000000E+00 0. -1.
         22    1    5    5    0    0  0.11074476049E+02  0.45032867023E+03  0.28289259880E+02  0.45135223216E+03  0.00000000000E+00 0. -1.
          5    1    4    4  502    0 -0.11222924962E+02  0.25296017774E+02  0.12545595680E+02  0.30746130340E+02  0.47000000000E+01 0. -1.
         -5    1    4    4    0  502 -0.17318452762E+02 -0.14741742863E+03  0.46963181442E+02  0.15575447820E+03  0.47000000000E+01 0. -1.
<mgrwt>
<rscale>  0 0.10029367E+04</rscale>
<asrwt>0</asrwt>
<pdfrwt beam="1">  1        2 0.71383840E-01 0.10029367E+04</pdfrwt>
<pdfrwt beam="2">  1       -2 0.83379726E-01 0.10029367E+04</pdfrwt>
<totfact> 0.10151956E+02</totfact>
</mgrwt>
</event>
<event>
 9    1  0.4412976E-036  0.1002904E+04  0.7818608E-02  0.8678277E-01
          3   -1    0    0  501    0  0.00000000000E+00  0.00000000000E+00  0.69521415602E+03  0.69521415602E+03  0.00000000000E+00 0.  1.
         -3   -1    0    0    0  501 -0.00000000000E+00 -0.00000000000E+00 -0.36169335436E+03  0.36169335436E+03  0.00000000000E+00 0.  1.
         36    2    1    2    0    0 -0.14210854715E-13 -0.71054273576E-14  0.33352080166E+03  0.10569075104E+04  0.10029044622E+04 0.  0.
         25    2    3    3    0    0 -0.95506180821E+02  0.63891133809E+02 -0.26565441741E+02  0.17169487864E+03  0.12477940977E+03 0.  0.
         35    2    3    3    0    0  0.95506180821E+02 -0.63891133809E+02  0.36008624340E+03  0.88521263174E+03  0.80045973862E+03 0.  0.
         22    1    5    5    0    0  0.11735170704E+03 -0.16458799835E+02  0.61433337525E+03  0.62565790268E+03  0.00000000000E+00 0. -1.
         22    1    5    5    0    0 -0.21845526223E+02 -0.47432333974E+02 -0.25424713185E+03  0.25955472906E+03  0.00000000000E+00 0. -1.
          5    1    4    4  502    0 -0.80583737635E+02  0.40610722829E+01 -0.60681286637E+02  0.10106700563E+03  0.47000000000E+01 0.  1.
         -5    1    4    4    0  502 -0.14922443186E+02  0.59830061526E+02  0.34115844897E+02  0.70627873010E+02  0.47000000000E+01 0.  1.
<mgrwt>
<rscale>  0 0.10029045E+04</rscale>
<asrwt>0</asrwt>
<pdfrwt beam="1">  1        3 0.10695602E+00 0.10029045E+04</pdfrwt>
<pdfrwt beam="2">  1       -3 0.55645132E-01 0.10029045E+04</pdfrwt>
<totfact> 0.98792122E+00</totfact>
</mgrwt>
</event>
<event>
 9    1  0.4412976E-036  0.9989079E+03  0.7818608E-02  0.8682079E-01
          1   -1    0    0  501    0  0.00000000000E+00  0.00000000000E+00  0.55572276005E+03  0.55572276005E+03  0.00000000000E+00 0. -1.
         -1   -1    0    0    0  501 -0.00000000000E+00 -0.00000000000E+00 -0.44888252857E+03  0.44888252857E+03  0.00000000000E+00 0. -1.
         36    2    1    2    0    0 -0.14210854715E-13  0.00000000000E+00  0.10684023147E+03  0.10046052886E+04  0.99890787906E+03 0.  0.
         25    2    3    3    0    0  0.60703993502E+02 -0.12145464664E+03  0.77294250023E+01  0.18665217574E+03  0.12784007462E+03 0.  0.
         35    2    3    3    0    0 -0.60703993502E+02  0.12145464664E+03  0.99110806473E+02  0.81795311288E+03  0.80049243400E+03 0.  0.
         22    1    5    5    0    0  0.22072885309E+03  0.12542285748E+03  0.35575486012E+03  0.43705107283E+03  0.00000000000E+00 0. -1.
         22    1    5    5    0    0 -0.28143284659E+03 -0.39682108419E+01 -0.25664405365E+03  0.38090204004E+03  0.00000000000E+00 0. -1.
          5    1    4    4  502    0  0.15641601352E+02 -0.52305609801E+02  0.65797279411E+02  0.85626564146E+02  0.47000000000E+01 0.  1.
         -5    1    4    4    0  502  0.45062392149E+02 -0.69149036839E+02 -0.58067854409E+02  0.10102561159E+03  0.47000000000E+01 0.  1.
<mgrwt>
<rscale>  0 0.99890788E+03</rscale>
<asrwt>0</asrwt>
<pdfrwt beam="1">  1        1 0.85495809E-01 0.99890788E+03</pdfrwt>
<pdfrwt beam="2">  1       -1 0.69058851E-01 0.99890788E+03</pdfrwt>
<totfact> 0.94965084E+01</totfact>
</mgrwt>
</event>
<event>
 9    1  0.4412976E-036  0.9996585E+03  0.7818608E-02  0.8681363E-01
         -2   -1    0    0    0  501 -0.00000000000E+00  0.00000000000E+00  0.17649405478E+03  0.17649405478E+03  0.00000000000E+00 0. -1.
          2   -1    0    0  501    0  0.00000000000E+00 -0.00000000000E+00 -0.14155110298E+04  0.14155110298E+04  0.00000000000E+00 0. -1.
         36    2    1    2    0    0  0.00000000000E+00  0.00000000000E+00 -0.12390169750E+04  0.15920050846E+04  0.99965850415E+03 0.  0.
         25    2    3    3    0    0 -0.13583962335E+03  0.44472582810E+02 -0.26730413653E+03  0.32967125305E+03  0.12962029081E+03 0.  0.
         35    2    3    3    0    0  0.13583962335E+03 -0.44472582810E+02 -0.97171283849E+03  0.12623338315E+04  0.79298842855E+03 0.  0.
         22    1    5    5    0    0 -0.31211999221E+03  0.28355712288E+02 -0.21535845625E+03  0.38026596039E+03  0.00000000000E+00 0. -1.
         22    1    5    5    0    0  0.44795961556E+03 -0.72828295098E+02 -0.75635438224E+03  0.88206787113E+03  0.00000000000E+00 0. -1.
          5    1    4    4  502    0 -0.34204910752E+02  0.71185513284E+02 -0.68056559280E+02  0.10436061749E+03  0.47000000000E+01 0. -1.
         -5    1    4    4    0  502 -0.10163471260E+03 -0.26712930475E+02 -0.19924757725E+03  0.22531063557E+03  0.47000000000E+01 0. -1.
<mgrwt>
<rscale>  0 0.99965850E+03</rscale>
<asrwt>0</asrwt>
<pdfrwt beam="1">  1        2 0.21777093E+00 0.99965850E+03</pdfrwt>
<pdfrwt beam="2">  1       -2 0.27152932E-01 0.99965850E+03</pdfrwt>
<totfact> 0.20947231E+02</totfact>
</mgrwt>
</event>
<event>
 9    1  0.4412976E-036  0.1003709E+04  0.7818608E-02  0.8677514E-01
         -2   -1    0    0    0  501 -0.00000000000E+00  0.00000000000E+00  0.11603231944E+03  0.11603231944E+03  0.00000000000E+00 0. -1.
          2   -1    0    0  501    0  0.00000000000E+00 -0.00000000000E+00 -0.21705837976E+04  0.21705837976E+04  0.00000000000E+00 0. -1.
         36    2    1    2    0    0  0.28421709430E-13  0.42632564146E-13 -0.20545514782E+04  0.22866161171E+04  0.10037088673E+04 0.  0.
         25    2    3    3    0    0 -0.38050155797E+02  0.41334257454E+01 -0.74970943772E+02  0.15079288161E+03  0.12511175473E+03 0.  0.
         35    2    3    3    0    0  0.38050155797E+02 -0.41334257454E+01 -0.19795805344E+04  0.21358232354E+04  0.80095998732E+03 0.  0.
         22    1    5    5    0    0 -0.27035474052E+03  0.25695878682E+03 -0.68923661476E+03  0.78368783006E+03  0.00000000000E+00 0. -1.
         22    1    5    5    0    0  0.30840489632E+03 -0.26109221257E+03 -0.12903439196E+04  0.13521354054E+04  0.00000000000E+00 0. -1.
          5    1    4    4  502    0 -0.73463826223E+02 -0.29531506261E+02 -0.60061990884E+02  0.99491589465E+02  0.47000000000E+01 0.  1.
         -5    1    4    4    0  502  0.35413670426E+02  0.33664932006E+02 -0.14908952888E+02  0.51301292150E+02  0.47000000000E+01 0.  1.
<mgrwt>
<rscale>  0 0.10037089E+04</rscale>
<asrwt>0</asrwt>
<pdfrwt beam="1">  1        2 0.33393599E+00 0.10037089E+04</pdfrwt>
<pdfrwt beam="2">  1       -2 0.17851125E-01 0.10037089E+04</pdfrwt>
<totfact> 0.16265240E+02</totfact>
</mgrwt>
</event>
<event>
 9    1  0.4412976E-036  0.1000624E+04  0.7818608E-02  0.8680444E-01
         -2   -1    0    0    0  501 -0.00000000000E+00  0.00000000000E+00  0.28417385883E+03  0.28417385883E+03  0.00000000000E+00 0.  1.
          2   -1    0    0  501    0  0.00000000000E+00 -0.00000000000E+00 -0.88084068336E+03  0.88084068336E+03  0.00000000000E+00 0.  1.
         36    2    1    2    0    0 -0.14210854715E-13  0.71054273576E-14 -0.59666682453E+03  0.11650145422E+04  0.10006235976E+04 0.  0.
         25    2    3    3    0    0 -0.32974391097E+02  0.60810981703E+02 -0.25520159014E+03  0.29263727230E+03  0.12539312407E+03 0.  0.
         35    2    3    3    0    0  0.32974391097E+02 -0.60810981703E+02 -0.34146523439E+03  0.87237726989E+03  0.79978641446E+03 0.  0.
         22    1    5    5    0    0 -0.87266319949E+02 -0.16205303161E+03  0.22143560581E+03  0.28794152735E+03  0.00000000000E+00 0. -1.
         22    1    5    5    0    0  0.12024071105E+03  0.10124204991E+03 -0.56290084020E+03  0.58443574254E+03  0.00000000000E+00 0. -1.
          5    1    4    4  502    0  0.13215412375E+02  0.76682016090E+02 -0.21661854102E+03  0.23021828996E+03  0.47000000000E+01 0.  1.
         -5    1    4    4    0  502 -0.46189803472E+02 -0.15871034387E+02 -0.38583049116E+02  0.62418982340E+02  0.47000000000E+01 0.  1.
<mgrwt>
<rscale>  0 0.10006236E+04</rscale>
<asrwt>0</asrwt>
<pdfrwt beam="1">  1        2 0.13551395E+00 0.10006236E+04</pdfrwt>
<pdfrwt beam="2">  1       -2 0.43719055E-01 0.10006236E+04</pdfrwt>
<totfact> 0.18139094E+02</totfact>
</mgrwt>
</event>
<event>
 9    1  0.4412976E-036  0.9999214E+03  0.7818608E-02  0.8681113E-01
         -2   -1    0    0    0  501 -0.00000000000E+00  0.00000000000E+00  0.71733350318E+03  0.71733350318E+03  0.00000000000E+00 0. -1.
          2   -1    0    0  501    0  0.00000000000E+00 -0.00000000000E+00 -0.34845816800E+03  0.34845816800E+03  0.00000000000E+00 0. -1.
         36    2    1    2    0    0  0.00000000000E+00  0.14210854715E-13  0.36887533518E+03  0.10657916712E+04  0.99992143364E+03 0.  0.
         25    2    3    3    0    0 -0.71089163413E+02  0.49851219103E+02 -0.50745730032E+02  0.15903199213E+03  0.12319590985E+03 0.  0.
         35    2    3    3    0    0  0.71089163413E+02 -0.49851219103E+02  0.41962106522E+03  0.90675967905E+03  0.79911980577E+03 0.  0.
         22    1    5    5    0    0 -0.14453328506E+03  0.33074550488E+03  0.13754339839E+03  0.38626499444E+03  0.00000000000E+00 0. -1.
         22    1    5    5    0    0  0.21562244847E+03 -0.38059672398E+03  0.28207766682E+03  0.52049468461E+03  0.00000000000E+00 0. -1.
          5    1    4    4  502    0 -0.32222779915E+02  0.78702036609E+02 -0.66340976698E+02  0.10796079520E+03  0.47000000000E+01 0. -1.
         -5    1    4    4    0  502 -0.38866383498E+02 -0.28850817506E+02  0.15595246666E+02  0.51071196927E+02  0.47000000000E+01 0. -1.
<mgrwt>
<rscale>  0 0.99992143E+03</rscale>
<asrwt>0</asrwt>
<pdfrwt beam="1">  1        2 0.53608949E-01 0.99992143E+03</pdfrwt>
<pdfrwt beam="2">  1       -2 0.11035900E+00 0.99992143E+03</pdfrwt>
<totfact> 0.71317127E+01</totfact>
</mgrwt>
</event>
<event>
 9    1  0.4412976E-036  0.1005265E+04  0.7818608E-02  0.8676041E-01
          2   -1    0    0  501    0  0.00000000000E+00  0.00000000000E+00  0.10010249520E+04  0.10010249520E+04  0.00000000000E+00 0. -1.
         -2   -1    0    0    0  501 -0.00000000000E+00 -0.00000000000E+00 -0.25238053168E+03  0.25238053168E+03  0.00000000000E+00 0. -1.
         36    2    1    2    0    0  0.00000000000E+00 -0.28421709430E-13  0.74864442032E+03  0.12534054837E+04  0.10052645614E+04 0.  0.
         25    2    3    3    0    0 -0.12439874253E+03 -0.76208575693E+02  0.14421992745E+03  0.24020231044E+03  0.12495986683E+03 0.  0.
         35    2    3    3    0    0  0.12439874253E+03  0.76208575693E+02  0.60442449287E+03  0.10132031732E+04  0.79998056758E+03 0.  0.
         22    1    5    5    0    0 -0.19655037024E+03 -0.27352855793E+03  0.28303545702E+03  0.43995339523E+03  0.00000000000E+00 0. -1.
         22    1    5    5    0    0  0.32094911276E+03  0.34973713362E+03  0.32138903585E+03  0.57324977800E+03  0.00000000000E+00 0. -1.
          5    1    4    4  502    0 -0.47186814823E+02 -0.50979809472E+00 -0.13144591255E+02  0.49211031960E+02  0.47000000000E+01 0. -1.
         -5    1    4    4    0  502 -0.77211927702E+02 -0.75698777598E+02  0.15736451870E+03  0.19099127848E+03  0.47000000000E+01 0. -1.
<mgrwt>
<rscale>  0 0.10052646E+04</rscale>
<asrwt>0</asrwt>
<pdfrwt beam="1">  1        2 0.15400384E+00 0.10052646E+04</pdfrwt>
<pdfrwt beam="2">  1       -2 0.38827775E-01 0.10052646E+04</pdfrwt>
<totfact> 0.19063127E+02</totfact>
</mgrwt>
</event>
<event>
 9    1  0.4412976E-036  0.1000674E+04  0.7818608E-02  0.8680396E-01
         -2   -1    0    0    0  501 -0.00000000000E+00  0.00000000000E+00  0.16043801079E+03  0.16043801079E+03  0.00000000000E+00 0.  1.
          2   -1    0    0  501    0  0.00000000000E+00 -0.00000000000E+00 -0.15603362907E+04  0.15603362907E+04  0.00000000000E+00 0.  1.
         36    2    1    2    0    0  0.28421709430E-13  0.35527136788E-13 -0.13998982800E+04  0.17207743015E+04  0.10006742740E+04 0.  0.
         25    2    3    3    0    0 -0.12836365477E+03 -0.39399092713E+02 -0.19485263497E+03  0.26806960097E+03  0.12595334548E+03 0.  0.
         35    2    3    3    0    0  0.12836365477E+03  0.39399092713E+02 -0.12050456450E+04  0.14527047006E+04  0.80011650662E+03 0.  0.
         22    1    5    5    0    0  0.38896350340E+03  0.26146923394E+03 -0.71382844140E+03  0.85393782620E+03  0.00000000000E+00 0. -1.
         22    1    5    5    0    0 -0.26059984863E+03 -0.22207014123E+03 -0.49121720358E+03  0.59876687436E+03  0.00000000000E+00 0. -1.
          5    1    4    4  502    0 -0.80312990058E+00 -0.52714048937E+02 -0.36762965387E+02  0.64443941508E+02  0.47000000000E+01 0. -1.
         -5    1    4    4    0  502 -0.12756052487E+03  0.13314956224E+02 -0.15808966959E+03  0.20362565947E+03  0.47000000000E+01 0. -1.
<mgrwt>
<rscale>  0 0.10006743E+04</rscale>
<asrwt>0</asrwt>
<pdfrwt beam="1">  1        2 0.24005174E+00 0.10006743E+04</pdfrwt>
<pdfrwt beam="2">  1       -2 0.24682771E-01 0.10006743E+04</pdfrwt>
<totfact> 0.20551767E+02</totfact>
</mgrwt>
</event>
<event>
 9    1  0.4412976E-036  0.1000116E+04  0.7818608E-02  0.8680928E-01
          2   -1    0    0  501    0  0.00000000000E+00  0.00000000000E+00  0.57615050446E+03  0.57615050446E+03  0.00000000000E+00 0. -1.
         -2   -1    0    0    0  501 -0.00000000000E+00 -0.00000000000E+00 -0.43401488734E+03  0.43401488734E+03  0.00000000000E+00 0. -1.
         36    2    1    2    0    0  0.14210854715E-13  0.00000000000E+00  0.14213561711E+03  0.10101653918E+04  0.10001157859E+04 0.  0.
         25    2    3    3    0    0  0.99058092957E+02 -0.64172649070E+02  0.10256542361E+03  0.20058195992E+03  0.12562970133E+03 0.  0.
         35    2    3    3    0    0 -0.99058092957E+02  0.64172649070E+02  0.39570193498E+02  0.80958343188E+03  0.79995556019E+03 0.  0.
         22    1    5    5    0    0  0.46840141578E+02  0.11271588766E+03  0.39974240196E+03  0.41796274728E+03  0.00000000000E+00 0.  1.
         22    1    5    5    0    0 -0.14589823453E+03 -0.48543238593E+02 -0.36017220846E+03  0.39162068459E+03  0.00000000000E+00 0.  1.
          5    1    4    4  502    0  0.84488867434E+02  0.19005363441E+02  0.63092974851E+02  0.10724917732E+03  0.47000000000E+01 0.  1.
         -5    1    4    4    0  502  0.14569225523E+02 -0.83178012512E+02  0.39472448763E+02  0.93332782607E+02  0.47000000000E+01 0.  1.
<mgrwt>
<rscale>  0 0.10001158E+04</rscale>
<asrwt>0</asrwt>
<pdfrwt beam="1">  1        2 0.88638540E-01 0.10001158E+04</pdfrwt>
<pdfrwt beam="2">  1       -2 0.66771520E-01 0.10001158E+04</pdfrwt>
<totfact> 0.12980658E+02</totfact>
</mgrwt>
</event>
<event>
 9    1  0.4412976E-036  0.1000542E+04  0.7818608E-02  0.8680522E-01
          2   -1    0    0  501    0  0.00000000000E+00  0.00000000000E+00  0.10525297180E+04  0.10525297180E+04  0.00000000000E+00 0. -1.
         -2   -1    0    0    0  501 -0.00000000000E+00 -0.00000000000E+00 -0.23778029891E+03  0.23778029891E+03  0.00000000000E+00 0. -1.
         36    2    1    2    0    0 -0.42632564146E-13  0.00000000000E+00  0.81474941906E+03  0.12903100169E+04  0.10005415153E+04 0.  0.
         25    2    3    3    0    0 -0.39597770849E+02  0.12940199158E+03  0.11183948630E+03  0.21679466087E+03  0.12719668001E+03 0.  0.
         35    2    3    3    0    0  0.39597770849E+02 -0.12940199158E+03  0.70290993276E+03  0.10735153560E+04  0.80002499158E+03 0.  0.
         22    1    5    5    0    0 -0.35690711020E+03 -0.10246783100E+03  0.16911042079E+03  0.40802043592E+03  0.00000000000E+00 0.  1.
         22    1    5    5    0    0  0.39650488105E+03 -0.26934160574E+02  0.53379951196E+03  0.66549492010E+03  0.00000000000E+00 0.  1.
          5    1    4    4  502    0 -0.50207488648E+02  0.70459958916E+02 -0.35345344852E+01  0.86717822048E+02  0.47000000000E+01 0.  1.
         -5    1    4    4    0  502  0.10609717799E+02  0.58942032661E+02  0.11537402079E+03  0.13007683882E+03  0.47000000000E+01 0.  1.
<mgrwt>
<rscale>  0 0.10005415E+04</rscale>
<asrwt>0</asrwt>
<pdfrwt beam="1">  1        2 0.16192765E+00 0.10005415E+04</pdfrwt>
<pdfrwt beam="2">  1       -2 0.36581585E-01 0.10005415E+04</pdfrwt>
<totfact> 0.19822097E+02</totfact>
</mgrwt>
</event>
<event>
 9    1  0.4412976E-036  0.1000628E+04  0.7818608E-02  0.8680440E-01
         -2   -1    0    0    0  501 -0.00000000000E+00  0.00000000000E+00  0.10063395027E+03  0.10063395027E+03  0.00000000000E+00 0.  1.
          2   -1    0    0  501    0  0.00000000000E+00 -0.00000000000E+00 -0.24873722093E+04  0.24873722093E+04  0.00000000000E+00 0.  1.
         36    2    1    2    0    0  0.00000000000E+00  0.14210854715E-13 -0.23867382591E+04  0.25880061596E+04  0.10006279853E+04 0.  0.
         25    2    3    3    0    0 -0.11531907540E+03 -0.35230143463E+02 -0.25198983390E+03  0.30545721486E+03  0.12355396215E+03 0.  0.
         35    2    3    3    0    0  0.11531907540E+03  0.35230143463E+02 -0.21347484252E+04  0.22825489447E+04  0.79896132214E+03 0.  0.
         22    1    5    5    0    0 -0.21417548936E+03 -0.17014367935E+03 -0.15914037968E+04  0.16147402442E+04  0.00000000000E+00 0. -1.
         22    1    5    5    0    0  0.32949456477E+03  0.20537382282E+03 -0.54334462834E+03  0.66780870049E+03  0.00000000000E+00 0. -1.
          5    1    4    4  502    0 -0.12367190533E+03 -0.61194625380E+02 -0.17046573191E+03  0.21936311928E+03  0.47000000000E+01 0. -1.
         -5    1    4    4    0  502  0.83528299300E+01  0.25964481917E+02 -0.81524101991E+02  0.86094095585E+02  0.47000000000E+01 0. -1.
<mgrwt>
<rscale>  0 0.10006280E+04</rscale>
<asrwt>0</asrwt>
<pdfrwt beam="1">  1        2 0.38267266E+00 0.10006280E+04</pdfrwt>
<pdfrwt beam="2">  1       -2 0.15482146E-01 0.10006280E+04</pdfrwt>
<totfact> 0.13440457E+02</totfact>
</mgrwt>
</event>
<event>
 9    1  0.4412976E-036  0.9988413E+03  0.7818608E-02  0.8682142E-01
          1   -1    0    0  501    0  0.00000000000E+00  0.00000000000E+00  0.10316896738E+04  0.10316896738E+04  0.00000000000E+00 0.  1.
         -1   -1    0    0    0  501 -0.00000000000E+00 -0.00000000000E+00 -0.24175970578E+03  0.24175970578E+03  0.00000000000E+00 0.  1.
         36    2    1    2    0    0  0.28421709430E-13 -0.14210854715E-13  0.78992996805E+03  0.12734493796E+04  0.99884131272E+03 0.  0.
         25    2    3    3    0    0 -0.12824970152E+03  0.28546265038E+02  0.91177471872E+02  0.20319107845E+03  0.12534116560E+03 0.  0.
         35    2    3    3    0    0  0.12824970152E+03 -0.28546265038E+02  0.69875249617E+03  0.10702583012E+04  0.79995931465E+03 0.  0.
         22    1    5    5    0    0 -0.12532042732E+03  0.24652343569E+03  0.63251084294E+03  0.69032527137E+03  0.00000000000E+00 0.  1.
         22    1    5    5    0    0  0.25357012884E+03 -0.27506970073E+03  0.66241653231E+02  0.37993302979E+03  0.00000000000E+00 0.  1.
          5    1    4    4  502    0 -0.16425837411E+02  0.26773544697E+02  0.85389602937E+02  0.91104912711E+02  0.47000000000E+01 0. -1.
         -5    1    4    4    0  502 -0.11182386411E+03  0.17727203406E+01  0.57878689354E+01  0.11208616574E+03  0.47000000000E+01 0. -1.
<mgrwt>
<rscale>  0 0.99884131E+03</rscale>
<asrwt>0</asrwt>
<pdfrwt beam="1">  1        1 0.15872149E+00 0.99884131E+03</pdfrwt>
<pdfrwt beam="2">  1       -1 0.37193801E-01 0.99884131E+03</pdfrwt>
<totfact> 0.11100511E+02</totfact>
</mgrwt>
</event>
<event>
 9    1  0.4412976E-036  0.9997523E+03  0.7818608E-02  0.8681274E-01
         -2   -1    0    0    0  501 -0.00000000000E+00  0.00000000000E+00  0.12313973081E+03  0.12313973081E+03  0.00000000000E+00 0. -1.
          2   -1    0    0  501    0  0.00000000000E+00 -0.00000000000E+00 -0.20292082997E+04  0.20292082997E+04  0.00000000000E+00 0. -1.
         36    2    1    2    0    0 -0.21316282073E-13 -0.28421709430E-13 -0.19060685689E+04  0.21523480305E+04  0.99975229686E+03 0.  0.
         25    2    3    3    0    0  0.48261760230E+02 -0.13009401520E+03 -0.37912205462E+03  0.42297693685E+03  0.12618362223E+03 0.  0.
         35    2    3    3    0    0 -0.48261760230E+02  0.13009401520E+03 -0.15269465142E+04  0.17293710936E+04  0.79994066768E+03 0.  0.
         22    1    5    5    0    0 -0.32229380416E+03  0.26566234583E+03 -0.46847376154E+03  0.62762842785E+03  0.00000000000E+00 0.  1.
         22    1    5    5    0    0  0.27403204393E+03 -0.13556833063E+03 -0.10584727527E+04  0.11017426658E+04  0.00000000000E+00 0.  1.
          5    1    4    4  502    0  0.45390078579E+02 -0.15308255421E+03 -0.29352789889E+03  0.33417846289E+03  0.47000000000E+01 0. -1.
         -5    1    4    4    0  502  0.28716816508E+01  0.22988539014E+02 -0.85594155733E+02  0.88798473957E+02  0.47000000000E+01 0. -1.
<mgrwt>
<rscale>  0 0.99975230E+03</rscale>
<asrwt>0</asrwt>
<pdfrwt beam="1">  1        2 0.31218590E+00 0.99975230E+03</pdfrwt>
<pdfrwt beam="2">  1       -2 0.18944573E-01 0.99975230E+03</pdfrwt>
<totfact> 0.17713657E+02</totfact>
</mgrwt>
</event>
<event>
 9    1  0.4412976E-036  0.9993339E+03  0.7818608E-02  0.8681673E-01
         -1   -1    0    0    0  501 -0.00000000000E+00  0.00000000000E+00  0.12992406096E+03  0.12992406096E+03  0.00000000000E+00 0.  1.
          1   -1    0    0  501    0  0.00000000000E+00 -0.00000000000E+00 -0.19216384314E+04  0.19216384314E+04  0.00000000000E+00 0.  1.
         36    2    1    2    0    0 -0.14210854715E-13  0.00000000000E+00 -0.17917143704E+04  0.20515624924E+04  0.99933391559E+03 0.  0.
         25    2    3    3    0    0  0.11798661566E+03 -0.70118325507E+02 -0.39995395651E+03  0.44098939926E+03  0.12518411196E+03 0.  0.
         35    2    3    3    0    0 -0.11798661566E+03  0.70118325507E+02 -0.13917604139E+04  0.16105730931E+04  0.79881863861E+03 0.  0.
         22    1    5    5    0    0 -0.23115908649E+03 -0.15312360175E+03 -0.13219699292E+04  0.13507353014E+04  0.00000000000E+00 0. -1.
         22    1    5    5    0    0  0.11317247083E+03  0.22324192726E+03 -0.69790484702E+02  0.25983779170E+03  0.00000000000E+00 0. -1.
          5    1    4    4  502    0  0.28898494424E+02 -0.57090399769E+02 -0.55188334971E+02  0.84630248982E+02  0.47000000000E+01 0.  1.
         -5    1    4    4    0  502  0.89088121238E+02 -0.13027925738E+02 -0.34476562154E+03  0.35635915028E+03  0.47000000000E+01 0.  1.
<mgrwt>
<rscale>  0 0.99933392E+03</rscale>
<asrwt>0</asrwt>
<pdfrwt beam="1">  1        1 0.29563670E+00 0.99933392E+03</pdfrwt>
<pdfrwt beam="2">  1       -1 0.19988316E-01 0.99933392E+03</pdfrwt>
<totfact> 0.72354229E+01</totfact>
</mgrwt>
</event>
<event>
 9    1  0.4412976E-036  0.9998741E+03  0.7818608E-02  0.8681158E-01
         -2   -1    0    0    0  501 -0.00000000000E+00  0.00000000000E+00  0.10695735872E+03  0.10695735872E+03  0.00000000000E+00 0.  1.
          2   -1    0    0  501    0  0.00000000000E+00 -0.00000000000E+00 -0.23367917313E+04  0.23367917313E+04  0.00000000000E+00 0.  1.
         36    2    1    2    0    0 -0.28421709430E-13  0.00000000000E+00 -0.22298343726E+04  0.24437490900E+04  0.99987413500E+03 0.  0.
         25    2    3    3    0    0  0.73758679451E+02  0.11563261827E+03 -0.36074602357E+03  0.40579041186E+03  0.12536713937E+03 0.  0.
         35    2    3    3    0    0 -0.73758679451E+02 -0.11563261827E+03 -0.18690883490E+04  0.20379586782E+04  0.80060793918E+03 0.  0.
         22    1    5    5    0    0 -0.22501922179E+03 -0.10924711353E+03 -0.18699049759E+04  0.18865612105E+04  0.00000000000E+00 0. -1.
         22    1    5    5    0    0  0.15126054233E+03 -0.63855047360E+01  0.81662689720E+00  0.15139746767E+03  0.00000000000E+00 0. -1.
          5    1    4    4  502    0  0.71660431861E+02  0.24099305117E+01 -0.12405569197E+03  0.14336293094E+03  0.47000000000E+01 0. -1.
         -5    1    4    4    0  502  0.20982475894E+01  0.11322268776E+03 -0.23669033160E+03  0.26242748092E+03  0.47000000000E+01 0. -1.
<mgrwt>
<rscale>  0 0.99987414E+03</rscale>
<asrwt>0</asrwt>
<pdfrwt beam="1">  1        2 0.35950644E+00 0.99987414E+03</pdfrwt>
<pdfrwt beam="2">  1       -2 0.16454978E-01 0.99987414E+03</pdfrwt>
<totfact> 0.14930289E+02</totfact>
</mgrwt>
</event>
<event>
 9    1  0.4412976E-036  0.9998827E+03  0.7818608E-02  0.8681150E-01
         -1   -1    0    0    0  501 -0.00000000000E+00  0.00000000000E+00  0.20088440101E+03  0.20088440101E+03  0.00000000000E+00 0. -1.
          1   -1    0    0  501    0  0.00000000000E+00 -0.00000000000E+00 -0.12442048492E+04  0.12442048492E+04  0.00000000000E+00 0. -1.
         36    2    1    2    0    0  0.71054273576E-14  0.00000000000E+00 -0.10433204482E+04  0.14450892502E+04  0.99988268486E+03 0.  0.
         25    2    3    3    0    0  0.31712988849E+02  0.97355038815E+02 -0.54561118077E+02  0.17031778626E+03  0.12468967666E+03 0.  0.
         35    2    3    3    0    0 -0.31712988849E+02 -0.97355038815E+02 -0.98875933011E+03  0.12747714640E+04  0.79806864065E+03 0.  0.
         22    1    5    5    0    0  0.45760913356E+02 -0.60791104075E+02 -0.11175244833E+04  0.11201118651E+04  0.00000000000E+00 0.  1.
         22    1    5    5    0    0 -0.77473902205E+02 -0.36563934740E+02  0.12876515319E+03  0.15465959887E+03  0.00000000000E+00 0.  1.
          5    1    4    4  502    0 -0.45566132536E+02  0.26884169489E+02 -0.35552158557E+02  0.63914606950E+02  0.47000000000E+01 0. -1.
         -5    1    4    4    0  502  0.77279121385E+02  0.70470869325E+02 -0.19008959520E+02  0.10640317931E+03  0.47000000000E+01 0. -1.
<mgrwt>
<rscale>  0 0.99988268E+03</rscale>
<asrwt>0</asrwt>
<pdfrwt beam="1">  1        1 0.19141613E+00 0.99988268E+03</pdfrwt>
<pdfrwt beam="2">  1       -1 0.30905292E-01 0.99988268E+03</pdfrwt>
<totfact> 0.10557479E+02</totfact>
</mgrwt>
</event>
<event>
 9    1  0.4412976E-036  0.1000301E+04  0.7818608E-02  0.8680752E-01
          2   -1    0    0  501    0  0.00000000000E+00  0.00000000000E+00  0.43578670443E+03  0.43578670443E+03  0.00000000000E+00 0. -1.
         -2   -1    0    0    0  501 -0.00000000000E+00 -0.00000000000E+00 -0.57402007481E+03  0.57402007481E+03  0.00000000000E+00 0. -1.
         36    2    1    2    0    0  0.49737991503E-13 -0.71054273576E-14 -0.13823337038E+03  0.10098067792E+04  0.10003005882E+04 0.  0.
         25    2    3    3    0    0  0.41767036320E+00  0.55643523080E+02  0.10519961332E+03  0.17210375530E+03  0.12432364150E+03 0.  0.
         35    2    3    3    0    0 -0.41767036320E+00 -0.55643523080E+02 -0.24343298370E+03  0.83770302394E+03  0.79961888588E+03 0.  0.
         22    1    5    5    0    0 -0.39216882962E+03 -0.64760769072E+01 -0.42004428536E+02  0.39446508403E+03  0.00000000000E+00 0.  1.
         22    1    5    5    0    0  0.39175115926E+03 -0.49167446172E+02 -0.20142855517E+03  0.44323793992E+03  0.00000000000E+00 0.  1.
          5    1    4    4  502    0  0.24362252231E+02  0.76371646548E+02  0.11349455979E+03  0.13902968328E+03  0.47000000000E+01 0.  1.
         -5    1    4    4    0  502 -0.23944581868E+02 -0.20728123468E+02 -0.82949464700E+01  0.33074072024E+02  0.47000000000E+01 0.  1.
<mgrwt>
<rscale>  0 0.10003006E+04</rscale>
<asrwt>0</asrwt>
<pdfrwt beam="1">  1        2 0.67044109E-01 0.10003006E+04</pdfrwt>
<pdfrwt beam="2">  1       -2 0.88310780E-01 0.10003006E+04</pdfrwt>
<totfact> 0.95292199E+01</totfact>
</mgrwt>
</event>
<event>
 9    1  0.4412976E-036  0.1000693E+04  0.7818608E-02  0.8680378E-01
          1   -1    0    0  501    0  0.00000000000E+00  0.00000000000E+00  0.23400212188E+03  0.23400212188E+03  0.00000000000E+00 0.  1.
         -1   -1    0    0    0  501 -0.00000000000E+00 -0.00000000000E+00 -0.10698471750E+04  0.10698471750E+04  0.00000000000E+00 0.  1.
         36    2    1    2    0    0 -0.71054273576E-14  0.00000000000E+00 -0.83584505311E+03  0.13038492969E+04  0.10006927781E+04 0.  0.
         25    2    3    3    0    0 -0.34057076352E+02 -0.90312525560E+02 -0.29044195921E+03  0.33088094460E+03  0.12573556023E+03 0.  0.
         35    2    3    3    0    0  0.34057076352E+02  0.90312525560E+02 -0.54540309390E+03  0.97296835228E+03  0.79992914872E+03 0.  0.
         22    1    5    5    0    0 -0.34433503685E+02  0.21360488897E+02  0.20871574952E+03  0.21261279538E+03  0.00000000000E+00 0. -1.
         22    1    5    5    0    0  0.68490580037E+02  0.68952036664E+02 -0.75411884342E+03  0.76035555690E+03  0.00000000000E+00 0. -1.
          5    1    4    4  502    0 -0.65943326259E+02 -0.10290208477E+03 -0.20523462728E+03  0.23891568296E+03  0.47000000000E+01 0. -1.
         -5    1    4    4    0  502  0.31886249907E+02  0.12589559211E+02 -0.85207331924E+02  0.91965261637E+02  0.47000000000E+01 0. -1.
<mgrwt>
<rscale>  0 0.10006928E+04</rscale>
<asrwt>0</asrwt>
<pdfrwt beam="1">  1        1 0.36000326E-01 0.10006928E+04</pdfrwt>
<pdfrwt beam="2">  1       -1 0.16459188E+00 0.10006928E+04</pdfrwt>
<totfact> 0.37478836E+01</totfact>
</mgrwt>
</event>
<event>
 9    1  0.4412976E-036  0.1007404E+04  0.7818608E-02  0.8674019E-01
         -2   -1    0    0    0  501 -0.00000000000E+00  0.00000000000E+00  0.14516953135E+04  0.14516953135E+04  0.00000000000E+00 0.  1.
          2   -1    0    0  501    0  0.00000000000E+00 -0.00000000000E+00 -0.17477216795E+03  0.17477216795E+03  0.00000000000E+00 0.  1.
         36    2    1    2    0    0 -0.71054273576E-14 -0.71054273576E-14  0.12769231456E+04  0.16264674814E+04  0.10074044613E+04 0.  0.
         25    2    3    3    0    0 -0.46032349052E+02 -0.36043322146E+02  0.27128997967E+02  0.14145908879E+03  0.12592296470E+03 0.  0.
         35    2    3    3    0    0  0.46032349052E+02  0.36043322146E+02  0.12497941476E+04  0.14850083927E+04  0.79990400468E+03 0.  0.
         22    1    5    5    0    0  0.16869270080E+03  0.18974114330E+03  0.12626719762E+04  0.12879438840E+04  0.00000000000E+00 0. -1.
         22    1    5    5    0    0 -0.12266035175E+03 -0.15369782116E+03 -0.12877828614E+02  0.19706450870E+03  0.00000000000E+00 0. -1.
          5    1    4    4  502    0 -0.36771194287E+02 -0.79631977961E+02  0.37432085875E+02  0.95481012229E+02  0.47000000000E+01 0. -1.
         -5    1    4    4    0  502 -0.92611547649E+01  0.43588655816E+02 -0.10303087908E+02  0.45978076557E+02  0.47000000000E+01 0. -1.
<mgrwt>
<rscale>  0 0.10074045E+04</rscale>
<asrwt>0</asrwt>
<pdfrwt beam="1">  1        2 0.26888027E-01 0.10074045E+04</pdfrwt>
<pdfrwt beam="2">  1       -2 0.22333773E+00 0.10074045E+04</pdfrwt>
<totfact> 0.20446223E+01</totfact>
</mgrwt>
</event>
<event>
 9    1  0.4412976E-036  0.1000897E+04  0.7818608E-02  0.8680184E-01
         -3   -1    0    0    0  501 -0.00000000000E+00  0.00000000000E+00  0.10853527919E+03  0.10853527919E+03  0.00000000000E+00 0.  1.
          3   -1    0    0  501    0  0.00000000000E+00 -0.00000000000E+00 -0.23075324672E+04  0.23075324672E+04  0.00000000000E+00 0.  1.
         36    2    1    2    0    0  0.00000000000E+00 -0.56843418861E-13 -0.21989971880E+04  0.24160677464E+04  0.10008969589E+04 0.  0.
         25    2    3    3    0    0  0.58782650277E+02  0.13057664695E+03 -0.36856667136E+03  0.41339147252E+03  0.12060455056E+03 0.  0.
         35    2    3    3    0    0 -0.58782650277E+02 -0.13057664695E+03 -0.18304305167E+04  0.20026762739E+04  0.79983168286E+03 0.  0.
         22    1    5    5    0    0 -0.21060762182E+03 -0.42706954700E+03 -0.11640314343E+04  0.12576617782E+04  0.00000000000E+00 0. -1.
         22    1    5    5    0    0  0.15182497154E+03  0.29649290006E+03 -0.66639908235E+03  0.74501449565E+03  0.00000000000E+00 0. -1.
          5    1    4    4  502    0  0.27002629157E+01  0.18294178563E+02 -0.21114627374E+03  0.21200662089E+03  0.47000000000E+01 0. -1.
         -5    1    4    4    0  502  0.56082387362E+02  0.11228246838E+03 -0.15742039763E+03  0.20138485163E+03  0.47000000000E+01 0. -1.
<mgrwt>
<rscale>  0 0.10008970E+04</rscale>
<asrwt>0</asrwt>
<pdfrwt beam="1">  1        3 0.35500496E+00 0.10008970E+04</pdfrwt>
<pdfrwt beam="2">  1       -3 0.16697737E-01 0.10008970E+04</pdfrwt>
<totfact> 0.36079396E+00</totfact>
</mgrwt>
</event>
<event>
 9    1  0.4412976E-036  0.1004234E+04  0.7818608E-02  0.8677017E-01
         -1   -1    0    0    0  501 -0.00000000000E+00  0.00000000000E+00  0.72723496848E+03  0.72723496848E+03  0.00000000000E+00 0. -1.
          1   -1    0    0  501    0  0.00000000000E+00 -0.00000000000E+00 -0.34668485411E+03  0.34668485411E+03  0.00000000000E+00 0. -1.
         36    2    1    2    0    0 -0.14210854715E-13  0.00000000000E+00  0.38055011437E+03  0.10739198226E+04  0.10042337356E+04 0.  0.
         25    2    3    3    0    0  0.81902718510E+02  0.10780254596E+03  0.11876036778E+03  0.22013777618E+03  0.12659846497E+03 0.  0.
         35    2    3    3    0    0 -0.81902718510E+02 -0.10780254596E+03  0.26178974659E+03  0.85378204641E+03  0.80129923695E+03 0.  0.
         22    1    5    5    0    0 -0.64791186130E+02 -0.24437471163E+03  0.51041703558E+03  0.56959849692E+03  0.00000000000E+00 0.  1.
         22    1    5    5    0    0 -0.17111532381E+02  0.13657216567E+03 -0.24862728899E+03  0.28418354950E+03  0.00000000000E+00 0.  1.
          5    1    4    4  502    0 -0.94438934642E+01 -0.49926782291E+00 -0.19463730346E+02  0.22144145753E+02  0.47000000000E+01 0.  1.
         -5    1    4    4    0  502  0.91346611975E+02  0.10830181378E+03  0.13822409812E+03  0.19799363043E+03  0.47000000000E+01 0.  1.
<mgrwt>
<rscale>  0 0.10042337E+04</rscale>
<asrwt>0</asrwt>
<pdfrwt beam="1">  1        1 0.53336131E-01 0.10042337E+04</pdfrwt>
<pdfrwt beam="2">  1       -1 0.11188230E+00 0.10042337E+04</pdfrwt>
<totfact> 0.63920284E+01</totfact>
</mgrwt>
</event>
<event>
 9    1  0.4412976E-036  0.1000260E+04  0.7818608E-02  0.8680791E-01
          1   -1    0    0  501    0  0.00000000000E+00  0.00000000000E+00  0.38949956451E+03  0.38949956451E+03  0.00000000000E+00 0.  1.
         -1   -1    0    0    0  501 -0.00000000000E+00 -0.00000000000E+00 -0.64218249006E+03  0.64218249006E+03  0.00000000000E+00 0.  1.
         36    2    1    2    0    0 -0.35527136788E-13 -0.28421709430E-13 -0.25268292555E+03  0.10316820546E+04  0.10002595667E+04 0.  0.
         25    2    3    3    0    0  0.57634082645E+01 -0.13359142605E+03 -0.56978689622E+01  0.18335938212E+03  0.12533280222E+03 0.  0.
         35    2    3    3    0    0 -0.57634082645E+01  0.13359142605E+03 -0.24698505659E+03  0.84832267244E+03  0.80048101315E+03 0.  0.
         22    1    5    5    0    0 -0.39768121489E+03  0.36914981923E+02 -0.61564431310E+02  0.40410796054E+03  0.00000000000E+00 0.  1.
         22    1    5    5    0    0  0.39191780662E+03  0.96676444131E+02 -0.18542062528E+03  0.44421471191E+03  0.00000000000E+00 0.  1.
          5    1    4    4  502    0 -0.58331214017E+02 -0.82475390064E+02 -0.47096042645E+01  0.10123729978E+03  0.47000000000E+01 0.  1.
         -5    1    4    4    0  502  0.64094622282E+02 -0.51116035990E+02 -0.98826469773E+00  0.82122082340E+02  0.47000000000E+01 0.  1.
<mgrwt>
<rscale>  0 0.10002596E+04</rscale>
<asrwt>0</asrwt>
<pdfrwt beam="1">  1        1 0.59923010E-01 0.10002596E+04</pdfrwt>
<pdfrwt beam="2">  1       -1 0.98797306E-01 0.10002596E+04</pdfrwt>
<totfact> 0.72925069E+01</totfact>
</mgrwt>
</event>
<event>
 9    1  0.4412976E-036  0.1003370E+04  0.7818608E-02  0.8677835E-01
          1   -1    0    0  501    0  0.00000000000E+00  0.00000000000E+00  0.23062098766E+03  0.23062098766E+03  0.00000000000E+00 0.  1.
         -1   -1    0    0    0  501 -0.00000000000E+00 -0.00000000000E+00 -0.10913490617E+04  0.10913490617E+04  0.00000000000E+00 0.  1.
         36    2    1    2    0    0  0.28421709430E-13  0.14210854715E-13 -0.86072807405E+03  0.13219700494E+04  0.10033703175E+04 0.  0.
         25    2    3    3    0    0  0.78833043085E+02 -0.11668857556E+03 -0.20151915322E+03  0.27584261132E+03  0.12509318429E+03 0.  0.
         35    2    3    3    0    0 -0.78833043085E+02  0.11668857556E+03 -0.65920892083E+03  0.10461274380E+04  0.79999708936E+03 0.  0.
         22    1    5    5    0    0 -0.32470016595E+03 -0.19526386849E+03 -0.47689805880E+03  0.60908943070E+03  0.00000000000E+00 0.  1.
         22    1    5    5    0    0  0.24586712287E+03  0.31195244405E+03 -0.18231086203E+03  0.43703800735E+03  0.00000000000E+00 0.  1.
          5    1    4    4  502    0  0.49495565955E+02 -0.14092503273E+03 -0.16872463203E+03  0.22538803729E+03  0.47000000000E+01 0.  1.
         -5    1    4    4    0  502  0.29337477130E+02  0.24236457169E+02 -0.32794521192E+02  0.50454574031E+02  0.47000000000E+01 0.  1.
<mgrwt>
<rscale>  0 0.10033703E+04</rscale>
<asrwt>0</asrwt>
<pdfrwt beam="1">  1        1 0.35480152E-01 0.10033703E+04</pdfrwt>
<pdfrwt beam="2">  1       -1 0.16789985E+00 0.10033703E+04</pdfrwt>
<totfact> 0.35825228E+01</totfact>
</mgrwt>
</event>
<event>
 9    1  0.4412976E-036  0.9992420E+03  0.7818608E-02  0.8681760E-01
          1   -1    0    0  501    0  0.00000000000E+00  0.00000000000E+00  0.15531730538E+04  0.15531730538E+04  0.00000000000E+00 0.  1.
         -1   -1    0    0    0  501 -0.00000000000E+00 -0.00000000000E+00 -0.16071687525E+03  0.16071687525E+03  0.00000000000E+00 0.  1.
         36    2    1    2    0    0 -0.14210854715E-13  0.14210854715E-13  0.13924561786E+04  0.17138899291E+04  0.99924195256E+03 0.  0.
         25    2    3    3    0    0  0.12341532335E+03 -0.30687968818E+02  0.16315345215E+03  0.24157911897E+03  0.12477310729E+03 0.  0.
         35    2    3    3    0    0 -0.12341532335E+03  0.30687968818E+02  0.12293027264E+04  0.14723108101E+04  0.80021299347E+03 0.  0.
         22    1    5    5    0    0  0.82724417814E+02  0.26703527507E+03  0.10967792899E+04  0.11318462697E+04  0.00000000000E+00 0. -1.
         22    1    5    5    0    0 -0.20613974117E+03 -0.23634730625E+03  0.13252343652E+03  0.34046454043E+03  0.00000000000E+00 0. -1.
          5    1    4    4  502    0  0.30025761080E+02 -0.70315536781E+02  0.69780881875E+02  0.10362085947E+03  0.47000000000E+01 0. -1.
         -5    1    4    4    0  502  0.93389562275E+02  0.39627567962E+02  0.93372570278E+02  0.13795825950E+03  0.47000000000E+01 0. -1.
<mgrwt>
<rscale>  0 0.99924195E+03</rscale>
<asrwt>0</asrwt>
<pdfrwt beam="1">  1        1 0.23894969E+00 0.99924195E+03</pdfrwt>
<pdfrwt beam="2">  1       -1 0.24725674E-01 0.99924195E+03</pdfrwt>
<totfact> 0.92289913E+01</totfact>
</mgrwt>
</event>
<event>
 9    1  0.4412976E-036  0.9996323E+03  0.7818608E-02  0.8681388E-01
         -2   -1    0    0    0  501 -0.00000000000E+00  0.00000000000E+00  0.87605901475E+02  0.87605901475E+02  0.00000000000E+00 0.  1.
          2   -1    0    0  501    0  0.00000000000E+00 -0.00000000000E+00 -0.28515905449E+04  0.28515905449E+04  0.00000000000E+00 0.  1.
         36    2    1    2    0    0  0.00000000000E+00  0.28421709430E-13 -0.27639846434E+04  0.29391964464E+04  0.99963225303E+03 0.  0.
         25    2    3    3    0    0  0.80785522282E+02 -0.95609703655E+02 -0.70534315203E+03  0.72712458304E+03  0.12463418912E+03 0.  0.
         35    2    3    3    0    0 -0.80785522282E+02  0.95609703655E+02 -0.20586414914E+04  0.22120718634E+04  0.79974347289E+03 0.  0.
         22    1    5    5    0    0 -0.11277807887E+03  0.36946026183E+03 -0.51377173554E+03  0.64279170529E+03  0.00000000000E+00 0. -1.
         22    1    5    5    0    0  0.31992556588E+02 -0.27385055818E+03 -0.15448697559E+04  0.15692801581E+04  0.00000000000E+00 0. -1.
          5    1    4    4  502    0  0.64092007407E+02 -0.12574142004E+03 -0.53933344292E+03  0.55751353597E+03  0.47000000000E+01 0.  1.
         -5    1    4    4    0  502  0.16693514875E+02  0.30131716390E+02 -0.16600970911E+03  0.16961104707E+03  0.47000000000E+01 0.  1.
<mgrwt>
<rscale>  0 0.99963225E+03</rscale>
<asrwt>0</asrwt>
<pdfrwt beam="1">  1        2 0.43870620E+00 0.99963225E+03</pdfrwt>
<pdfrwt beam="2">  1       -2 0.13477832E-01 0.99963225E+03</pdfrwt>
<totfact> 0.10016172E+02</totfact>
</mgrwt>
</event>
<event>
 9    1  0.4412976E-036  0.9993262E+03  0.7818608E-02  0.8681680E-01
          4   -1    0    0  501    0  0.00000000000E+00  0.00000000000E+00  0.34606421631E+03  0.34606421631E+03  0.00000000000E+00 0.  1.
         -4   -1    0    0    0  501 -0.00000000000E+00 -0.00000000000E+00 -0.72143608815E+03  0.72143608815E+03  0.00000000000E+00 0.  1.
         36    2    1    2    0    0  0.00000000000E+00 -0.31974423109E-13 -0.37537187184E+03  0.10675003045E+04  0.99932620193E+03 0.  0.
         25    2    3    3    0    0 -0.12921815408E+03  0.27441342892E+02 -0.11892304149E+03  0.21728322654E+03  0.12497580603E+03 0.  0.
         35    2    3    3    0    0  0.12921815408E+03 -0.27441342892E+02 -0.25644883035E+03  0.85021707792E+03  0.79978291952E+03 0.  0.
         22    1    5    5    0    0  0.12977107871E+02 -0.40941933375E+03 -0.15754011587E+03  0.43887524912E+03  0.00000000000E+00 0.  1.
         22    1    5    5    0    0  0.11624104621E+03  0.38197799086E+03 -0.98908714479E+02  0.41134182881E+03  0.00000000000E+00 0.  1.
          5    1    4    4  502    0 -0.15195637756E+03  0.36771180622E+02 -0.10738920664E+03  0.18972978709E+03  0.47000000000E+01 0. -1.
         -5    1    4    4    0  502  0.22738223481E+02 -0.93298377296E+01 -0.11533834853E+02  0.27553439450E+02  0.47000000000E+01 0. -1.
<mgrwt>
<rscale>  0 0.99932620E+03</rscale>
<asrwt>0</asrwt>
<pdfrwt beam="1">  1        4 0.53240650E-01 0.99932620E+03</pdfrwt>
<pdfrwt beam="2">  1       -4 0.11099017E+00 0.99932620E+03</pdfrwt>
<totfact> 0.47802437E+00</totfact>
</mgrwt>
</event>
<event>
 9    1  0.4412976E-036  0.9992098E+03  0.7818608E-02  0.8681791E-01
         -1   -1    0    0    0  501 -0.00000000000E+00  0.00000000000E+00  0.43387522543E+03  0.43387522543E+03  0.00000000000E+00 0.  1.
          1   -1    0    0  501    0  0.00000000000E+00 -0.00000000000E+00 -0.57529229851E+03  0.57529229851E+03  0.00000000000E+00 0.  1.
         36    2    1    2    0    0  0.00000000000E+00 -0.28421709430E-13 -0.14141707308E+03  0.10091675239E+04  0.99920983923E+03 0.  0.
         25    2    3    3    0    0 -0.75062017911E+02 -0.10867481640E+03  0.25453975613E+02  0.18176632898E+03  0.12225617049E+03 0.  0.
         35    2    3    3    0    0  0.75062017911E+02  0.10867481640E+03 -0.16687104869E+03  0.82740119496E+03  0.79956379875E+03 0.  0.
         22    1    5    5    0    0 -0.24572091499E+03 -0.22059575790E+03 -0.16169132300E+03  0.36767559125E+03  0.00000000000E+00 0.  1.
         22    1    5    5    0    0  0.32078293290E+03  0.32927057430E+03 -0.51797256907E+01  0.45972560371E+03  0.00000000000E+00 0.  1.
          5    1    4    4  502    0 -0.10057138515E+03 -0.10170896317E+03  0.43299814583E+02  0.14952016801E+03  0.47000000000E+01 0. -1.
         -5    1    4    4    0  502  0.25509367243E+02 -0.69658532393E+01 -0.17845838971E+02  0.32246160966E+02  0.47000000000E+01 0. -1.
<mgrwt>
<rscale>  0 0.99920984E+03</rscale>
<asrwt>0</asrwt>
<pdfrwt beam="1">  1        1 0.88506507E-01 0.99920984E+03</pdfrwt>
<pdfrwt beam="2">  1       -1 0.66750035E-01 0.99920984E+03</pdfrwt>
<totfact> 0.96622984E+01</totfact>
</mgrwt>
</event>
<event>
 9    1  0.4412976E-036  0.1000405E+04  0.7818608E-02  0.8680652E-01
         -2   -1    0    0    0  501 -0.00000000000E+00  0.00000000000E+00  0.30346904844E+03  0.30346904844E+03  0.00000000000E+00 0.  1.
          2   -1    0    0  501    0  0.00000000000E+00 -0.00000000000E+00 -0.82447520675E+03  0.82447520675E+03  0.00000000000E+00 0.  1.
         36    2    1    2    0    0  0.28421709430E-13 -0.14210854715E-13 -0.52100615831E+03  0.11279442552E+04  0.10004053308E+04 0.  0.
         25    2    3    3    0    0 -0.11017181086E+03 -0.64478900391E+02 -0.32442091296E+02  0.18189797653E+03  0.12545528316E+03 0.  0.
         35    2    3    3    0    0  0.11017181086E+03  0.64478900391E+02 -0.48856406702E+03  0.94604627867E+03  0.80000834827E+03 0.  0.
         22    1    5    5    0    0 -0.25905413774E+03  0.22965063170E+03 -0.40539417167E+03  0.53309745202E+03  0.00000000000E+00 0. -1.
         22    1    5    5    0    0  0.36922594860E+03 -0.16517173131E+03 -0.83169895344E+02  0.41294882665E+03  0.00000000000E+00 0. -1.
          5    1    4    4  502    0 -0.13713321146E+03 -0.42868819635E+02 -0.30618910022E+02  0.14697911768E+03  0.47000000000E+01 0.  1.
         -5    1    4    4    0  502  0.26961400609E+02 -0.21610080756E+02 -0.18231812739E+01  0.34918858845E+02  0.47000000000E+01 0.  1.
<mgrwt>
<rscale>  0 0.10004053E+04</rscale>
<asrwt>0</asrwt>
<pdfrwt beam="1">  1        2 0.12684234E+00 0.10004053E+04</pdfrwt>
<pdfrwt beam="2">  1       -2 0.46687547E-01 0.10004053E+04</pdfrwt>
<totfact> 0.17412854E+02</totfact>
</mgrwt>
</event>
<event>
 9    1  0.4412976E-036  0.9983599E+03  0.7818608E-02  0.8682601E-01
          1   -1    0    0  501    0  0.00000000000E+00  0.00000000000E+00  0.14036162891E+04  0.14036162891E+04  0.00000000000E+00 0. -1.
         -1   -1    0    0    0  501 -0.00000000000E+00 -0.00000000000E+00 -0.17752759996E+03  0.17752759996E+03  0.00000000000E+00 0. -1.
         36    2    1    2    0    0 -0.28421709430E-13 -0.14210854715E-13  0.12260886891E+04  0.15811438890E+04  0.99835991718E+03 0.  0.
         25    2    3    3    0    0 -0.41013954513E+02  0.62958242952E+02  0.41333484370E+03  0.43835724964E+03  0.12516189708E+03 0.  0.
         35    2    3    3    0    0  0.41013954513E+02 -0.62958242952E+02  0.81275384540E+03  0.11427866394E+04  0.79984161250E+03 0.  0.
         22    1    5    5    0    0 -0.29018176244E+03  0.20980348506E+03  0.48500780217E+03  0.60287272767E+03  0.00000000000E+00 0.  1.
         22    1    5    5    0    0  0.33119571695E+03 -0.27276172802E+03  0.32774604323E+03  0.53991391170E+03  0.00000000000E+00 0.  1.
          5    1    4    4  502    0 -0.84133360571E+02  0.31367594373E+02  0.29557227756E+03  0.30894564182E+03  0.47000000000E+01 0.  1.
         -5    1    4    4    0  502  0.43119406058E+02  0.31590648579E+02  0.11776256613E+03  0.12941160782E+03  0.47000000000E+01 0.  1.
<mgrwt>
<rscale>  0 0.99835992E+03</rscale>
<asrwt>0</asrwt>
<pdfrwt beam="1">  1        1 0.21594096E+00 0.99835992E+03</pdfrwt>
<pdfrwt beam="2">  1       -1 0.27311939E-01 0.99835992E+03</pdfrwt>
<totfact> 0.99796016E+01</totfact>
</mgrwt>
</event>
<event>
 9    1  0.4412976E-036  0.9990853E+03  0.7818608E-02  0.8681909E-01
         -2   -1    0    0    0  501 -0.00000000000E+00  0.00000000000E+00  0.28669052611E+03  0.28669052611E+03  0.00000000000E+00 0.  1.
          2   -1    0    0  501    0  0.00000000000E+00 -0.00000000000E+00 -0.87042594961E+03  0.87042594961E+03  0.00000000000E+00 0.  1.
         36    2    1    2    0    0 -0.28421709430E-13 -0.14210854715E-13 -0.58373542350E+03  0.11571164757E+04  0.99908532856E+03 0.  0.
         25    2    3    3    0    0 -0.71942014667E+02 -0.39806252215E+02 -0.23826129444E+03  0.28163626313E+03  0.12565965577E+03 0.  0.
         35    2    3    3    0    0  0.71942014667E+02  0.39806252215E+02 -0.34547412905E+03  0.87548021260E+03  0.80022061809E+03 0.  0.
         22    1    5    5    0    0  0.28918584751E+03  0.26904960574E+03 -0.39171093339E+03  0.55628553827E+03  0.00000000000E+00 0. -1.
         22    1    5    5    0    0 -0.21724383285E+03 -0.22924335352E+03  0.46236804338E+02  0.31919467433E+03  0.00000000000E+00 0. -1.
          5    1    4    4  502    0 -0.80180889097E+02  0.11735039671E+02 -0.76281521080E+02  0.11138961617E+03  0.47000000000E+01 0. -1.
         -5    1    4    4    0  502  0.82388744300E+01 -0.51541291886E+02 -0.16197977336E+03  0.17024664696E+03  0.47000000000E+01 0. -1.
<mgrwt>
<rscale>  0 0.99908533E+03</rscale>
<asrwt>0</asrwt>
<pdfrwt beam="1">  1        2 0.13391168E+00 0.99908533E+03</pdfrwt>
<pdfrwt beam="2">  1       -2 0.44106235E-01 0.99908533E+03</pdfrwt>
<totfact> 0.18118309E+02</totfact>
</mgrwt>
</event>
<event>
 9    1  0.4412976E-036  0.9997380E+03  0.7818608E-02  0.8681287E-01
          2   -1    0    0  501    0  0.00000000000E+00  0.00000000000E+00  0.94265106172E+03  0.94265106172E+03  0.00000000000E+00 0.  1.
         -2   -1    0    0    0  501 -0.00000000000E+00 -0.00000000000E+00 -0.26507053877E+03  0.26507053877E+03  0.00000000000E+00 0.  1.
         36    2    1    2    0    0 -0.14210854715E-13 -0.71054273576E-14  0.67758052295E+03  0.12077216005E+04  0.99973801529E+03 0.  0.
         25    2    3    3    0    0 -0.93532838170E+02 -0.63084430656E+02  0.22954550993E+03  0.28458675733E+03  0.12478158563E+03 0.  0.
         35    2    3    3    0    0  0.93532838170E+02  0.63084430656E+02  0.44803501303E+03  0.92313484317E+03  0.79919617652E+03 0.  0.
         22    1    5    5    0    0  0.23716320073E+03  0.17283704640E+03  0.61223153125E+03  0.67893039131E+03  0.00000000000E+00 0. -1.
         22    1    5    5    0    0 -0.14363036256E+03 -0.10975261575E+03 -0.16419651822E+03  0.24420445186E+03  0.00000000000E+00 0. -1.
          5    1    4    4  502    0 -0.25144427944E+02 -0.81649135128E+02  0.72192817490E+02  0.11194961555E+03  0.47000000000E+01 0. -1.
         -5    1    4    4    0  502 -0.68388410226E+02  0.18564704472E+02  0.15735269244E+03  0.17263714178E+03  0.47000000000E+01 0. -1.
<mgrwt>
<rscale>  0 0.99973802E+03</rscale>
<asrwt>0</asrwt>
<pdfrwt beam="1">  1        2 0.14502324E+00 0.99973802E+03</pdfrwt>
<pdfrwt beam="2">  1       -2 0.40780083E-01 0.99973802E+03</pdfrwt>
<totfact> 0.18905919E+02</totfact>
</mgrwt>
</event>
<event>
 9    1  0.4412976E-036  0.9996942E+03  0.7818608E-02  0.8681329E-01
          1   -1    0    0  501    0  0.00000000000E+00  0.00000000000E+00  0.33469812465E+03  0.33469812465E+03  0.00000000000E+00 0. -1.
         -1   -1    0    0    0  501 -0.00000000000E+00 -0.00000000000E+00 -0.74648501537E+03  0.74648501537E+03  0.00000000000E+00 0. -1.
         36    2    1    2    0    0 -0.28421709430E-13  0.00000000000E+00 -0.41178689072E+03  0.10811831400E+04  0.99969422270E+03 0.  0.
         25    2    3    3    0    0  0.12960861031E+03  0.30916680624E+02 -0.29871495005E+02  0.18542237786E+03  0.12543890541E+03 0.  0.
         35    2    3    3    0    0 -0.12960861031E+03 -0.30916680624E+02 -0.38191539571E+03  0.89576076216E+03  0.79923322037E+03 0.  0.
         22    1    5    5    0    0  0.32863326296E+03 -0.37833553432E+02 -0.26213188513E+03  0.42207146847E+03  0.00000000000E+00 0. -1.
         22    1    5    5    0    0 -0.45824187328E+03  0.69168728080E+01 -0.11978351058E+03  0.47368929369E+03  0.00000000000E+00 0. -1.
          5    1    4    4  502    0 -0.36973742842E+01  0.46461699181E+02 -0.19465489456E+02  0.50728249991E+02  0.47000000000E+01 0. -1.
         -5    1    4    4    0  502  0.13330598460E+03 -0.15545018557E+02 -0.10406005549E+02  0.13469412787E+03  0.47000000000E+01 0. -1.
<mgrwt>
<rscale>  0 0.99969422E+03</rscale>
<asrwt>0</asrwt>
<pdfrwt beam="1">  1        1 0.51492019E-01 0.99969422E+03</pdfrwt>
<pdfrwt beam="2">  1       -1 0.11484385E+00 0.99969422E+03</pdfrwt>
<totfact> 0.62930628E+01</totfact>
</mgrwt>
</event>
<event>
 9    1  0.4412976E-036  0.9991665E+03  0.7818608E-02  0.8681832E-01
         -2   -1    0    0    0  501 -0.00000000000E+00  0.00000000000E+00  0.35539157540E+03  0.35539157540E+03  0.00000000000E+00 0.  1.
          2   -1    0    0  501    0  0.00000000000E+00 -0.00000000000E+00 -0.70227721125E+03  0.70227721125E+03  0.00000000000E+00 0.  1.
         36    2    1    2    0    0  0.00000000000E+00  0.35527136788E-14 -0.34688563585E+03  0.10576687867E+04  0.99916646156E+03 0.  0.
         25    2    3    3    0    0 -0.27366862479E+02 -0.21850979523E-01 -0.20793812277E+03  0.24578015193E+03  0.12814317985E+03 0.  0.
         35    2    3    3    0    0  0.27366862479E+02  0.21850979523E-01 -0.13894751308E+03  0.81188863473E+03  0.79944217938E+03 0.  0.
         22    1    5    5    0    0  0.67644708479E+02 -0.37826885434E+03 -0.18890804503E+03  0.42819315995E+03  0.00000000000E+00 0. -1.
         22    1    5    5    0    0 -0.40277846000E+02  0.37829070532E+03  0.49960531955E+02  0.38369547478E+03  0.00000000000E+00 0. -1.
          5    1    4    4  502    0  0.46114921957E+02  0.28536593569E+01 -0.13215488298E+03  0.14007759455E+03  0.47000000000E+01 0. -1.
         -5    1    4    4    0  502 -0.73481784436E+02 -0.28755103364E+01 -0.75783239789E+02  0.10570255738E+03  0.47000000000E+01 0. -1.
<mgrwt>
<rscale>  0 0.99916646E+03</rscale>
<asrwt>0</asrwt>
<pdfrwt beam="1">  1        2 0.10804265E+00 0.99916646E+03</pdfrwt>
<pdfrwt beam="2">  1       -2 0.54675627E-01 0.99916646E+03</pdfrwt>
<totfact> 0.15542748E+02</totfact>
</mgrwt>
</event>
<event>
 9    1  0.4412976E-036  0.9999208E+03  0.7818608E-02  0.8681113E-01
          2   -1    0    0  501    0  0.00000000000E+00  0.00000000000E+00  0.32578130130E+04  0.32578130130E+04  0.00000000000E+00 0. -1.
         -2   -1    0    0    0  501 -0.00000000000E+00 -0.00000000000E+00 -0.76726444054E+02  0.76726444054E+02  0.00000000000E+00 0. -1.
         36    2    1    2    0    0 -0.28421709430E-13 -0.28421709430E-13  0.31810865689E+04  0.33345394570E+04  0.99992081262E+03 0.  0.
         25    2    3    3    0    0 -0.97574329955E+02 -0.58482670327E+02  0.32477200518E+03  0.36614748994E+03  0.12508459716E+03 0.  0.
         35    2    3    3    0    0  0.97574329955E+02  0.58482670327E+02  0.28563145638E+04  0.29683919671E+04  0.79992312796E+03 0.  0.
         22    1    5    5    0    0  0.37696591398E+03 -0.94298920543E+02  0.82097446217E+03  0.90829216348E+03  0.00000000000E+00 0. -1.
         22    1    5    5    0    0 -0.27939158402E+03  0.15278159087E+03  0.20353401016E+04  0.20600998036E+04  0.00000000000E+00 0. -1.
          5    1    4    4  502    0 -0.52957632072E+02  0.35561499754E+02  0.14245255135E+03  0.15615361169E+03  0.47000000000E+01 0. -1.
         -5    1    4    4    0  502 -0.44616697883E+02 -0.94044170081E+02  0.18231945383E+03  0.20999387825E+03  0.47000000000E+01 0. -1.
<mgrwt>
<rscale>  0 0.99992081E+03</rscale>
<asrwt>0</asrwt>
<pdfrwt beam="1">  1        2 0.50120189E+00 0.99992081E+03</pdfrwt>
<pdfrwt beam="2">  1       -2 0.11804071E-01 0.99992081E+03</pdfrwt>
<totfact> 0.66208974E+01</totfact>
</mgrwt>
</event>
<event>
 9    1  0.4412976E-036  0.1001850E+04  0.7818608E-02  0.8679278E-01
          2   -1    0    0  501    0  0.00000000000E+00  0.00000000000E+00  0.48429443077E+03  0.48429443077E+03  0.00000000000E+00 0. -1.
         -2   -1    0    0    0  501 -0.00000000000E+00 -0.00000000000E+00 -0.51812654808E+03  0.51812654808E+03  0.00000000000E+00 0. -1.
         36    2    1    2    0    0  0.00000000000E+00  0.14210854715E-13 -0.33832117313E+02  0.10024209789E+04  0.10018498923E+04 0.  0.
         25    2    3    3    0    0 -0.84655087430E+02 -0.79268873299E+02  0.75200436148E+02  0.18670445326E+03  0.12551258569E+03 0.  0.
         35    2    3    3    0    0  0.84655087430E+02  0.79268873299E+02 -0.10903255346E+03  0.81571652560E+03  0.80003457070E+03 0.  0.
         22    1    5    5    0    0 -0.27276890033E+03  0.28506794282E+03 -0.77406974870E+02  0.40206771167E+03  0.00000000000E+00 0. -1.
         22    1    5    5    0    0  0.35742398776E+03 -0.20579906952E+03 -0.31625578591E+02  0.41364881393E+03  0.00000000000E+00 0. -1.
          5    1    4    4  502    0 -0.10088342013E+03 -0.18582695607E+02  0.68312686143E+02  0.12333488607E+03  0.47000000000E+01 0.  1.
         -5    1    4    4    0  502  0.16228332703E+02 -0.60686177692E+02  0.68877500054E+01  0.63369567186E+02  0.47000000000E+01 0.  1.
<mgrwt>
<rscale>  0 0.10018499E+04</rscale>
<asrwt>0</asrwt>
<pdfrwt beam="1">  1        2 0.74506835E-01 0.10018499E+04</pdfrwt>
<pdfrwt beam="2">  1       -2 0.79711777E-01 0.10018499E+04</pdfrwt>
<totfact> 0.10731255E+02</totfact>
</mgrwt>
</event>
<event>
 9    1  0.4412976E-036  0.9993814E+03  0.7818608E-02  0.8681627E-01
          2   -1    0    0  501    0  0.00000000000E+00  0.00000000000E+00  0.12806641319E+04  0.12806641319E+04  0.00000000000E+00 0. -1.
         -2   -1    0    0    0  501 -0.00000000000E+00 -0.00000000000E+00 -0.19496977507E+03  0.19496977507E+03  0.00000000000E+00 0. -1.
         36    2    1    2    0    0  0.14210854715E-13  0.14210854715E-13  0.10856943568E+04  0.14756339069E+04  0.99938140413E+03 0.  0.
         25    2    3    3    0    0 -0.13757626067E+02 -0.72272772304E+02  0.36135443370E+03  0.39093823394E+03  0.12978077714E+03 0.  0.
         35    2    3    3    0    0  0.13757626067E+02  0.72272772304E+02  0.72433992311E+03  0.10846956730E+04  0.80404213380E+03 0.  0.
         22    1    5    5    0    0  0.27466564983E+03  0.33721918724E+03  0.41182771244E+03  0.59896582888E+03  0.00000000000E+00 0. -1.
         22    1    5    5    0    0 -0.26090802376E+03 -0.26494641493E+03  0.31251221067E+03  0.48572984411E+03  0.00000000000E+00 0. -1.
          5    1    4    4  502    0  0.40527490277E+02 -0.37116525500E+02  0.55354566324E+02  0.78143022377E+02  0.47000000000E+01 0. -1.
         -5    1    4    4    0  502 -0.54285116344E+02 -0.35156246804E+02  0.30599986737E+03  0.31279521156E+03  0.47000000000E+01 0. -1.
<mgrwt>
<rscale>  0 0.99938140E+03</rscale>
<asrwt>0</asrwt>
<pdfrwt beam="1">  1        2 0.19702525E+00 0.99938140E+03</pdfrwt>
<pdfrwt beam="2">  1       -2 0.29995351E-01 0.99938140E+03</pdfrwt>
<totfact> 0.20918770E+02</totfact>
</mgrwt>
</event>
<event>
 9    1  0.4412976E-036  0.1000646E+04  0.7818608E-02  0.8680423E-01
          2   -1    0    0  501    0  0.00000000000E+00  0.00000000000E+00  0.66440302614E+03  0.66440302614E+03  0.00000000000E+00 0. -1.
         -2   -1    0    0    0  501 -0.00000000000E+00 -0.00000000000E+00 -0.37676407053E+03  0.37676407053E+03  0.00000000000E+00 0. -1.
         36    2    1    2    0    0  0.00000000000E+00  0.00000000000E+00  0.28763895561E+03  0.10411670967E+04  0.10006461684E+04 0.  0.
         25    2    3    3    0    0 -0.93342340002E+02  0.10810731519E+02  0.16263380521E+03  0.22586531286E+03  0.12544210060E+03 0.  0.
         35    2    3    3    0    0  0.93342340002E+02 -0.10810731519E+02  0.12500515040E+03  0.81530178381E+03  0.80016313755E+03 0.  0.
         22    1    5    5    0    0  0.17268780524E+03  0.32157568434E+02 -0.31795209905E+03  0.36324747015E+03  0.00000000000E+00 0.  1.
         22    1    5    5    0    0 -0.79345465237E+02 -0.42968299953E+02  0.44295724945E+03  0.45205431365E+03  0.00000000000E+00 0.  1.
          5    1    4    4  502    0 -0.28855189370E+02  0.44221817350E+02  0.13991546438E+03  0.14962158352E+03  0.47000000000E+01 0.  1.
         -5    1    4    4    0  502 -0.64487150632E+02 -0.33411085831E+02  0.22718340833E+02  0.76243729337E+02  0.47000000000E+01 0.  1.
<mgrwt>
<rscale>  0 0.10006462E+04</rscale>
<asrwt>0</asrwt>
<pdfrwt beam="1">  1        2 0.10221585E+00 0.10006462E+04</pdfrwt>
<pdfrwt beam="2">  1       -2 0.57963703E-01 0.10006462E+04</pdfrwt>
<totfact> 0.14747934E+02</totfact>
</mgrwt>
</event>
<event>
 9    1  0.4412976E-036  0.9998213E+03  0.7818608E-02  0.8681208E-01
         -2   -1    0    0    0  501 -0.00000000000E+00  0.00000000000E+00  0.24965441157E+03  0.24965441157E+03  0.00000000000E+00 0. -1.
          2   -1    0    0  501    0  0.00000000000E+00 -0.00000000000E+00 -0.10010264919E+04  0.10010264919E+04  0.00000000000E+00 0. -1.
         36    2    1    2    0    0  0.00000000000E+00 -0.28421709430E-13 -0.75137208029E+03  0.12506809034E+04  0.99982134363E+03 0.  0.
         25    2    3    3    0    0 -0.12049690753E+03 -0.11157856102E+02 -0.22146322936E+03  0.28304799160E+03  0.12816474208E+03 0.  0.
         35    2    3    3    0    0  0.12049690753E+03  0.11157856102E+02 -0.52990885093E+03  0.96763291184E+03  0.80054110407E+03 0.  0.
         22    1    5    5    0    0  0.11821220528E+03 -0.38900936203E+03 -0.22621417508E+03  0.46526902135E+03  0.00000000000E+00 0. -1.
         22    1    5    5    0    0  0.22847022499E+01  0.40016721813E+03 -0.30369467585E+03  0.50236389049E+03  0.00000000000E+00 0. -1.
          5    1    4    4  502    0 -0.95838383481E+02 -0.53894696625E+02 -0.88744677317E+02  0.14137659575E+03  0.47000000000E+01 0. -1.
         -5    1    4    4    0  502 -0.24658524048E+02  0.42736840523E+02 -0.13271855204E+03  0.14167139585E+03  0.47000000000E+01 0. -1.
<mgrwt>
<rscale>  0 0.99982134E+03</rscale>
<asrwt>0</asrwt>
<pdfrwt beam="1">  1        2 0.15400407E+00 0.99982134E+03</pdfrwt>
<pdfrwt beam="2">  1       -2 0.38408371E-01 0.99982134E+03</pdfrwt>
<totfact> 0.19461783E+02</totfact>
</mgrwt>
</event>
<event>
 9    1  0.4412976E-036  0.9993843E+03  0.7818608E-02  0.8681625E-01
         -2   -1    0    0    0  501 -0.00000000000E+00  0.00000000000E+00  0.23742002192E+03  0.23742002192E+03  0.00000000000E+00 0. -1.
          2   -1    0    0  501    0  0.00000000000E+00 -0.00000000000E+00 -0.10516898918E+04  0.10516898918E+04  0.00000000000E+00 0. -1.
         36    2    1    2    0    0  0.00000000000E+00  0.00000000000E+00 -0.81426986988E+03  0.12891099137E+04  0.99938428477E+03 0.  0.
         25    2    3    3    0    0 -0.44797511646E+02  0.12454393403E+03 -0.96237021292E+02  0.20577131376E+03  0.12474879055E+03 0.  0.
         35    2    3    3    0    0  0.44797511646E+02 -0.12454393403E+03 -0.71803284859E+03  0.10833386000E+04  0.80033326931E+03 0.  0.
         22    1    5    5    0    0  0.99481232791E+01  0.32940872829E+03 -0.44047762767E+03  0.55011782003E+03  0.00000000000E+00 0.  1.
         22    1    5    5    0    0  0.34849388367E+02 -0.45395266232E+03 -0.27755522092E+03  0.53322077994E+03  0.00000000000E+00 0.  1.
          5    1    4    4  502    0 -0.12270497367E+02 -0.24389373297E+02 -0.53119894141E+01  0.28208400645E+02  0.47000000000E+01 0.  1.
         -5    1    4    4    0  502 -0.32527014280E+02  0.14893330733E+03 -0.90925031878E+02  0.17756291311E+03  0.47000000000E+01 0.  1.
<mgrwt>
<rscale>  0 0.99938428E+03</rscale>
<asrwt>0</asrwt>
<pdfrwt beam="1">  1        2 0.16179844E+00 0.99938428E+03</pdfrwt>
<pdfrwt beam="2">  1       -2 0.36526158E-01 0.99938428E+03</pdfrwt>
<totfact> 0.19902610E+02</totfact>
</mgrwt>
</event>
<event>
 9    1  0.4412976E-036  0.1001036E+04  0.7818608E-02  0.8680052E-01
         -3   -1    0    0    0  501 -0.00000000000E+00  0.00000000000E+00  0.29963602786E+03  0.29963602786E+03  0.00000000000E+00 0.  1.
          3   -1    0    0  501    0  0.00000000000E+00 -0.00000000000E+00 -0.83607570722E+03  0.83607570722E+03  0.00000000000E+00 0.  1.
         36    2    1    2    0    0 -0.14210854715E-13 -0.14210854715E-13 -0.53643967936E+03  0.11357117351E+04  0.10010362709E+04 0.  0.
         25    2    3    3    0    0  0.81541348003E+02  0.11227736702E+03 -0.12878906160E+03  0.22689994523E+03  0.12506703873E+03 0.  0.
         35    2    3    3    0    0 -0.81541348003E+02 -0.11227736702E+03 -0.40765061776E+03  0.90881178985E+03  0.80031534075E+03 0.  0.
         22    1    5    5    0    0  0.18097994880E+03  0.83328088781E+02  0.15864981751E+03  0.25469015851E+03  0.00000000000E+00 0. -1.
         22    1    5    5    0    0 -0.26252129680E+03 -0.19560545580E+03 -0.56630043526E+03  0.65412163134E+03  0.00000000000E+00 0. -1.
          5    1    4    4  502    0 -0.71220787974E+01  0.15018052985E+02  0.21171192705E+02  0.27323530563E+02  0.47000000000E+01 0. -1.
         -5    1    4    4    0  502  0.88663426800E+02  0.97259314033E+02 -0.14996025431E+03  0.19957641466E+03  0.47000000000E+01 0. -1.
<mgrwt>
<rscale>  0 0.10010363E+04</rscale>
<asrwt>0</asrwt>
<pdfrwt beam="1">  1        3 0.12862703E+00 0.10010363E+04</pdfrwt>
<pdfrwt beam="2">  1       -3 0.46097850E-01 0.10010363E+04</pdfrwt>
<totfact> 0.93688911E+00</totfact>
</mgrwt>
</event>
<event>
 9    1  0.4412976E-036  0.1001136E+04  0.7818608E-02  0.8679957E-01
         -2   -1    0    0    0  501 -0.00000000000E+00  0.00000000000E+00  0.21964193185E+03  0.21964193185E+03  0.00000000000E+00 0. -1.
          2   -1    0    0  501    0  0.00000000000E+00 -0.00000000000E+00 -0.11408039166E+04  0.11408039166E+04  0.00000000000E+00 0. -1.
         36    2    1    2    0    0  0.00000000000E+00  0.71054273576E-14 -0.92116198470E+03  0.13604458484E+04  0.10011361068E+04 0.  0.
         25    2    3    3    0    0 -0.13334196651E+03  0.18322349780E+01 -0.23702011947E+03  0.29934758431E+03  0.12508797737E+03 0.  0.
         35    2    3    3    0    0  0.13334196651E+03 -0.18322349780E+01 -0.68414186524E+03  0.10610982641E+04  0.80005999599E+03 0.  0.
         22    1    5    5    0    0 -0.21039471853E+03 -0.15733146178E+03  0.18722022338E+02  0.26338116974E+03  0.00000000000E+00 0. -1.
         22    1    5    5    0    0  0.34373668504E+03  0.15549922681E+03 -0.70286388757E+03  0.79771709436E+03  0.00000000000E+00 0. -1.
          5    1    4    4  502    0 -0.63283798511E+02 -0.43046079208E+02 -0.42365636680E+02  0.87605600622E+02  0.47000000000E+01 0.  1.
         -5    1    4    4    0  502 -0.70058167995E+02  0.44878314186E+02 -0.19465448279E+03  0.21174198369E+03  0.47000000000E+01 0.  1.
<mgrwt>
<rscale>  0 0.10011361E+04</rscale>
<asrwt>0</asrwt>
<pdfrwt beam="1">  1        2 0.17550830E+00 0.10011361E+04</pdfrwt>
<pdfrwt beam="2">  1       -2 0.33791066E-01 0.10011361E+04</pdfrwt>
<totfact> 0.20319302E+02</totfact>
</mgrwt>
</event>
<event>
 9    1  0.4412976E-036  0.9971292E+03  0.7818608E-02  0.8683777E-01
          2   -1    0    0  501    0  0.00000000000E+00  0.00000000000E+00  0.16270020360E+04  0.16270020360E+04  0.00000000000E+00 0.  1.
         -2   -1    0    0    0  501 -0.00000000000E+00 -0.00000000000E+00 -0.15277586700E+03  0.15277586700E+03  0.00000000000E+00 0.  1.
         36    2    1    2    0    0  0.00000000000E+00  0.00000000000E+00  0.14742261690E+04  0.17797779030E+04  0.99712917250E+03 0.  0.
         25    2    3    3    0    0  0.14067300490E+02 -0.96015487394E+02  0.44746872087E+03  0.47462349620E+03  0.12498937645E+03 0.  0.
         35    2    3    3    0    0 -0.14067300490E+02  0.96015487394E+02  0.10267574481E+04  0.13051544068E+04  0.79986267918E+03 0.  0.
         22    1    5    5    0    0  0.38922322699E+03  0.98510041579E+02  0.48082621569E+03  0.62641264228E+03  0.00000000000E+00 0. -1.
         22    1    5    5    0    0 -0.40329052748E+03 -0.24945541845E+01  0.54593123244E+03  0.67874176452E+03  0.00000000000E+00 0. -1.
          5    1    4    4  502    0 -0.21941317527E+02  0.23985971610E+02  0.95695829125E+02  0.10117573800E+03  0.47000000000E+01 0.  1.
         -5    1    4    4    0  502  0.36008618017E+02 -0.12000145900E+03  0.35177289174E+03  0.37344775819E+03  0.47000000000E+01 0.  1.
<mgrwt>
<rscale>  0 0.99712917E+03</rscale>
<asrwt>0</asrwt>
<pdfrwt beam="1">  1        2 0.25030799E+00 0.99712917E+03</pdfrwt>
<pdfrwt beam="2">  1       -2 0.23503981E-01 0.99712917E+03</pdfrwt>
<totfact> 0.20549268E+02</totfact>
</mgrwt>
</event>
<event>
 9    1  0.4412976E-036  0.9994184E+03  0.7818608E-02  0.8681592E-01
          2   -1    0    0  501    0  0.00000000000E+00  0.00000000000E+00  0.15835660847E+04  0.15835660847E+04  0.00000000000E+00 0. -1.
         -2   -1    0    0    0  501 -0.00000000000E+00 -0.00000000000E+00 -0.15768793963E+03  0.15768793963E+03  0.00000000000E+00 0. -1.
         36    2    1    2    0    0 -0.53290705182E-14  0.00000000000E+00  0.14258781450E+04  0.17412540243E+04  0.99941837716E+03 0.  0.
         25    2    3    3    0    0 -0.42410677374E+01 -0.37592110643E+02  0.50100236617E+03  0.51777917028E+03  0.12514289766E+03 0.  0.
         35    2    3    3    0    0  0.42410677374E+01  0.37592110643E+02  0.92487577886E+03  0.12234748540E+04  0.80004022312E+03 0.  0.
         22    1    5    5    0    0  0.23624672890E+03  0.30350181687E+03  0.71770159306E+03  0.81426128880E+03  0.00000000000E+00 0. -1.
         22    1    5    5    0    0 -0.23200566116E+03 -0.26590970623E+03  0.20717418580E+03  0.40921356520E+03  0.00000000000E+00 0. -1.
          5    1    4    4  502    0  0.13711949578E+02  0.27785317709E+02  0.35886005013E+03  0.36022585556E+03  0.47000000000E+01 0. -1.
         -5    1    4    4    0  502 -0.17953017315E+02 -0.65377428351E+02  0.14214231604E+03  0.15755331472E+03  0.47000000000E+01 0. -1.
<mgrwt>
<rscale>  0 0.99941838E+03</rscale>
<asrwt>0</asrwt>
<pdfrwt beam="1">  1        2 0.24362554E+00 0.99941838E+03</pdfrwt>
<pdfrwt beam="2">  1       -2 0.24259684E-01 0.99941838E+03</pdfrwt>
<totfact> 0.20560059E+02</totfact>
</mgrwt>
</event>
<event>
 9    1  0.4412976E-036  0.9978200E+03  0.7818608E-02  0.8683117E-01
          2   -1    0    0  501    0  0.00000000000E+00  0.00000000000E+00  0.21766524864E+04  0.21766524864E+04  0.00000000000E+00 0. -1.
         -2   -1    0    0    0  501 -0.00000000000E+00 -0.00000000000E+00 -0.11435504638E+03  0.11435504638E+03  0.00000000000E+00 0. -1.
         36    2    1    2    0    0 -0.35527136788E-14  0.00000000000E+00  0.20622974401E+04  0.22910075328E+04  0.99782001591E+03 0.  0.
         25    2    3    3    0    0 -0.29984041838E+02 -0.14985432138E+02  0.79646701966E+02  0.15270358598E+03  0.12590147773E+03 0.  0.
         35    2    3    3    0    0  0.29984041838E+02  0.14985432138E+02  0.19826507381E+04  0.21383039468E+04  0.80019760926E+03 0.  0.
         22    1    5    5    0    0 -0.88152231388E+02  0.28808731040E+03  0.17047142842E+04  0.17311313945E+04  0.00000000000E+00 0. -1.
         22    1    5    5    0    0  0.11813627323E+03 -0.27310187826E+03  0.27793645387E+03  0.40717255230E+03  0.00000000000E+00 0. -1.
          5    1    4    4  502    0 -0.44942526455E+02 -0.52912615282E+02  0.86586490395E+02  0.11108053772E+03  0.47000000000E+01 0.  1.
         -5    1    4    4    0  502  0.14958484617E+02  0.37927183144E+02 -0.69397884291E+01  0.41623048264E+02  0.47000000000E+01 0.  1.
<mgrwt>
<rscale>  0 0.99782002E+03</rscale>
<asrwt>0</asrwt>
<pdfrwt beam="1">  1        2 0.33486958E+00 0.99782002E+03</pdfrwt>
<pdfrwt beam="2">  1       -2 0.17593086E-01 0.99782002E+03</pdfrwt>
<totfact> 0.16540953E+02</totfact>
</mgrwt>
</event>
<event>
 9    1  0.4412976E-036  0.1000392E+04  0.7818608E-02  0.8680664E-01
         -3   -1    0    0    0  501 -0.00000000000E+00  0.00000000000E+00  0.41660693353E+03  0.41660693353E+03  0.00000000000E+00 0. -1.
          3   -1    0    0  501    0  0.00000000000E+00 -0.00000000000E+00 -0.60055701262E+03  0.60055701262E+03  0.00000000000E+00 0. -1.
         36    2    1    2    0    0  0.71054273576E-14  0.28421709430E-13 -0.18395007909E+03  0.10171639462E+04  0.10003923539E+04 0.  0.
         25    2    3    3    0    0 -0.32514376236E+02 -0.13509508071E+03 -0.53800043372E+02  0.19443376335E+03  0.12490867932E+03 0.  0.
         35    2    3    3    0    0  0.32514376236E+02  0.13509508071E+03 -0.13015003572E+03  0.82273018281E+03  0.80039868591E+03 0.  0.
         22    1    5    5    0    0 -0.89826575526E+02 -0.23255528547E+03  0.19531909533E+03  0.31670226313E+03  0.00000000000E+00 0.  1.
         22    1    5    5    0    0  0.12234095176E+03  0.36765036617E+03 -0.32546913105E+03  0.50602791968E+03  0.00000000000E+00 0.  1.
          5    1    4    4  502    0 -0.84563080390E+01 -0.14416852834E+03 -0.11812170235E+02  0.14497479462E+03  0.47000000000E+01 0.  1.
         -5    1    4    4    0  502 -0.24058068197E+02  0.90734476299E+01 -0.41987873137E+02  0.49458968730E+02  0.47000000000E+01 0.  1.
<mgrwt>
<rscale>  0 0.10003924E+04</rscale>
<asrwt>0</asrwt>
<pdfrwt beam="1">  1        3 0.92393386E-01 0.10003924E+04</pdfrwt>
<pdfrwt beam="2">  1       -3 0.64093375E-01 0.10003924E+04</pdfrwt>
<totfact> 0.10144321E+01</totfact>
</mgrwt>
</event>
<event>
 9    1  0.4412976E-036  0.1000025E+04  0.7818608E-02  0.8681014E-01
          1   -1    0    0  501    0  0.00000000000E+00  0.00000000000E+00  0.68003852988E+03  0.68003852988E+03  0.00000000000E+00 0. -1.
         -1   -1    0    0    0  501 -0.00000000000E+00 -0.00000000000E+00 -0.36764493000E+03  0.36764493000E+03  0.00000000000E+00 0. -1.
         36    2    1    2    0    0  0.00000000000E+00  0.00000000000E+00  0.31239359987E+03  0.10476834599E+04  0.10000254351E+04 0.  0.
         25    2    3    3    0    0 -0.87995075266E+02 -0.10728960671E+03  0.82055654733E+02  0.20429767379E+03  0.12549986479E+03 0.  0.
         35    2    3    3    0    0  0.87995075266E+02  0.10728960671E+03  0.23033794514E+03  0.84338578609E+03  0.79936838956E+03 0.  0.
         22    1    5    5    0    0  0.39783799753E+03 -0.41794123248E+02 -0.45455663556E+02  0.40260158763E+03  0.00000000000E+00 0.  1.
         22    1    5    5    0    0 -0.30984292226E+03  0.14908372996E+03  0.27579360870E+03  0.44078419846E+03  0.00000000000E+00 0.  1.
          5    1    4    4  502    0 -0.26240613373E+02  0.17277610522E+02  0.53594624241E+02  0.62302161785E+02  0.47000000000E+01 0. -1.
         -5    1    4    4    0  502 -0.61754461893E+02 -0.12456721723E+03  0.28461030491E+02  0.14199551200E+03  0.47000000000E+01 0. -1.
<mgrwt>
<rscale>  0 0.10000254E+04</rscale>
<asrwt>0</asrwt>
<pdfrwt beam="1">  1        1 0.10462131E+00 0.10000254E+04</pdfrwt>
<pdfrwt beam="2">  1       -1 0.56560759E-01 0.10000254E+04</pdfrwt>
<totfact> 0.10379963E+02</totfact>
</mgrwt>
</event>
<event>
 9    1  0.4412976E-036  0.9999738E+03  0.7818608E-02  0.8681063E-01
         -2   -1    0    0    0  501 -0.00000000000E+00  0.00000000000E+00  0.32271628919E+03  0.32271628919E+03  0.00000000000E+00 0.  1.
          2   -1    0    0  501    0  0.00000000000E+00 -0.00000000000E+00 -0.77463366742E+03  0.77463366742E+03  0.00000000000E+00 0.  1.
         36    2    1    2    0    0 -0.14210854715E-13 -0.14210854715E-13 -0.45191737823E+03  0.10973499566E+04  0.99997380492E+03 0.  0.
         25    2    3    3    0    0 -0.65974877689E+02 -0.95892750077E+02  0.88848955360E+00  0.17102524215E+03  0.12530259389E+03 0.  0.
         35    2    3    3    0    0  0.65974877689E+02  0.95892750077E+02 -0.45280586779E+03  0.92632471446E+03  0.79968507470E+03 0.  0.
         22    1    5    5    0    0 -0.22250167292E+02  0.39280552702E+03 -0.19792753890E+02  0.39393274186E+03  0.00000000000E+00 0. -1.
         22    1    5    5    0    0  0.88225044982E+02 -0.29691277694E+03 -0.43301311390E+03  0.53239197259E+03  0.00000000000E+00 0. -1.
          5    1    4    4  502    0 -0.38742595009E+02 -0.53666697590E+02 -0.61711266906E+02  0.90617181381E+02  0.47000000000E+01 0.  1.
         -5    1    4    4    0  502 -0.27232282680E+02 -0.42226052487E+02  0.62599756459E+02  0.80408060773E+02  0.47000000000E+01 0.  1.
<mgrwt>
<rscale>  0 0.99997380E+03</rscale>
<asrwt>0</asrwt>
<pdfrwt beam="1">  1        2 0.11917441E+00 0.99997380E+03</pdfrwt>
<pdfrwt beam="2">  1       -2 0.49648660E-01 0.99997380E+03</pdfrwt>
<totfact> 0.16704341E+02</totfact>
</mgrwt>
</event>
<event>
 9    1  0.4412976E-036  0.9968511E+03  0.7818608E-02  0.8684042E-01
          2   -1    0    0  501    0  0.00000000000E+00  0.00000000000E+00  0.19227590164E+04  0.19227590164E+04  0.00000000000E+00 0.  1.
         -2   -1    0    0    0  501 -0.00000000000E+00 -0.00000000000E+00 -0.12920394431E+03  0.12920394431E+03  0.00000000000E+00 0.  1.
         36    2    1    2    0    0  0.14210854715E-13 -0.88817841970E-14  0.17935550721E+04  0.20519629607E+04  0.99685114010E+03 0.  0.
         25    2    3    3    0    0 -0.88347818545E+02 -0.95481353358E+01  0.51840351848E+03  0.54057764384E+03  0.12484180834E+03 0.  0.
         35    2    3    3    0    0  0.88347818545E+02  0.95481353358E+01  0.12751515536E+04  0.15113853169E+04  0.80645991065E+03 0.  0.
         22    1    5    5    0    0 -0.42911142139E+02 -0.15641612260E+03  0.12891623157E+04  0.12993255349E+04  0.00000000000E+00 0.  1.
         22    1    5    5    0    0  0.13125896068E+03  0.16596425794E+03 -0.14010762063E+02  0.21205978196E+03  0.00000000000E+00 0.  1.
          5    1    4    4  502    0 -0.11568166563E+03 -0.20318998994E+02  0.34087378376E+03  0.36057195667E+03  0.47000000000E+01 0. -1.
         -5    1    4    4    0  502  0.27333847084E+02  0.10770863658E+02  0.17752973473E+03  0.18000568717E+03  0.47000000000E+01 0. -1.
<mgrwt>
<rscale>  0 0.99685114E+03</rscale>
<asrwt>0</asrwt>
<pdfrwt beam="1">  1        2 0.29580906E+00 0.99685114E+03</pdfrwt>
<pdfrwt beam="2">  1       -2 0.19877531E-01 0.99685114E+03</pdfrwt>
<totfact> 0.18744143E+02</totfact>
</mgrwt>
</event>
<event>
 9    1  0.4412976E-036  0.1004968E+04  0.7818608E-02  0.8676322E-01
         -2   -1    0    0    0  501 -0.00000000000E+00  0.00000000000E+00  0.46808527974E+03  0.46808527974E+03  0.00000000000E+00 0.  1.
          2   -1    0    0  501    0  0.00000000000E+00 -0.00000000000E+00 -0.53941008425E+03  0.53941008425E+03  0.00000000000E+00 0.  1.
         36    2    1    2    0    0 -0.71054273576E-14  0.00000000000E+00 -0.71324804516E+02  0.10074953640E+04  0.10049675023E+04 0.  0.
         25    2    3    3    0    0  0.62725295066E+02 -0.11971075903E+03 -0.68219581755E+02  0.19645857718E+03  0.12520755866E+03 0.  0.
         35    2    3    3    0    0 -0.62725295066E+02  0.11971075903E+03 -0.31052227607E+01  0.81103678682E+03  0.79969112706E+03 0.  0.
         22    1    5    5    0    0  0.63340263220E+02  0.38318906844E+03  0.21737278848E+03  0.44508064470E+03  0.00000000000E+00 0. -1.
         22    1    5    5    0    0 -0.12606555829E+03 -0.26347830941E+03 -0.22047801124E+03  0.36595614212E+03  0.00000000000E+00 0. -1.
          5    1    4    4  502    0 -0.37932624027E+02 -0.41563419538E+02 -0.16272489000E+02  0.58764663766E+02  0.47000000000E+01 0.  1.
         -5    1    4    4    0  502  0.10065791909E+03 -0.78147339487E+02 -0.51947092755E+02  0.13769391341E+03  0.47000000000E+01 0.  1.
<mgrwt>
<rscale>  0 0.10049675E+04</rscale>
<asrwt>0</asrwt>
<pdfrwt beam="1">  1        2 0.82986167E-01 0.10049675E+04</pdfrwt>
<pdfrwt beam="2">  1       -2 0.72013120E-01 0.10049675E+04</pdfrwt>
<totfact> 0.11898897E+02</totfact>
</mgrwt>
</event>
<event>
 9    1  0.4412976E-036  0.1000434E+04  0.7818608E-02  0.8680625E-01
         -2   -1    0    0    0  501 -0.00000000000E+00  0.00000000000E+00  0.86516032410E+03  0.86516032410E+03  0.00000000000E+00 0. -1.
          2   -1    0    0  501    0  0.00000000000E+00 -0.00000000000E+00 -0.28921478914E+03  0.28921478914E+03  0.00000000000E+00 0. -1.
         36    2    1    2    0    0 -0.14210854715E-13 -0.28421709430E-13  0.57594553496E+03  0.11543751132E+04  0.10004342271E+04 0.  0.
         25    2    3    3    0    0 -0.41228751742E+02 -0.13572046061E+03  0.18429570143E+03  0.26348984642E+03  0.12386339329E+03 0.  0.
         35    2    3    3    0    0  0.41228751742E+02  0.13572046061E+03  0.39164983353E+03  0.89088526682E+03  0.78750689720E+03 0.  0.
         22    1    5    5    0    0 -0.30123148957E+03  0.17116113613E+03 -0.28566635298E+02  0.34763860183E+03  0.00000000000E+00 0.  1.
         22    1    5    5    0    0  0.34246024131E+03 -0.35440675514E+02  0.42021646883E+03  0.54324666500E+03  0.00000000000E+00 0.  1.
          5    1    4    4  502    0 -0.33273135159E+02  0.11817370275E+02  0.62556899900E+02  0.71987550928E+02  0.47000000000E+01 0. -1.
         -5    1    4    4    0  502 -0.79556165826E+01 -0.14753783089E+03  0.12173880153E+03  0.19150229549E+03  0.47000000000E+01 0. -1.
<mgrwt>
<rscale>  0 0.10004342E+04</rscale>
<asrwt>0</asrwt>
<pdfrwt beam="1">  1        2 0.44494583E-01 0.10004342E+04</pdfrwt>
<pdfrwt beam="2">  1       -2 0.13310159E+00 0.10004342E+04</pdfrwt>
<totfact> 0.53846230E+01</totfact>
</mgrwt>
</event>
<event>
 9    1  0.4412976E-036  0.1000302E+04  0.7818608E-02  0.8680751E-01
          2   -1    0    0  501    0  0.00000000000E+00  0.00000000000E+00  0.23217596448E+04  0.23217596448E+04  0.00000000000E+00 0.  1.
         -2   -1    0    0    0  501 -0.00000000000E+00 -0.00000000000E+00 -0.10774191606E+03  0.10774191606E+03  0.00000000000E+00 0.  1.
         36    2    1    2    0    0 -0.14210854715E-13  0.28421709430E-13  0.22140177287E+04  0.24295015608E+04  0.10003016200E+04 0.  0.
         25    2    3    3    0    0 -0.37790698685E+02  0.13115472647E+03  0.33586085556E+03  0.38330887804E+03  0.12447281836E+03 0.  0.
         35    2    3    3    0    0  0.37790698685E+02 -0.13115472647E+03  0.18781568732E+04  0.20461926828E+04  0.80050081555E+03 0.  0.
         22    1    5    5    0    0  0.50232160605E+02 -0.45479539901E+03  0.81337367647E+03  0.93324105273E+03  0.00000000000E+00 0. -1.
         22    1    5    5    0    0 -0.12441461920E+02  0.32364067254E+03  0.10647831967E+04  0.11129516301E+04  0.00000000000E+00 0. -1.
          5    1    4    4  502    0 -0.10467043931E+02  0.14964272062E+03  0.25560069556E+03  0.29640564842E+03  0.47000000000E+01 0.  1.
         -5    1    4    4    0  502 -0.27323654755E+02 -0.18487994151E+02  0.80260159992E+02  0.86903229622E+02  0.47000000000E+01 0.  1.
<mgrwt>
<rscale>  0 0.10003016E+04</rscale>
<asrwt>0</asrwt>
<pdfrwt beam="1">  1        2 0.35719375E+00 0.10003016E+04</pdfrwt>
<pdfrwt beam="2">  1       -2 0.16575681E-01 0.10003016E+04</pdfrwt>
<totfact> 0.15051639E+02</totfact>
</mgrwt>
</event>
<event>
 9    1  0.4412976E-036  0.9997317E+03  0.7818608E-02  0.8681293E-01
         -1   -1    0    0    0  501 -0.00000000000E+00  0.00000000000E+00  0.16420480045E+03  0.16420480045E+03  0.00000000000E+00 0. -1.
          1   -1    0    0  501    0  0.00000000000E+00 -0.00000000000E+00 -0.15216721975E+04  0.15216721975E+04  0.00000000000E+00 0. -1.
         36    2    1    2    0    0  0.14210854715E-13 -0.14210854715E-13 -0.13574673971E+04  0.16858769980E+04  0.99973172309E+03 0.  0.
         25    2    3    3    0    0 -0.27061767967E+02  0.92792542651E+02 -0.42271246349E+03  0.45128834947E+03  0.12503020562E+03 0.  0.
         35    2    3    3    0    0  0.27061767967E+02 -0.92792542651E+02 -0.93475493357E+03  0.12345886485E+04  0.80068692376E+03 0.  0.
         22    1    5    5    0    0 -0.20666917268E+03  0.12073210876E+03 -0.88167958985E+03  0.91359032842E+03  0.00000000000E+00 0. -1.
         22    1    5    5    0    0  0.23373094065E+03 -0.21352465141E+03 -0.53075343717E+02  0.32099832007E+03  0.00000000000E+00 0. -1.
          5    1    4    4  502    0  0.44180488682E+02  0.54138478655E+01 -0.10539575262E+03  0.11450580771E+03  0.47000000000E+01 0. -1.
         -5    1    4    4    0  502 -0.71242256649E+02  0.87378694785E+02 -0.31731671087E+03  0.33678254175E+03  0.47000000000E+01 0. -1.
<mgrwt>
<rscale>  0 0.99973172E+03</rscale>
<asrwt>0</asrwt>
<pdfrwt beam="1">  1        1 0.23410342E+00 0.99973172E+03</pdfrwt>
<pdfrwt beam="2">  1       -1 0.25262276E-01 0.99973172E+03</pdfrwt>
<totfact> 0.93727187E+01</totfact>
</mgrwt>
</event>
<event>
 9    1  0.4412976E-036  0.1000934E+04  0.7818608E-02  0.8680149E-01
         -2   -1    0    0    0  501 -0.00000000000E+00  0.00000000000E+00  0.10665131177E+04  0.10665131177E+04  0.00000000000E+00 0.  1.
          2   -1    0    0  501    0  0.00000000000E+00 -0.00000000000E+00 -0.23484682957E+03  0.23484682957E+03  0.00000000000E+00 0.  1.
         36    2    1    2    0    0  0.14210854715E-13  0.00000000000E+00  0.83166628813E+03  0.13013599473E+04  0.10009340126E+04 0.  0.
         25    2    3    3    0    0  0.20790379426E+02  0.29743439304E+02  0.33318977189E+03  0.35765048643E+03  0.12482601609E+03 0.  0.
         35    2    3    3    0    0 -0.20790379426E+02 -0.29743439304E+02  0.49847651624E+03  0.94370946084E+03  0.80049472027E+03 0.  0.
         22    1    5    5    0    0  0.24868458842E+03  0.20085801686E+03 -0.14572291986E+02  0.32000049867E+03  0.00000000000E+00 0. -1.
         22    1    5    5    0    0 -0.26947496784E+03 -0.23060145617E+03  0.51304880822E+03  0.62370896218E+03  0.00000000000E+00 0. -1.
          5    1    4    4  502    0  0.28410843922E+02 -0.20819838940E+02  0.21021914885E+02  0.41287439389E+02  0.47000000000E+01 0.  1.
         -5    1    4    4    0  502 -0.76204644963E+01  0.50563278244E+02  0.31216785701E+03  0.31636304705E+03  0.47000000000E+01 0.  1.
<mgrwt>
<rscale>  0 0.10009340E+04</rscale>
<asrwt>0</asrwt>
<pdfrwt beam="1">  1        2 0.36130282E-01 0.10009340E+04</pdfrwt>
<pdfrwt beam="2">  1       -2 0.16407894E+00 0.10009340E+04</pdfrwt>
<totfact> 0.37948190E+01</totfact>
</mgrwt>
</event>
<event>
 9    1  0.4412976E-036  0.9999899E+03  0.7818608E-02  0.8681048E-01
         -2   -1    0    0    0  501 -0.00000000000E+00  0.00000000000E+00  0.52042430651E+03  0.52042430651E+03  0.00000000000E+00 0. -1.
          2   -1    0    0  501    0  0.00000000000E+00 -0.00000000000E+00 -0.48036753966E+03  0.48036753966E+03  0.00000000000E+00 0. -1.
         36    2    1    2    0    0  0.00000000000E+00  0.28421709430E-13  0.40056766855E+02  0.10007918462E+04  0.99998988734E+03 0.  0.
         25    2    3    3    0    0 -0.62148253449E+02 -0.12845572659E+03 -0.24390097932E+02  0.18549860720E+03  0.11598093505E+03 0.  0.
         35    2    3    3    0    0  0.62148253449E+02  0.12845572659E+03  0.64446864788E+02  0.81529323897E+03  0.80011648404E+03 0.  0.
         22    1    5    5    0    0  0.14956479240E+03 -0.27545187841E+03 -0.15248046927E+03  0.34855940377E+03  0.00000000000E+00 0.  1.
         22    1    5    5    0    0 -0.87416538949E+02  0.40390760501E+03  0.21692733406E+03  0.46673383520E+03  0.00000000000E+00 0.  1.
          5    1    4    4  502    0 -0.57276930777E+02 -0.81150099131E+02  0.38396908389E+02  0.10659454940E+03  0.47000000000E+01 0. -1.
         -5    1    4    4    0  502 -0.48713226720E+01 -0.47305627464E+02 -0.62787006321E+02  0.78904057799E+02  0.47000000000E+01 0. -1.
<mgrwt>
<rscale>  0 0.99998989E+03</rscale>
<asrwt>0</asrwt>
<pdfrwt beam="1">  1        2 0.73902698E-01 0.99998989E+03</pdfrwt>
<pdfrwt beam="2">  1       -2 0.80065278E-01 0.99998989E+03</pdfrwt>
<totfact> 0.10722947E+02</totfact>
</mgrwt>
</event>
<event>
 9    1  0.4412976E-036  0.1009106E+04  0.7818608E-02  0.8672414E-01
         -2   -1    0    0    0  501 -0.00000000000E+00  0.00000000000E+00  0.40656835718E+03  0.40656835718E+03  0.00000000000E+00 0. -1.
          2   -1    0    0  501    0  0.00000000000E+00 -0.00000000000E+00 -0.62615250774E+03  0.62615250774E+03  0.00000000000E+00 0. -1.
         36    2    1    2    0    0  0.00000000000E+00  0.21316282073E-13 -0.21958415056E+03  0.10327208649E+04  0.10091061320E+04 0.  0.
         25    2    3    3    0    0 -0.71209685829E+02  0.38550424346E+02  0.82997092152E+02  0.17226284616E+03  0.12739315637E+03 0.  0.
         35    2    3    3    0    0  0.71209685829E+02 -0.38550424346E+02 -0.30258124271E+03  0.86045801876E+03  0.80142101235E+03 0.  0.
         22    1    5    5    0    0 -0.14560169915E+03  0.26939211671E+03  0.87261655005E+02  0.31841256850E+03  0.00000000000E+00 0.  1.
         22    1    5    5    0    0  0.21681138498E+03 -0.30794254106E+03 -0.38984289771E+03  0.54204545026E+03  0.00000000000E+00 0.  1.
          5    1    4    4  502    0 -0.99902430449E+02  0.17138209269E+02  0.89821737478E+02  0.13551475326E+03  0.47000000000E+01 0.  1.
         -5    1    4    4    0  502  0.28692744620E+02  0.21412215077E+02 -0.68246453255E+01  0.36748092905E+02  0.47000000000E+01 0.  1.
<mgrwt>
<rscale>  0 0.10091061E+04</rscale>
<asrwt>0</asrwt>
<pdfrwt beam="1">  1        2 0.96331155E-01 0.10091061E+04</pdfrwt>
<pdfrwt beam="2">  1       -2 0.62548978E-01 0.10091061E+04</pdfrwt>
<totfact> 0.13508986E+02</totfact>
</mgrwt>
</event>
<event>
 9    1  0.4412976E-036  0.1000064E+04  0.7818608E-02  0.8680977E-01
         -1   -1    0    0    0  501 -0.00000000000E+00  0.00000000000E+00  0.54324353769E+03  0.54324353769E+03  0.00000000000E+00 0. -1.
          1   -1    0    0  501    0  0.00000000000E+00 -0.00000000000E+00 -0.46025804199E+03  0.46025804199E+03  0.00000000000E+00 0. -1.
         36    2    1    2    0    0 -0.28421709430E-13  0.14210854715E-13  0.82985495703E+02  0.10035015797E+04  0.10000644119E+04 0.  0.
         25    2    3    3    0    0  0.91125530274E+02 -0.76352203602E+02 -0.57942059730E+02  0.18204971066E+03  0.12510513020E+03 0.  0.
         35    2    3    3    0    0 -0.91125530274E+02  0.76352203602E+02  0.14092755543E+03  0.82145186902E+03  0.80049302056E+03 0.  0.
         22    1    5    5    0    0  0.27083256190E+03  0.26873527962E+03 -0.17639665859E+02  0.38194251519E+03  0.00000000000E+00 0.  1.
         22    1    5    5    0    0 -0.36195809218E+03 -0.19238307602E+03  0.15856722129E+03  0.43950935382E+03  0.00000000000E+00 0.  1.
          5    1    4    4  502    0  0.42538979430E+02 -0.29416825166E+02  0.38188748754E+02  0.64462275055E+02  0.47000000000E+01 0. -1.
         -5    1    4    4    0  502  0.48586550844E+02 -0.46935378436E+02 -0.96130808485E+02  0.11758743560E+03  0.47000000000E+01 0. -1.
<mgrwt>
<rscale>  0 0.10000644E+04</rscale>
<asrwt>0</asrwt>
<pdfrwt beam="1">  1        1 0.70808929E-01 0.10000644E+04</pdfrwt>
<pdfrwt beam="2">  1       -1 0.83575930E-01 0.10000644E+04</pdfrwt>
<totfact> 0.83585620E+01</totfact>
</mgrwt>
</event>
<event>
 9    1  0.4412976E-036  0.1004851E+04  0.7818608E-02  0.8676432E-01
         -2   -1    0    0    0  501 -0.00000000000E+00  0.00000000000E+00  0.25003204723E+03  0.25003204723E+03  0.00000000000E+00 0. -1.
          2   -1    0    0  501    0  0.00000000000E+00 -0.00000000000E+00 -0.10095969436E+04  0.10095969436E+04  0.00000000000E+00 0. -1.
         36    2    1    2    0    0  0.71054273576E-14  0.00000000000E+00 -0.75956489632E+03  0.12596289908E+04  0.10048514132E+04 0.  0.
         25    2    3    3    0    0 -0.46376647165E+02  0.50154675804E+02  0.16068280518E+02  0.14326012015E+03  0.12489590658E+03 0.  0.
         35    2    3    3    0    0  0.46376647165E+02 -0.50154675804E+02 -0.77563317684E+03  0.11163688706E+04  0.80000396585E+03 0.  0.
         22    1    5    5    0    0  0.97520080527E-01 -0.40116915938E+03 -0.22003521556E+03  0.45755021586E+03  0.00000000000E+00 0. -1.
         22    1    5    5    0    0  0.46279127085E+02  0.35101448358E+03 -0.55559796128E+03  0.65881865477E+03  0.00000000000E+00 0. -1.
          5    1    4    4  502    0  0.50440859008E+01  0.11057237290E+02  0.62323778237E+02  0.63671411425E+02  0.47000000000E+01 0.  1.
         -5    1    4    4    0  502 -0.51420733066E+02  0.39097438514E+02 -0.46255497719E+02  0.79588708725E+02  0.47000000000E+01 0.  1.
<mgrwt>
<rscale>  0 0.10048514E+04</rscale>
<asrwt>0</asrwt>
<pdfrwt beam="1">  1        2 0.15532261E+00 0.10048514E+04</pdfrwt>
<pdfrwt beam="2">  1       -2 0.38466469E-01 0.10048514E+04</pdfrwt>
<totfact> 0.19166548E+02</totfact>
</mgrwt>
</event>
<event>
 9    1  0.4412976E-036  0.9992572E+03  0.7818608E-02  0.8681746E-01
         -1   -1    0    0    0  501 -0.00000000000E+00  0.00000000000E+00  0.89881062432E+03  0.89881062432E+03  0.00000000000E+00 0. -1.
          1   -1    0    0  501    0  0.00000000000E+00 -0.00000000000E+00 -0.27773229025E+03  0.27773229025E+03  0.00000000000E+00 0. -1.
         36    2    1    2    0    0  0.00000000000E+00 -0.28421709430E-13  0.62107833407E+03  0.11765429146E+04  0.99925719051E+03 0.  0.
         25    2    3    3    0    0  0.54121276998E+02  0.11650339310E+03  0.17758062440E+03  0.25276560694E+03  0.12591036757E+03 0.  0.
         35    2    3    3    0    0 -0.54121276998E+02 -0.11650339310E+03  0.44349770968E+03  0.92377730764E+03  0.80010758176E+03 0.  0.
         22    1    5    5    0    0 -0.16552034649E+03  0.28677836545E+03  0.25076022588E+02  0.33206569064E+03  0.00000000000E+00 0. -1.
         22    1    5    5    0    0  0.11139906949E+03 -0.40328175855E+03  0.41842168709E+03  0.59171161700E+03  0.00000000000E+00 0. -1.
          5    1    4    4  502    0 -0.10127171715E+02  0.10643993975E+03  0.73087769142E+02  0.12959912183E+03  0.47000000000E+01 0. -1.
         -5    1    4    4    0  502  0.64248448713E+02  0.10063453352E+02  0.10449285525E+03  0.12316648511E+03  0.47000000000E+01 0. -1.
<mgrwt>
<rscale>  0 0.99925719E+03</rscale>
<asrwt>0</asrwt>
<pdfrwt beam="1">  1        1 0.42728045E-01 0.99925719E+03</pdfrwt>
<pdfrwt beam="2">  1       -1 0.13827856E+00 0.99925719E+03</pdfrwt>
<totfact> 0.49959915E+01</totfact>
</mgrwt>
</event>
<event>
 9    1  0.4412976E-036  0.1001039E+04  0.7818608E-02  0.8680049E-01
          1   -1    0    0  501    0  0.00000000000E+00  0.00000000000E+00  0.44672259471E+03  0.44672259471E+03  0.00000000000E+00 0. -1.
         -1   -1    0    0    0  501 -0.00000000000E+00 -0.00000000000E+00 -0.56079498552E+03  0.56079498552E+03  0.00000000000E+00 0. -1.
         36    2    1    2    0    0  0.14210854715E-13  0.28421709430E-13 -0.11407239081E+03  0.10075175802E+04  0.10010390423E+04 0.  0.
         25    2    3    3    0    0 -0.55551830729E+02 -0.11870240076E+03  0.33494492826E+02  0.18380944654E+03  0.12444985233E+03 0.  0.
         35    2    3    3    0    0  0.55551830729E+02  0.11870240076E+03 -0.14756688364E+03  0.82370813369E+03  0.79971422303E+03 0.  0.
         22    1    5    5    0    0  0.16421059514E+03 -0.19374908441E+03  0.21510534890E+03  0.33282749044E+03  0.00000000000E+00 0. -1.
         22    1    5    5    0    0 -0.10865876441E+03  0.31245148517E+03 -0.36267223254E+03  0.49088064325E+03  0.00000000000E+00 0. -1.
          5    1    4    4  502    0 -0.71317877067E+02 -0.22643810898E+02  0.42078637326E+02  0.85974900294E+02  0.47000000000E+01 0.  1.
         -5    1    4    4    0  502  0.15766046338E+02 -0.96058589859E+02 -0.85841444993E+01  0.97834546248E+02  0.47000000000E+01 0.  1.
<mgrwt>
<rscale>  0 0.10010390E+04</rscale>
<asrwt>0</asrwt>
<pdfrwt beam="1">  1        1 0.68726553E-01 0.10010390E+04</pdfrwt>
<pdfrwt beam="2">  1       -1 0.86276152E-01 0.10010390E+04</pdfrwt>
<totfact> 0.81355307E+01</totfact>
</mgrwt>
</event>
<event>
 9    1  0.4412976E-036  0.1000713E+04  0.7818608E-02  0.8680359E-01
         -2   -1    0    0    0  501 -0.00000000000E+00  0.00000000000E+00  0.16861260537E+03  0.16861260537E+03  0.00000000000E+00 0.  1.
          2   -1    0    0  501    0  0.00000000000E+00 -0.00000000000E+00 -0.14848029931E+04  0.14848029931E+04  0.00000000000E+00 0.  1.
         36    2    1    2    0    0  0.35527136788E-14  0.28421709430E-13 -0.13161903878E+04  0.16534155985E+04  0.10007127483E+04 0.  0.
         25    2    3    3    0    0 -0.84346984171E+01  0.49224236967E+02 -0.46600113012E+03  0.48509467794E+03  0.12516238913E+03 0.  0.
         35    2    3    3    0    0  0.84346984171E+01 -0.49224236967E+02 -0.85018925765E+03  0.11683209206E+04  0.79978611516E+03 0.  0.
         22    1    5    5    0    0 -0.32610271354E+03  0.19950172056E+03 -0.36371172089E+03  0.52766479151E+03  0.00000000000E+00 0. -1.
         22    1    5    5    0    0  0.33453741196E+03 -0.24872595752E+03 -0.48647753677E+03  0.64065612908E+03  0.00000000000E+00 0. -1.
          5    1    4    4  502    0  0.14508726813E+02 -0.15401148669E+02 -0.98748875743E+01  0.23818101072E+02  0.47000000000E+01 0.  1.
         -5    1    4    4    0  502 -0.22943425230E+02  0.64625385636E+02 -0.45612624254E+03  0.46127657687E+03  0.47000000000E+01 0.  1.
<mgrwt>
<rscale>  0 0.10007127E+04</rscale>
<asrwt>0</asrwt>
<pdfrwt beam="1">  1        2 0.22843122E+00 0.10007127E+04</pdfrwt>
<pdfrwt beam="2">  1       -2 0.25940402E-01 0.10007127E+04</pdfrwt>
<totfact> 0.20759807E+02</totfact>
</mgrwt>
</event>
<event>
 9    1  0.4412976E-036  0.1000044E+04  0.7818608E-02  0.8680996E-01
          2   -1    0    0  501    0  0.00000000000E+00  0.00000000000E+00  0.13297220498E+04  0.13297220498E+04  0.00000000000E+00 0.  1.
         -2   -1    0    0    0  501 -0.00000000000E+00 -0.00000000000E+00 -0.18802570072E+03  0.18802570072E+03  0.00000000000E+00 0.  1.
         36    2    1    2    0    0 -0.14210854715E-13  0.14210854715E-13  0.11416963491E+04  0.15177477505E+04  0.10000438394E+04 0.  0.
         25    2    3    3    0    0  0.10718165176E+03  0.50927113105E+02  0.10110248660E+03  0.19986639161E+03  0.12507351587E+03 0.  0.
         35    2    3    3    0    0 -0.10718165176E+03 -0.50927113105E+02  0.10405938625E+04  0.13178813589E+04  0.79993387990E+03 0.  0.
         22    1    5    5    0    0 -0.15045090755E+03 -0.22970311227E+03  0.14006530946E+02  0.27494577334E+03  0.00000000000E+00 0. -1.
         22    1    5    5    0    0  0.43269255784E+02  0.17877599917E+03  0.10265873316E+04  0.10429355856E+04  0.00000000000E+00 0. -1.
          5    1    4    4  502    0  0.87845733258E+00  0.61263880621E+02  0.58309319522E+02  0.84711873425E+02  0.47000000000E+01 0. -1.
         -5    1    4    4    0  502  0.10630319443E+03 -0.10336767516E+02  0.42793167080E+02  0.11515451818E+03  0.47000000000E+01 0. -1.
<mgrwt>
<rscale>  0 0.10000438E+04</rscale>
<asrwt>0</asrwt>
<pdfrwt beam="1">  1        2 0.20457262E+00 0.10000438E+04</pdfrwt>
<pdfrwt beam="2">  1       -2 0.28927032E-01 0.10000438E+04</pdfrwt>
<totfact> 0.20927983E+02</totfact>
</mgrwt>
</event>
<event>
 9    1  0.4412976E-036  0.1000376E+04  0.7818608E-02  0.8680680E-01
          2   -1    0    0  501    0  0.00000000000E+00  0.00000000000E+00  0.16355102024E+03  0.16355102024E+03  0.00000000000E+00 0. -1.
         -2   -1    0    0    0  501 -0.00000000000E+00 -0.00000000000E+00 -0.15297251579E+04  0.15297251579E+04  0.00000000000E+00 0. -1.
         36    2    1    2    0    0  0.00000000000E+00  0.00000000000E+00 -0.13661741376E+04  0.16932761781E+04  0.10003761498E+04 0.  0.
         25    2    3    3    0    0 -0.13885066492E+03  0.22919740795E+02 -0.27476185316E+03  0.33288437420E+03  0.12455163174E+03 0.  0.
         35    2    3    3    0    0  0.13885066492E+03 -0.22919740795E+02 -0.10914122845E+04  0.13603918039E+04  0.79980013992E+03 0.  0.
         22    1    5    5    0    0  0.36128672087E+03  0.12344530078E+03 -0.20192217619E+03  0.43190207479E+03  0.00000000000E+00 0.  1.
         22    1    5    5    0    0 -0.22243605596E+03 -0.14636504158E+03 -0.88949010828E+03  0.92848972914E+03  0.00000000000E+00 0.  1.
          5    1    4    4  502    0 -0.15388175301E+03  0.14456952605E+02 -0.18385455022E+03  0.24023568225E+03  0.47000000000E+01 0.  1.
         -5    1    4    4    0  502  0.15031088092E+02  0.84627881897E+01 -0.90907302937E+02  0.92648691952E+02  0.47000000000E+01 0.  1.
<mgrwt>
<rscale>  0 0.10003761E+04</rscale>
<asrwt>0</asrwt>
<pdfrwt beam="1">  1        2 0.25161693E-01 0.10003761E+04</pdfrwt>
<pdfrwt beam="2">  1       -2 0.23534235E+00 0.10003761E+04</pdfrwt>
<totfact> 0.18503707E+01</totfact>
</mgrwt>
</event>
<event>
 9    1  0.4412976E-036  0.1000120E+04  0.7818608E-02  0.8680923E-01
          1   -1    0    0  501    0  0.00000000000E+00  0.00000000000E+00  0.17183873530E+03  0.17183873530E+03  0.00000000000E+00 0.  1.
         -1   -1    0    0    0  501 -0.00000000000E+00 -0.00000000000E+00 -0.14552030402E+04  0.14552030402E+04  0.00000000000E+00 0.  1.
         36    2    1    2    0    0 -0.28421709430E-13  0.00000000000E+00 -0.12833643049E+04  0.16270417755E+04  0.10001204928E+04 0.  0.
         25    2    3    3    0    0 -0.12766866275E+03 -0.92458630527E+01 -0.14831696979E+03  0.23260146930E+03  0.12538240132E+03 0.  0.
         35    2    3    3    0    0  0.12766866275E+03  0.92458630527E+01 -0.11350473351E+04  0.13944403062E+04  0.79984157255E+03 0.  0.
         22    1    5    5    0    0 -0.22890525359E+02  0.67219230917E+02  0.11438535440E+03  0.13463435839E+03  0.00000000000E+00 0. -1.
         22    1    5    5    0    0  0.15055918811E+03 -0.57973367864E+02 -0.12494326895E+04  0.12598059478E+04  0.00000000000E+00 0. -1.
          5    1    4    4  502    0 -0.12471013814E+03 -0.29939024575E+02 -0.16237909968E+03  0.20697349048E+03  0.47000000000E+01 0.  1.
         -5    1    4    4    0  502 -0.29585246058E+01  0.20693161522E+02  0.14062129887E+02  0.25627978824E+02  0.47000000000E+01 0.  1.
<mgrwt>
<rscale>  0 0.10001205E+04</rscale>
<asrwt>0</asrwt>
<pdfrwt beam="1">  1        1 0.26436729E-01 0.10001205E+04</pdfrwt>
<pdfrwt beam="2">  1       -1 0.22387739E+00 0.10001205E+04</pdfrwt>
<totfact> 0.17582974E+01</totfact>
</mgrwt>
</event>
<event>
 9    1  0.4412976E-036  0.9996772E+03  0.7818608E-02  0.8681345E-01
          4   -1    0    0  501    0  0.00000000000E+00  0.00000000000E+00  0.13989566165E+04  0.13989566165E+04  0.00000000000E+00 0. -1.
         -4   -1    0    0    0  501 -0.00000000000E+00 -0.00000000000E+00 -0.17858924940E+03  0.17858924940E+03  0.00000000000E+00 0. -1.
         36    2    1    2    0    0  0.71054273576E-14  0.00000000000E+00  0.12203673671E+04  0.15775458659E+04  0.99967717208E+03 0.  0.
         25    2    3    3    0    0 -0.47937083059E+02  0.12762538273E+03  0.28717571915E+03  0.34074816387E+03  0.12269154520E+03 0.  0.
         35    2    3    3    0    0  0.47937083059E+02 -0.12762538273E+03  0.93319164799E+03  0.12367977021E+04  0.80014730001E+03 0.  0.
         22    1    5    5    0    0 -0.33183312356E+02  0.28937011486E+03  0.68606535186E+03  0.74533339024E+03  0.00000000000E+00 0.  1.
         22    1    5    5    0    0  0.81120395415E+02 -0.41699549759E+03  0.24712629613E+03  0.49146431183E+03  0.00000000000E+00 0.  1.
          5    1    4    4  502    0 -0.10197299152E+02 -0.22119249126E+02  0.18979365347E+02  0.31233834233E+02  0.47000000000E+01 0. -1.
         -5    1    4    4    0  502 -0.37739783907E+02  0.14974463186E+03  0.26819635380E+03  0.30951432964E+03  0.47000000000E+01 0. -1.
<mgrwt>
<rscale>  0 0.99967717E+03</rscale>
<asrwt>0</asrwt>
<pdfrwt beam="1">  1        4 0.21522409E+00 0.99967717E+03</pdfrwt>
<pdfrwt beam="2">  1       -4 0.27475270E-01 0.99967717E+03</pdfrwt>
<totfact> 0.22789125E+00</totfact>
</mgrwt>
</event>
<event>
 9    1  0.4412976E-036  0.1000043E+04  0.7818608E-02  0.8680997E-01
          2   -1    0    0  501    0  0.00000000000E+00  0.00000000000E+00  0.21179862630E+04  0.21179862630E+04  0.00000000000E+00 0.  1.
         -2   -1    0    0    0  501 -0.00000000000E+00 -0.00000000000E+00 -0.11804682217E+03  0.11804682217E+03  0.00000000000E+00 0.  1.
         36    2    1    2    0    0 -0.28421709430E-13 -0.71054273576E-14  0.19999394409E+04  0.22360330852E+04  0.10000430946E+04 0.  0.
         25    2    3    3    0    0  0.11874743004E+03  0.18419749822E+02  0.53340162405E+03  0.56091544084E+03  0.12517427816E+03 0.  0.
         35    2    3    3    0    0 -0.11874743004E+03 -0.18419749822E+02  0.14665378168E+04  0.16751176444E+04  0.80052839737E+03 0.  0.
         22    1    5    5    0    0 -0.19510793704E+03 -0.32741604073E+03  0.12028424294E+04  0.12617837695E+04  0.00000000000E+00 0.  1.
         22    1    5    5    0    0  0.76360506996E+02  0.30899629090E+03  0.26369538737E+03  0.41333387490E+03  0.00000000000E+00 0.  1.
          5    1    4    4  502    0  0.14527709287E+03  0.18497159326E+02  0.44553018487E+03  0.46900619851E+03  0.47000000000E+01 0.  1.
         -5    1    4    4    0  502 -0.26529662826E+02 -0.77409504154E-01  0.87871439178E+02  0.91909242327E+02  0.47000000000E+01 0.  1.
<mgrwt>
<rscale>  0 0.10000431E+04</rscale>
<asrwt>0</asrwt>
<pdfrwt beam="1">  1        2 0.32584401E+00 0.10000431E+04</pdfrwt>
<pdfrwt beam="2">  1       -2 0.18161051E-01 0.10000431E+04</pdfrwt>
<totfact> 0.16939117E+02</totfact>
</mgrwt>
</event>
<event>
 9    1  0.4412976E-036  0.1000123E+04  0.7818608E-02  0.8680921E-01
          1   -1    0    0  501    0  0.00000000000E+00  0.00000000000E+00  0.27192562630E+03  0.27192562630E+03  0.00000000000E+00 0.  1.
         -1   -1    0    0    0  501 -0.00000000000E+00 -0.00000000000E+00 -0.91959548298E+03  0.91959548298E+03  0.00000000000E+00 0.  1.
         36    2    1    2    0    0  0.35527136788E-14  0.00000000000E+00 -0.64766985668E+03  0.11915211093E+04  0.10001231477E+04 0.  0.
         25    2    3    3    0    0 -0.12076330711E+02  0.14034363661E+03 -0.12472412243E+03  0.22594272014E+03  0.12510728184E+03 0.  0.
         35    2    3    3    0    0  0.12076330711E+02 -0.14034363661E+03 -0.52294573425E+03  0.96557838913E+03  0.79939177534E+03 0.  0.
         22    1    5    5    0    0 -0.10049984777E+03 -0.14127061248E+03 -0.71894168123E+03  0.73955036769E+03  0.00000000000E+00 0. -1.
         22    1    5    5    0    0  0.11257617848E+03  0.92697586373E+00  0.19599594697E+03  0.22602802144E+03  0.00000000000E+00 0. -1.
          5    1    4    4  502    0 -0.30777103220E+02  0.15820285489E+03 -0.11443066023E+03  0.19771656324E+03  0.47000000000E+01 0.  1.
         -5    1    4    4    0  502  0.18700772509E+02 -0.17859218273E+02 -0.10293462196E+02  0.28226156907E+02  0.47000000000E+01 0.  1.
<mgrwt>
<rscale>  0 0.10001231E+04</rscale>
<asrwt>0</asrwt>
<pdfrwt beam="1">  1        1 0.41834712E-01 0.10001231E+04</pdfrwt>
<pdfrwt beam="2">  1       -1 0.14147623E+00 0.10001231E+04</pdfrwt>
<totfact> 0.48222504E+01</totfact>
</mgrwt>
</event>
<event>
 9    1  0.4412976E-036  0.1000032E+04  0.7818608E-02  0.8681008E-01
          3   -1    0    0  501    0  0.00000000000E+00  0.00000000000E+00  0.45453790627E+03  0.45453790627E+03  0.00000000000E+00 0.  1.
         -3   -1    0    0    0  501 -0.00000000000E+00 -0.00000000000E+00 -0.55004381906E+03  0.55004381906E+03  0.00000000000E+00 0.  1.
         36    2    1    2    0    0  0.00000000000E+00 -0.14210854715E-13 -0.95505912786E+02  0.10045817253E+04  0.10000315313E+04 0.  0.
         25    2    3    3    0    0 -0.79607636135E+02  0.93105891075E+02  0.48125312948E+02  0.18136856616E+03  0.12478953626E+03 0.  0.
         35    2    3    3    0    0  0.79607636135E+02 -0.93105891075E+02 -0.14363122573E+03  0.82321315918E+03  0.80127641532E+03 0.  0.
         22    1    5    5    0    0 -0.11692159129E+03 -0.38087754149E+02  0.30580912794E+03  0.32960667205E+03  0.00000000000E+00 0.  1.
         22    1    5    5    0    0  0.19652922743E+03 -0.55018136926E+02 -0.44944035367E+03  0.49360648713E+03  0.00000000000E+00 0.  1.
          5    1    4    4  502    0 -0.31932355073E+02  0.11424702256E+03  0.15634802815E+02  0.11974387051E+03  0.47000000000E+01 0.  1.
         -5    1    4    4    0  502 -0.47675281062E+02 -0.21141131489E+02  0.32490510133E+02  0.61624695647E+02  0.47000000000E+01 0.  1.
<mgrwt>
<rscale>  0 0.10000315E+04</rscale>
<asrwt>0</asrwt>
<pdfrwt beam="1">  1        3 0.69928909E-01 0.10000315E+04</pdfrwt>
<pdfrwt beam="2">  1       -3 0.84622126E-01 0.10000315E+04</pdfrwt>
<totfact> 0.97140947E+00</totfact>
</mgrwt>
</event>
<event>
 9    1  0.4412976E-036  0.1000133E+04  0.7818608E-02  0.8680911E-01
          2   -1    0    0  501    0  0.00000000000E+00  0.00000000000E+00  0.92893934110E+03  0.92893934110E+03  0.00000000000E+00 0.  1.
         -2   -1    0    0    0  501 -0.00000000000E+00 -0.00000000000E+00 -0.26919597764E+03  0.26919597764E+03  0.00000000000E+00 0.  1.
         36    2    1    2    0    0  0.35527136788E-14 -0.14210854715E-13  0.65974336347E+03  0.11981353187E+04  0.10001334593E+04 0.  0.
         25    2    3    3    0    0  0.98372959469E-01  0.10684735014E+03  0.23546143493E+03  0.28707298648E+03  0.12470944759E+03 0.  0.
         35    2    3    3    0    0 -0.98372959469E-01 -0.10684735014E+03  0.42428192854E+03  0.91106233226E+03  0.79912643085E+03 0.  0.
         22    1    5    5    0    0 -0.32972090613E+03 -0.25422116169E+03  0.34659623762E+03  0.54173169275E+03  0.00000000000E+00 0.  1.
         22    1    5    5    0    0  0.32962253317E+03  0.14737381156E+03  0.77685690912E+02  0.36933063951E+03  0.00000000000E+00 0.  1.
          5    1    4    4  502    0  0.23855985136E+02  0.24068742601E+02 -0.21623070145E+01  0.34280868846E+02  0.47000000000E+01 0. -1.
         -5    1    4    4    0  502 -0.23757612177E+02  0.82778607536E+02  0.23762374194E+03  0.25279211763E+03  0.47000000000E+01 0. -1.
<mgrwt>
<rscale>  0 0.10001335E+04</rscale>
<asrwt>0</asrwt>
<pdfrwt beam="1">  1        2 0.14291374E+00 0.10001335E+04</pdfrwt>
<pdfrwt beam="2">  1       -2 0.41414766E-01 0.10001335E+04</pdfrwt>
<totfact> 0.18730908E+02</totfact>
</mgrwt>
</event>
<event>
 9    1  0.4412976E-036  0.1000176E+04  0.7818608E-02  0.8680870E-01
          2   -1    0    0  501    0  0.00000000000E+00  0.00000000000E+00  0.24475078810E+04  0.24475078810E+04  0.00000000000E+00 0. -1.
         -2   -1    0    0    0  501 -0.00000000000E+00 -0.00000000000E+00 -0.10218071154E+03  0.10218071154E+03  0.00000000000E+00 0. -1.
         36    2    1    2    0    0 -0.71054273576E-14 -0.71054273576E-14  0.23453271694E+04  0.25496885925E+04  0.10001761780E+04 0.  0.
         25    2    3    3    0    0  0.24229463072E+02 -0.11284564634E+02  0.79448396567E+03  0.80470147677E+03  0.12500114691E+03 0.  0.
         35    2    3    3    0    0 -0.24229463072E+02  0.11284564634E+02  0.15508432038E+04  0.17449871158E+04  0.79946918838E+03 0.  0.
         22    1    5    5    0    0 -0.37714226344E+03 -0.32018795640E+02  0.11423652726E+04  0.12034367063E+04  0.00000000000E+00 0. -1.
         22    1    5    5    0    0  0.35291280036E+03  0.43303360275E+02  0.40847793118E+03  0.54155040941E+03  0.00000000000E+00 0. -1.
          5    1    4    4  502    0 -0.10175220754E+02  0.47770588627E+02  0.18563605403E+03  0.19201145489E+03  0.47000000000E+01 0.  1.
         -5    1    4    4    0  502  0.34404683826E+02 -0.59055153261E+02  0.60884791164E+03  0.61269002188E+03  0.47000000000E+01 0.  1.
<mgrwt>
<rscale>  0 0.10001762E+04</rscale>
<asrwt>0</asrwt>
<pdfrwt beam="1">  1        2 0.37653963E+00 0.10001762E+04</pdfrwt>
<pdfrwt beam="2">  1       -2 0.15720111E-01 0.10001762E+04</pdfrwt>
<totfact> 0.13848041E+02</totfact>
</mgrwt>
</event>
<event>
 9    1  0.4412976E-036  0.1000596E+04  0.7818608E-02  0.8680471E-01
          2   -1    0    0  501    0  0.00000000000E+00  0.00000000000E+00  0.22781449553E+04  0.22781449553E+04  0.00000000000E+00 0.  1.
         -2   -1    0    0    0  501 -0.00000000000E+00 -0.00000000000E+00 -0.10986916517E+03  0.10986916517E+03  0.00000000000E+00 0.  1.
         36    2    1    2    0    0 -0.14210854715E-13  0.00000000000E+00  0.21682757901E+04  0.23880141205E+04  0.10005955914E+04 0.  0.
         25    2    3    3    0    0 -0.96769870397E+02  0.99254202414E+02  0.45198786242E+03  0.48898375123E+03  0.12488505386E+03 0.  0.
         35    2    3    3    0    0  0.96769870397E+02 -0.99254202414E+02  0.17162879277E+04  0.18990303692E+04  0.80090966279E+03 0.  0.
         22    1    5    5    0    0 -0.34939472526E+03  0.77283070478E+01  0.84250706484E+03  0.91211542859E+03  0.00000000000E+00 0.  1.
         22    1    5    5    0    0  0.44616459565E+03 -0.10698250946E+03  0.87378086288E+03  0.98691494065E+03  0.00000000000E+00 0.  1.
          5    1    4    4  502    0 -0.16927518675E+02  0.51487843325E+02  0.33522867224E+03  0.33961432771E+03  0.47000000000E+01 0.  1.
         -5    1    4    4    0  502 -0.79842351723E+02  0.47766359089E+02  0.11675919018E+03  0.14936942352E+03  0.47000000000E+01 0.  1.
<mgrwt>
<rscale>  0 0.10005956E+04</rscale>
<asrwt>0</asrwt>
<pdfrwt beam="1">  1        2 0.35048380E+00 0.10005956E+04</pdfrwt>
<pdfrwt beam="2">  1       -2 0.16902950E-01 0.10005956E+04</pdfrwt>
<totfact> 0.15448498E+02</totfact>
</mgrwt>
</event>
<event>
 9    1  0.4412976E-036  0.1000623E+04  0.7818608E-02  0.8680445E-01
          3   -1    0    0  501    0  0.00000000000E+00  0.00000000000E+00  0.21918801849E+04  0.21918801849E+04  0.00000000000E+00 0. -1.
         -3   -1    0    0    0  501 -0.00000000000E+00 -0.00000000000E+00 -0.11419938909E+03  0.11419938909E+03  0.00000000000E+00 0. -1.
         36    2    1    2    0    0 -0.14210854715E-13  0.00000000000E+00  0.20776807959E+04  0.23060795740E+04  0.10006225624E+04 0.  0.
         25    2    3    3    0    0 -0.64618934461E+02 -0.10273609991E+03  0.56200486246E+03  0.58849440740E+03  0.12548262506E+03 0.  0.
         35    2    3    3    0    0  0.64618934461E+02  0.10273609991E+03  0.15156759334E+04  0.17175851666E+04  0.79880846055E+03 0.  0.
         22    1    5    5    0    0  0.17211190528E+03 -0.39283705663E+01  0.15522745689E+04  0.15617920084E+04  0.00000000000E+00 0. -1.
         22    1    5    5    0    0 -0.10749297082E+03  0.10666447047E+03 -0.36598635546E+02  0.15579315826E+03  0.00000000000E+00 0. -1.
          5    1    4    4  502    0  0.34610383436E+02 -0.35339239699E+02  0.10791051731E+03  0.11880029566E+03  0.47000000000E+01 0.  1.
         -5    1    4    4    0  502 -0.99229317897E+02 -0.67396860206E+02  0.45409434515E+03  0.46969411173E+03  0.47000000000E+01 0.  1.
<mgrwt>
<rscale>  0 0.10006226E+04</rscale>
<asrwt>0</asrwt>
<pdfrwt beam="1">  1        3 0.33721231E+00 0.10006226E+04</pdfrwt>
<pdfrwt beam="2">  1       -3 0.17569138E-01 0.10006226E+04</pdfrwt>
<totfact> 0.37047948E+00</totfact>
</mgrwt>
</event>
<event>
 9    1  0.4412976E-036  0.9999988E+03  0.7818608E-02  0.8681039E-01
         -2   -1    0    0    0  501 -0.00000000000E+00  0.00000000000E+00  0.10048225524E+03  0.10048225524E+03  0.00000000000E+00 0. -1.
          2   -1    0    0  501    0  0.00000000000E+00 -0.00000000000E+00 -0.24879954722E+04  0.24879954722E+04  0.00000000000E+00 0. -1.
         36    2    1    2    0    0  0.71054273576E-14  0.28421709430E-13 -0.23875132170E+04  0.25884777275E+04  0.99999879217E+03 0.  0.
         25    2    3    3    0    0  0.20410223226E+02  0.14195593915E+03 -0.33288025255E+03  0.38371616221E+03  0.12593952807E+03 0.  0.
         35    2    3    3    0    0 -0.20410223226E+02 -0.14195593915E+03 -0.20546329644E+04  0.22047615653E+04  0.78669490608E+03 0.  0.
         22    1    5    5    0    0  0.13368478677E+03 -0.15527053945E+03 -0.20390400472E+04  0.20493083898E+04  0.00000000000E+00 0. -1.
         22    1    5    5    0    0 -0.15409500999E+03  0.13314600294E+02 -0.15592917264E+02  0.15545317544E+03  0.00000000000E+00 0. -1.
          5    1    4    4  502    0 -0.29564297598E+02 -0.77129514309E+01 -0.78083318261E+02  0.83979949410E+02  0.47000000000E+01 0. -1.
         -5    1    4    4    0  502  0.49974520824E+02  0.14966889058E+03 -0.25479693429E+03  0.29973621280E+03  0.47000000000E+01 0. -1.
<mgrwt>
<rscale>  0 0.99999879E+03</rscale>
<asrwt>0</asrwt>
<pdfrwt beam="1">  1        2 0.38276852E+00 0.99999879E+03</pdfrwt>
<pdfrwt beam="2">  1       -2 0.15458809E-01 0.99999879E+03</pdfrwt>
<totfact> 0.13463023E+02</totfact>
</mgrwt>
</event>
<event>
 9    1  0.4412976E-036  0.9999196E+03  0.7818608E-02  0.8681115E-01
         -1   -1    0    0    0  501 -0.00000000000E+00  0.00000000000E+00  0.47322625941E+03  0.47322625941E+03  0.00000000000E+00 0. -1.
          1   -1    0    0  501    0  0.00000000000E+00 -0.00000000000E+00 -0.52820356894E+03  0.52820356894E+03  0.00000000000E+00 0. -1.
         36    2    1    2    0    0 -0.14210854715E-13  0.00000000000E+00 -0.54977309536E+02  0.10014298283E+04  0.99991959504E+03 0.  0.
         25    2    3    3    0    0  0.34439330741E+02 -0.12175997413E+03 -0.62435968769E+02  0.19143956788E+03  0.12938044346E+03 0.  0.
         35    2    3    3    0    0 -0.34439330741E+02  0.12175997413E+03  0.74586592335E+01  0.80999026047E+03  0.80001064471E+03 0.  0.
         22    1    5    5    0    0 -0.31438336545E+03  0.21661394542E+03 -0.21672919097E+03  0.43901030061E+03  0.00000000000E+00 0. -1.
         22    1    5    5    0    0  0.27994403471E+03 -0.94853971288E+02  0.22418785021E+03  0.37097995986E+03  0.00000000000E+00 0. -1.
          5    1    4    4  502    0  0.10076570355E+02 -0.11015449014E+02 -0.75586730964E+02  0.77190163136E+02  0.47000000000E+01 0. -1.
         -5    1    4    4    0  502  0.24362760386E+02 -0.11074452512E+03  0.13150762195E+02  0.11424940474E+03  0.47000000000E+01 0. -1.
<mgrwt>
<rscale>  0 0.99991960E+03</rscale>
<asrwt>0</asrwt>
<pdfrwt beam="1">  1        1 0.81262088E-01 0.99991960E+03</pdfrwt>
<pdfrwt beam="2">  1       -1 0.72804040E-01 0.99991960E+03</pdfrwt>
<totfact> 0.91843697E+01</totfact>
</mgrwt>
</event>
<event>
 9    1  0.4412976E-036  0.9998470E+03  0.7818608E-02  0.8681184E-01
          2   -1    0    0  501    0  0.00000000000E+00  0.00000000000E+00  0.20699501144E+04  0.20699501144E+04  0.00000000000E+00 0. -1.
         -2   -1    0    0    0  501 -0.00000000000E+00 -0.00000000000E+00 -0.12073889411E+03  0.12073889411E+03  0.00000000000E+00 0. -1.
         36    2    1    2    0    0 -0.28421709430E-13 -0.71054273576E-14  0.19492112203E+04  0.21906890085E+04  0.99984696362E+03 0.  0.
         25    2    3    3    0    0  0.31086123290E+02 -0.25206984116E+02  0.72171181792E+02  0.14988059145E+03  0.12511503947E+03 0.  0.
         35    2    3    3    0    0 -0.31086123290E+02  0.25206984116E+02  0.18770400385E+04  0.20408084170E+04  0.80001121860E+03 0.  0.
         22    1    5    5    0    0 -0.34263573209E+03  0.12761404927E+03  0.46684867905E+03  0.59298590170E+03  0.00000000000E+00 0.  1.
         22    1    5    5    0    0  0.31154960880E+03 -0.10240706516E+03  0.14101913594E+04  0.14478225153E+04  0.00000000000E+00 0.  1.
          5    1    4    4  502    0 -0.24900475723E+02 -0.58381830121E+02  0.50114682956E+02  0.81006439419E+02  0.47000000000E+01 0. -1.
         -5    1    4    4    0  502  0.55986599013E+02  0.33174846006E+02  0.22056498836E+02  0.68874152027E+02  0.47000000000E+01 0. -1.
<mgrwt>
<rscale>  0 0.99984696E+03</rscale>
<asrwt>0</asrwt>
<pdfrwt beam="1">  1        2 0.31845384E+00 0.99984696E+03</pdfrwt>
<pdfrwt beam="2">  1       -2 0.18575216E-01 0.99984696E+03</pdfrwt>
<totfact> 0.17365722E+02</totfact>
</mgrwt>
</event>
<event>
 9    1  0.4412976E-036  0.9998122E+03  0.7818608E-02  0.8681217E-01
         -1   -1    0    0    0  501 -0.00000000000E+00  0.00000000000E+00  0.19444954665E+03  0.19444954665E+03  0.00000000000E+00 0.  1.
          1   -1    0    0  501    0  0.00000000000E+00 -0.00000000000E+00 -0.12851977420E+04  0.12851977420E+04  0.00000000000E+00 0.  1.
         36    2    1    2    0    0  0.30198066270E-13  0.28421709430E-13 -0.10907481953E+04  0.14796472886E+04  0.99981221892E+03 0.  0.
         25    2    3    3    0    0  0.10037010795E+01 -0.13719555517E+03 -0.17533547277E+03  0.25539153152E+03  0.12513464182E+03 0.  0.
         35    2    3    3    0    0 -0.10037010795E+01  0.13719555517E+03 -0.91541272254E+03  0.12242557571E+04  0.80124782583E+03 0.  0.
         22    1    5    5    0    0 -0.35752155177E+03  0.89014920340E+02 -0.19001987486E+03  0.41455140678E+03  0.00000000000E+00 0.  1.
         22    1    5    5    0    0  0.35651785069E+03  0.48180634834E+02 -0.72539284769E+03  0.80970435031E+03  0.00000000000E+00 0.  1.
          5    1    4    4  502    0 -0.14101881817E+02  0.19680161710E+02 -0.91355844566E+01  0.26300584386E+02  0.47000000000E+01 0. -1.
         -5    1    4    4    0  502  0.15105582896E+02 -0.15687571688E+03 -0.16619988831E+03  0.22909094713E+03  0.47000000000E+01 0. -1.
<mgrwt>
<rscale>  0 0.99981222E+03</rscale>
<asrwt>0</asrwt>
<pdfrwt beam="1">  1        1 0.19772272E+00 0.99981222E+03</pdfrwt>
<pdfrwt beam="2">  1       -1 0.29915316E-01 0.99981222E+03</pdfrwt>
<totfact> 0.10414633E+02</totfact>
</mgrwt>
</event>
<event>
 9    1  0.4412976E-036  0.1000145E+04  0.7818608E-02  0.8680899E-01
          2   -1    0    0  501    0  0.00000000000E+00  0.00000000000E+00  0.19145998889E+04  0.19145998889E+04  0.00000000000E+00 0. -1.
         -2   -1    0    0    0  501 -0.00000000000E+00 -0.00000000000E+00 -0.13061357274E+03  0.13061357274E+03  0.00000000000E+00 0. -1.
         36    2    1    2    0    0  0.00000000000E+00  0.21316282073E-13  0.17839863161E+04  0.20452134616E+04  0.10001454531E+04 0.  0.
         25    2    3    3    0    0  0.11540221036E+03 -0.22260163507E+02  0.18283543187E+03  0.25074837943E+03  0.12503107455E+03 0.  0.
         35    2    3    3    0    0 -0.11540221036E+03  0.22260163507E+02  0.16011508843E+04  0.17944650822E+04  0.80162808832E+03 0.  0.
         22    1    5    5    0    0 -0.32956793962E+01 -0.23720927986E+03  0.84702991779E+02  0.25190018017E+03  0.00000000000E+00 0.  1.
         22    1    5    5    0    0 -0.11210653096E+03  0.25946944337E+03  0.15164478925E+04  0.15425649020E+04  0.00000000000E+00 0.  1.
          5    1    4    4  502    0  0.85932651862E+02  0.34493102779E+02  0.55180149017E+02  0.10789408529E+03  0.47000000000E+01 0.  1.
         -5    1    4    4    0  502  0.29469558494E+02 -0.56753266286E+02  0.12765528285E+03  0.14285429413E+03  0.47000000000E+01 0.  1.
<mgrwt>
<rscale>  0 0.10001455E+04</rscale>
<asrwt>0</asrwt>
<pdfrwt beam="1">  1        2 0.29455381E+00 0.10001455E+04</pdfrwt>
<pdfrwt beam="2">  1       -2 0.20094397E-01 0.10001455E+04</pdfrwt>
<totfact> 0.18592433E+02</totfact>
</mgrwt>
</event>
<event>
 9    1  0.4412976E-036  0.1000088E+04  0.7818608E-02  0.8680954E-01
          2   -1    0    0  501    0  0.00000000000E+00  0.00000000000E+00  0.18653528694E+04  0.18653528694E+04  0.00000000000E+00 0.  1.
         -2   -1    0    0    0  501 -0.00000000000E+00 -0.00000000000E+00 -0.13404661640E+03  0.13404661640E+03  0.00000000000E+00 0.  1.
         36    2    1    2    0    0  0.00000000000E+00  0.14210854715E-13  0.17313062530E+04  0.19993994858E+04  0.10000884772E+04 0.  0.
         25    2    3    3    0    0  0.63386954058E+02  0.84639472374E+02  0.14996471318E+03  0.22390286167E+03  0.12830171485E+03 0.  0.
         35    2    3    3    0    0 -0.63386954058E+02 -0.84639472374E+02  0.15813415398E+04  0.17754966241E+04  0.80035332856E+03 0.  0.
         22    1    5    5    0    0  0.50806399588E+02 -0.49554868813E+02  0.16406074561E+04  0.16421418332E+04  0.00000000000E+00 0.  1.
         22    1    5    5    0    0 -0.11419335365E+03 -0.35084603561E+02 -0.59265916321E+02  0.13335479092E+03  0.00000000000E+00 0.  1.
          5    1    4    4  502    0  0.12326052377E+02  0.93291568276E+02  0.40188308807E+02  0.10243260440E+03  0.47000000000E+01 0.  1.
         -5    1    4    4    0  502  0.51060901681E+02 -0.86520959025E+01  0.10977640437E+03  0.12147025727E+03  0.47000000000E+01 0.  1.
<mgrwt>
<rscale>  0 0.10000885E+04</rscale>
<asrwt>0</asrwt>
<pdfrwt beam="1">  1        2 0.28697735E+00 0.10000885E+04</pdfrwt>
<pdfrwt beam="2">  1       -2 0.20622558E-01 0.10000885E+04</pdfrwt>
<totfact> 0.18953837E+02</totfact>
</mgrwt>
</event>
<event>
 9    1  0.4412976E-036  0.1000875E+04  0.7818608E-02  0.8680205E-01
         -1   -1    0    0    0  501 -0.00000000000E+00  0.00000000000E+00  0.39291323574E+03  0.39291323574E+03  0.00000000000E+00 0. -1.
          1   -1    0    0  501    0  0.00000000000E+00 -0.00000000000E+00 -0.63738718052E+03  0.63738718052E+03  0.00000000000E+00 0. -1.
         36    2    1    2    0    0  0.39079850467E-13  0.00000000000E+00 -0.24447394478E+03  0.10303004163E+04  0.10008753359E+04 0.  0.
         25    2    3    3    0    0 -0.19154390939E+02  0.13827790858E+03 -0.41411434205E+02  0.19339529141E+03  0.12727592531E+03 0.  0.
         35    2    3    3    0    0  0.19154390939E+02 -0.13827790858E+03 -0.20306251058E+03  0.83690512485E+03  0.79980506006E+03 0.  0.
         22    1    5    5    0    0  0.29932242373E+03 -0.32228380958E+03 -0.23764501421E+03  0.49993591593E+03  0.00000000000E+00 0.  1.
         22    1    5    5    0    0 -0.28016803279E+03  0.18400590100E+03  0.34582503632E+02  0.33696920892E+03  0.00000000000E+00 0.  1.
          5    1    4    4  502    0 -0.17592162593E+02  0.16010311086E+03 -0.51048867461E+02  0.16902830284E+03  0.47000000000E+01 0. -1.
         -5    1    4    4    0  502 -0.15622283458E+01 -0.21825202283E+02  0.96374332555E+01  0.24366988568E+02  0.47000000000E+01 0. -1.
<mgrwt>
<rscale>  0 0.10008753E+04</rscale>
<asrwt>0</asrwt>
<pdfrwt beam="1">  1        1 0.98059565E-01 0.10008753E+04</pdfrwt>
<pdfrwt beam="2">  1       -1 0.60448191E-01 0.10008753E+04</pdfrwt>
<totfact> 0.10077765E+02</totfact>
</mgrwt>
</event>
<event>
 9    1  0.4412976E-036  0.9998110E+03  0.7818608E-02  0.8681218E-01
         -1   -1    0    0    0  501 -0.00000000000E+00  0.00000000000E+00  0.76642186022E+02  0.76642186022E+02  0.00000000000E+00 0.  1.
          1   -1    0    0  501    0  0.00000000000E+00 -0.00000000000E+00 -0.32606782243E+04  0.32606782243E+04  0.00000000000E+00 0.  1.
         36    2    1    2    0    0  0.17763568394E-13  0.14210854715E-13 -0.31840360383E+04  0.33373204103E+04  0.99981099619E+03 0.  0.
         25    2    3    3    0    0 -0.17874985089E+02  0.90084342833E+02 -0.95305956107E+03  0.96559762249E+03  0.12498615000E+03 0.  0.
         35    2    3    3    0    0  0.17874985089E+02 -0.90084342833E+02 -0.22309764772E+04  0.23717227878E+04  0.79961130342E+03 0.  0.
         22    1    5    5    0    0  0.27838217765E+03 -0.11274885043E+03 -0.30493677664E+03  0.42801329168E+03  0.00000000000E+00 0. -1.
         22    1    5    5    0    0 -0.26050719256E+03  0.22664507593E+02 -0.19260397006E+04  0.19437094962E+04  0.00000000000E+00 0. -1.
          5    1    4    4  502    0  0.28794328217E+02  0.83158999370E+02 -0.81230870467E+03  0.81707530510E+03  0.47000000000E+01 0. -1.
         -5    1    4    4    0  502 -0.46669313306E+02  0.69253434634E+01 -0.14075085640E+03  0.14852231739E+03  0.47000000000E+01 0. -1.
<mgrwt>
<rscale>  0 0.99981100E+03</rscale>
<asrwt>0</asrwt>
<pdfrwt beam="1">  1        1 0.50164272E+00 0.99981100E+03</pdfrwt>
<pdfrwt beam="2">  1       -1 0.11791108E-01 0.99981100E+03</pdfrwt>
<totfact> 0.18980049E+01</totfact>
</mgrwt>
</event>
<event>
 9    1  0.4412976E-036  0.9996862E+03  0.7818608E-02  0.8681337E-01
          2   -1    0    0  501    0  0.00000000000E+00  0.00000000000E+00  0.17967367151E+04  0.17967367151E+04  0.00000000000E+00 0.  1.
         -2   -1    0    0    0  501 -0.00000000000E+00 -0.00000000000E+00 -0.13905382237E+03  0.13905382237E+03  0.00000000000E+00 0.  1.
         36    2    1    2    0    0  0.00000000000E+00  0.00000000000E+00  0.16576828927E+04  0.19357905375E+04  0.99968616682E+03 0.  0.
         25    2    3    3    0    0  0.71328459091E+02  0.11658945861E+03  0.35413858374E+03  0.40014538382E+03  0.12657543507E+03 0.  0.
         35    2    3    3    0    0 -0.71328459091E+02 -0.11658945861E+03  0.13035443090E+04  0.15356451536E+04  0.80018586685E+03 0.  0.
         22    1    5    5    0    0 -0.25069172897E+03 -0.25757929227E+03  0.20525795136E+03  0.41391335009E+03  0.00000000000E+00 0. -1.
         22    1    5    5    0    0  0.17936326988E+03  0.14098983366E+03  0.10982863576E+04  0.11217318036E+04  0.00000000000E+00 0. -1.
          5    1    4    4  502    0  0.78484752622E+02  0.10393152442E+02  0.16476458009E+03  0.18285877300E+03  0.47000000000E+01 0.  1.
         -5    1    4    4    0  502 -0.71562935310E+01  0.10619630617E+03  0.18937400365E+03  0.21728661082E+03  0.47000000000E+01 0.  1.
<mgrwt>
<rscale>  0 0.99968617E+03</rscale>
<asrwt>0</asrwt>
<pdfrwt beam="1">  1        2 0.27642102E+00 0.99968617E+03</pdfrwt>
<pdfrwt beam="2">  1       -2 0.21392897E-01 0.99968617E+03</pdfrwt>
<totfact> 0.19441764E+02</totfact>
</mgrwt>
</event>
<event>
 9    1  0.4412976E-036  0.1000906E+04  0.7818608E-02  0.8680175E-01
          2   -1    0    0  501    0  0.00000000000E+00  0.00000000000E+00  0.15811554413E+04  0.15811554413E+04  0.00000000000E+00 0.  1.
         -2   -1    0    0    0  501 -0.00000000000E+00 -0.00000000000E+00 -0.15839894538E+03  0.15839894538E+03  0.00000000000E+00 0.  1.
         36    2    1    2    0    0 -0.35527136788E-14  0.00000000000E+00  0.14227564959E+04  0.17395543867E+04  0.10009062981E+04 0.  0.
         25    2    3    3    0    0 -0.29215854373E+02  0.12942140889E+03  0.18079679313E+03  0.25635772406E+03  0.12421084918E+03 0.  0.
         35    2    3    3    0    0  0.29215854373E+02 -0.12942140889E+03  0.12419597028E+04  0.14831966626E+04  0.79987809658E+03 0.  0.
         22    1    5    5    0    0  0.85095688707E+02 -0.11400216977E+03  0.13516581824E+04  0.13591238402E+04  0.00000000000E+00 0. -1.
         22    1    5    5    0    0 -0.55879834334E+02 -0.15419239121E+02 -0.10969847963E+03  0.12407282238E+03  0.00000000000E+00 0. -1.
          5    1    4    4  502    0  0.31873958327E+02  0.10472470249E+02  0.32425715211E+01  0.34032721352E+02  0.47000000000E+01 0. -1.
         -5    1    4    4    0  502 -0.61089812700E+02  0.11894893864E+03  0.17755422160E+03  0.22232500271E+03  0.47000000000E+01 0. -1.
<mgrwt>
<rscale>  0 0.10009063E+04</rscale>
<asrwt>0</asrwt>
<pdfrwt beam="1">  1        2 0.24325467E+00 0.10009063E+04</pdfrwt>
<pdfrwt beam="2">  1       -2 0.24369070E-01 0.10009063E+04</pdfrwt>
<totfact> 0.20461074E+02</totfact>
</mgrwt>
</event>
<event>
 9    1  0.4412976E-036  0.1000508E+04  0.7818608E-02  0.8680554E-01
          2   -1    0    0  501    0  0.00000000000E+00  0.00000000000E+00  0.16689163392E+04  0.16689163392E+04  0.00000000000E+00 0.  1.
         -2   -1    0    0    0  501 -0.00000000000E+00 -0.00000000000E+00 -0.14995004133E+03  0.14995004133E+03  0.00000000000E+00 0.  1.
         36    2    1    2    0    0  0.00000000000E+00  0.00000000000E+00  0.15189662979E+04  0.18188663805E+04  0.10005080191E+04 0.  0.
         25    2    3    3    0    0  0.73634496120E+02 -0.75441178689E+02  0.12615906977E+03  0.20932060242E+03  0.12955922681E+03 0.  0.
         35    2    3    3    0    0 -0.73634496120E+02  0.75441178689E+02  0.13928072281E+04  0.16095457781E+04  0.79975760500E+03 0.  0.
         22    1    5    5    0    0 -0.22093057157E+03  0.39398112664E+03  0.70323167203E+03  0.83580274596E+03  0.00000000000E+00 0. -1.
         22    1    5    5    0    0  0.14729607545E+03 -0.31853994796E+03  0.68957555608E+03  0.77374303217E+03  0.00000000000E+00 0. -1.
          5    1    4    4  502    0  0.27343654987E+02 -0.69531078743E+02  0.14140764677E+03  0.16000143419E+03  0.47000000000E+01 0. -1.
         -5    1    4    4    0  502  0.46290841133E+02 -0.59100999457E+01 -0.15248576998E+02  0.49319168227E+02  0.47000000000E+01 0. -1.
<mgrwt>
<rscale>  0 0.10005080E+04</rscale>
<asrwt>0</asrwt>
<pdfrwt beam="1">  1        2 0.25675635E+00 0.10005080E+04</pdfrwt>
<pdfrwt beam="2">  1       -2 0.23069238E-01 0.10005080E+04</pdfrwt>
<totfact> 0.20111016E+02</totfact>
</mgrwt>
</event>
<event>
 9    1  0.4412976E-036  0.1000242E+04  0.7818608E-02  0.8680807E-01
          2   -1    0    0  501    0  0.00000000000E+00  0.00000000000E+00  0.13219826468E+04  0.13219826468E+04  0.00000000000E+00 0. -1.
         -2   -1    0    0    0  501 -0.00000000000E+00 -0.00000000000E+00 -0.18920154102E+03  0.18920154102E+03  0.00000000000E+00 0. -1.
         36    2    1    2    0    0 -0.14210854715E-13  0.00000000000E+00  0.11327811058E+04  0.15111841878E+04  0.10002422786E+04 0.  0.
         25    2    3    3    0    0 -0.36269852698E+02 -0.13453634479E+03  0.22766924451E+03  0.29511736367E+03  0.12587868428E+03 0.  0.
         35    2    3    3    0    0  0.36269852698E+02  0.13453634479E+03  0.90511186126E+03  0.12160668241E+04  0.80010968568E+03 0.  0.
         22    1    5    5    0    0  0.13037683634E+03  0.39114513779E+03  0.19682348895E+03  0.45687210910E+03  0.00000000000E+00 0.  1.
         22    1    5    5    0    0 -0.94106983639E+02 -0.25660879300E+03  0.70828837230E+03  0.75919471505E+03  0.00000000000E+00 0.  1.
          5    1    4    4  502    0  0.21607555370E+02 -0.64894629866E+02  0.18013148058E+03  0.19273722974E+03  0.47000000000E+01 0. -1.
         -5    1    4    4    0  502 -0.57877408067E+02 -0.69641714925E+02  0.47537763939E+02  0.10238013393E+03  0.47000000000E+01 0. -1.
<mgrwt>
<rscale>  0 0.10002423E+04</rscale>
<asrwt>0</asrwt>
<pdfrwt beam="1">  1        2 0.20338194E+00 0.10002423E+04</pdfrwt>
<pdfrwt beam="2">  1       -2 0.29107930E-01 0.10002423E+04</pdfrwt>
<totfact> 0.20906786E+02</totfact>
</mgrwt>
</event>
<event>
 9    1  0.4412976E-036  0.1000909E+04  0.7818608E-02  0.8680173E-01
         -2   -1    0    0    0  501 -0.00000000000E+00  0.00000000000E+00  0.98170017443E+03  0.98170017443E+03  0.00000000000E+00 0.  1.
          2   -1    0    0  501    0  0.00000000000E+00 -0.00000000000E+00 -0.25512355324E+03  0.25512355324E+03  0.00000000000E+00 0.  1.
         36    2    1    2    0    0  0.00000000000E+00 -0.10658141036E-13  0.72657662118E+03  0.12368237277E+04  0.10009092601E+04 0.  0.
         25    2    3    3    0    0  0.11543830251E+03  0.30037398550E+02  0.23408654524E+03  0.28987510863E+03  0.12248600304E+03 0.  0.
         35    2    3    3    0    0 -0.11543830251E+03 -0.30037398550E+02  0.49249007594E+03  0.94694861904E+03  0.79996060229E+03 0.  0.
         22    1    5    5    0    0 -0.25961936759E+03 -0.17313274757E+03  0.62903613090E+03  0.70218488896E+03  0.00000000000E+00 0. -1.
         22    1    5    5    0    0  0.14418106508E+03  0.14309534902E+03 -0.13654605496E+03  0.24476373008E+03  0.00000000000E+00 0. -1.
          5    1    4    4  502    0  0.31619206833E+02  0.56835455896E+02  0.16651118397E+03  0.17882423682E+03  0.47000000000E+01 0. -1.
         -5    1    4    4    0  502  0.83819095677E+02 -0.26798057347E+02  0.67575361273E+02  0.11105087181E+03  0.47000000000E+01 0. -1.
<mgrwt>
<rscale>  0 0.10009093E+04</rscale>
<asrwt>0</asrwt>
<pdfrwt beam="1">  1        2 0.39249778E-01 0.10009093E+04</pdfrwt>
<pdfrwt beam="2">  1       -2 0.15103079E+00 0.10009093E+04</pdfrwt>
<totfact> 0.43789305E+01</totfact>
</mgrwt>
</event>
<event>
 9    1  0.4412976E-036  0.9996707E+03  0.7818608E-02  0.8681352E-01
         -1   -1    0    0    0  501 -0.00000000000E+00  0.00000000000E+00  0.70673323074E+02  0.70673323074E+02  0.00000000000E+00 0.  1.
          1   -1    0    0  501    0  0.00000000000E+00 -0.00000000000E+00 -0.35350729482E+04  0.35350729482E+04  0.00000000000E+00 0.  1.
         36    2    1    2    0    0  0.00000000000E+00  0.14210854715E-13 -0.34643996251E+04  0.36057462712E+04  0.99967065087E+03 0.  0.
         25    2    3    3    0    0 -0.27813102612E+01 -0.10256147816E+03 -0.98722621540E+03  0.10003984930E+04  0.12511975029E+03 0.  0.
         35    2    3    3    0    0  0.27813102612E+01  0.10256147816E+03 -0.24771734097E+04  0.26053477782E+04  0.80057626211E+03 0.  0.
         22    1    5    5    0    0  0.15034524090E+03 -0.31734301786E+03 -0.88458450153E+03  0.95173526928E+03  0.00000000000E+00 0. -1.
         22    1    5    5    0    0 -0.14756393064E+03  0.41990449603E+03 -0.15925889082E+04  0.16536125090E+04  0.00000000000E+00 0. -1.
          5    1    4    4  502    0 -0.43839886441E+02 -0.85862126860E+02 -0.39990419973E+03  0.41138752951E+03  0.47000000000E+01 0. -1.
         -5    1    4    4    0  502  0.41058576180E+02 -0.16699351305E+02 -0.58732201566E+03  0.58901096348E+03  0.47000000000E+01 0. -1.
<mgrwt>
<rscale>  0 0.99967065E+03</rscale>
<asrwt>0</asrwt>
<pdfrwt beam="1">  1        1 0.54385730E+00 0.99967065E+03</pdfrwt>
<pdfrwt beam="2">  1       -1 0.10872820E-01 0.99967065E+03</pdfrwt>
<totfact> 0.13552529E+01</totfact>
</mgrwt>
</event>
<event>
 9    1  0.4412976E-036  0.9998429E+03  0.7818608E-02  0.8681188E-01
          2   -1    0    0  501    0  0.00000000000E+00  0.00000000000E+00  0.83180525603E+03  0.83180525603E+03  0.00000000000E+00 0.  1.
         -2   -1    0    0    0  501 -0.00000000000E+00 -0.00000000000E+00 -0.30045671404E+03  0.30045671404E+03  0.00000000000E+00 0.  1.
         36    2    1    2    0    0 -0.28421709430E-13  0.00000000000E+00  0.53134854198E+03  0.11322619701E+04  0.99984293557E+03 0.  0.
         25    2    3    3    0    0  0.12392562613E+03 -0.66698623499E+02  0.10114777754E+03  0.21315047523E+03  0.12408055851E+03 0.  0.
         35    2    3    3    0    0 -0.12392562613E+03  0.66698623499E+02  0.43020076444E+03  0.91911149484E+03  0.79992935628E+03 0.  0.
         22    1    5    5    0    0  0.20396429998E+03 -0.25240116100E+03  0.30359523691E+03  0.44438479904E+03  0.00000000000E+00 0. -1.
         22    1    5    5    0    0 -0.32788992611E+03  0.31909978450E+03  0.12660552752E+03  0.47472669580E+03  0.00000000000E+00 0. -1.
          5    1    4    4  502    0 -0.64916918767E+01  0.25549305556E+02  0.22782201087E+02  0.35157186523E+02  0.47000000000E+01 0. -1.
         -5    1    4    4    0  502  0.13041731800E+03 -0.92247929055E+02  0.78365576456E+02  0.17799328870E+03  0.47000000000E+01 0. -1.
<mgrwt>
<rscale>  0 0.99984294E+03</rscale>
<asrwt>0</asrwt>
<pdfrwt beam="1">  1        2 0.12797004E+00 0.99984294E+03</pdfrwt>
<pdfrwt beam="2">  1       -2 0.46224110E-01 0.99984294E+03</pdfrwt>
<totfact> 0.17553837E+02</totfact>
</mgrwt>
</event>
<event>
 9    1  0.4412976E-036  0.9963626E+03  0.7818608E-02  0.8684510E-01
          2   -1    0    0  501    0  0.00000000000E+00  0.00000000000E+00  0.29219980214E+04  0.29219980214E+04  0.00000000000E+00 0. -1.
         -2   -1    0    0    0  501 -0.00000000000E+00 -0.00000000000E+00 -0.84936607182E+02  0.84936607182E+02  0.00000000000E+00 0. -1.
         36    2    1    2    0    0 -0.42632564146E-13  0.28421709430E-13  0.28370614142E+04  0.30069346286E+04  0.99636258085E+03 0.  0.
         25    2    3    3    0    0 -0.46314067340E+02 -0.12458314372E+03  0.61493836831E+03  0.64143479217E+03  0.12499377289E+03 0.  0.
         35    2    3    3    0    0  0.46314067340E+02  0.12458314372E+03  0.22221230459E+04  0.23654998364E+04  0.80005793062E+03 0.  0.
         22    1    5    5    0    0 -0.31175178358E+03 -0.16004597066E+03  0.86138915231E+03  0.92994363217E+03  0.00000000000E+00 0.  1.
         22    1    5    5    0    0  0.35806585092E+03  0.28462911438E+03  0.13607338936E+04  0.14355562042E+04  0.00000000000E+00 0.  1.
          5    1    4    4  502    0 -0.85443814107E+01 -0.13341994777E+03  0.37088993281E+03  0.39427822813E+03  0.47000000000E+01 0.  1.
         -5    1    4    4    0  502 -0.37769685929E+02  0.88368040522E+01  0.24404843549E+03  0.24715656404E+03  0.47000000000E+01 0.  1.
<mgrwt>
<rscale>  0 0.99636258E+03</rscale>
<asrwt>0</asrwt>
<pdfrwt beam="1">  1        2 0.44953808E+00 0.99636258E+03</pdfrwt>
<pdfrwt beam="2">  1       -2 0.13067173E-01 0.99636258E+03</pdfrwt>
<totfact> 0.94867285E+01</totfact>
</mgrwt>
</event>
<event>
 9    1  0.4412976E-036  0.1003239E+04  0.7818608E-02  0.8677959E-01
          2   -1    0    0  501    0  0.00000000000E+00  0.00000000000E+00  0.22460547991E+04  0.22460547991E+04  0.00000000000E+00 0.  1.
         -2   -1    0    0    0  501 -0.00000000000E+00 -0.00000000000E+00 -0.11202856152E+03  0.11202856152E+03  0.00000000000E+00 0.  1.
         36    2    1    2    0    0  0.00000000000E+00  0.14210854715E-13  0.21340262375E+04  0.23580833606E+04  0.10032393298E+04 0.  0.
         25    2    3    3    0    0 -0.75124993821E+02  0.12080716934E+03  0.49543785843E+03  0.53051351726E+03  0.12549017322E+03 0.  0.
         35    2    3    3    0    0  0.75124993821E+02 -0.12080716934E+03  0.16385883791E+04  0.18275698433E+04  0.79674432485E+03 0.  0.
         22    1    5    5    0    0 -0.17165742548E+02 -0.10209391280E+03 -0.64437318398E+02  0.12194260023E+03  0.00000000000E+00 0.  1.
         22    1    5    5    0    0  0.92290736369E+02 -0.18713256543E+02  0.17030256975E+04  0.17056272431E+04  0.00000000000E+00 0.  1.
          5    1    4    4  502    0 -0.39791806091E+01 -0.55322095799E+01  0.21150233476E+03  0.21166427859E+03  0.47000000000E+01 0.  1.
         -5    1    4    4    0  502 -0.71145813212E+02  0.12633937892E+03  0.28393552367E+03  0.31884923867E+03  0.47000000000E+01 0.  1.
<mgrwt>
<rscale>  0 0.10032393E+04</rscale>
<asrwt>0</asrwt>
<pdfrwt beam="1">  1        2 0.34554686E+00 0.10032393E+04</pdfrwt>
<pdfrwt beam="2">  1       -2 0.17235165E-01 0.10032393E+04</pdfrwt>
<totfact> 0.15607430E+02</totfact>
</mgrwt>
</event>
<event>
 9    1  0.4412976E-036  0.9997148E+03  0.7818608E-02  0.8681310E-01
          2   -1    0    0  501    0  0.00000000000E+00  0.00000000000E+00  0.15284305757E+04  0.15284305757E+04  0.00000000000E+00 0. -1.
         -2   -1    0    0    0  501 -0.00000000000E+00 -0.00000000000E+00 -0.16347319215E+03  0.16347319215E+03  0.00000000000E+00 0. -1.
         36    2    1    2    0    0  0.00000000000E+00  0.28421709430E-13  0.13649573836E+04  0.16919037679E+04  0.99971480972E+03 0.  0.
         25    2    3    3    0    0  0.85385557238E+02 -0.10897998027E+03  0.28470200509E+03  0.34024939563E+03  0.12468797070E+03 0.  0.
         35    2    3    3    0    0 -0.85385557238E+02  0.10897998027E+03  0.10802553785E+04  0.13516543722E+04  0.80053140463E+03 0.  0.
         22    1    5    5    0    0 -0.13635155720E+03  0.41914737019E+03  0.86457563418E+03  0.97044695492E+03  0.00000000000E+00 0. -1.
         22    1    5    5    0    0  0.50965999961E+02 -0.31016738992E+03  0.21567974428E+03  0.38120741732E+03  0.00000000000E+00 0. -1.
          5    1    4    4  502    0  0.42557267123E+02 -0.16317416129E+02  0.20663045844E+03  0.21164974701E+03  0.47000000000E+01 0.  1.
         -5    1    4    4    0  502  0.42828290115E+02 -0.92662564145E+02  0.78071546651E+02  0.12859964862E+03  0.47000000000E+01 0.  1.
<mgrwt>
<rscale>  0 0.99971481E+03</rscale>
<asrwt>0</asrwt>
<pdfrwt beam="1">  1        2 0.23514316E+00 0.99971481E+03</pdfrwt>
<pdfrwt beam="2">  1       -2 0.25149723E-01 0.99971481E+03</pdfrwt>
<totfact> 0.20722961E+02</totfact>
</mgrwt>
</event>
<event>
 9    1  0.4412976E-036  0.1009847E+04  0.7818608E-02  0.8671717E-01
          1   -1    0    0  501    0  0.00000000000E+00  0.00000000000E+00  0.54218682350E+03  0.54218682350E+03  0.00000000000E+00 0.  1.
         -1   -1    0    0    0  501 -0.00000000000E+00 -0.00000000000E+00 -0.47022147658E+03  0.47022147658E+03  0.00000000000E+00 0.  1.
         36    2    1    2    0    0  0.14210854715E-13  0.00000000000E+00  0.71965346912E+02  0.10124083001E+04  0.10098472929E+04 0.  0.
         25    2    3    3    0    0 -0.88214496962E+02 -0.11347307729E+03  0.53324698283E+02  0.19764306619E+03  0.12474502564E+03 0.  0.
         35    2    3    3    0    0  0.88214496962E+02  0.11347307729E+03  0.18640648629E+02  0.81476523390E+03  0.80177114929E+03 0.  0.
         22    1    5    5    0    0  0.40064945996E+03  0.22945563331E+03  0.98430426695E+02  0.47207883486E+03  0.00000000000E+00 0. -1.
         22    1    5    5    0    0 -0.31243496299E+03 -0.11598255602E+03 -0.79789778066E+02  0.34268639904E+03  0.00000000000E+00 0. -1.
          5    1    4    4  502    0 -0.36356790243E+02 -0.78360466977E+02 -0.31527507632E+02  0.92077427848E+02  0.47000000000E+01 0. -1.
         -5    1    4    4    0  502 -0.51857706719E+02 -0.35112610309E+02  0.84852205915E+02  0.10556563834E+03  0.47000000000E+01 0. -1.
<mgrwt>
<rscale>  0 0.10098473E+04</rscale>
<asrwt>0</asrwt>
<pdfrwt beam="1">  1        1 0.83413358E-01 0.10098473E+04</pdfrwt>
<pdfrwt beam="2">  1       -1 0.72341765E-01 0.10098473E+04</pdfrwt>
<totfact> 0.89572199E+01</totfact>
</mgrwt>
</event>
<event>
 9    1  0.4412976E-036  0.9998676E+03  0.7818608E-02  0.8681164E-01
          1   -1    0    0  501    0  0.00000000000E+00  0.00000000000E+00  0.57041958643E+03  0.57041958643E+03  0.00000000000E+00 0.  1.
         -1   -1    0    0    0  501 -0.00000000000E+00 -0.00000000000E+00 -0.43815782673E+03  0.43815782673E+03  0.00000000000E+00 0.  1.
         36    2    1    2    0    0 -0.28421709430E-13  0.14210854715E-13  0.13226175970E+03  0.10085774132E+04  0.99986760387E+03 0.  0.
         25    2    3    3    0    0 -0.11145165021E+03  0.75745262374E+02  0.71835962197E+02  0.19731545500E+03  0.12495666533E+03 0.  0.
         35    2    3    3    0    0  0.11145165021E+03 -0.75745262374E+02  0.60425797504E+02  0.81126195817E+03  0.79770663320E+03 0.  0.
         22    1    5    5    0    0 -0.21425615415E+03  0.21772239936E+03 -0.13163668031E+03  0.33262134384E+03  0.00000000000E+00 0.  1.
         22    1    5    5    0    0  0.32570780436E+03 -0.29346766173E+03  0.19206247781E+03  0.47864061433E+03  0.00000000000E+00 0.  1.
          5    1    4    4  502    0 -0.13654611729E+03  0.57568532010E+02  0.74380474989E+02  0.16587200814E+03  0.47000000000E+01 0. -1.
         -5    1    4    4    0  502  0.25094467084E+02  0.18176730364E+02 -0.25445127913E+01  0.31443446858E+02  0.47000000000E+01 0. -1.
<mgrwt>
<rscale>  0 0.99986760E+03</rscale>
<asrwt>0</asrwt>
<pdfrwt beam="1">  1        1 0.87756859E-01 0.99986760E+03</pdfrwt>
<pdfrwt beam="2">  1       -1 0.67408897E-01 0.99986760E+03</pdfrwt>
<totfact> 0.95939534E+01</totfact>
</mgrwt>
</event>
<event>
 9    1  0.4412976E-036  0.9986874E+03  0.7818608E-02  0.8682289E-01
         -2   -1    0    0    0  501 -0.00000000000E+00  0.00000000000E+00  0.27725458290E+03  0.27725458290E+03  0.00000000000E+00 0. -1.
          2   -1    0    0  501    0  0.00000000000E+00 -0.00000000000E+00 -0.89933280498E+03  0.89933280498E+03  0.00000000000E+00 0. -1.
         36    2    1    2    0    0 -0.28421709430E-13 -0.71054273576E-14 -0.62207822208E+03  0.11765873879E+04  0.99868742204E+03 0.  0.
         25    2    3    3    0    0  0.91178123602E+02 -0.39304077853E+02 -0.23098670611E+03  0.28018977326E+03  0.12366563744E+03 0.  0.
         35    2    3    3    0    0 -0.91178123602E+02  0.39304077853E+02 -0.39109151598E+03  0.89639761462E+03  0.80044852980E+03 0.  0.
         22    1    5    5    0    0 -0.23240226106E+03  0.37380070366E+03 -0.17359741249E+03  0.47315308160E+03  0.00000000000E+00 0.  1.
         22    1    5    5    0    0  0.14122413746E+03 -0.33449662581E+03 -0.21749410349E+03  0.42324453302E+03  0.00000000000E+00 0.  1.
          5    1    4    4  502    0 -0.10015152516E+01 -0.61627195861E+02 -0.70950822115E+02  0.94101134219E+02  0.47000000000E+01 0.  1.
         -5    1    4    4    0  502  0.92179638853E+02  0.22323118008E+02 -0.16003588399E+03  0.18608863904E+03  0.47000000000E+01 0.  1.
<mgrwt>
<rscale>  0 0.99868742E+03</rscale>
<asrwt>0</asrwt>
<pdfrwt beam="1">  1        2 0.13835889E+00 0.99868742E+03</pdfrwt>
<pdfrwt beam="2">  1       -2 0.42654551E-01 0.99868742E+03</pdfrwt>
<totfact> 0.18500064E+02</totfact>
</mgrwt>
</event>
<event>
 9    1  0.4412976E-036  0.1000443E+04  0.7818608E-02  0.8680616E-01
         -2   -1    0    0    0  501 -0.00000000000E+00  0.00000000000E+00  0.35405016214E+03  0.35405016214E+03  0.00000000000E+00 0.  1.
          2   -1    0    0  501    0  0.00000000000E+00 -0.00000000000E+00 -0.70673999160E+03  0.70673999160E+03  0.00000000000E+00 0.  1.
         36    2    1    2    0    0 -0.56843418861E-13  0.00000000000E+00 -0.35268982946E+03  0.10607901537E+04  0.10004427192E+04 0.  0.
         25    2    3    3    0    0 -0.10764414086E+03  0.73380087016E+02 -0.99018472892E+01  0.18063346573E+03  0.12473373293E+03 0.  0.
         35    2    3    3    0    0  0.10764414086E+03 -0.73380087016E+02 -0.34278798217E+03  0.88015668800E+03  0.80012517551E+03 0.  0.
         22    1    5    5    0    0 -0.25624228998E+03 -0.15337089426E+02  0.12430398856E+03  0.28521363758E+03  0.00000000000E+00 0. -1.
         22    1    5    5    0    0  0.36388643084E+03 -0.58042997590E+02 -0.46709197073E+03  0.59494305042E+03  0.00000000000E+00 0. -1.
          5    1    4    4  502    0 -0.15116209894E+02  0.67169475359E+02 -0.43854929450E+02  0.81765414807E+02  0.47000000000E+01 0. -1.
         -5    1    4    4    0  502 -0.92527930963E+02  0.62106116571E+01  0.33953082161E+02  0.98868050925E+02  0.47000000000E+01 0. -1.
<mgrwt>
<rscale>  0 0.10004427E+04</rscale>
<asrwt>0</asrwt>
<pdfrwt beam="1">  1        2 0.10872923E+00 0.10004427E+04</pdfrwt>
<pdfrwt beam="2">  1       -2 0.54469256E-01 0.10004427E+04</pdfrwt>
<totfact> 0.15540959E+02</totfact>
</mgrwt>
</event>
<event>
 9    1  0.4412976E-036  0.1002901E+04  0.7818608E-02  0.8678281E-01
         -2   -1    0    0    0  501 -0.00000000000E+00  0.00000000000E+00  0.73346547920E+03  0.73346547920E+03  0.00000000000E+00 0.  1.
          2   -1    0    0  501    0  0.00000000000E+00 -0.00000000000E+00 -0.34282786860E+03  0.34282786860E+03  0.00000000000E+00 0.  1.
         36    2    1    2    0    0  0.42632564146E-13  0.28421709430E-13  0.39063761060E+03  0.10762933478E+04  0.10029006071E+04 0.  0.
         25    2    3    3    0    0 -0.69496813948E+01  0.13403749981E+03  0.13004922975E+03  0.22469041287E+03  0.12473423768E+03 0.  0.
         35    2    3    3    0    0  0.69496813948E+01 -0.13403749981E+03  0.26058838084E+03  0.85160293493E+03  0.79956669836E+03 0.  0.
         22    1    5    5    0    0  0.34012812816E+03  0.83447956203E+02  0.28708159807E+03  0.45284274192E+03  0.00000000000E+00 0.  1.
         22    1    5    5    0    0 -0.33317844677E+03 -0.21748545601E+03 -0.26493217224E+02  0.39876019301E+03  0.00000000000E+00 0.  1.
          5    1    4    4  502    0 -0.62295327600E+02  0.75994296065E+02  0.95932751950E+02  0.13740823764E+03  0.47000000000E+01 0.  1.
         -5    1    4    4    0  502  0.55345646205E+02  0.58043203747E+02  0.34116477802E+02  0.87282175229E+02  0.47000000000E+01 0.  1.
<mgrwt>
<rscale>  0 0.10029006E+04</rscale>
<asrwt>0</asrwt>
<pdfrwt beam="1">  1        2 0.52742749E-01 0.10029006E+04</pdfrwt>
<pdfrwt beam="2">  1       -2 0.11284084E+00 0.10029006E+04</pdfrwt>
<totfact> 0.68628005E+01</totfact>
</mgrwt>
</event>
<event>
 9    1  0.4412976E-036  0.1001080E+04  0.7818608E-02  0.8680010E-01
          2   -1    0    0  501    0  0.00000000000E+00  0.00000000000E+00  0.14226407510E+03  0.14226407510E+03  0.00000000000E+00 0.  1.
         -2   -1    0    0    0  501 -0.00000000000E+00 -0.00000000000E+00 -0.17610927015E+04  0.17610927015E+04  0.00000000000E+00 0.  1.
         36    2    1    2    0    0 -0.42632564146E-13  0.00000000000E+00 -0.16188286264E+04  0.19033567766E+04  0.10010798656E+04 0.  0.
         25    2    3    3    0    0  0.34629221951E+02  0.89224745986E+02 -0.10661078232E+03  0.19010148006E+03  0.12494989199E+03 0.  0.
         35    2    3    3    0    0 -0.34629221951E+02 -0.89224745986E+02 -0.15122178441E+04  0.17132552965E+04  0.79955028912E+03 0.  0.
         22    1    5    5    0    0  0.26049727369E+03 -0.22549852711E+03 -0.29563401196E+03  0.45399106197E+03  0.00000000000E+00 0. -1.
         22    1    5    5    0    0 -0.29512649564E+03  0.13627378112E+03 -0.12165838321E+04  0.12592642345E+04  0.00000000000E+00 0. -1.
          5    1    4    4  502    0 -0.20801142595E+02  0.66195102947E+02 -0.22060684388E+01  0.69580427746E+02  0.47000000000E+01 0. -1.
         -5    1    4    4    0  502  0.55430364546E+02  0.23029643039E+02 -0.10440471388E+03  0.12052105232E+03  0.47000000000E+01 0. -1.
<mgrwt>
<rscale>  0 0.10010799E+04</rscale>
<asrwt>0</asrwt>
<pdfrwt beam="1">  1        2 0.21886782E-01 0.10010799E+04</pdfrwt>
<pdfrwt beam="2">  1       -2 0.27093733E+00 0.10010799E+04</pdfrwt>
<totfact> 0.13135162E+01</totfact>
</mgrwt>
</event>
<event>
 9    1  0.4412976E-036  0.9980341E+03  0.7818608E-02  0.8682912E-01
          3   -1    0    0  501    0  0.00000000000E+00  0.00000000000E+00  0.14902352534E+03  0.14902352534E+03  0.00000000000E+00 0.  1.
         -3   -1    0    0    0  501 -0.00000000000E+00 -0.00000000000E+00 -0.16709981667E+04  0.16709981667E+04  0.00000000000E+00 0.  1.
         36    2    1    2    0    0  0.28421709430E-13  0.49737991503E-13 -0.15219746414E+04  0.18200216920E+04  0.99803414296E+03 0.  0.
         25    2    3    3    0    0  0.78410324977E+02  0.21311195272E+02 -0.79245656593E+02  0.16858933656E+03  0.12466011473E+03 0.  0.
         35    2    3    3    0    0 -0.78410324977E+02 -0.21311195272E+02 -0.14427289848E+04  0.16514323555E+04  0.79947454938E+03 0.  0.
         22    1    5    5    0    0  0.30390549629E+02  0.26220642757E+03 -0.11242310174E+03  0.28690547219E+03  0.00000000000E+00 0.  1.
         22    1    5    5    0    0 -0.10880087461E+03 -0.28351762285E+03 -0.13303058830E+04  0.13645268833E+04  0.00000000000E+00 0.  1.
          5    1    4    4  502    0 -0.16216973465E+02 -0.33294644412E+02 -0.33121372200E+02  0.49906300918E+02  0.47000000000E+01 0. -1.
         -5    1    4    4    0  502  0.94627298442E+02  0.54605839684E+02 -0.46124284393E+02  0.11868303564E+03  0.47000000000E+01 0. -1.
<mgrwt>
<rscale>  0 0.99803414E+03</rscale>
<asrwt>0</asrwt>
<pdfrwt beam="1">  1        3 0.22926697E-01 0.99803414E+03</pdfrwt>
<pdfrwt beam="2">  1       -3 0.25707663E+00 0.99803414E+03</pdfrwt>
<totfact> 0.26454619E+00</totfact>
</mgrwt>
</event>
<event>
 9    1  0.4412976E-036  0.9994858E+03  0.7818608E-02  0.8681528E-01
         -1   -1    0    0    0  501 -0.00000000000E+00  0.00000000000E+00  0.52937664628E+03  0.52937664628E+03  0.00000000000E+00 0.  1.
          1   -1    0    0  501    0  0.00000000000E+00 -0.00000000000E+00 -0.47176804973E+03  0.47176804973E+03  0.00000000000E+00 0.  1.
         36    2    1    2    0    0 -0.10658141036E-13  0.28421709430E-13  0.57608596551E+02  0.10011446960E+04  0.99948584380E+03 0.  0.
         25    2    3    3    0    0 -0.14197030890E+02  0.10966060861E+03 -0.73787993101E+02  0.18286177289E+03  0.12556574091E+03 0.  0.
         35    2    3    3    0    0  0.14197030890E+02 -0.10966060861E+03  0.13139658965E+03  0.81828292312E+03  0.80005929389E+03 0.  0.
         22    1    5    5    0    0  0.19249402689E+03  0.10825528708E+02  0.41774552138E+03  0.46008962507E+03  0.00000000000E+00 0.  1.
         22    1    5    5    0    0 -0.17829699600E+03 -0.12048613732E+03 -0.28634893173E+03  0.35819329805E+03  0.00000000000E+00 0.  1.
          5    1    4    4  502    0 -0.43772370797E+02  0.99787942116E+02 -0.95179930726E+02  0.14475829182E+03  0.47000000000E+01 0.  1.
         -5    1    4    4    0  502  0.29575339907E+02  0.98726664952E+01  0.21391937625E+02  0.38103481071E+02  0.47000000000E+01 0.  1.
<mgrwt>
<rscale>  0 0.99948584E+03</rscale>
<asrwt>0</asrwt>
<pdfrwt beam="1">  1        1 0.72579700E-01 0.99948584E+03</pdfrwt>
<pdfrwt beam="2">  1       -1 0.81442561E-01 0.99948584E+03</pdfrwt>
<totfact> 0.85354453E+01</totfact>
</mgrwt>
</event>
<event>
 9    1  0.4412976E-036  0.9986126E+03  0.7818608E-02  0.8682360E-01
          2   -1    0    0  501    0  0.00000000000E+00  0.00000000000E+00  0.18451907237E+04  0.18451907237E+04  0.00000000000E+00 0. -1.
         -2   -1    0    0    0  501 -0.00000000000E+00 -0.00000000000E+00 -0.13511165013E+03  0.13511165013E+03  0.00000000000E+00 0. -1.
         36    2    1    2    0    0 -0.28421709430E-13 -0.71054273576E-14  0.17100790736E+04  0.19803023738E+04  0.99861256449E+03 0.  0.
         25    2    3    3    0    0 -0.10197561735E+03 -0.91820328231E+00  0.50731006131E+03  0.53247862636E+03  0.12557913677E+03 0.  0.
         35    2    3    3    0    0  0.10197561735E+03  0.91820328231E+00  0.12027690122E+04  0.14478237475E+04  0.79946259279E+03 0.  0.
         22    1    5    5    0    0  0.32540061977E+03  0.19776585244E+03  0.26501615405E+03  0.46392936709E+03  0.00000000000E+00 0. -1.
         22    1    5    5    0    0 -0.22342500242E+03 -0.19684764916E+03  0.93775285819E+03  0.98389438038E+03  0.00000000000E+00 0. -1.
          5    1    4    4  502    0 -0.88065066988E+02  0.54694554370E+02  0.34558597466E+03  0.36083057823E+03  0.47000000000E+01 0. -1.
         -5    1    4    4    0  502 -0.13910550362E+02 -0.55612757653E+02  0.16172408665E+03  0.17164804813E+03  0.47000000000E+01 0. -1.
<mgrwt>
<rscale>  0 0.99861256E+03</rscale>
<asrwt>0</asrwt>
<pdfrwt beam="1">  1        2 0.28387548E+00 0.99861256E+03</pdfrwt>
<pdfrwt beam="2">  1       -2 0.20786409E-01 0.99861256E+03</pdfrwt>
<totfact> 0.19191978E+02</totfact>
</mgrwt>
</event>
<event>
 9    1  0.4412976E-036  0.9939571E+03  0.7818608E-02  0.8686814E-01
         -1   -1    0    0    0  501 -0.00000000000E+00  0.00000000000E+00  0.34379102525E+03  0.34379102525E+03  0.00000000000E+00 0. -1.
          1   -1    0    0  501    0  0.00000000000E+00 -0.00000000000E+00 -0.71842384636E+03  0.71842384636E+03  0.00000000000E+00 0. -1.
         36    2    1    2    0    0  0.28421709430E-13  0.12434497876E-13 -0.37463282111E+03  0.10622148716E+04  0.99395708299E+03 0.  0.
         25    2    3    3    0    0  0.13044559683E+03  0.74760901505E+01 -0.94334510443E+02  0.20432557703E+03  0.12561049284E+03 0.  0.
         35    2    3    3    0    0 -0.13044559683E+03 -0.74760901505E+01 -0.28029831067E+03  0.85788929458E+03  0.80020931833E+03 0.  0.
         22    1    5    5    0    0 -0.13283799755E+02  0.34550535137E+03  0.63346295712E+02  0.35151551935E+03  0.00000000000E+00 0. -1.
         22    1    5    5    0    0 -0.11716179708E+03 -0.35298144152E+03 -0.34364460638E+03  0.50637377523E+03  0.00000000000E+00 0. -1.
          5    1    4    4  502    0  0.26642105223E+02 -0.88808801639E+01 -0.94957141401E+02  0.99134355832E+02  0.47000000000E+01 0. -1.
         -5    1    4    4    0  502  0.10380349161E+03  0.16356970314E+02  0.62263095829E+00  0.10519122120E+03  0.47000000000E+01 0. -1.
<mgrwt>
<rscale>  0 0.99395708E+03</rscale>
<asrwt>0</asrwt>
<pdfrwt beam="1">  1        1 0.11052674E+00 0.99395708E+03</pdfrwt>
<pdfrwt beam="2">  1       -1 0.52890927E-01 0.99395708E+03</pdfrwt>
<totfact> 0.10830443E+02</totfact>
</mgrwt>
</event>
<event>
 9    1  0.4412976E-036  0.9994726E+03  0.7818608E-02  0.8681540E-01
          1   -1    0    0  501    0  0.00000000000E+00  0.00000000000E+00  0.71776346771E+03  0.71776346771E+03  0.00000000000E+00 0.  1.
         -1   -1    0    0    0  501 -0.00000000000E+00 -0.00000000000E+00 -0.34793688338E+03  0.34793688338E+03  0.00000000000E+00 0.  1.
         36    2    1    2    0    0  0.28421709430E-13 -0.35527136788E-14  0.36982658433E+03  0.10657003511E+04  0.99947262885E+03 0.  0.
         25    2    3    3    0    0 -0.13677954401E+03 -0.80291933797E+01  0.10204287944E+03  0.21164316067E+03  0.12492784562E+03 0.  0.
         35    2    3    3    0    0  0.13677954401E+03  0.80291933797E+01  0.26778370489E+03  0.85405719041E+03  0.79933250921E+03 0.  0.
         22    1    5    5    0    0  0.31769437984E+02  0.11616337049E+03  0.53438949307E+03  0.54779134361E+03  0.00000000000E+00 0.  1.
         22    1    5    5    0    0  0.10501010602E+03 -0.10813417711E+03 -0.26660578817E+03  0.30626584680E+03  0.00000000000E+00 0.  1.
          5    1    4    4  502    0 -0.15629243668E+03 -0.23575611132E+02  0.76622164149E+02  0.17571619516E+03  0.47000000000E+01 0.  1.
         -5    1    4    4    0  502  0.19512892668E+02  0.15546417752E+02  0.25420715289E+02  0.35926965513E+02  0.47000000000E+01 0.  1.
<mgrwt>
<rscale>  0 0.99947263E+03</rscale>
<asrwt>0</asrwt>
<pdfrwt beam="1">  1        1 0.11042515E+00 0.99947263E+03</pdfrwt>
<pdfrwt beam="2">  1       -1 0.53528752E-01 0.99947263E+03</pdfrwt>
<totfact> 0.10600019E+02</totfact>
</mgrwt>
</event>
<event>
 9    1  0.4412976E-036  0.9995279E+03  0.7818608E-02  0.8681488E-01
          2   -1    0    0  501    0  0.00000000000E+00  0.00000000000E+00  0.21589819810E+04  0.21589819810E+04  0.00000000000E+00 0.  1.
         -2   -1    0    0    0  501 -0.00000000000E+00 -0.00000000000E+00 -0.11568599734E+03  0.11568599734E+03  0.00000000000E+00 0.  1.
         36    2    1    2    0    0  0.00000000000E+00  0.28421709430E-13  0.20432959837E+04  0.22746679784E+04  0.99952785595E+03 0.  0.
         25    2    3    3    0    0  0.17435024030E+02  0.13031552206E+03  0.23827779247E+03  0.29634578086E+03  0.11729620666E+03 0.  0.
         35    2    3    3    0    0 -0.17435024030E+02 -0.13031552206E+03  0.18050181912E+04  0.19783221975E+04  0.79898806696E+03 0.  0.
         22    1    5    5    0    0  0.25165575611E+03 -0.25205498617E+03  0.15427597381E+04  0.15833413862E+04  0.00000000000E+00 0. -1.
         22    1    5    5    0    0 -0.26909078014E+03  0.12173946411E+03  0.26225845307E+03  0.39498081129E+03  0.00000000000E+00 0. -1.
          5    1    4    4  502    0  0.20760444999E+02 -0.56401870682E+01  0.99792135971E+02  0.10219279910E+03  0.47000000000E+01 0. -1.
         -5    1    4    4    0  502 -0.33254209692E+01  0.13595570913E+03  0.13848565650E+03  0.19415298176E+03  0.47000000000E+01 0. -1.
<mgrwt>
<rscale>  0 0.99952786E+03</rscale>
<asrwt>0</asrwt>
<pdfrwt beam="1">  1        2 0.33215105E+00 0.99952786E+03</pdfrwt>
<pdfrwt beam="2">  1       -2 0.17797847E-01 0.99952786E+03</pdfrwt>
<totfact> 0.16604109E+02</totfact>
</mgrwt>
</event>
<event>
 9    1  0.4412976E-036  0.9997324E+03  0.7818608E-02  0.8681293E-01
         -2   -1    0    0    0  501 -0.00000000000E+00  0.00000000000E+00  0.90047297318E+02  0.90047297318E+02  0.00000000000E+00 0. -1.
          2   -1    0    0  501    0  0.00000000000E+00 -0.00000000000E+00 -0.27748329756E+04  0.27748329756E+04  0.00000000000E+00 0. -1.
         36    2    1    2    0    0  0.35527136788E-14  0.17763568394E-13 -0.26847856783E+04  0.28648802729E+04  0.99973238412E+03 0.  0.
         25    2    3    3    0    0 -0.16709740880E+02 -0.11772094256E+02 -0.89826833168E+03  0.90721048949E+03  0.12540765085E+03 0.  0.
         35    2    3    3    0    0  0.16709740880E+02  0.11772094256E+02 -0.17865173466E+04  0.19576697834E+04  0.80025555519E+03 0.  0.
         22    1    5    5    0    0 -0.33848437408E+03 -0.19260454905E+03 -0.81538922764E+03  0.90361926516E+03  0.00000000000E+00 0. -1.
         22    1    5    5    0    0  0.35519411496E+03  0.20437664331E+03 -0.97112811896E+03  0.10540505183E+04  0.00000000000E+00 0. -1.
          5    1    4    4  502    0 -0.35670140540E+02 -0.31362213559E+02 -0.85175809482E+03  0.85309430279E+03  0.47000000000E+01 0.  1.
         -5    1    4    4    0  502  0.18960399660E+02  0.19590119303E+02 -0.46510236863E+02  0.54116186697E+02  0.47000000000E+01 0.  1.
<mgrwt>
<rscale>  0 0.99973238E+03</rscale>
<asrwt>0</asrwt>
<pdfrwt beam="1">  1        2 0.42689731E+00 0.99973238E+03</pdfrwt>
<pdfrwt beam="2">  1       -2 0.13853433E-01 0.99973238E+03</pdfrwt>
<totfact> 0.10720456E+02</totfact>
</mgrwt>
</event>
<event>
 9    1  0.4412976E-036  0.9994411E+03  0.7818608E-02  0.8681570E-01
          2   -1    0    0  501    0  0.00000000000E+00  0.00000000000E+00  0.28944487859E+03  0.28944487859E+03  0.00000000000E+00 0. -1.
         -2   -1    0    0    0  501 -0.00000000000E+00 -0.00000000000E+00 -0.86275711039E+03  0.86275711039E+03  0.00000000000E+00 0. -1.
         36    2    1    2    0    0  0.28421709430E-13 -0.28421709430E-13 -0.57331223180E+03  0.11522019890E+04  0.99944109796E+03 0.  0.
         25    2    3    3    0    0  0.10033800472E+03 -0.66133184728E+02 -0.18685391043E+03  0.25506435282E+03  0.12530812792E+03 0.  0.
         35    2    3    3    0    0 -0.10033800472E+03  0.66133184728E+02 -0.38645832137E+03  0.89713763616E+03  0.80066509275E+03 0.  0.
         22    1    5    5    0    0  0.12973893136E+03  0.35955154171E+03 -0.35713353538E+03  0.52311935880E+03  0.00000000000E+00 0. -1.
         22    1    5    5    0    0 -0.23007693608E+03 -0.29341835698E+03 -0.29324785992E+02  0.37401827736E+03  0.00000000000E+00 0. -1.
          5    1    4    4  502    0  0.30184324077E+02 -0.92356756206E+02 -0.89860081423E+02  0.13243031402E+03  0.47000000000E+01 0. -1.
         -5    1    4    4    0  502  0.70153680640E+02  0.26223571478E+02 -0.96993829004E+02  0.12263403880E+03  0.47000000000E+01 0. -1.
<mgrwt>
<rscale>  0 0.99944110E+03</rscale>
<asrwt>0</asrwt>
<pdfrwt beam="1">  1        2 0.44529981E-01 0.99944110E+03</pdfrwt>
<pdfrwt beam="2">  1       -2 0.13273186E+00 0.99944110E+03</pdfrwt>
<totfact> 0.54206521E+01</totfact>
</mgrwt>
</event>
<event>
 9    1  0.4412976E-036  0.1000346E+04  0.7818608E-02  0.8680709E-01
          2   -1    0    0  501    0  0.00000000000E+00  0.00000000000E+00  0.11856195158E+04  0.11856195158E+04  0.00000000000E+00 0.  1.
         -2   -1    0    0    0  501 -0.00000000000E+00 -0.00000000000E+00 -0.21100598024E+03  0.21100598024E+03  0.00000000000E+00 0.  1.
         36    2    1    2    0    0 -0.35527136788E-13 -0.28421709430E-13  0.97461353553E+03  0.13966254960E+04  0.10003455565E+04 0.  0.
         25    2    3    3    0    0 -0.46956155620E+02  0.12517171030E+03  0.12487329912E+03  0.22222079739E+03  0.12615825121E+03 0.  0.
         35    2    3    3    0    0  0.46956155620E+02 -0.12517171030E+03  0.84974023640E+03  0.11744046986E+04  0.79955930935E+03 0.  0.
         22    1    5    5    0    0 -0.28564000133E+03 -0.16887646014E+03  0.89869144996E+02  0.34378180925E+03  0.00000000000E+00 0.  1.
         22    1    5    5    0    0  0.33259615695E+03  0.43704749839E+02  0.75987109141E+03  0.83062288936E+03  0.00000000000E+00 0.  1.
          5    1    4    4  502    0 -0.57798584107E+02  0.13688895030E+03  0.13657544480E+03  0.20187670287E+03  0.47000000000E+01 0.  1.
         -5    1    4    4    0  502  0.10842428487E+02 -0.11717239999E+02 -0.11702145672E+02  0.20344094524E+02  0.47000000000E+01 0.  1.
<mgrwt>
<rscale>  0 0.10003456E+04</rscale>
<asrwt>0</asrwt>
<pdfrwt beam="1">  1        2 0.18240300E+00 0.10003456E+04</pdfrwt>
<pdfrwt beam="2">  1       -2 0.32462459E-01 0.10003456E+04</pdfrwt>
<totfact> 0.20578091E+02</totfact>
</mgrwt>
</event>
<event>
 9    1  0.4412976E-036  0.9994828E+03  0.7818608E-02  0.8681531E-01
         -3   -1    0    0    0  501 -0.00000000000E+00  0.00000000000E+00  0.18102249860E+03  0.18102249860E+03  0.00000000000E+00 0.  1.
          3   -1    0    0  501    0  0.00000000000E+00 -0.00000000000E+00 -0.13796155072E+04  0.13796155072E+04  0.00000000000E+00 0.  1.
         36    2    1    2    0    0  0.00000000000E+00  0.71054273576E-14 -0.11985930086E+04  0.15606380058E+04  0.99948275868E+03 0.  0.
         25    2    3    3    0    0  0.13189499867E+03  0.42447449570E+02 -0.25558329948E+03  0.31636107083E+03  0.12475346694E+03 0.  0.
         35    2    3    3    0    0 -0.13189499867E+03 -0.42447449570E+02 -0.94300970914E+03  0.12442769350E+04  0.79984980012E+03 0.  0.
         22    1    5    5    0    0 -0.32207717417E+01 -0.41615611228E+03 -0.50199092525E+03  0.65206684641E+03  0.00000000000E+00 0.  1.
         22    1    5    5    0    0 -0.12867422693E+03  0.37370866271E+03 -0.44101878390E+03  0.59221008858E+03  0.00000000000E+00 0.  1.
          5    1    4    4  502    0  0.29473929926E+02 -0.11528375762E+01  0.73818708939E+01  0.30767248783E+02  0.47000000000E+01 0.  1.
         -5    1    4    4    0  502  0.10242106874E+03  0.43600287146E+02 -0.26296517038E+03  0.28559382205E+03  0.47000000000E+01 0.  1.
<mgrwt>
<rscale>  0 0.99948276E+03</rscale>
<asrwt>0</asrwt>
<pdfrwt beam="1">  1        3 0.21224853E+00 0.99948276E+03</pdfrwt>
<pdfrwt beam="2">  1       -3 0.27849616E-01 0.99948276E+03</pdfrwt>
<totfact> 0.61276927E+00</totfact>
</mgrwt>
</event>
<event>
 9    1  0.4412976E-036  0.9970662E+03  0.7818608E-02  0.8683837E-01
          1   -1    0    0  501    0  0.00000000000E+00  0.00000000000E+00  0.24991890612E+04  0.24991890612E+04  0.00000000000E+00 0.  1.
         -1   -1    0    0    0  501 -0.00000000000E+00 -0.00000000000E+00 -0.99446362749E+02  0.99446362749E+02  0.00000000000E+00 0.  1.
         36    2    1    2    0    0 -0.28421709430E-13  0.00000000000E+00  0.23997426985E+04  0.25986354240E+04  0.99706622039E+03 0.  0.
         25    2    3    3    0    0  0.68591417308E+02  0.12713646482E+02  0.75283713443E+03  0.76634225330E+03  0.12510107471E+03 0.  0.
         35    2    3    3    0    0 -0.68591417308E+02 -0.12713646482E+02  0.16469055641E+04  0.18322931707E+04  0.80008368753E+03 0.  0.
         22    1    5    5    0    0 -0.34352877546E+03  0.11572030830E+03  0.36296163427E+03  0.51297598118E+03  0.00000000000E+00 0.  1.
         22    1    5    5    0    0  0.27493735815E+03 -0.12843395478E+03  0.12839439298E+04  0.13193171895E+04  0.00000000000E+00 0.  1.
          5    1    4    4  502    0  0.89674735937E+02  0.99007092385E+01  0.72680598993E+03  0.73239922126E+03  0.47000000000E+01 0.  1.
         -5    1    4    4    0  502 -0.21083318630E+02  0.28129372438E+01  0.26031144496E+02  0.33943032041E+02  0.47000000000E+01 0.  1.
<mgrwt>
<rscale>  0 0.99706622E+03</rscale>
<asrwt>0</asrwt>
<pdfrwt beam="1">  1        1 0.38449058E+00 0.99706622E+03</pdfrwt>
<pdfrwt beam="2">  1       -1 0.15299442E-01 0.99706622E+03</pdfrwt>
<totfact> 0.44042675E+01</totfact>
</mgrwt>
</event>
<event>
 9    1  0.4412976E-036  0.1000512E+04  0.7818608E-02  0.8680551E-01
          2   -1    0    0  501    0  0.00000000000E+00  0.00000000000E+00  0.87711867356E+03  0.87711867356E+03  0.00000000000E+00 0.  1.
         -2   -1    0    0    0  501 -0.00000000000E+00 -0.00000000000E+00 -0.28531583367E+03  0.28531583367E+03  0.00000000000E+00 0.  1.
         36    2    1    2    0    0  0.14210854715E-13  0.14210854715E-13  0.59180283989E+03  0.11624345072E+04  0.10005115603E+04 0.  0.
         25    2    3    3    0    0  0.44212629043E+02  0.81464361991E+02 -0.10731234742E+02  0.15657690304E+03  0.12573769652E+03 0.  0.
         35    2    3    3    0    0 -0.44212629043E+02 -0.81464361991E+02  0.60253407464E+03  0.10058576042E+04  0.80006937822E+03 0.  0.
         22    1    5    5    0    0  0.18830745527E+03 -0.16583600684E+03 -0.93037307457E+02  0.26761393733E+03  0.00000000000E+00 0. -1.
         22    1    5    5    0    0 -0.23252008432E+03  0.84371644846E+02  0.69557138209E+03  0.73824366685E+03  0.00000000000E+00 0. -1.
          5    1    4    4  502    0 -0.10484554726E+02  0.84984540948E+02  0.26955626509E+02  0.89894348479E+02  0.47000000000E+01 0.  1.
         -5    1    4    4    0  502  0.54697183769E+02 -0.35201789569E+01 -0.37686861252E+02  0.66682554564E+02  0.47000000000E+01 0.  1.
<mgrwt>
<rscale>  0 0.10005116E+04</rscale>
<asrwt>0</asrwt>
<pdfrwt beam="1">  1        2 0.13494133E+00 0.10005116E+04</pdfrwt>
<pdfrwt beam="2">  1       -2 0.43894744E-01 0.10005116E+04</pdfrwt>
<totfact> 0.18101066E+02</totfact>
</mgrwt>
</event>
<event>
 9    1  0.4412976E-036  0.9996600E+03  0.7818608E-02  0.8681362E-01
         -1   -1    0    0    0  501 -0.00000000000E+00  0.00000000000E+00  0.61999915017E+02  0.61999915017E+02  0.00000000000E+00 0.  1.
          1   -1    0    0  501    0  0.00000000000E+00 -0.00000000000E+00 -0.40295221863E+04  0.40295221863E+04  0.00000000000E+00 0.  1.
         36    2    1    2    0    0  0.00000000000E+00 -0.28421709430E-13 -0.39675222713E+04  0.40915221013E+04  0.99966000842E+03 0.  0.
         25    2    3    3    0    0 -0.96671271509E+02 -0.97514084998E+02 -0.86870467954E+03  0.88845261310E+03  0.12588047485E+03 0.  0.
         35    2    3    3    0    0  0.96671271509E+02  0.97514084998E+02 -0.30988175918E+04  0.32030694882E+04  0.79882998691E+03 0.  0.
         22    1    5    5    0    0 -0.15477139617E+03  0.37688502971E+03 -0.20192424734E+04  0.20599360857E+04  0.00000000000E+00 0. -1.
         22    1    5    5    0    0  0.25144266768E+03 -0.27937094471E+03 -0.10795751184E+04  0.11431334026E+04  0.00000000000E+00 0. -1.
          5    1    4    4  502    0 -0.12644691753E+03 -0.76002352762E+02 -0.64254055562E+03  0.65927660067E+03  0.47000000000E+01 0.  1.
         -5    1    4    4    0  502  0.29775646025E+02 -0.21511732236E+02 -0.22616412393E+03  0.22917601243E+03  0.47000000000E+01 0.  1.
<mgrwt>
<rscale>  0 0.99966001E+03</rscale>
<asrwt>0</asrwt>
<pdfrwt beam="1">  1        1 0.61992672E+00 0.99966001E+03</pdfrwt>
<pdfrwt beam="2">  1       -1 0.95384449E-02 0.99966001E+03</pdfrwt>
<totfact> 0.71218212E+00</totfact>
</mgrwt>
</event>
<event>
 9    1  0.4412976E-036  0.9986438E+03  0.7818608E-02  0.8682331E-01
         -2   -1    0    0    0  501 -0.00000000000E+00  0.00000000000E+00  0.15860796831E+03  0.15860796831E+03  0.00000000000E+00 0.  1.
          2   -1    0    0  501    0  0.00000000000E+00 -0.00000000000E+00 -0.15719409820E+04  0.15719409820E+04  0.00000000000E+00 0.  1.
         36    2    1    2    0    0  0.14210854715E-13  0.35527136788E-14 -0.14133330137E+04  0.17305489503E+04  0.99864381128E+03 0.  0.
         25    2    3    3    0    0 -0.11391288955E+03 -0.53439509624E+01 -0.12778866381E+03  0.21216289618E+03  0.12521360828E+03 0.  0.
         35    2    3    3    0    0  0.11391288955E+03  0.53439509624E+01 -0.12855443499E+04  0.15183860541E+04  0.79991701422E+03 0.  0.
         22    1    5    5    0    0  0.33110952792E+03 -0.62519504643E+02 -0.12417520989E+04  0.12866586505E+04  0.00000000000E+00 0.  1.
         22    1    5    5    0    0 -0.21719663837E+03  0.67863455605E+02 -0.43792251006E+02  0.23172740359E+03  0.00000000000E+00 0.  1.
          5    1    4    4  502    0 -0.12795694246E+03  0.84876262178E+01 -0.13885743960E+03  0.18907273059E+03  0.47000000000E+01 0.  1.
         -5    1    4    4    0  502  0.14044052909E+02 -0.13831577180E+02  0.11068775785E+02  0.23090165586E+02  0.47000000000E+01 0.  1.
<mgrwt>
<rscale>  0 0.99864381E+03</rscale>
<asrwt>0</asrwt>
<pdfrwt beam="1">  1        2 0.24183707E+00 0.99864381E+03</pdfrwt>
<pdfrwt beam="2">  1       -2 0.24401226E-01 0.99864381E+03</pdfrwt>
<totfact> 0.20659385E+02</totfact>
</mgrwt>
</event>
<event>
 9    1  0.4412976E-036  0.1000717E+04  0.7818608E-02  0.8680356E-01
          1   -1    0    0  501    0  0.00000000000E+00  0.00000000000E+00  0.16288132694E+04  0.16288132694E+04  0.00000000000E+00 0. -1.
         -1   -1    0    0    0  501 -0.00000000000E+00 -0.00000000000E+00 -0.15370610563E+03  0.15370610563E+03  0.00000000000E+00 0. -1.
         36    2    1    2    0    0  0.00000000000E+00  0.00000000000E+00  0.14751071638E+04  0.17825193750E+04  0.10007168320E+04 0.  0.
         25    2    3    3    0    0  0.11793174740E+03  0.72813860147E+02  0.31683886600E+03  0.36761550141E+03  0.12467772293E+03 0.  0.
         35    2    3    3    0    0 -0.11793174740E+03 -0.72813860147E+02  0.11582682978E+04  0.14149038736E+04  0.80072327723E+03 0.  0.
         22    1    5    5    0    0 -0.36978689987E+03  0.47829742870E+02  0.10519721398E+04  0.11160983014E+04  0.00000000000E+00 0. -1.
         22    1    5    5    0    0  0.25185515246E+03 -0.12064360302E+03  0.10629615801E+03  0.29880557220E+03  0.00000000000E+00 0. -1.
          5    1    4    4  502    0  0.57675178520E+01  0.59789932059E+02  0.51689184209E+02  0.79384897820E+02  0.47000000000E+01 0.  1.
         -5    1    4    4    0  502  0.11216422955E+03  0.13023928088E+02  0.26514968179E+03  0.28823060359E+03  0.47000000000E+01 0.  1.
<mgrwt>
<rscale>  0 0.10007168E+04</rscale>
<asrwt>0</asrwt>
<pdfrwt beam="1">  1        1 0.25058664E+00 0.10007168E+04</pdfrwt>
<pdfrwt beam="2">  1       -1 0.23647094E-01 0.10007168E+04</pdfrwt>
<totfact> 0.87902420E+01</totfact>
</mgrwt>
</event>
<event>
 9    1  0.4412976E-036  0.1006738E+04  0.7818608E-02  0.8674648E-01
         -1   -1    0    0    0  501 -0.00000000000E+00  0.00000000000E+00  0.48063225781E+03  0.48063225781E+03  0.00000000000E+00 0. -1.
          1   -1    0    0  501    0  0.00000000000E+00 -0.00000000000E+00 -0.52718146544E+03  0.52718146544E+03  0.00000000000E+00 0. -1.
         36    2    1    2    0    0  0.28421709430E-13 -0.14210854715E-13 -0.46549207631E+02  0.10078137233E+04  0.10067381348E+04 0.  0.
         25    2    3    3    0    0  0.10994483225E+03 -0.27828462767E+02  0.86202222181E+02  0.18940567149E+03  0.12482546137E+03 0.  0.
         35    2    3    3    0    0 -0.10994483225E+03  0.27828462767E+02 -0.13275142981E+03  0.81840805176E+03  0.79956644976E+03 0.  0.
         22    1    5    5    0    0 -0.26169149592E+03  0.33735649920E+03 -0.19284040590E+03  0.46848614573E+03  0.00000000000E+00 0.  1.
         22    1    5    5    0    0  0.15174666366E+03 -0.30952803644E+03  0.60088976087E+02  0.34992190603E+03  0.00000000000E+00 0.  1.
          5    1    4    4  502    0  0.22664477975E+02  0.34522531302E+02  0.69168722324E+02  0.80696256898E+02  0.47000000000E+01 0. -1.
         -5    1    4    4    0  502  0.87280354278E+02 -0.62350994070E+02  0.17033499857E+02  0.10870941460E+03  0.47000000000E+01 0. -1.
<mgrwt>
<rscale>  0 0.10067381E+04</rscale>
<asrwt>0</asrwt>
<pdfrwt beam="1">  1        1 0.81104841E-01 0.10067381E+04</pdfrwt>
<pdfrwt beam="2">  1       -1 0.73943424E-01 0.10067381E+04</pdfrwt>
<totfact> 0.89198640E+01</totfact>
</mgrwt>
</event>
<event>
 9    1  0.4412976E-036  0.9988464E+03  0.7818608E-02  0.8682137E-01
         -2   -1    0    0    0  501 -0.00000000000E+00  0.00000000000E+00  0.73787817786E+02  0.73787817786E+02  0.00000000000E+00 0.  1.
          2   -1    0    0  501    0  0.00000000000E+00 -0.00000000000E+00 -0.33802808160E+04  0.33802808160E+04  0.00000000000E+00 0.  1.
         36    2    1    2    0    0 -0.71054273576E-14 -0.10658141036E-13 -0.33064929982E+04  0.34540686338E+04  0.99884642446E+03 0.  0.
         25    2    3    3    0    0  0.57448283392E+02 -0.24537089021E+02 -0.10493480809E+04  0.10585342743E+04  0.12434243379E+03 0.  0.
         35    2    3    3    0    0 -0.57448283392E+02  0.24537089021E+02 -0.22571449173E+04  0.23955343595E+04  0.79998707241E+03 0.  0.
         22    1    5    5    0    0 -0.30293560375E+03  0.30164095552E+03 -0.13380472908E+04  0.14046806749E+04  0.00000000000E+00 0. -1.
         22    1    5    5    0    0  0.24548732036E+03 -0.27710386650E+03 -0.91909762647E+03  0.99085368459E+03  0.00000000000E+00 0. -1.
          5    1    4    4  502    0  0.76366029836E+02  0.15840461361E+02 -0.87614312389E+03  0.87962011930E+03  0.47000000000E+01 0.  1.
         -5    1    4    4    0  502 -0.18917746444E+02 -0.40377550383E+02 -0.17320495703E+03  0.17891415496E+03  0.47000000000E+01 0.  1.
<mgrwt>
<rscale>  0 0.99884642E+03</rscale>
<asrwt>0</asrwt>
<pdfrwt beam="1">  1        2 0.52004321E+00 0.99884642E+03</pdfrwt>
<pdfrwt beam="2">  1       -2 0.11351972E-01 0.99884642E+03</pdfrwt>
<totfact> 0.57614906E+01</totfact>
</mgrwt>
</event>
<event>
 9    1  0.4412976E-036  0.9992991E+03  0.7818608E-02  0.8681706E-01
          1   -1    0    0  501    0  0.00000000000E+00  0.00000000000E+00  0.78433094904E+03  0.78433094904E+03  0.00000000000E+00 0.  1.
         -1   -1    0    0    0  501 -0.00000000000E+00 -0.00000000000E+00 -0.31829636103E+03  0.31829636103E+03  0.00000000000E+00 0.  1.
         36    2    1    2    0    0  0.00000000000E+00  0.71054273576E-14  0.46603458801E+03  0.11026273101E+04  0.99929912823E+03 0.  0.
         25    2    3    3    0    0  0.12425302291E+03  0.44464649528E+02  0.39512027193E+02  0.18624461866E+03  0.12533929522E+03 0.  0.
         35    2    3    3    0    0 -0.12425302291E+03 -0.44464649528E+02  0.42652256082E+03  0.91638269141E+03  0.80026234665E+03 0.  0.
         22    1    5    5    0    0 -0.42601105589E+03 -0.23005448093E+02  0.44090075570E+03  0.61352110540E+03  0.00000000000E+00 0.  1.
         22    1    5    5    0    0  0.30175803298E+03 -0.21459201435E+02 -0.14378194887E+02  0.30286158601E+03  0.00000000000E+00 0.  1.
          5    1    4    4  502    0  0.41258212221E+02  0.79388548612E+02  0.51093117913E+01  0.89738379712E+02  0.47000000000E+01 0. -1.
         -5    1    4    4    0  502  0.82994810692E+02 -0.34923899084E+02  0.34402715402E+02  0.96506238949E+02  0.47000000000E+01 0. -1.
<mgrwt>
<rscale>  0 0.99929913E+03</rscale>
<asrwt>0</asrwt>
<pdfrwt beam="1">  1        1 0.12066630E+00 0.99929913E+03</pdfrwt>
<pdfrwt beam="2">  1       -1 0.48968671E-01 0.99929913E+03</pdfrwt>
<totfact> 0.10870122E+02</totfact>
</mgrwt>
</event>
<event>
 9    1  0.4412976E-036  0.1000259E+04  0.7818608E-02  0.8680791E-01
          1   -1    0    0  501    0  0.00000000000E+00  0.00000000000E+00  0.72646921557E+03  0.72646921557E+03  0.00000000000E+00 0. -1.
         -1   -1    0    0    0  501 -0.00000000000E+00 -0.00000000000E+00 -0.34430855343E+03  0.34430855343E+03  0.00000000000E+00 0. -1.
         36    2    1    2    0    0  0.00000000000E+00 -0.71054273576E-14  0.38216066214E+03  0.10707777690E+04  0.10002590959E+04 0.  0.
         25    2    3    3    0    0  0.12177953164E+03 -0.42063135000E+02  0.82161665787E+01  0.17943370085E+03  0.12461695693E+03 0.  0.
         35    2    3    3    0    0 -0.12177953164E+03  0.42063135000E+02  0.37394449556E+03  0.89134406815E+03  0.79878670520E+03 0.  0.
         22    1    5    5    0    0 -0.21732170567E+03  0.17267702716E+03 -0.16888046571E+03  0.32491028171E+03  0.00000000000E+00 0. -1.
         22    1    5    5    0    0  0.95542174030E+02 -0.13061389216E+03  0.54282496127E+03  0.56643378644E+03  0.00000000000E+00 0. -1.
          5    1    4    4  502    0  0.23077725526E+02 -0.53223374490E+01  0.58016205469E+02  0.62840104936E+02  0.47000000000E+01 0. -1.
         -5    1    4    4    0  502  0.98701806118E+02 -0.36740797551E+02 -0.49800038891E+02  0.11659359592E+03  0.47000000000E+01 0. -1.
<mgrwt>
<rscale>  0 0.10002591E+04</rscale>
<asrwt>0</asrwt>
<pdfrwt beam="1">  1        1 0.11176449E+00 0.10002591E+04</pdfrwt>
<pdfrwt beam="2">  1       -1 0.52970547E-01 0.10002591E+04</pdfrwt>
<totfact> 0.10608425E+02</totfact>
</mgrwt>
</event>
<event>
 9    1  0.4412976E-036  0.1006386E+04  0.7818608E-02  0.8674980E-01
         -2   -1    0    0    0  501 -0.00000000000E+00  0.00000000000E+00  0.18987729661E+03  0.18987729661E+03  0.00000000000E+00 0. -1.
          2   -1    0    0  501    0  0.00000000000E+00 -0.00000000000E+00 -0.13335102288E+04  0.13335102288E+04  0.00000000000E+00 0. -1.
         36    2    1    2    0    0 -0.71054273576E-14  0.00000000000E+00 -0.11436329322E+04  0.15233875254E+04  0.10063862425E+04 0.  0.
         25    2    3    3    0    0  0.59028710824E+02  0.32212433167E+02 -0.40219991441E+03  0.43076602308E+03  0.13882566743E+03 0.  0.
         35    2    3    3    0    0 -0.59028710824E+02 -0.32212433167E+02 -0.74143301782E+03  0.10926215024E+04  0.79973545499E+03 0.  0.
         22    1    5    5    0    0  0.12728730803E+03  0.14748502753E+03 -0.80321013033E+03  0.82649888421E+03  0.00000000000E+00 0. -1.
         22    1    5    5    0    0 -0.18631601886E+03 -0.17969746070E+03  0.61777112513E+02  0.26612261816E+03  0.00000000000E+00 0. -1.
          5    1    4    4  502    0  0.64531744531E+02 -0.93350316029E+01 -0.69538523635E+02  0.95442051196E+02  0.47000000000E+01 0.  1.
         -5    1    4    4    0  502 -0.55030337067E+01  0.41547464770E+02 -0.33266139077E+03  0.33532397188E+03  0.47000000000E+01 0.  1.
<mgrwt>
<rscale>  0 0.10063862E+04</rscale>
<asrwt>0</asrwt>
<pdfrwt beam="1">  1        2 0.20515541E+00 0.10063862E+04</pdfrwt>
<pdfrwt beam="2">  1       -2 0.29211893E-01 0.10063862E+04</pdfrwt>
<totfact> 0.20455579E+02</totfact>
</mgrwt>
</event>
<event>
 9    1  0.4412976E-036  0.9988819E+03  0.7818608E-02  0.8682103E-01
         -2   -1    0    0    0  501 -0.00000000000E+00  0.00000000000E+00  0.10260460851E+03  0.10260460851E+03  0.00000000000E+00 0. -1.
          2   -1    0    0  501    0  0.00000000000E+00 -0.00000000000E+00 -0.24310921960E+04  0.24310921960E+04  0.00000000000E+00 0. -1.
         36    2    1    2    0    0  0.14210854715E-13 -0.71054273576E-14 -0.23284875875E+04  0.25336968045E+04  0.99888190099E+03 0.  0.
         25    2    3    3    0    0 -0.71321472308E+02 -0.59283718036E+02 -0.69401463894E+03  0.71131586461E+03  0.12535002408E+03 0.  0.
         35    2    3    3    0    0  0.71321472308E+02  0.59283718036E+02 -0.16344729486E+04  0.18223809399E+04  0.80060549523E+03 0.  0.
         22    1    5    5    0    0  0.87466110105E+02 -0.46570594036E+02  0.65665188164E+02  0.11887412495E+03  0.00000000000E+00 0.  1.
         22    1    5    5    0    0 -0.16144637797E+02  0.10585431207E+03 -0.17001381367E+04  0.17035068150E+04  0.00000000000E+00 0.  1.
          5    1    4    4  502    0  0.16458080973E+02  0.27468208921E+02 -0.13620631297E+03  0.13999864507E+03  0.47000000000E+01 0. -1.
         -5    1    4    4    0  502 -0.87779553281E+02 -0.86751926958E+02 -0.55780832598E+03  0.57131721953E+03  0.47000000000E+01 0. -1.
<mgrwt>
<rscale>  0 0.99888190E+03</rscale>
<asrwt>0</asrwt>
<pdfrwt beam="1">  1        2 0.37401421E+00 0.99888190E+03</pdfrwt>
<pdfrwt beam="2">  1       -2 0.15785323E-01 0.99888190E+03</pdfrwt>
<totfact> 0.14068463E+02</totfact>
</mgrwt>
</event>
<event>
 9    1  0.4412976E-036  0.9999258E+03  0.7818608E-02  0.8681109E-01
          2   -1    0    0  501    0  0.00000000000E+00  0.00000000000E+00  0.43470257705E+03  0.43470257705E+03  0.00000000000E+00 0. -1.
         -2   -1    0    0    0  501 -0.00000000000E+00 -0.00000000000E+00 -0.57502056294E+03  0.57502056294E+03  0.00000000000E+00 0. -1.
         36    2    1    2    0    0 -0.28421709430E-13  0.35527136788E-14 -0.14031798589E+03  0.10097231400E+04  0.99992583839E+03 0.  0.
         25    2    3    3    0    0 -0.85597415624E+02  0.10279178476E+02 -0.13620784508E+03  0.20399520276E+03  0.12501554551E+03 0.  0.
         35    2    3    3    0    0  0.85597415624E+02 -0.10279178476E+02 -0.41101408124E+01  0.80572793723E+03  0.80109177783E+03 0.  0.
         22    1    5    5    0    0  0.27763722624E+03 -0.15873093232E+03 -0.28928774025E+03  0.43123698233E+03  0.00000000000E+00 0.  1.
         22    1    5    5    0    0 -0.19203981062E+03  0.14845175385E+03  0.28517759943E+03  0.37449095490E+03  0.00000000000E+00 0.  1.
          5    1    4    4  502    0 -0.56121544054E+02  0.36690062605E+02 -0.14790263634E+03  0.16245943567E+03  0.47000000000E+01 0. -1.
         -5    1    4    4    0  502 -0.29475871569E+02 -0.26410884129E+02  0.11694791268E+02  0.41535767094E+02  0.47000000000E+01 0. -1.
<mgrwt>
<rscale>  0 0.99992584E+03</rscale>
<asrwt>0</asrwt>
<pdfrwt beam="1">  1        2 0.66877320E-01 0.99992584E+03</pdfrwt>
<pdfrwt beam="2">  1       -2 0.88464702E-01 0.99992584E+03</pdfrwt>
<totfact> 0.95173038E+01</totfact>
</mgrwt>
</event>
<event>
 9    1  0.4412976E-036  0.9996906E+03  0.7818608E-02  0.8681333E-01
         -3   -1    0    0    0  501 -0.00000000000E+00  0.00000000000E+00  0.34199322171E+03  0.34199322171E+03  0.00000000000E+00 0. -1.
          3   -1    0    0  501    0  0.00000000000E+00 -0.00000000000E+00 -0.73055638767E+03  0.73055638767E+03  0.00000000000E+00 0. -1.
         36    2    1    2    0    0 -0.88817841970E-14  0.00000000000E+00 -0.38856316596E+03  0.10725496094E+04  0.99969061745E+03 0.  0.
         25    2    3    3    0    0 -0.11191776112E+02  0.13644398782E+03 -0.23782427463E+02  0.18332726351E+03  0.11958705626E+03 0.  0.
         35    2    3    3    0    0  0.11191776112E+02 -0.13644398782E+03 -0.36478073850E+03  0.88922234586E+03  0.79931794396E+03 0.  0.
         22    1    5    5    0    0 -0.29060448975E+03  0.11471617779E+03 -0.38530006314E+03  0.49605131747E+03  0.00000000000E+00 0.  1.
         22    1    5    5    0    0  0.30179626586E+03 -0.25116016562E+03  0.20519324642E+02  0.39317102839E+03  0.00000000000E+00 0.  1.
          5    1    4    4  502    0 -0.98585816130E+01  0.13301511620E+03 -0.60208774539E+02  0.14641516076E+03  0.47000000000E+01 0.  1.
         -5    1    4    4    0  502 -0.13331944988E+01  0.34288716228E+01  0.36426347075E+02  0.36912102750E+02  0.47000000000E+01 0.  1.
<mgrwt>
<rscale>  0 0.99969062E+03</rscale>
<asrwt>0</asrwt>
<pdfrwt beam="1">  1        3 0.11239329E+00 0.99969062E+03</pdfrwt>
<pdfrwt beam="2">  1       -3 0.52614343E-01 0.99969062E+03</pdfrwt>
<totfact> 0.99069200E+00</totfact>
</mgrwt>
</event>
<event>
 9    1  0.4412976E-036  0.1000355E+04  0.7818608E-02  0.8680700E-01
         -1   -1    0    0    0  501 -0.00000000000E+00  0.00000000000E+00  0.14759400058E+03  0.14759400058E+03  0.00000000000E+00 0. -1.
          1   -1    0    0  501    0  0.00000000000E+00 -0.00000000000E+00 -0.16950393598E+04  0.16950393598E+04  0.00000000000E+00 0. -1.
         36    2    1    2    0    0  0.00000000000E+00  0.00000000000E+00 -0.15474453592E+04  0.18426333604E+04  0.10003552174E+04 0.  0.
         25    2    3    3    0    0  0.94225582316E+02  0.70839311247E+02 -0.14475024019E+03  0.22449068663E+03  0.12468667919E+03 0.  0.
         35    2    3    3    0    0 -0.94225582316E+02 -0.70839311247E+02 -0.14026951190E+04  0.16181426738E+04  0.79808235622E+03 0.  0.
         22    1    5    5    0    0  0.13984722124E+03  0.19284967009E+03 -0.11738894277E+04  0.11978166091E+04  0.00000000000E+00 0.  1.
         22    1    5    5    0    0 -0.23407280355E+03 -0.26368898134E+03 -0.22880569129E+03  0.42032606463E+03  0.00000000000E+00 0.  1.
          5    1    4    4  502    0  0.11070262612E+03  0.19271716829E+02 -0.71441001989E+02  0.13323804737E+03  0.47000000000E+01 0.  1.
         -5    1    4    4    0  502 -0.16477043809E+02  0.51567594418E+02 -0.73309238200E+02  0.91252639262E+02  0.47000000000E+01 0.  1.
<mgrwt>
<rscale>  0 0.10003552E+04</rscale>
<asrwt>0</asrwt>
<pdfrwt beam="1">  1        1 0.26077528E+00 0.10003552E+04</pdfrwt>
<pdfrwt beam="2">  1       -1 0.22706770E-01 0.10003552E+04</pdfrwt>
<totfact> 0.84464321E+01</totfact>
</mgrwt>
</event>
<event>
 9    1  0.4412976E-036  0.9986663E+03  0.7818608E-02  0.8682309E-01
         -2   -1    0    0    0  501 -0.00000000000E+00  0.00000000000E+00  0.23725308806E+03  0.23725308806E+03  0.00000000000E+00 0. -1.
          2   -1    0    0  501    0  0.00000000000E+00 -0.00000000000E+00 -0.10509183016E+04  0.10509183016E+04  0.00000000000E+00 0. -1.
         36    2    1    2    0    0  0.00000000000E+00  0.00000000000E+00 -0.81366521354E+03  0.12881713897E+04  0.99866633539E+03 0.  0.
         25    2    3    3    0    0  0.13490049177E+03  0.33074623101E+02 -0.14285015798E+03  0.23526982703E+03  0.12511454953E+03 0.  0.
         35    2    3    3    0    0 -0.13490049177E+03 -0.33074623101E+02 -0.67081505556E+03  0.10529015626E+04  0.79957287877E+03 0.  0.
         22    1    5    5    0    0 -0.20520920561E+03 -0.35337399853E+03 -0.14575828018E+03  0.43385421186E+03  0.00000000000E+00 0.  1.
         22    1    5    5    0    0  0.70308713842E+02  0.32029937543E+03 -0.52505677538E+03  0.61904735078E+03  0.00000000000E+00 0.  1.
          5    1    4    4  502    0 -0.22333283239E+02 -0.63639116633E+01 -0.27268980261E+02  0.36124260496E+02  0.47000000000E+01 0.  1.
         -5    1    4    4    0  502  0.15723377501E+03  0.39438534764E+02 -0.11558117772E+03  0.19914556654E+03  0.47000000000E+01 0.  1.
<mgrwt>
<rscale>  0 0.99866634E+03</rscale>
<asrwt>0</asrwt>
<pdfrwt beam="1">  1        2 0.16167974E+00 0.99866634E+03</pdfrwt>
<pdfrwt beam="2">  1       -2 0.36500476E-01 0.99866634E+03</pdfrwt>
<totfact> 0.19950910E+02</totfact>
</mgrwt>
</event>
<event>
 9    1  0.4412976E-036  0.1002725E+04  0.7818608E-02  0.8678447E-01
          2   -1    0    0  501    0  0.00000000000E+00  0.00000000000E+00  0.86801097687E+03  0.86801097687E+03  0.00000000000E+00 0.  1.
         -2   -1    0    0    0  501 -0.00000000000E+00 -0.00000000000E+00 -0.28958687408E+03  0.28958687408E+03  0.00000000000E+00 0.  1.
         36    2    1    2    0    0 -0.42632564146E-13 -0.42632564146E-13  0.57842410279E+03  0.11575978509E+04  0.10027254569E+04 0.  0.
         25    2    3    3    0    0 -0.60684006422E+02 -0.76615846511E+02  0.21907427036E+03  0.27495155951E+03  0.13435880162E+03 0.  0.
         35    2    3    3    0    0  0.60684006422E+02  0.76615846511E+02  0.35934983243E+03  0.88264629143E+03  0.80023723803E+03 0.  0.
         22    1    5    5    0    0 -0.23422886312E+03 -0.20924098707E+03  0.35215575727E+03  0.47186717238E+03  0.00000000000E+00 0. -1.
         22    1    5    5    0    0  0.29491286955E+03  0.28585683359E+03  0.71940751667E+01  0.41077911905E+03  0.00000000000E+00 0. -1.
          5    1    4    4  502    0  0.91764769517E+01 -0.68623985914E+02  0.18313880338E+03  0.19584527177E+03  0.47000000000E+01 0.  1.
         -5    1    4    4    0  502 -0.69860483374E+02 -0.79918605968E+01  0.35935466974E+02  0.79106287738E+02  0.47000000000E+01 0.  1.
<mgrwt>
<rscale>  0 0.10027255E+04</rscale>
<asrwt>0</asrwt>
<pdfrwt beam="1">  1        2 0.13354015E+00 0.10027255E+04</pdfrwt>
<pdfrwt beam="2">  1       -2 0.44551827E-01 0.10027255E+04</pdfrwt>
<totfact> 0.17831517E+02</totfact>
</mgrwt>
</event>
<event>
 9    1  0.4412976E-036  0.9998260E+03  0.7818608E-02  0.8681204E-01
         -2   -1    0    0    0  501 -0.00000000000E+00  0.00000000000E+00  0.40511894283E+03  0.40511894283E+03  0.00000000000E+00 0.  1.
          2   -1    0    0  501    0  0.00000000000E+00 -0.00000000000E+00 -0.61688797788E+03  0.61688797788E+03  0.00000000000E+00 0.  1.
         36    2    1    2    0    0  0.00000000000E+00 -0.21316282073E-13 -0.21176903505E+03  0.10220069207E+04  0.99982599575E+03 0.  0.
         25    2    3    3    0    0  0.13326773816E+03 -0.29274937239E+02  0.18858975056E+02  0.17877361117E+03  0.11396065604E+03 0.  0.
         35    2    3    3    0    0 -0.13326773816E+03  0.29274937239E+02 -0.23062801011E+03  0.84323330954E+03  0.79952224690E+03 0.  0.
         22    1    5    5    0    0  0.18979062880E+02 -0.37501360258E+03 -0.67825541948E+02  0.38157006052E+03  0.00000000000E+00 0.  1.
         22    1    5    5    0    0 -0.15224680104E+03  0.40428853982E+03 -0.16280246816E+03  0.46166324902E+03  0.00000000000E+00 0.  1.
          5    1    4    4  502    0  0.58516986332E+02  0.87547042972E+01 -0.43977578070E+02  0.73871509458E+02  0.47000000000E+01 0.  1.
         -5    1    4    4    0  502  0.74750751828E+02 -0.38029641536E+02  0.62836553126E+02  0.10490210171E+03  0.47000000000E+01 0.  1.
<mgrwt>
<rscale>  0 0.99982600E+03</rscale>
<asrwt>0</asrwt>
<pdfrwt beam="1">  1        2 0.94905843E-01 0.99982600E+03</pdfrwt>
<pdfrwt beam="2">  1       -2 0.62325991E-01 0.99982600E+03</pdfrwt>
<totfact> 0.13858888E+02</totfact>
</mgrwt>
</event>
<event>
 9    1  0.4412976E-036  0.1007098E+04  0.7818608E-02  0.8674308E-01
         -2   -1    0    0    0  501 -0.00000000000E+00  0.00000000000E+00  0.20166661357E+03  0.20166661357E+03  0.00000000000E+00 0.  1.
          2   -1    0    0  501    0  0.00000000000E+00 -0.00000000000E+00 -0.12573300885E+04  0.12573300885E+04  0.00000000000E+00 0.  1.
         36    2    1    2    0    0 -0.28421709430E-13  0.00000000000E+00 -0.10556634750E+04  0.14589967021E+04  0.10070978127E+04 0.  0.
         25    2    3    3    0    0  0.11518810799E+03 -0.80969152000E+02 -0.24837695861E+03  0.31187043537E+03  0.12549004381E+03 0.  0.
         35    2    3    3    0    0 -0.11518810799E+03  0.80969152000E+02 -0.80728651636E+03  0.11471262667E+04  0.80272214904E+03 0.  0.
         22    1    5    5    0    0 -0.28948597773E+03 -0.21948177956E+03 -0.12977968495E+03  0.38576825879E+03  0.00000000000E+00 0. -1.
         22    1    5    5    0    0  0.17429786974E+03  0.30045093156E+03 -0.67750683140E+03  0.76135800795E+03  0.00000000000E+00 0. -1.
          5    1    4    4  502    0 -0.86608872923E+01  0.20784176220E+02 -0.11232176430E+02  0.25597748674E+02  0.47000000000E+01 0.  1.
         -5    1    4    4    0  502  0.12384899528E+03 -0.10175332822E+03 -0.23714478218E+03  0.28627268670E+03  0.47000000000E+01 0.  1.
<mgrwt>
<rscale>  0 0.10070978E+04</rscale>
<asrwt>0</asrwt>
<pdfrwt beam="1">  1        2 0.19343539E+00 0.10070978E+04</pdfrwt>
<pdfrwt beam="2">  1       -2 0.31025633E-01 0.10070978E+04</pdfrwt>
<totfact> 0.20292334E+02</totfact>
</mgrwt>
</event>
<event>
 9    1  0.4412976E-036  0.1000454E+04  0.7818608E-02  0.8680605E-01
         -1   -1    0    0    0  501 -0.00000000000E+00  0.00000000000E+00  0.36603841272E+03  0.36603841272E+03  0.00000000000E+00 0. -1.
          1   -1    0    0  501    0  0.00000000000E+00 -0.00000000000E+00 -0.68360933199E+03  0.68360933199E+03  0.00000000000E+00 0. -1.
         36    2    1    2    0    0  0.10658141036E-13  0.00000000000E+00 -0.31757091928E+03  0.10496477447E+04  0.10004544463E+04 0.  0.
         25    2    3    3    0    0  0.30780670220E+02  0.92730585512E+02 -0.15322899417E+03  0.22147350871E+03  0.12658980707E+03 0.  0.
         35    2    3    3    0    0 -0.30780670220E+02 -0.92730585512E+02 -0.16434192511E+03  0.82817423600E+03  0.80580263445E+03 0.  0.
         22    1    5    5    0    0  0.18846111473E+03 -0.84436362531E+02 -0.43394625937E+03  0.48057928285E+03  0.00000000000E+00 0.  1.
         22    1    5    5    0    0 -0.21924178495E+03 -0.82942229813E+01  0.26960433426E+03  0.34759495315E+03  0.00000000000E+00 0.  1.
          5    1    4    4  502    0 -0.24655429510E+01  0.10313827367E+03 -0.15502467447E+03  0.18627485631E+03  0.47000000000E+01 0.  1.
         -5    1    4    4    0  502  0.33246213171E+02 -0.10407688160E+02  0.17956802958E+01  0.35198652400E+02  0.47000000000E+01 0.  1.
<mgrwt>
<rscale>  0 0.10004544E+04</rscale>
<asrwt>0</asrwt>
<pdfrwt beam="1">  1        1 0.10517067E+00 0.10004544E+04</pdfrwt>
<pdfrwt beam="2">  1       -1 0.56313602E-01 0.10004544E+04</pdfrwt>
<totfact> 0.10382995E+02</totfact>
</mgrwt>
</event>
<event>
 9    1  0.4412976E-036  0.1000385E+04  0.7818608E-02  0.8680672E-01
          4   -1    0    0  501    0  0.00000000000E+00  0.00000000000E+00  0.88654912981E+02  0.88654912981E+02  0.00000000000E+00 0.  1.
         -4   -1    0    0    0  501 -0.00000000000E+00 -0.00000000000E+00 -0.28220929164E+04  0.28220929164E+04  0.00000000000E+00 0.  1.
         36    2    1    2    0    0  0.35527136788E-14  0.00000000000E+00 -0.27334380034E+04  0.29107478293E+04  0.10003847298E+04 0.  0.
         25    2    3    3    0    0 -0.20372746555E+02 -0.97703377587E+02 -0.78015294142E+03  0.79750701671E+03  0.13197663013E+03 0.  0.
         35    2    3    3    0    0  0.20372746555E+02  0.97703377587E+02 -0.19532850620E+04  0.21132408126E+04  0.80031443827E+03 0.  0.
         22    1    5    5    0    0 -0.10944268304E+03 -0.31925170666E+03 -0.11552301854E+04  0.12035182318E+04  0.00000000000E+00 0.  1.
         22    1    5    5    0    0  0.12981542959E+03  0.41695508424E+03 -0.79805487660E+03  0.90972258085E+03  0.00000000000E+00 0.  1.
          5    1    4    4  502    0 -0.41144457761E+02  0.34094752672E+01 -0.83875255878E+02  0.93603629602E+02  0.47000000000E+01 0.  1.
         -5    1    4    4    0  502  0.20771711206E+02 -0.10111285285E+03 -0.69627768554E+03  0.70390338711E+03  0.47000000000E+01 0.  1.
<mgrwt>
<rscale>  0 0.10003847E+04</rscale>
<asrwt>0</asrwt>
<pdfrwt beam="1">  1        4 0.13639216E-01 0.10003847E+04</pdfrwt>
<pdfrwt beam="2">  1       -4 0.43416817E+00 0.10003847E+04</pdfrwt>
<totfact> 0.31683074E-01</totfact>
</mgrwt>
</event>
<event>
 9    1  0.4412976E-036  0.1000556E+04  0.7818608E-02  0.8680508E-01
          2   -1    0    0  501    0  0.00000000000E+00  0.00000000000E+00  0.15047201648E+04  0.15047201648E+04  0.00000000000E+00 0.  1.
         -2   -1    0    0    0  501 -0.00000000000E+00 -0.00000000000E+00 -0.16632878078E+03  0.16632878078E+03  0.00000000000E+00 0.  1.
         36    2    1    2    0    0 -0.28421709430E-13 -0.28421709430E-13  0.13383913840E+04  0.16710489456E+04  0.10005563861E+04 0.  0.
         25    2    3    3    0    0  0.53864572112E+02  0.12015410079E+03  0.33681829636E+03  0.38252997513E+03  0.12467644943E+03 0.  0.
         35    2    3    3    0    0 -0.53864572112E+02 -0.12015410079E+03  0.10015730877E+04  0.12885189705E+04  0.79987129418E+03 0.  0.
         22    1    5    5    0    0  0.15495791995E+03  0.14029993739E+03 -0.23597932119E+02  0.21036371309E+03  0.00000000000E+00 0.  1.
         22    1    5    5    0    0 -0.20882249206E+03 -0.26045403818E+03  0.10251710198E+04  0.10781552574E+04  0.00000000000E+00 0.  1.
          5    1    4    4  502    0  0.29437600494E+02 -0.18111445667E+02  0.11312682046E+03  0.11838228033E+03  0.47000000000E+01 0. -1.
         -5    1    4    4    0  502  0.24426971618E+02  0.13826554646E+03  0.22369147589E+03  0.26414769480E+03  0.47000000000E+01 0. -1.
<mgrwt>
<rscale>  0 0.10005564E+04</rscale>
<asrwt>0</asrwt>
<pdfrwt beam="1">  1        2 0.23149540E+00 0.10005564E+04</pdfrwt>
<pdfrwt beam="2">  1       -2 0.25589044E-01 0.10005564E+04</pdfrwt>
<totfact> 0.20725174E+02</totfact>
</mgrwt>
</event>
<event>
 9    1  0.4412976E-036  0.1000689E+04  0.7818608E-02  0.8680382E-01
         -1   -1    0    0    0  501 -0.00000000000E+00  0.00000000000E+00  0.64170145079E+02  0.64170145079E+02  0.00000000000E+00 0. -1.
          1   -1    0    0  501    0  0.00000000000E+00 -0.00000000000E+00 -0.39012657106E+04  0.39012657106E+04  0.00000000000E+00 0. -1.
         36    2    1    2    0    0  0.00000000000E+00  0.00000000000E+00 -0.38370955655E+04  0.39654358556E+04  0.10006893357E+04 0.  0.
         25    2    3    3    0    0  0.94785504181E+02 -0.37697028729E+01 -0.11384454337E+04  0.11491533014E+04  0.12448615255E+03 0.  0.
         35    2    3    3    0    0 -0.94785504181E+02  0.37697028729E+01 -0.26986501318E+04  0.28162825543E+04  0.79983522617E+03 0.  0.
         22    1    5    5    0    0 -0.30308130271E+03  0.12172566249E+03 -0.45604933796E+03  0.56094243165E+03  0.00000000000E+00 0. -1.
         22    1    5    5    0    0  0.20829579853E+03 -0.11795595961E+03 -0.22426007939E+04  0.22553401226E+04  0.00000000000E+00 0. -1.
          5    1    4    4  502    0  0.13365384824E+02 -0.45497891838E+02 -0.67860935281E+03  0.68028040939E+03  0.47000000000E+01 0. -1.
         -5    1    4    4    0  502  0.81420119357E+02  0.41728188965E+02 -0.45983608084E+03  0.46887289198E+03  0.47000000000E+01 0. -1.
<mgrwt>
<rscale>  0 0.10006893E+04</rscale>
<asrwt>0</asrwt>
<pdfrwt beam="1">  1        1 0.60019450E+00 0.10006893E+04</pdfrwt>
<pdfrwt beam="2">  1       -1 0.98723338E-02 0.10006893E+04</pdfrwt>
<totfact> 0.84421655E+00</totfact>
</mgrwt>
</event>
<event>
 9    1  0.4412976E-036  0.9981417E+03  0.7818608E-02  0.8682810E-01
         -2   -1    0    0    0  501 -0.00000000000E+00  0.00000000000E+00  0.48114892773E+03  0.48114892773E+03  0.00000000000E+00 0. -1.
          2   -1    0    0  501    0  0.00000000000E+00 -0.00000000000E+00 -0.51766038263E+03  0.51766038263E+03  0.00000000000E+00 0. -1.
         36    2    1    2    0    0  0.71054273576E-14  0.00000000000E+00 -0.36511454901E+02  0.99880931036E+03  0.99814174951E+03 0.  0.
         25    2    3    3    0    0 -0.54220355111E+02 -0.12601945454E+03  0.12416480352E+01  0.18586177016E+03  0.12538862024E+03 0.  0.
         35    2    3    3    0    0  0.54220355111E+02  0.12601945454E+03 -0.37753102936E+02  0.81294754020E+03  0.80039843609E+03 0.  0.
         22    1    5    5    0    0  0.32030621939E+03 -0.64963547556E+02  0.22185092371E+03  0.39501160622E+03  0.00000000000E+00 0.  1.
         22    1    5    5    0    0 -0.26608586428E+03  0.19098300210E+03 -0.25960402665E+03  0.41793593398E+03  0.00000000000E+00 0.  1.
          5    1    4    4  502    0  0.53132507943E+00 -0.41059797241E+02 -0.56006677873E+02  0.69606229766E+02  0.47000000000E+01 0.  1.
         -5    1    4    4    0  502 -0.54751680190E+02 -0.84959657303E+02  0.57248325908E+02  0.11625554039E+03  0.47000000000E+01 0.  1.
<mgrwt>
<rscale>  0 0.99814175E+03</rscale>
<asrwt>0</asrwt>
<pdfrwt beam="1">  1        2 0.79640058E-01 0.99814175E+03</pdfrwt>
<pdfrwt beam="2">  1       -2 0.74022912E-01 0.99814175E+03</pdfrwt>
<totfact> 0.11747059E+02</totfact>
</mgrwt>
</event>
<event>
 9    1  0.4412976E-036  0.1000021E+04  0.7818608E-02  0.8681018E-01
          1   -1    0    0  501    0  0.00000000000E+00  0.00000000000E+00  0.30407237253E+03  0.30407237253E+03  0.00000000000E+00 0. -1.
         -1   -1    0    0    0  501 -0.00000000000E+00 -0.00000000000E+00 -0.82220764851E+03  0.82220764851E+03  0.00000000000E+00 0. -1.
         36    2    1    2    0    0  0.00000000000E+00  0.00000000000E+00 -0.51813527598E+03  0.11262800210E+04  0.10000212606E+04 0.  0.
         25    2    3    3    0    0 -0.90678789225E+02 -0.92636065302E+02 -0.35499096434E+02  0.18378035372E+03  0.12534332514E+03 0.  0.
         35    2    3    3    0    0  0.90678789225E+02  0.92636065302E+02 -0.48263617955E+03  0.94249966732E+03  0.79910190694E+03 0.  0.
         22    1    5    5    0    0  0.42085064275E+02  0.80765786400E+02 -0.70689097618E+03  0.71273355267E+03  0.00000000000E+00 0. -1.
         22    1    5    5    0    0  0.48593724950E+02  0.11870278902E+02  0.22425479664E+03  0.22976611465E+03  0.00000000000E+00 0. -1.
          5    1    4    4  502    0 -0.77547672499E+02 -0.45656370597E+02 -0.77793795121E+02  0.11904667255E+03  0.47000000000E+01 0.  1.
         -5    1    4    4    0  502 -0.13131116726E+02 -0.46979694705E+02  0.42294698687E+02  0.64733681172E+02  0.47000000000E+01 0.  1.
<mgrwt>
<rscale>  0 0.10000213E+04</rscale>
<asrwt>0</asrwt>
<pdfrwt beam="1">  1        1 0.46780365E-01 0.10000213E+04</pdfrwt>
<pdfrwt beam="2">  1       -1 0.12649349E+00 0.10000213E+04</pdfrwt>
<totfact> 0.56140763E+01</totfact>
</mgrwt>
</event>
<event>
 9    1  0.4412976E-036  0.9996806E+03  0.7818608E-02  0.8681342E-01
         -2   -1    0    0    0  501 -0.00000000000E+00  0.00000000000E+00  0.23914951274E+03  0.23914951274E+03  0.00000000000E+00 0. -1.
          2   -1    0    0  501    0  0.00000000000E+00 -0.00000000000E+00 -0.10447034556E+04  0.10447034556E+04  0.00000000000E+00 0. -1.
         36    2    1    2    0    0 -0.14210854715E-13  0.00000000000E+00 -0.80555394285E+03  0.12838529683E+04  0.99968059372E+03 0.  0.
         25    2    3    3    0    0 -0.97087825753E+02 -0.43298024590E+01 -0.22643778931E+02  0.16004805441E+03  0.12513131461E+03 0.  0.
         35    2    3    3    0    0  0.97087825753E+02  0.43298024590E+01 -0.78291016392E+03  0.11238049139E+04  0.80034015688E+03 0.  0.
         22    1    5    5    0    0  0.21100498132E+03  0.30071124172E+03 -0.11611633724E+03  0.38527049824E+03  0.00000000000E+00 0. -1.
         22    1    5    5    0    0 -0.11391715556E+03 -0.29638143926E+03 -0.66679382668E+03  0.73853441569E+03  0.00000000000E+00 0. -1.
          5    1    4    4  502    0 -0.55654960753E+02 -0.90486079675E+01  0.50422427060E+02  0.75788278204E+02  0.47000000000E+01 0.  1.
         -5    1    4    4    0  502 -0.41432865000E+02  0.47188055086E+01 -0.73066205991E+02  0.84259776201E+02  0.47000000000E+01 0.  1.
<mgrwt>
<rscale>  0 0.99968059E+03</rscale>
<asrwt>0</asrwt>
<pdfrwt beam="1">  1        2 0.16072361E+00 0.99968059E+03</pdfrwt>
<pdfrwt beam="2">  1       -2 0.36792233E-01 0.99968059E+03</pdfrwt>
<totfact> 0.19828447E+02</totfact>
</mgrwt>
</event>
<event>
 9    1  0.4412976E-036  0.1000501E+04  0.7818608E-02  0.8680561E-01
         -1   -1    0    0    0  501 -0.00000000000E+00  0.00000000000E+00  0.70393700186E+03  0.70393700186E+03  0.00000000000E+00 0.  1.
          1   -1    0    0  501    0  0.00000000000E+00 -0.00000000000E+00 -0.35550150574E+03  0.35550150574E+03  0.00000000000E+00 0.  1.
         36    2    1    2    0    0  0.00000000000E+00  0.00000000000E+00  0.34843549612E+03  0.10594385076E+04  0.10005012026E+04 0.  0.
         25    2    3    3    0    0  0.45135811727E+02  0.11042745773E+03  0.14098892542E+03  0.22276059994E+03  0.12455096497E+03 0.  0.
         35    2    3    3    0    0 -0.45135811727E+02 -0.11042745773E+03  0.20744657070E+03  0.83667790766E+03  0.80172587370E+03 0.  0.
         22    1    5    5    0    0 -0.14568949543E+03 -0.13785548302E+03  0.49324563052E+03  0.53246672695E+03  0.00000000000E+00 0. -1.
         22    1    5    5    0    0  0.10055368370E+03  0.27428025292E+02 -0.28579905982E+03  0.30421118071E+03  0.00000000000E+00 0. -1.
          5    1    4    4  502    0 -0.39007432036E+02  0.14868821525E+02  0.54307640869E+02  0.68659096006E+02  0.47000000000E+01 0.  1.
         -5    1    4    4    0  502  0.84143243763E+02  0.95558636200E+02  0.86681284549E+02  0.15410150393E+03  0.47000000000E+01 0.  1.
<mgrwt>
<rscale>  0 0.10005012E+04</rscale>
<asrwt>0</asrwt>
<pdfrwt beam="1">  1        1 0.54692539E-01 0.10005012E+04</pdfrwt>
<pdfrwt beam="2">  1       -1 0.10829800E+00 0.10005012E+04</pdfrwt>
<totfact> 0.66782338E+01</totfact>
</mgrwt>
</event>
<event>
 9    1  0.4412976E-036  0.9994990E+03  0.7818608E-02  0.8681515E-01
          2   -1    0    0  501    0  0.00000000000E+00  0.00000000000E+00  0.11998969440E+04  0.11998969440E+04  0.00000000000E+00 0. -1.
         -2   -1    0    0    0  501 -0.00000000000E+00 -0.00000000000E+00 -0.20814249399E+03  0.20814249399E+03  0.00000000000E+00 0. -1.
         36    2    1    2    0    0  0.00000000000E+00  0.42632564146E-13  0.99175445006E+03  0.14080394380E+04  0.99949895941E+03 0.  0.
         25    2    3    3    0    0 -0.48839833225E+02  0.23367265489E+02  0.51563139054E+01  0.13560038646E+03  0.12421561428E+03 0.  0.
         35    2    3    3    0    0  0.48839833225E+02 -0.23367265489E+02  0.98659813615E+03  0.12724390516E+04  0.80174428549E+03 0.  0.
         22    1    5    5    0    0  0.21072991253E+03 -0.35074455349E+03  0.68892089784E+03  0.80127451059E+03  0.00000000000E+00 0.  1.
         22    1    5    5    0    0 -0.16189007931E+03  0.32737728800E+03  0.29767723831E+03  0.47116454099E+03  0.00000000000E+00 0.  1.
          5    1    4    4  502    0  0.40410489216E+01 -0.22570226674E+02 -0.44040427078E+02  0.49873784955E+02  0.47000000000E+01 0.  1.
         -5    1    4    4    0  502 -0.52880882146E+02  0.45937492163E+02  0.49196740983E+02  0.85726601508E+02  0.47000000000E+01 0.  1.
<mgrwt>
<rscale>  0 0.99949896E+03</rscale>
<asrwt>0</asrwt>
<pdfrwt beam="1">  1        2 0.18459953E+00 0.99949896E+03</pdfrwt>
<pdfrwt beam="2">  1       -2 0.32021923E-01 0.99949896E+03</pdfrwt>
<totfact> 0.20695689E+02</totfact>
</mgrwt>
</event>
<event>
 9    1  0.4412976E-036  0.9996304E+03  0.7818608E-02  0.8681390E-01
         -2   -1    0    0    0  501 -0.00000000000E+00  0.00000000000E+00  0.51380629257E+03  0.51380629257E+03  0.00000000000E+00 0.  1.
          2   -1    0    0  501    0  0.00000000000E+00 -0.00000000000E+00 -0.48620513485E+03  0.48620513485E+03  0.00000000000E+00 0.  1.
         36    2    1    2    0    0  0.00000000000E+00  0.71054273576E-14  0.27601157726E+02  0.10000114274E+04  0.99963044724E+03 0.  0.
         25    2    3    3    0    0  0.10982641085E+03 -0.50396332497E+02 -0.63574435705E+02  0.18498045249E+03  0.12479754837E+03 0.  0.
         35    2    3    3    0    0 -0.10982641085E+03  0.50396332497E+02  0.91175593431E+02  0.81503097493E+03  0.80085009234E+03 0.  0.
         22    1    5    5    0    0 -0.31941198575E+03 -0.16095735421E+03 -0.19048830585E+03  0.40523706788E+03  0.00000000000E+00 0.  1.
         22    1    5    5    0    0  0.20958557490E+03  0.21135368671E+03  0.28166389928E+03  0.40979390705E+03  0.00000000000E+00 0.  1.
          5    1    4    4  502    0  0.70439757981E+02 -0.41735531038E+02  0.26494251038E+02  0.86183811667E+02  0.47000000000E+01 0.  1.
         -5    1    4    4    0  502  0.39386652872E+02 -0.86608014594E+01 -0.90068686743E+02  0.98796640824E+02  0.47000000000E+01 0.  1.
<mgrwt>
<rscale>  0 0.99963045E+03</rscale>
<asrwt>0</asrwt>
<pdfrwt beam="1">  1        2 0.74800790E-01 0.99963045E+03</pdfrwt>
<pdfrwt beam="2">  1       -2 0.79047122E-01 0.99963045E+03</pdfrwt>
<totfact> 0.10890501E+02</totfact>
</mgrwt>
</event>
<event>
 9    1  0.4412976E-036  0.1000059E+04  0.7818608E-02  0.8680981E-01
          1   -1    0    0  501    0  0.00000000000E+00  0.00000000000E+00  0.84510246434E+03  0.84510246434E+03  0.00000000000E+00 0. -1.
         -1   -1    0    0    0  501 -0.00000000000E+00 -0.00000000000E+00 -0.29585722019E+03  0.29585722019E+03  0.00000000000E+00 0. -1.
         36    2    1    2    0    0  0.00000000000E+00 -0.42632564146E-13  0.54924524415E+03  0.11409596845E+04  0.10000593300E+04 0.  0.
         25    2    3    3    0    0 -0.97236149630E+02 -0.10118666759E+03  0.10256377371E+03  0.21354171905E+03  0.12404486126E+03 0.  0.
         35    2    3    3    0    0  0.97236149630E+02  0.10118666759E+03  0.44668147043E+03  0.92741796548E+03  0.80055364353E+03 0.  0.
         22    1    5    5    0    0  0.18321226494E+03  0.41983310975E+03  0.36937755517E+03  0.58844400951E+03  0.00000000000E+00 0.  1.
         22    1    5    5    0    0 -0.85976115307E+02 -0.31864644217E+03  0.77303915267E+02  0.33897395597E+03  0.00000000000E+00 0.  1.
          5    1    4    4  502    0 -0.96471085786E+02 -0.75944167513E+02  0.16795803257E+02  0.12400958019E+03  0.47000000000E+01 0. -1.
         -5    1    4    4    0  502 -0.76506384420E+00 -0.25242500077E+02  0.85767970455E+02  0.89532138860E+02  0.47000000000E+01 0. -1.
<mgrwt>
<rscale>  0 0.10000593E+04</rscale>
<asrwt>0</asrwt>
<pdfrwt beam="1">  1        1 0.13001576E+00 0.10000593E+04</pdfrwt>
<pdfrwt beam="2">  1       -1 0.45516496E-01 0.10000593E+04</pdfrwt>
<totfact> 0.10992521E+02</totfact>
</mgrwt>
</event>
<event>
 9    1  0.4412976E-036  0.1000266E+04  0.7818608E-02  0.8680785E-01
         -2   -1    0    0    0  501 -0.00000000000E+00  0.00000000000E+00  0.92321466012E+02  0.92321466012E+02  0.00000000000E+00 0. -1.
          2   -1    0    0  501    0  0.00000000000E+00 -0.00000000000E+00 -0.27093674205E+04  0.27093674205E+04  0.00000000000E+00 0. -1.
         36    2    1    2    0    0 -0.14210854715E-13  0.00000000000E+00 -0.26170459545E+04  0.28016888865E+04  0.10002655092E+04 0.  0.
         25    2    3    3    0    0 -0.41530128997E+02 -0.58925893776E+02 -0.82655032483E+03  0.83912234851E+03  0.12547455407E+03 0.  0.
         35    2    3    3    0    0  0.41530128997E+02  0.58925893776E+02 -0.17904956296E+04  0.19625665380E+04  0.80037229068E+03 0.  0.
         22    1    5    5    0    0 -0.96470513927E+02  0.33089793946E+03 -0.15078838338E+04  0.15467752463E+04  0.00000000000E+00 0.  1.
         22    1    5    5    0    0  0.13800064292E+03 -0.27197204569E+03 -0.28261179587E+03  0.41579129170E+03  0.00000000000E+00 0.  1.
          5    1    4    4  502    0 -0.21267248216E+02  0.25974053563E+02 -0.72620577542E+02  0.80142283394E+02  0.47000000000E+01 0. -1.
         -5    1    4    4    0  502 -0.20262880782E+02 -0.84899947339E+02 -0.75392974729E+03  0.75898006511E+03  0.47000000000E+01 0. -1.
<mgrwt>
<rscale>  0 0.10002655E+04</rscale>
<asrwt>0</asrwt>
<pdfrwt beam="1">  1        2 0.41682579E+00 0.10002655E+04</pdfrwt>
<pdfrwt beam="2">  1       -2 0.14203302E-01 0.10002655E+04</pdfrwt>
<totfact> 0.11316733E+02</totfact>
</mgrwt>
</event>
<event>
 9    1  0.4412976E-036  0.9994502E+03  0.7818608E-02  0.8681562E-01
          2   -1    0    0  501    0  0.00000000000E+00  0.00000000000E+00  0.16811860952E+04  0.16811860952E+04  0.00000000000E+00 0.  1.
         -2   -1    0    0    0  501 -0.00000000000E+00 -0.00000000000E+00 -0.14854106422E+03  0.14854106422E+03  0.00000000000E+00 0.  1.
         36    2    1    2    0    0  0.28421709430E-13  0.00000000000E+00  0.15326450310E+04  0.18297271594E+04  0.99945019233E+03 0.  0.
         25    2    3    3    0    0  0.10396850578E+03  0.48859495691E+02  0.44570463736E+03  0.47700031700E+03  0.12521971943E+03 0.  0.
         35    2    3    3    0    0 -0.10396850578E+03 -0.48859495691E+02  0.10869403936E+04  0.13527268424E+04  0.79701555219E+03 0.  0.
         22    1    5    5    0    0  0.33726912940E+03 -0.97081195064E+02  0.58933278216E+03  0.68592153503E+03  0.00000000000E+00 0.  1.
         22    1    5    5    0    0 -0.44123763519E+03  0.48221699373E+02  0.49760761143E+03  0.66680530738E+03  0.00000000000E+00 0.  1.
          5    1    4    4  502    0  0.77449214703E+02  0.77470255144E+02  0.19918859285E+03  0.22737239677E+03  0.47000000000E+01 0.  1.
         -5    1    4    4    0  502  0.26519291081E+02 -0.28610759453E+02  0.24651604451E+03  0.24962792023E+03  0.47000000000E+01 0.  1.
<mgrwt>
<rscale>  0 0.99945019E+03</rscale>
<asrwt>0</asrwt>
<pdfrwt beam="1">  1        2 0.25864400E+00 0.99945019E+03</pdfrwt>
<pdfrwt beam="2">  1       -2 0.22852473E-01 0.99945019E+03</pdfrwt>
<totfact> 0.20124255E+02</totfact>
</mgrwt>
</event>
<event>
 9    1  0.4412976E-036  0.9997493E+03  0.7818608E-02  0.8681277E-01
          2   -1    0    0  501    0  0.00000000000E+00  0.00000000000E+00  0.76102387835E+03  0.76102387835E+03  0.00000000000E+00 0.  1.
         -2   -1    0    0    0  501 -0.00000000000E+00 -0.00000000000E+00 -0.32834012669E+03  0.32834012669E+03  0.00000000000E+00 0.  1.
         36    2    1    2    0    0  0.71054273576E-14 -0.28421709430E-13  0.43268375167E+03  0.10893640050E+04  0.99974932184E+03 0.  0.
         25    2    3    3    0    0 -0.42616337951E+02 -0.10374242336E+03  0.17432510989E+03  0.24219518216E+03  0.12526220363E+03 0.  0.
         35    2    3    3    0    0  0.42616337951E+02  0.10374242336E+03  0.25835864178E+03  0.84716882288E+03  0.79897883828E+03 0.  0.
         22    1    5    5    0    0  0.18170349833E+03 -0.18842897456E+03  0.41265416044E+03  0.48867688291E+03  0.00000000000E+00 0.  1.
         22    1    5    5    0    0 -0.13908716037E+03  0.29217139792E+03 -0.15429551866E+03  0.35849193997E+03  0.00000000000E+00 0.  1.
          5    1    4    4  502    0 -0.31192392035E+02 -0.37480527458E+02 -0.63110493722E+01  0.49393062302E+02  0.47000000000E+01 0. -1.
         -5    1    4    4    0  502 -0.11423945916E+02 -0.66261895904E+02  0.18063615926E+03  0.19280211986E+03  0.47000000000E+01 0. -1.
<mgrwt>
<rscale>  0 0.99974932E+03</rscale>
<asrwt>0</asrwt>
<pdfrwt beam="1">  1        2 0.11708060E+00 0.99974932E+03</pdfrwt>
<pdfrwt beam="2">  1       -2 0.50513866E-01 0.99974932E+03</pdfrwt>
<totfact> 0.16504186E+02</totfact>
</mgrwt>
</event>
<event>
 9    1  0.4412976E-036  0.1000124E+04  0.7818608E-02  0.8680920E-01
         -2   -1    0    0    0  501 -0.00000000000E+00  0.00000000000E+00  0.31441595778E+03  0.31441595778E+03  0.00000000000E+00 0.  1.
          2   -1    0    0  501    0  0.00000000000E+00 -0.00000000000E+00 -0.79532151232E+03  0.79532151232E+03  0.00000000000E+00 0.  1.
         36    2    1    2    0    0 -0.14210854715E-13  0.28421709430E-13 -0.48090555453E+03  0.11097374701E+04  0.10001235424E+04 0.  0.
         25    2    3    3    0    0 -0.95848244623E+02  0.95785282646E+02 -0.36264653266E+02  0.18646392690E+03  0.12284935730E+03 0.  0.
         35    2    3    3    0    0  0.95848244623E+02 -0.95785282646E+02 -0.44464090127E+03  0.92327354320E+03  0.79772601696E+03 0.  0.
         22    1    5    5    0    0  0.22087672334E+03 -0.39473025873E+03 -0.38457921655E+03  0.59371683308E+03  0.00000000000E+00 0. -1.
         22    1    5    5    0    0 -0.12502847872E+03  0.29894497609E+03 -0.60061684712E+02  0.32955671013E+03  0.00000000000E+00 0. -1.
          5    1    4    4  502    0 -0.65639333537E+02  0.12136063093E+03 -0.93542731642E+01  0.13837094086E+03  0.47000000000E+01 0.  1.
         -5    1    4    4    0  502 -0.30208911086E+02 -0.25575348286E+02 -0.26910380102E+02  0.48092986040E+02  0.47000000000E+01 0.  1.
<mgrwt>
<rscale>  0 0.10001235E+04</rscale>
<asrwt>0</asrwt>
<pdfrwt beam="1">  1        2 0.12235715E+00 0.10001235E+04</pdfrwt>
<pdfrwt beam="2">  1       -2 0.48371687E-01 0.10001235E+04</pdfrwt>
<totfact> 0.17009981E+02</totfact>
</mgrwt>
</event>
<event>
 9    1  0.4412976E-036  0.1000007E+04  0.7818608E-02  0.8681032E-01
          1   -1    0    0  501    0  0.00000000000E+00  0.00000000000E+00  0.17997198283E+04  0.17997198283E+04  0.00000000000E+00 0.  1.
         -1   -1    0    0    0  501 -0.00000000000E+00 -0.00000000000E+00 -0.13891232612E+03  0.13891232612E+03  0.00000000000E+00 0.  1.
         36    2    1    2    0    0  0.00000000000E+00  0.00000000000E+00  0.16608075022E+04  0.19386321544E+04  0.10000065354E+04 0.  0.
         25    2    3    3    0    0 -0.14330888999E+03 -0.14336036513E+02  0.34040684469E+03  0.39034734941E+03  0.12550407717E+03 0.  0.
         35    2    3    3    0    0  0.14330888999E+03  0.14336036513E+02  0.13204006575E+04  0.15482848050E+04  0.79560353269E+03 0.  0.
         22    1    5    5    0    0  0.13155933585E+03  0.14416552495E+03  0.13878519831E+04  0.14015080037E+04  0.00000000000E+00 0.  1.
         22    1    5    5    0    0  0.11749554145E+02 -0.12982948844E+03 -0.67451325576E+02  0.14677680134E+03  0.00000000000E+00 0.  1.
          5    1    4    4  502    0  0.92983210255E+00  0.27733392955E+02  0.14987467543E+02  0.31886044846E+02  0.47000000000E+01 0.  1.
         -5    1    4    4    0  502 -0.14423872210E+03 -0.42069429468E+02  0.32541937715E+03  0.35846130456E+03  0.47000000000E+01 0.  1.
<mgrwt>
<rscale>  0 0.10000065E+04</rscale>
<asrwt>0</asrwt>
<pdfrwt beam="1">  1        1 0.27687996E+00 0.10000065E+04</pdfrwt>
<pdfrwt beam="2">  1       -1 0.21371128E-01 0.10000065E+04</pdfrwt>
<totfact> 0.78860204E+01</totfact>
</mgrwt>
</event>
<event>
 9    1  0.4412976E-036  0.1000450E+04  0.7818608E-02  0.8680609E-01
         -2   -1    0    0    0  501 -0.00000000000E+00  0.00000000000E+00  0.60021186234E+03  0.60021186234E+03  0.00000000000E+00 0.  1.
          2   -1    0    0  501    0  0.00000000000E+00 -0.00000000000E+00 -0.41689465035E+03  0.41689465035E+03  0.00000000000E+00 0.  1.
         36    2    1    2    0    0 -0.71054273576E-14  0.21316282073E-13  0.18331721200E+03  0.10171065127E+04  0.10004501277E+04 0.  0.
         25    2    3    3    0    0  0.36862954023E+02  0.19154152155E+02 -0.99801982569E+02  0.16492099046E+03  0.12455014430E+03 0.  0.
         35    2    3    3    0    0 -0.36862954023E+02 -0.19154152155E+02  0.28311919457E+03  0.85218552223E+03  0.80270662577E+03 0.  0.
         22    1    5    5    0    0  0.12667800350E+03  0.24229577208E+03  0.43081893306E+03  0.51025435895E+03  0.00000000000E+00 0.  1.
         22    1    5    5    0    0 -0.16354095753E+03 -0.26144992424E+03 -0.14769973850E+03  0.34193116328E+03  0.00000000000E+00 0.  1.
          5    1    4    4  502    0  0.48075890926E+02  0.66522808109E+02 -0.66720852444E+02  0.10587888098E+03  0.47000000000E+01 0. -1.
         -5    1    4    4    0  502 -0.11212936904E+02 -0.47368655953E+02 -0.33081130125E+02  0.59042109474E+02  0.47000000000E+01 0. -1.
<mgrwt>
<rscale>  0 0.10004501E+04</rscale>
<asrwt>0</asrwt>
<pdfrwt beam="1">  1        2 0.64137639E-01 0.10004501E+04</pdfrwt>
<pdfrwt beam="2">  1       -2 0.92340287E-01 0.10004501E+04</pdfrwt>
<totfact> 0.90189074E+01</totfact>
</mgrwt>
</event>
<event>
 9    1  0.4412976E-036  0.1001071E+04  0.7818608E-02  0.8680019E-01
          3   -1    0    0  501    0  0.00000000000E+00  0.00000000000E+00  0.57590435350E+03  0.57590435350E+03  0.00000000000E+00 0.  1.
         -3   -1    0    0    0  501 -0.00000000000E+00 -0.00000000000E+00 -0.43503001902E+03  0.43503001902E+03  0.00000000000E+00 0.  1.
         36    2    1    2    0    0  0.44408920985E-14 -0.71054273576E-14  0.14087433448E+03  0.10109343725E+04  0.10010707904E+04 0.  0.
         25    2    3    3    0    0  0.26533302904E+00  0.39187630082E+02 -0.11235827410E+03  0.17149164568E+03  0.12348790234E+03 0.  0.
         35    2    3    3    0    0 -0.26533302904E+00 -0.39187630082E+02  0.25323260858E+03  0.83944272684E+03  0.79937575447E+03 0.  0.
         22    1    5    5    0    0  0.22908477237E+03  0.40439832811E+02 -0.21195907388E+03  0.31470917052E+03  0.00000000000E+00 0. -1.
         22    1    5    5    0    0 -0.22935010540E+03 -0.79627462893E+02  0.46519168247E+03  0.52473355632E+03  0.00000000000E+00 0. -1.
          5    1    4    4  502    0 -0.55028088702E+01  0.75811783225E+02 -0.31498952757E+02  0.82413478303E+02  0.47000000000E+01 0.  1.
         -5    1    4    4    0  502  0.57681418992E+01 -0.36624153143E+02 -0.80859321343E+02  0.89078167373E+02  0.47000000000E+01 0.  1.
<mgrwt>
<rscale>  0 0.10010708E+04</rscale>
<asrwt>0</asrwt>
<pdfrwt beam="1">  1        3 0.88600670E-01 0.10010708E+04</pdfrwt>
<pdfrwt beam="2">  1       -3 0.66927695E-01 0.10010708E+04</pdfrwt>
<totfact> 0.10110517E+01</totfact>
</mgrwt>
</event>
<event>
 9    1  0.4412976E-036  0.1001036E+04  0.7818608E-02  0.8680052E-01
          1   -1    0    0  501    0  0.00000000000E+00  0.00000000000E+00  0.37140063978E+03  0.37140063978E+03  0.00000000000E+00 0. -1.
         -1   -1    0    0    0  501 -0.00000000000E+00 -0.00000000000E+00 -0.67452256811E+03  0.67452256811E+03  0.00000000000E+00 0. -1.
         36    2    1    2    0    0 -0.14210854715E-13 -0.14210854715E-13 -0.30312192833E+03  0.10459232079E+04  0.10010356904E+04 0.  0.
         25    2    3    3    0    0 -0.49893017116E+02  0.12756257729E+03 -0.22798209510E+02  0.18684114497E+03  0.12501332255E+03 0.  0.
         35    2    3    3    0    0  0.49893017116E+02 -0.12756257729E+03 -0.28032371882E+03  0.85908206292E+03  0.80042431198E+03 0.  0.
         22    1    5    5    0    0  0.21930865239E+03  0.24364337242E+03 -0.30840273041E+03  0.45007846212E+03  0.00000000000E+00 0. -1.
         22    1    5    5    0    0 -0.16941563527E+03 -0.37120594971E+03  0.28079011590E+02  0.40900360080E+03  0.00000000000E+00 0. -1.
          5    1    4    4  502    0 -0.53180401041E+02  0.13248300395E+03  0.19243194595E+02  0.14412595855E+03  0.47000000000E+01 0. -1.
         -5    1    4    4    0  502  0.32873839251E+01 -0.49204266597E+01 -0.42041404105E+02  0.42715186418E+02  0.47000000000E+01 0. -1.
<mgrwt>
<rscale>  0 0.10010357E+04</rscale>
<asrwt>0</asrwt>
<pdfrwt beam="1">  1        1 0.57138561E-01 0.10010357E+04</pdfrwt>
<pdfrwt beam="2">  1       -1 0.10377270E+00 0.10010357E+04</pdfrwt>
<totfact> 0.69530382E+01</totfact>
</mgrwt>
</event>
<event>
 9    1  0.4412976E-036  0.9998489E+03  0.7818608E-02  0.8681182E-01
          1   -1    0    0  501    0  0.00000000000E+00  0.00000000000E+00  0.10312410831E+04  0.10312410831E+04  0.00000000000E+00 0.  1.
         -1   -1    0    0    0  501 -0.00000000000E+00 -0.00000000000E+00 -0.24235307709E+03  0.24235307709E+03  0.00000000000E+00 0.  1.
         36    2    1    2    0    0  0.17763568394E-13 -0.14210854715E-13  0.78888800597E+03  0.12735941601E+04  0.99984888797E+03 0.  0.
         25    2    3    3    0    0 -0.31273339543E+02  0.66863064888E+02  0.29131915360E+03  0.32532294110E+03  0.12457718707E+03 0.  0.
         35    2    3    3    0    0  0.31273339543E+02 -0.66863064888E+02  0.49756885237E+03  0.94827121904E+03  0.80386245764E+03 0.  0.
         22    1    5    5    0    0  0.25505061407E+03 -0.31412142824E+03  0.46006176962E+03  0.61268255997E+03  0.00000000000E+00 0.  1.
         22    1    5    5    0    0 -0.22377727453E+03  0.24725836335E+03  0.37507082750E+02  0.33558865908E+03  0.00000000000E+00 0.  1.
          5    1    4    4  502    0 -0.31839412116E+02  0.10322964903E+03  0.21759658456E+03  0.24298245248E+03  0.47000000000E+01 0. -1.
         -5    1    4    4    0  502  0.56607257374E+00 -0.36366584138E+02  0.73722569034E+02  0.82340488613E+02  0.47000000000E+01 0. -1.
<mgrwt>
<rscale>  0 0.99984889E+03</rscale>
<asrwt>0</asrwt>
<pdfrwt beam="1">  1        1 0.15865247E+00 0.99984889E+03</pdfrwt>
<pdfrwt beam="2">  1       -1 0.37285089E-01 0.99984889E+03</pdfrwt>
<totfact> 0.11060668E+02</totfact>
</mgrwt>
</event>
<event>
 9    1  0.4412976E-036  0.1000110E+04  0.7818608E-02  0.8680933E-01
         -2   -1    0    0    0  501 -0.00000000000E+00  0.00000000000E+00  0.79568430660E+03  0.79568430660E+03  0.00000000000E+00 0. -1.
          2   -1    0    0  501    0  0.00000000000E+00 -0.00000000000E+00 -0.31426390440E+03  0.31426390440E+03  0.00000000000E+00 0. -1.
         36    2    1    2    0    0  0.28421709430E-13  0.00000000000E+00  0.48142040220E+03  0.11099482110E+04  0.10001097077E+04 0.  0.
         25    2    3    3    0    0 -0.75578609950E+02 -0.11034157896E+03  0.13759770807E+03  0.22882086114E+03  0.12465338703E+03 0.  0.
         35    2    3    3    0    0  0.75578609950E+02  0.11034157896E+03  0.34382269413E+03  0.88112734986E+03  0.80017746241E+03 0.  0.
         22    1    5    5    0    0 -0.27760577371E+03  0.25988582469E+03  0.22772898646E+02  0.38095171923E+03  0.00000000000E+00 0.  1.
         22    1    5    5    0    0  0.35318438366E+03 -0.14954424573E+03  0.32104979548E+03  0.50017563063E+03  0.00000000000E+00 0.  1.
          5    1    4    4  502    0 -0.27712560229E+02  0.23838615914E+02  0.11772247366E+02  0.38690327101E+02  0.47000000000E+01 0.  1.
         -5    1    4    4    0  502 -0.47866049721E+02 -0.13418019487E+03  0.12582546070E+03  0.19013053404E+03  0.47000000000E+01 0.  1.
<mgrwt>
<rscale>  0 0.10001097E+04</rscale>
<asrwt>0</asrwt>
<pdfrwt beam="1">  1        2 0.48348293E-01 0.10001097E+04</pdfrwt>
<pdfrwt beam="2">  1       -2 0.12241297E+00 0.10001097E+04</pdfrwt>
<totfact> 0.61270191E+01</totfact>
</mgrwt>
</event>
<event>
 9    1  0.4412976E-036  0.1000185E+04  0.7818608E-02  0.8680862E-01
          2   -1    0    0  501    0  0.00000000000E+00  0.00000000000E+00  0.36198143746E+04  0.36198143746E+04  0.00000000000E+00 0.  1.
         -2   -1    0    0    0  501 -0.00000000000E+00 -0.00000000000E+00 -0.69089827793E+02  0.69089827793E+02  0.00000000000E+00 0.  1.
         36    2    1    2    0    0  0.28421709430E-13 -0.71054273576E-14  0.35507245468E+04  0.36889042024E+04  0.10001846865E+04 0.  0.
         25    2    3    3    0    0  0.10731376851E+03 -0.38124423465E+02  0.37000866506E+03  0.40730078003E+03  0.12656143416E+03 0.  0.
         35    2    3    3    0    0 -0.10731376851E+03  0.38124423465E+02  0.31807158817E+04  0.32816034223E+04  0.79937337002E+03 0.  0.
         22    1    5    5    0    0 -0.38853778312E+03  0.13133391837E+03  0.99974792512E+03  0.10806045164E+04  0.00000000000E+00 0.  1.
         22    1    5    5    0    0  0.28122401461E+03 -0.93209494905E+02  0.21809679566E+04  0.22009989060E+04  0.00000000000E+00 0.  1.
          5    1    4    4  502    0 -0.19750316243E+02 -0.37427293549E+02  0.10726259343E+03  0.11540464134E+03  0.47000000000E+01 0.  1.
         -5    1    4    4    0  502  0.12706408475E+03 -0.69712991585E+00  0.26274607163E+03  0.29189613869E+03  0.47000000000E+01 0.  1.
<mgrwt>
<rscale>  0 0.10001847E+04</rscale>
<asrwt>0</asrwt>
<pdfrwt beam="1">  1        2 0.55689437E+00 0.10001847E+04</pdfrwt>
<pdfrwt beam="2">  1       -2 0.10629207E-01 0.10001847E+04</pdfrwt>
<totfact> 0.42268580E+01</totfact>
</mgrwt>
</event>
<event>
 9    1  0.4412976E-036  0.1005817E+04  0.7818608E-02  0.8675518E-01
          1   -1    0    0  501    0  0.00000000000E+00  0.00000000000E+00  0.66177430157E+03  0.66177430157E+03  0.00000000000E+00 0. -1.
         -1   -1    0    0    0  501 -0.00000000000E+00 -0.00000000000E+00 -0.38217992598E+03  0.38217992598E+03  0.00000000000E+00 0. -1.
         36    2    1    2    0    0  0.00000000000E+00  0.71054273576E-14  0.27959437559E+03  0.10439542275E+04  0.10058167897E+04 0.  0.
         25    2    3    3    0    0  0.13864982940E+03 -0.58566458874E+01 -0.45919256406E+01  0.18377092132E+03  0.12038517454E+03 0.  0.
         35    2    3    3    0    0 -0.13864982940E+03  0.58566458874E+01  0.28418630123E+03  0.86018330622E+03  0.79993461670E+03 0.  0.
         22    1    5    5    0    0  0.31876986247E+03 -0.11355316723E+03  0.13673851674E+03  0.36497392916E+03  0.00000000000E+00 0. -1.
         22    1    5    5    0    0 -0.45741969187E+03  0.11940981311E+03  0.14744778449E+03  0.49520937706E+03  0.00000000000E+00 0. -1.
          5    1    4    4  502    0  0.15456166856E+03 -0.22538762495E+02 -0.16969417840E+02  0.15718573836E+03  0.47000000000E+01 0.  1.
         -5    1    4    4    0  502 -0.15911839158E+02  0.16682116607E+02  0.12377492199E+02  0.26585182960E+02  0.47000000000E+01 0.  1.
<mgrwt>
<rscale>  0 0.10058168E+04</rscale>
<asrwt>0</asrwt>
<pdfrwt beam="1">  1        1 0.10181143E+00 0.10058168E+04</pdfrwt>
<pdfrwt beam="2">  1       -1 0.58796912E-01 0.10058168E+04</pdfrwt>
<totfact> 0.10041380E+02</totfact>
</mgrwt>
</event>
<event>
 9    1  0.4412976E-036  0.9993510E+03  0.7818608E-02  0.8681656E-01
         -2   -1    0    0    0  501 -0.00000000000E+00  0.00000000000E+00  0.20627074017E+03  0.20627074017E+03  0.00000000000E+00 0. -1.
          2   -1    0    0  501    0  0.00000000000E+00 -0.00000000000E+00 -0.12104267752E+04  0.12104267752E+04  0.00000000000E+00 0. -1.
         36    2    1    2    0    0  0.28421709430E-13 -0.42632564146E-13 -0.10041560350E+04  0.14166975154E+04  0.99935104312E+03 0.  0.
         25    2    3    3    0    0 -0.28287314748E+02  0.94438979612E+02 -0.32836244530E+03  0.36510198949E+03  0.12553355805E+03 0.  0.
         35    2    3    3    0    0  0.28287314748E+02 -0.94438979612E+02 -0.67579358973E+03  0.10515955259E+04  0.79964822335E+03 0.  0.
         22    1    5    5    0    0 -0.13176540856E+03  0.27509646531E+03 -0.52477169675E+02  0.30950612507E+03  0.00000000000E+00 0.  1.
         22    1    5    5    0    0  0.16005272331E+03 -0.36953544492E+03 -0.62331642005E+03  0.74208940081E+03  0.00000000000E+00 0.  1.
          5    1    4    4  502    0  0.38338216586E+02 -0.56670071065E+01 -0.72138227855E+02  0.82024068045E+02  0.47000000000E+01 0. -1.
         -5    1    4    4    0  502 -0.66625531334E+02  0.10010598672E+03 -0.25622421745E+03  0.28307792144E+03  0.47000000000E+01 0. -1.
<mgrwt>
<rscale>  0 0.99935104E+03</rscale>
<asrwt>0</asrwt>
<pdfrwt beam="1">  1        2 0.18621950E+00 0.99935104E+03</pdfrwt>
<pdfrwt beam="2">  1       -2 0.31733961E-01 0.99935104E+03</pdfrwt>
<totfact> 0.20743163E+02</totfact>
</mgrwt>
</event>
<event>
 9    1  0.4412976E-036  0.1000436E+04  0.7818608E-02  0.8680622E-01
         -2   -1    0    0    0  501 -0.00000000000E+00  0.00000000000E+00  0.14126073139E+03  0.14126073139E+03  0.00000000000E+00 0.  1.
          2   -1    0    0  501    0  0.00000000000E+00 -0.00000000000E+00 -0.17713221104E+04  0.17713221104E+04  0.00000000000E+00 0.  1.
         36    2    1    2    0    0  0.00000000000E+00  0.00000000000E+00 -0.16300613790E+04  0.19125828418E+04  0.10004364184E+04 0.  0.
         25    2    3    3    0    0 -0.13394303573E+03  0.68964879491E+01 -0.22815782256E+03  0.29275867130E+03  0.12515330303E+03 0.  0.
         35    2    3    3    0    0  0.13394303573E+03 -0.68964879491E+01 -0.14019035565E+04  0.16198241705E+04  0.80031772649E+03 0.  0.
         22    1    5    5    0    0  0.33312216740E+02 -0.34592155979E+03 -0.11040697070E+04  0.11574719639E+04  0.00000000000E+00 0.  1.
         22    1    5    5    0    0  0.10063081899E+03  0.33902507184E+03 -0.29783384952E+03  0.46235220665E+03  0.00000000000E+00 0.  1.
          5    1    4    4  502    0  0.15317097682E+02 -0.23694405452E+02 -0.55513571124E+02  0.62449058520E+02  0.47000000000E+01 0. -1.
         -5    1    4    4    0  502 -0.14926013341E+03  0.30590893401E+02 -0.17264425144E+03  0.23030961278E+03  0.47000000000E+01 0. -1.
<mgrwt>
<rscale>  0 0.10004364E+04</rscale>
<asrwt>0</asrwt>
<pdfrwt beam="1">  1        2 0.27251108E+00 0.10004364E+04</pdfrwt>
<pdfrwt beam="2">  1       -2 0.21732421E-01 0.10004364E+04</pdfrwt>
<totfact> 0.19550057E+02</totfact>
</mgrwt>
</event>
<event>
 9    1  0.4412976E-036  0.1000192E+04  0.7818608E-02  0.8680856E-01
         -1   -1    0    0    0  501 -0.00000000000E+00  0.00000000000E+00  0.23724098200E+03  0.23724098200E+03  0.00000000000E+00 0. -1.
          1   -1    0    0  501    0  0.00000000000E+00 -0.00000000000E+00 -0.10541844734E+04  0.10541844734E+04  0.00000000000E+00 0. -1.
         36    2    1    2    0    0  0.00000000000E+00 -0.71054273576E-14 -0.81694349136E+03  0.12914254554E+04  0.10001915010E+04 0.  0.
         25    2    3    3    0    0 -0.13394988282E+03 -0.56102998821E+02 -0.16396544871E+03  0.25199965702E+03  0.12461557360E+03 0.  0.
         35    2    3    3    0    0  0.13394988282E+03  0.56102998821E+02 -0.65297804265E+03  0.10394257983E+04  0.79557246588E+03 0.  0.
         22    1    5    5    0    0 -0.28696051503E+03  0.29283945105E+02 -0.52440123094E+03  0.59849856945E+03  0.00000000000E+00 0.  1.
         22    1    5    5    0    0  0.42091039785E+03  0.26819053716E+02 -0.12857681172E+03  0.44092722889E+03  0.00000000000E+00 0.  1.
          5    1    4    4  502    0 -0.15337242500E+03 -0.63198256906E+02 -0.15981670779E+03  0.23039225359E+03  0.47000000000E+01 0.  1.
         -5    1    4    4    0  502  0.19422542174E+02  0.70952580853E+01 -0.41487409197E+01  0.21607403430E+02  0.47000000000E+01 0.  1.
<mgrwt>
<rscale>  0 0.10001915E+04</rscale>
<asrwt>0</asrwt>
<pdfrwt beam="1">  1        1 0.16218223E+00 0.10001915E+04</pdfrwt>
<pdfrwt beam="2">  1       -1 0.36498613E-01 0.10001915E+04</pdfrwt>
<totfact> 0.11017857E+02</totfact>
</mgrwt>
</event>
<event>
 9    1  0.4412976E-036  0.9984770E+03  0.7818608E-02  0.8682490E-01
          1   -1    0    0  501    0  0.00000000000E+00  0.00000000000E+00  0.17889436910E+04  0.17889436910E+04  0.00000000000E+00 0.  1.
         -1   -1    0    0    0  501 -0.00000000000E+00 -0.00000000000E+00 -0.13932192916E+03  0.13932192916E+03  0.00000000000E+00 0.  1.
         36    2    1    2    0    0  0.00000000000E+00  0.14210854715E-13  0.16496217618E+04  0.19282656202E+04  0.99847701264E+03 0.  0.
         25    2    3    3    0    0 -0.85920516524E+02 -0.10719295869E+03  0.31386552402E+03  0.36445192237E+03  0.12426170367E+03 0.  0.
         35    2    3    3    0    0  0.85920516524E+02  0.10719295869E+03  0.13357562378E+04  0.15638136978E+04  0.80149603179E+03 0.  0.
         22    1    5    5    0    0  0.96535419461E+02  0.35567124666E+03  0.23909165941E+03  0.43930165548E+03  0.00000000000E+00 0. -1.
         22    1    5    5    0    0 -0.10614902937E+02 -0.24847828797E+03  0.10966645784E+04  0.11245120423E+04  0.00000000000E+00 0. -1.
          5    1    4    4  502    0 -0.11955541350E+02 -0.68894330439E+02  0.45837537595E+02  0.83740871672E+02  0.47000000000E+01 0. -1.
         -5    1    4    4    0  502 -0.73964975175E+02 -0.38298628251E+02  0.26802798642E+03  0.28071105070E+03  0.47000000000E+01 0. -1.
<mgrwt>
<rscale>  0 0.99847701E+03</rscale>
<asrwt>0</asrwt>
<pdfrwt beam="1">  1        1 0.27522209E+00 0.99847701E+03</pdfrwt>
<pdfrwt beam="2">  1       -1 0.21434144E-01 0.99847701E+03</pdfrwt>
<totfact> 0.79863698E+01</totfact>
</mgrwt>
</event>
<event>
 9    1  0.4412976E-036  0.1000858E+04  0.7818608E-02  0.8680222E-01
         -1   -1    0    0    0  501 -0.00000000000E+00  0.00000000000E+00  0.32372865927E+03  0.32372865927E+03  0.00000000000E+00 0. -1.
          1   -1    0    0  501    0  0.00000000000E+00 -0.00000000000E+00 -0.77357684077E+03  0.77357684077E+03  0.00000000000E+00 0. -1.
         36    2    1    2    0    0  0.71054273576E-14  0.00000000000E+00 -0.44984818150E+03  0.10973055000E+04  0.10008576193E+04 0.  0.
         25    2    3    3    0    0 -0.46443317092E+02 -0.13045733092E+03 -0.57680573575E+02  0.19548426549E+03  0.12534333884E+03 0.  0.
         35    2    3    3    0    0  0.46443317092E+02  0.13045733092E+03 -0.39216760792E+03  0.90182123456E+03  0.80019373248E+03 0.  0.
         22    1    5    5    0    0 -0.28373293975E+02 -0.18678084013E+03  0.16859572601E+03  0.25321264755E+03  0.00000000000E+00 0.  1.
         22    1    5    5    0    0  0.74816611067E+02  0.31723817104E+03 -0.56076333393E+03  0.64860858701E+03  0.00000000000E+00 0.  1.
          5    1    4    4  502    0 -0.72066960716E+01 -0.13629322629E+02  0.36766259698E+02  0.40144025157E+02  0.47000000000E+01 0.  1.
         -5    1    4    4    0  502 -0.39236621021E+02 -0.11682800829E+03 -0.94446833273E+02  0.15534024033E+03  0.47000000000E+01 0.  1.
<mgrwt>
<rscale>  0 0.10008576E+04</rscale>
<asrwt>0</asrwt>
<pdfrwt beam="1">  1        1 0.11901182E+00 0.10008576E+04</pdfrwt>
<pdfrwt beam="2">  1       -1 0.49804409E-01 0.10008576E+04</pdfrwt>
<totfact> 0.10770949E+02</totfact>
</mgrwt>
</event>
<event>
 9    1  0.4412976E-036  0.9957363E+03  0.7818608E-02  0.8685109E-01
          2   -1    0    0  501    0  0.00000000000E+00  0.00000000000E+00  0.20202138697E+04  0.20202138697E+04  0.00000000000E+00 0. -1.
         -2   -1    0    0    0  501 -0.00000000000E+00 -0.00000000000E+00 -0.12269627501E+03  0.12269627501E+03  0.00000000000E+00 0. -1.
         36    2    1    2    0    0  0.00000000000E+00 -0.21316282073E-13  0.18975175947E+04  0.21429101447E+04  0.99573634370E+03 0.  0.
         25    2    3    3    0    0 -0.83480897935E+02 -0.44646608531E+02  0.14108294739E+03  0.21048113673E+03  0.12423981206E+03 0.  0.
         35    2    3    3    0    0  0.83480897935E+02  0.44646608531E+02  0.17564346473E+04  0.19324290080E+04  0.80016049684E+03 0.  0.
         22    1    5    5    0    0  0.11115476220E+03  0.39616196658E+03  0.12449594841E+04  0.13111917487E+04  0.00000000000E+00 0. -1.
         22    1    5    5    0    0 -0.27673864269E+02 -0.35151535805E+03  0.51147516323E+03  0.62123725928E+03  0.00000000000E+00 0. -1.
          5    1    4    4  502    0  0.28502624510E+02 -0.30096565787E+02  0.25871860693E+02  0.49088145737E+02  0.47000000000E+01 0.  1.
         -5    1    4    4    0  502 -0.11198352245E+03 -0.14550042744E+02  0.11521108670E+03  0.16139299099E+03  0.47000000000E+01 0.  1.
<mgrwt>
<rscale>  0 0.99573634E+03</rscale>
<asrwt>0</asrwt>
<pdfrwt beam="1">  1        2 0.31080211E+00 0.99573634E+03</pdfrwt>
<pdfrwt beam="2">  1       -2 0.18876352E-01 0.99573634E+03</pdfrwt>
<totfact> 0.18036535E+02</totfact>
</mgrwt>
</event>
<event>
 9    1  0.4412976E-036  0.1000136E+04  0.7818608E-02  0.8680909E-01
          2   -1    0    0  501    0  0.00000000000E+00  0.00000000000E+00  0.60970913166E+03  0.60970913166E+03  0.00000000000E+00 0. -1.
         -2   -1    0    0    0  501 -0.00000000000E+00 -0.00000000000E+00 -0.41014275167E+03  0.41014275167E+03  0.00000000000E+00 0. -1.
         36    2    1    2    0    0  0.00000000000E+00 -0.14210854715E-13  0.19956637999E+03  0.10198518833E+04  0.10001355528E+04 0.  0.
         25    2    3    3    0    0  0.40399879811E+02  0.57497047836E+02  0.16120636565E+03  0.21559753773E+03  0.12472668178E+03 0.  0.
         35    2    3    3    0    0 -0.40399879811E+02 -0.57497047836E+02  0.38360014334E+02  0.80425434560E+03  0.80025964593E+03 0.  0.
         22    1    5    5    0    0 -0.38131854152E+03  0.11616248219E+03 -0.74142622031E+02  0.40545613915E+03  0.00000000000E+00 0.  1.
         22    1    5    5    0    0  0.34091866171E+03 -0.17365953003E+03  0.11250263636E+03  0.39879820644E+03  0.00000000000E+00 0.  1.
          5    1    4    4  502    0  0.63809964134E+02  0.72797073568E+02  0.16018196152E+03  0.18722039483E+03  0.47000000000E+01 0. -1.
         -5    1    4    4    0  502 -0.23410084323E+02 -0.15300025732E+02  0.10244041351E+01  0.28377142901E+02  0.47000000000E+01 0. -1.
<mgrwt>
<rscale>  0 0.10001356E+04</rscale>
<asrwt>0</asrwt>
<pdfrwt beam="1">  1        2 0.93801405E-01 0.10001356E+04</pdfrwt>
<pdfrwt beam="2">  1       -2 0.63098885E-01 0.10001356E+04</pdfrwt>
<totfact> 0.13692862E+02</totfact>
</mgrwt>
</event>
<event>
 9    1  0.4412976E-036  0.9979778E+03  0.7818608E-02  0.8682966E-01
         -2   -1    0    0    0  501 -0.00000000000E+00  0.00000000000E+00  0.40917921870E+03  0.40917921870E+03  0.00000000000E+00 0.  1.
          2   -1    0    0  501    0  0.00000000000E+00 -0.00000000000E+00 -0.60851067278E+03  0.60851067278E+03  0.00000000000E+00 0.  1.
         36    2    1    2    0    0  0.00000000000E+00 -0.14210854715E-13 -0.19933145408E+03  0.10176898915E+04  0.99797779867E+03 0.  0.
         25    2    3    3    0    0 -0.44450024987E+02  0.19970543790E+01 -0.16754402908E+03  0.21617147473E+03  0.12914841021E+03 0.  0.
         35    2    3    3    0    0  0.44450024987E+02 -0.19970543790E+01 -0.31787425003E+02  0.80151841675E+03  0.79965088573E+03 0.  0.
         22    1    5    5    0    0  0.40177306625E+02  0.39236811013E+03 -0.85236605405E+02  0.40352475601E+03  0.00000000000E+00 0.  1.
         22    1    5    5    0    0  0.42727183623E+01 -0.39436516451E+03  0.53449180402E+02  0.39799366074E+03  0.00000000000E+00 0.  1.
          5    1    4    4  502    0  0.17599312511E+02 -0.47916277304E+02 -0.96862812563E+02  0.10959105752E+03  0.47000000000E+01 0.  1.
         -5    1    4    4    0  502 -0.62049337498E+02  0.49913331683E+02 -0.70681216516E+02  0.10658041721E+03  0.47000000000E+01 0.  1.
<mgrwt>
<rscale>  0 0.99797780E+03</rscale>
<asrwt>0</asrwt>
<pdfrwt beam="1">  1        2 0.93617027E-01 0.99797780E+03</pdfrwt>
<pdfrwt beam="2">  1       -2 0.62950649E-01 0.99797780E+03</pdfrwt>
<totfact> 0.13794002E+02</totfact>
</mgrwt>
</event>
<event>
 9    1  0.4412976E-036  0.9995003E+03  0.7818608E-02  0.8681514E-01
          2   -1    0    0  501    0  0.00000000000E+00  0.00000000000E+00  0.64931077669E+03  0.64931077669E+03  0.00000000000E+00 0.  1.
         -2   -1    0    0    0  501 -0.00000000000E+00 -0.00000000000E+00 -0.38463896464E+03  0.38463896464E+03  0.00000000000E+00 0.  1.
         36    2    1    2    0    0  0.71054273576E-14  0.00000000000E+00  0.26467181206E+03  0.10339497413E+04  0.99950032491E+03 0.  0.
         25    2    3    3    0    0 -0.43152698370E+02  0.48809183993E+02  0.17909492183E+03  0.22934448770E+03  0.12759079588E+03 0.  0.
         35    2    3    3    0    0  0.43152698370E+02 -0.48809183993E+02  0.85576890221E+02  0.80460525363E+03  0.79738429769E+03 0.  0.
         22    1    5    5    0    0  0.26825853221E+03 -0.33142624278E+03 -0.23949281322E+02  0.42705920266E+03  0.00000000000E+00 0. -1.
         22    1    5    5    0    0 -0.22510583384E+03  0.28261705878E+03  0.10952617154E+03  0.37754605096E+03  0.00000000000E+00 0. -1.
          5    1    4    4  502    0  0.41990767568E+02  0.15431672374E+02  0.28999931426E+02  0.53520529668E+02  0.47000000000E+01 0. -1.
         -5    1    4    4    0  502 -0.85143465937E+02  0.33377511619E+02  0.15009499041E+03  0.17582395804E+03  0.47000000000E+01 0. -1.
<mgrwt>
<rscale>  0 0.99950032E+03</rscale>
<asrwt>0</asrwt>
<pdfrwt beam="1">  1        2 0.99893965E-01 0.99950032E+03</pdfrwt>
<pdfrwt beam="2">  1       -2 0.59175225E-01 0.99950032E+03</pdfrwt>
<totfact> 0.14527046E+02</totfact>
</mgrwt>
</event>
<event>
 9    1  0.4412976E-036  0.1000565E+04  0.7818608E-02  0.8680501E-01
          2   -1    0    0  501    0  0.00000000000E+00  0.00000000000E+00  0.94112910167E+03  0.94112910167E+03  0.00000000000E+00 0. -1.
         -2   -1    0    0    0  501 -0.00000000000E+00 -0.00000000000E+00 -0.26593839518E+03  0.26593839518E+03  0.00000000000E+00 0. -1.
         36    2    1    2    0    0  0.28421709430E-13  0.35527136788E-14  0.67519070649E+03  0.12070674969E+04  0.10005645666E+04 0.  0.
         25    2    3    3    0    0 -0.85172891447E+02  0.21973844827E+02 -0.77816256374E+01  0.15331969460E+03  0.12533596356E+03 0.  0.
         35    2    3    3    0    0  0.85172891447E+02 -0.21973844827E+02  0.68297233213E+03  0.10537478023E+04  0.79761892719E+03 0.  0.
         22    1    5    5    0    0 -0.23978984755E+02  0.64087701306E+02  0.84071872926E+03  0.84349878891E+03  0.00000000000E+00 0. -1.
         22    1    5    5    0    0  0.10915187620E+03 -0.86061546133E+02 -0.15774639713E+03  0.21024901334E+03  0.00000000000E+00 0. -1.
          5    1    4    4  502    0 -0.94623012683E+02 -0.37720256177E+01  0.36020869482E+02  0.10142650415E+03  0.47000000000E+01 0.  1.
         -5    1    4    4    0  502  0.94501212364E+01  0.25745870444E+02 -0.43802495119E+02  0.51893190449E+02  0.47000000000E+01 0.  1.
<mgrwt>
<rscale>  0 0.10005646E+04</rscale>
<asrwt>0</asrwt>
<pdfrwt beam="1">  1        2 0.14478909E+00 0.10005646E+04</pdfrwt>
<pdfrwt beam="2">  1       -2 0.40913600E-01 0.10005646E+04</pdfrwt>
<totfact> 0.18829854E+02</totfact>
</mgrwt>
</event>
<event>
 9    1  0.4412976E-036  0.9994515E+03  0.7818608E-02  0.8681560E-01
          3   -1    0    0  501    0  0.00000000000E+00  0.00000000000E+00  0.14546727050E+04  0.14546727050E+04  0.00000000000E+00 0. -1.
         -3   -1    0    0    0  501 -0.00000000000E+00 -0.00000000000E+00 -0.17167148842E+03  0.17167148842E+03  0.00000000000E+00 0. -1.
         36    2    1    2    0    0  0.71054273576E-14 -0.71054273576E-14  0.12830012165E+04  0.16263441934E+04  0.99945150642E+03 0.  0.
         25    2    3    3    0    0  0.59969862785E+00  0.14831094058E+02  0.14777510091E+02  0.12729764458E+03  0.12556271151E+03 0.  0.
         35    2    3    3    0    0 -0.59969862785E+00 -0.14831094058E+02  0.12682237064E+04  0.14990465488E+04  0.79908001155E+03 0.  0.
         22    1    5    5    0    0  0.10490484771E+03 -0.95998083907E+02  0.13401977654E+04  0.13477205606E+04  0.00000000000E+00 0. -1.
         22    1    5    5    0    0 -0.10550454633E+03  0.81166989849E+02 -0.71974058930E+02  0.15132598818E+03  0.00000000000E+00 0. -1.
          5    1    4    4  502    0 -0.14528520091E+02 -0.50131491719E+02 -0.14392241105E+02  0.54345845858E+02  0.47000000000E+01 0. -1.
         -5    1    4    4    0  502  0.15128218718E+02  0.64962585777E+02  0.29169751196E+02  0.72951798725E+02  0.47000000000E+01 0. -1.
<mgrwt>
<rscale>  0 0.99945151E+03</rscale>
<asrwt>0</asrwt>
<pdfrwt beam="1">  1        3 0.22379579E+00 0.99945151E+03</pdfrwt>
<pdfrwt beam="2">  1       -3 0.26410999E-01 0.99945151E+03</pdfrwt>
<totfact> 0.57375393E+00</totfact>
</mgrwt>
</event>
<event>
 9    1  0.4412976E-036  0.9991033E+03  0.7818608E-02  0.8681892E-01
          1   -1    0    0  501    0  0.00000000000E+00  0.00000000000E+00  0.11392530721E+04  0.11392530721E+04  0.00000000000E+00 0. -1.
         -1   -1    0    0    0  501 -0.00000000000E+00 -0.00000000000E+00 -0.21904865425E+03  0.21904865425E+03  0.00000000000E+00 0. -1.
         36    2    1    2    0    0 -0.28421709430E-13 -0.14210854715E-13  0.92020441781E+03  0.13583017263E+04  0.99910330253E+03 0.  0.
         25    2    3    3    0    0  0.98379583669E+02 -0.84003612198E+02  0.10189222915E+03  0.20642519408E+03  0.12447564037E+03 0.  0.
         35    2    3    3    0    0 -0.98379583669E+02  0.84003612198E+02  0.81831218866E+03  0.11518765322E+04  0.80028092444E+03 0.  0.
         22    1    5    5    0    0 -0.24926324616E+03  0.13437491378E+03 -0.33670956187E+02  0.28517103049E+03  0.00000000000E+00 0.  1.
         22    1    5    5    0    0  0.15088366249E+03 -0.50371301578E+02  0.85198314485E+03  0.86670550174E+03  0.00000000000E+00 0.  1.
          5    1    4    4  502    0  0.12707907880E+02 -0.60407225176E+02 -0.10791871458E+02  0.62841692098E+02  0.47000000000E+01 0. -1.
         -5    1    4    4    0  502  0.85671675789E+02 -0.23596387022E+02  0.11268410061E+03  0.14358350198E+03  0.47000000000E+01 0. -1.
<mgrwt>
<rscale>  0 0.99910330E+03</rscale>
<asrwt>0</asrwt>
<pdfrwt beam="1">  1        1 0.17526970E+00 0.99910330E+03</pdfrwt>
<pdfrwt beam="2">  1       -1 0.33699794E-01 0.99910330E+03</pdfrwt>
<totfact> 0.10895734E+02</totfact>
</mgrwt>
</event>
<event>
 9    1  0.4412976E-036  0.1001289E+04  0.7818608E-02  0.8679811E-01
          1   -1    0    0  501    0  0.00000000000E+00  0.00000000000E+00  0.12103281935E+04  0.12103281935E+04  0.00000000000E+00 0.  1.
         -1   -1    0    0    0  501 -0.00000000000E+00 -0.00000000000E+00 -0.20708858885E+03  0.20708858885E+03  0.00000000000E+00 0.  1.
         36    2    1    2    0    0 -0.71054273576E-14 -0.14210854715E-13  0.10032396046E+04  0.14174167823E+04  0.10012894839E+04 0.  0.
         25    2    3    3    0    0 -0.38810836985E+00 -0.11535164000E+03  0.75131339290E+02  0.18560553526E+03  0.12449315281E+03 0.  0.
         35    2    3    3    0    0  0.38810836985E+00  0.11535164000E+03  0.92810826532E+03  0.12318112471E+04  0.80166566893E+03 0.  0.
         22    1    5    5    0    0 -0.42944759367E+02  0.73246459741E+02  0.10722041407E+04  0.10755607912E+04  0.00000000000E+00 0. -1.
         22    1    5    5    0    0  0.43332867737E+02  0.42105180258E+02 -0.14409587542E+03  0.15625045582E+03  0.00000000000E+00 0. -1.
          5    1    4    4  502    0  0.39029448552E+02  0.62808505904E+01  0.62559330567E+01  0.40298556263E+02  0.47000000000E+01 0.  1.
         -5    1    4    4    0  502 -0.39417556922E+02 -0.12163249059E+03  0.68875406233E+02  0.14530697899E+03  0.47000000000E+01 0.  1.
<mgrwt>
<rscale>  0 0.10012895E+04</rscale>
<asrwt>0</asrwt>
<pdfrwt beam="1">  1        1 0.18620433E+00 0.10012895E+04</pdfrwt>
<pdfrwt beam="2">  1       -1 0.31859784E-01 0.10012895E+04</pdfrwt>
<totfact> 0.10614772E+02</totfact>
</mgrwt>
</event>
<event>
 9    1  0.4412976E-036  0.9995994E+03  0.7818608E-02  0.8681420E-01
         -2   -1    0    0    0  501 -0.00000000000E+00  0.00000000000E+00  0.15296990692E+03  0.15296990692E+03  0.00000000000E+00 0. -1.
          2   -1    0    0  501    0  0.00000000000E+00 -0.00000000000E+00 -0.16329990678E+04  0.16329990678E+04  0.00000000000E+00 0. -1.
         36    2    1    2    0    0  0.14210854715E-13  0.00000000000E+00 -0.14800291608E+04  0.17859689747E+04  0.99959935052E+03 0.  0.
         25    2    3    3    0    0  0.89461802804E+02 -0.54425868204E+02 -0.99070757956E+02  0.19065002612E+03  0.12476709537E+03 0.  0.
         35    2    3    3    0    0 -0.89461802804E+02  0.54425868204E+02 -0.13809584029E+04  0.15953189486E+04  0.79185279429E+03 0.  0.
         22    1    5    5    0    0 -0.15151942726E+03 -0.34958586960E+03 -0.54752175629E+03  0.66704459422E+03  0.00000000000E+00 0.  1.
         22    1    5    5    0    0  0.62057624451E+02  0.40401173781E+03 -0.83343664660E+03  0.92827435434E+03  0.00000000000E+00 0.  1.
          5    1    4    4  502    0  0.10689057421E+02 -0.40747126362E+02  0.20223685472E+02  0.46964579306E+02  0.47000000000E+01 0. -1.
         -5    1    4    4    0  502  0.78772745383E+02 -0.13678741842E+02 -0.11929444343E+03  0.14368544681E+03  0.47000000000E+01 0. -1.
<mgrwt>
<rscale>  0 0.99959935E+03</rscale>
<asrwt>0</asrwt>
<pdfrwt beam="1">  1        2 0.25123065E+00 0.99959935E+03</pdfrwt>
<pdfrwt beam="2">  1       -2 0.23533830E-01 0.99959935E+03</pdfrwt>
<totfact> 0.20344420E+02</totfact>
</mgrwt>
</event>
<event>
 9    1  0.4412976E-036  0.1000683E+04  0.7818608E-02  0.8680388E-01
          2   -1    0    0  501    0  0.00000000000E+00  0.00000000000E+00  0.10436812908E+04  0.10436812908E+04  0.00000000000E+00 0.  1.
         -2   -1    0    0    0  501 -0.00000000000E+00 -0.00000000000E+00 -0.23986415060E+03  0.23986415060E+03  0.00000000000E+00 0.  1.
         36    2    1    2    0    0 -0.21316282073E-13  0.00000000000E+00  0.80381714024E+03  0.12835454414E+04  0.10006832192E+04 0.  0.
         25    2    3    3    0    0  0.21065622073E+02  0.98379235423E+02  0.31695683883E+02  0.16780397729E+03  0.13050411496E+03 0.  0.
         35    2    3    3    0    0 -0.21065622073E+02 -0.98379235423E+02  0.77212145636E+03  0.11157414641E+04  0.79911528396E+03 0.  0.
         22    1    5    5    0    0 -0.34027838990E+03  0.17320840241E+03  0.30956244501E+03  0.49154800443E+03  0.00000000000E+00 0.  1.
         22    1    5    5    0    0  0.31921276783E+03 -0.27158763784E+03  0.46255901135E+03  0.62419345972E+03  0.00000000000E+00 0.  1.
          5    1    4    4  502    0  0.12505935095E+02  0.70805042782E+02 -0.45523041835E+02  0.85230216672E+02  0.47000000000E+01 0. -1.
         -5    1    4    4    0  502  0.85596869786E+01  0.27574192641E+02  0.77218725718E+02  0.82573760618E+02  0.47000000000E+01 0. -1.
<mgrwt>
<rscale>  0 0.10006832E+04</rscale>
<asrwt>0</asrwt>
<pdfrwt beam="1">  1        2 0.16056635E+00 0.10006832E+04</pdfrwt>
<pdfrwt beam="2">  1       -2 0.36902178E-01 0.10006832E+04</pdfrwt>
<totfact> 0.19745843E+02</totfact>
</mgrwt>
</event>
<event>
 9    1  0.4412976E-036  0.9996948E+03  0.7818608E-02  0.8681329E-01
         -2   -1    0    0    0  501 -0.00000000000E+00  0.00000000000E+00  0.99266096784E+03  0.99266096784E+03  0.00000000000E+00 0.  1.
          2   -1    0    0  501    0  0.00000000000E+00 -0.00000000000E+00 -0.25169463047E+03  0.25169463047E+03  0.00000000000E+00 0.  1.
         36    2    1    2    0    0 -0.28421709430E-13  0.00000000000E+00  0.74096633736E+03  0.12443555983E+04  0.99969482441E+03 0.  0.
         25    2    3    3    0    0  0.11033072404E+03  0.11674063320E+02  0.23897625865E+03  0.29150694525E+03  0.12472968576E+03 0.  0.
         35    2    3    3    0    0 -0.11033072404E+03 -0.11674063320E+02  0.50199007871E+03  0.95284865306E+03  0.80225766690E+03 0.  0.
         22    1    5    5    0    0  0.13533973640E+03 -0.20398869883E+02 -0.18102487901E+03  0.22694264685E+03  0.00000000000E+00 0.  1.
         22    1    5    5    0    0 -0.24567046043E+03  0.87248065637E+01  0.68301495772E+03  0.72590600621E+03  0.00000000000E+00 0.  1.
          5    1    4    4  502    0  0.42821998881E+02  0.48966713631E+02  0.36387466349E+02  0.74683333746E+02  0.47000000000E+01 0. -1.
         -5    1    4    4    0  502  0.67508725157E+02 -0.37292650311E+02  0.20258879230E+03  0.21682361150E+03  0.47000000000E+01 0. -1.
<mgrwt>
<rscale>  0 0.99969482E+03</rscale>
<asrwt>0</asrwt>
<pdfrwt beam="1">  1        2 0.38722251E-01 0.99969482E+03</pdfrwt>
<pdfrwt beam="2">  1       -2 0.15271707E+00 0.99969482E+03</pdfrwt>
<totfact> 0.43098266E+01</totfact>
</mgrwt>
</event>
<event>
 9    1  0.4412976E-036  0.1000802E+04  0.7818608E-02  0.8680275E-01
          2   -1    0    0  501    0  0.00000000000E+00  0.00000000000E+00  0.17556023285E+04  0.17556023285E+04  0.00000000000E+00 0.  1.
         -2   -1    0    0    0  501 -0.00000000000E+00 -0.00000000000E+00 -0.14262968652E+03  0.14262968652E+03  0.00000000000E+00 0.  1.
         36    2    1    2    0    0  0.17763568394E-14  0.00000000000E+00  0.16129726420E+04  0.18982320151E+04  0.10008016982E+04 0.  0.
         25    2    3    3    0    0 -0.58646158987E+01 -0.10103092270E+03  0.48137079894E+03  0.50733976961E+03  0.12423427345E+03 0.  0.
         35    2    3    3    0    0  0.58646158987E+01  0.10103092270E+03  0.11316018431E+04  0.13908922454E+04  0.80238199513E+03 0.  0.
         22    1    5    5    0    0  0.22688183901E+01  0.25573952572E+03  0.71580681544E+01  0.25584974202E+03  0.00000000000E+00 0. -1.
         22    1    5    5    0    0  0.35957975086E+01 -0.15470860302E+03  0.11244437749E+04  0.11350425034E+04  0.00000000000E+00 0. -1.
          5    1    4    4  502    0  0.19542894273E+02  0.19835477869E+02  0.39821762222E+02  0.48818374054E+02  0.47000000000E+01 0.  1.
         -5    1    4    4    0  502 -0.25407510172E+02 -0.12086640057E+03  0.44154903672E+03  0.45852139556E+03  0.47000000000E+01 0.  1.
<mgrwt>
<rscale>  0 0.10008017E+04</rscale>
<asrwt>0</asrwt>
<pdfrwt beam="1">  1        2 0.27009265E+00 0.10008017E+04</pdfrwt>
<pdfrwt beam="2">  1       -2 0.21943030E-01 0.10008017E+04</pdfrwt>
<totfact> 0.19619896E+02</totfact>
</mgrwt>
</event>
<event>
 9    1  0.4412976E-036  0.9998842E+03  0.7818608E-02  0.8681148E-01
          2   -1    0    0  501    0  0.00000000000E+00  0.00000000000E+00  0.23842813302E+04  0.23842813302E+04  0.00000000000E+00 0.  1.
         -2   -1    0    0    0  501 -0.00000000000E+00 -0.00000000000E+00 -0.10482912093E+03  0.10482912093E+03  0.00000000000E+00 0.  1.
         36    2    1    2    0    0 -0.17763568394E-13 -0.14210854715E-13  0.22794522092E+04  0.24891104511E+04  0.99988422508E+03 0.  0.
         25    2    3    3    0    0  0.10273082422E+02  0.86903369192E+02  0.69949716341E+03  0.71568942604E+03  0.12352061014E+03 0.  0.
         35    2    3    3    0    0 -0.10273082422E+02 -0.86903369192E+02  0.15799550458E+04  0.17734210250E+04  0.80069123479E+03 0.  0.
         22    1    5    5    0    0  0.30773259636E+03  0.20382645659E+03  0.83270422605E+03  0.91084625671E+03  0.00000000000E+00 0.  1.
         22    1    5    5    0    0 -0.31800567878E+03 -0.29072982578E+03  0.74725081977E+03  0.86257476834E+03  0.00000000000E+00 0.  1.
          5    1    4    4  502    0 -0.29695191283E+02  0.20878551913E+02  0.51995525172E+02  0.63587286097E+02  0.47000000000E+01 0.  1.
         -5    1    4    4    0  502  0.39968273705E+02  0.66024817279E+02  0.64750163824E+03  0.65210213995E+03  0.47000000000E+01 0.  1.
<mgrwt>
<rscale>  0 0.99988423E+03</rscale>
<asrwt>0</asrwt>
<pdfrwt beam="1">  1        2 0.36681247E+00 0.99988423E+03</pdfrwt>
<pdfrwt beam="2">  1       -2 0.16127559E-01 0.99988423E+03</pdfrwt>
<totfact> 0.14473548E+02</totfact>
</mgrwt>
</event>
<event>
 9    1  0.4412976E-036  0.9994105E+03  0.7818608E-02  0.8681599E-01
          4   -1    0    0  501    0  0.00000000000E+00  0.00000000000E+00  0.41297796244E+03  0.41297796244E+03  0.00000000000E+00 0.  1.
         -4   -1    0    0    0  501 -0.00000000000E+00 -0.00000000000E+00 -0.60464572579E+03  0.60464572579E+03  0.00000000000E+00 0.  1.
         36    2    1    2    0    0  0.00000000000E+00 -0.21316282073E-13 -0.19166776335E+03  0.10176236882E+04  0.99941054595E+03 0.  0.
         25    2    3    3    0    0 -0.89591676275E+02 -0.32265361303E+01  0.72333369655E+02  0.17054489786E+03  0.12576313779E+03 0.  0.
         35    2    3    3    0    0  0.89591676275E+02  0.32265361303E+01 -0.26400113300E+03  0.84707879037E+03  0.79988049100E+03 0.  0.
         22    1    5    5    0    0  0.36328872386E+03 -0.24238925802E+03 -0.12976270010E+03  0.45559807685E+03  0.00000000000E+00 0.  1.
         22    1    5    5    0    0 -0.27369704759E+03  0.24561579415E+03 -0.13423843290E+03  0.39148071352E+03  0.00000000000E+00 0.  1.
          5    1    4    4  502    0 -0.41239552868E+02 -0.64079063552E+02  0.40490524246E+02  0.86419903149E+02  0.47000000000E+01 0. -1.
         -5    1    4    4    0  502 -0.48352123407E+02  0.60852527422E+02  0.31842845409E+02  0.84124994713E+02  0.47000000000E+01 0. -1.
<mgrwt>
<rscale>  0 0.99941055E+03</rscale>
<asrwt>0</asrwt>
<pdfrwt beam="1">  1        4 0.63535071E-01 0.99941055E+03</pdfrwt>
<pdfrwt beam="2">  1       -4 0.93022419E-01 0.99941055E+03</pdfrwt>
<totfact> 0.51451154E+00</totfact>
</mgrwt>
</event>
<event>
 9    1  0.4412976E-036  0.9998643E+03  0.7818608E-02  0.8681167E-01
          2   -1    0    0  501    0  0.00000000000E+00  0.00000000000E+00  0.11459665975E+04  0.11459665975E+04  0.00000000000E+00 0. -1.
         -2   -1    0    0    0  501 -0.00000000000E+00 -0.00000000000E+00 -0.21809725433E+03  0.21809725433E+03  0.00000000000E+00 0. -1.
         36    2    1    2    0    0 -0.14210854715E-13  0.28421709430E-13  0.92786934314E+03  0.13640638518E+04  0.99986432773E+03 0.  0.
         25    2    3    3    0    0 -0.30699071511E+02 -0.13641748573E+03  0.19096242174E+03  0.26766172856E+03  0.12499596399E+03 0.  0.
         35    2    3    3    0    0  0.30699071511E+02  0.13641748573E+03  0.73690692140E+03  0.10964021232E+04  0.79969596826E+03 0.  0.
         22    1    5    5    0    0  0.34913798930E+03 -0.89479094279E+02  0.56416838261E+03  0.66946979605E+03  0.00000000000E+00 0. -1.
         22    1    5    5    0    0 -0.31843891779E+03  0.22589658001E+03  0.17273853878E+03  0.42693232719E+03  0.00000000000E+00 0. -1.
          5    1    4    4  502    0  0.46392298955E+02 -0.28181318366E+02  0.59553807479E+02  0.80716653129E+02  0.47000000000E+01 0. -1.
         -5    1    4    4    0  502 -0.77091370466E+02 -0.10823616736E+03  0.13140861426E+03  0.18694507543E+03  0.47000000000E+01 0. -1.
<mgrwt>
<rscale>  0 0.99986433E+03</rscale>
<asrwt>0</asrwt>
<pdfrwt beam="1">  1        2 0.17630255E+00 0.99986433E+03</pdfrwt>
<pdfrwt beam="2">  1       -2 0.33553424E-01 0.99986433E+03</pdfrwt>
<totfact> 0.20441051E+02</totfact>
</mgrwt>
</event>
<event>
 9    1  0.4412976E-036  0.1000304E+04  0.7818608E-02  0.8680748E-01
         -1   -1    0    0    0  501 -0.00000000000E+00  0.00000000000E+00  0.12444705273E+04  0.12444705273E+04  0.00000000000E+00 0. -1.
          1   -1    0    0  501    0  0.00000000000E+00 -0.00000000000E+00 -0.20101093309E+03  0.20101093309E+03  0.00000000000E+00 0. -1.
         36    2    1    2    0    0  0.14210854715E-13  0.14210854715E-13  0.10434595942E+04  0.14454814604E+04  0.10003043175E+04 0.  0.
         25    2    3    3    0    0  0.62319942406E+02 -0.66951127327E+02  0.43161388541E+02  0.16055663953E+03  0.12469683382E+03 0.  0.
         35    2    3    3    0    0 -0.62319942406E+02  0.66951127327E+02  0.10002982057E+04  0.12849248209E+04  0.80129212298E+03 0.  0.
         22    1    5    5    0    0 -0.39862593032E+03  0.84730223660E+02  0.78707949478E+03  0.88632723879E+03  0.00000000000E+00 0.  1.
         22    1    5    5    0    0  0.33630598791E+03 -0.17779096333E+02  0.21321871093E+03  0.39859758211E+03  0.00000000000E+00 0.  1.
          5    1    4    4  502    0  0.60371510779E+02  0.30811679376E+00 -0.24216738023E+02  0.65217747969E+02  0.47000000000E+01 0.  1.
         -5    1    4    4    0  502  0.19484316268E+01 -0.67259244120E+02  0.67378126565E+02  0.95338891565E+02  0.47000000000E+01 0.  1.
<mgrwt>
<rscale>  0 0.10003043E+04</rscale>
<asrwt>0</asrwt>
<pdfrwt beam="1">  1        1 0.30924760E-01 0.10003043E+04</pdfrwt>
<pdfrwt beam="2">  1       -1 0.19145700E+00 0.10003043E+04</pdfrwt>
<totfact> 0.27181031E+01</totfact>
</mgrwt>
</event>
<event>
 9    1  0.4412976E-036  0.1000193E+04  0.7818608E-02  0.8680854E-01
          1   -1    0    0  501    0  0.00000000000E+00  0.00000000000E+00  0.87198413940E+03  0.87198413940E+03  0.00000000000E+00 0.  1.
         -1   -1    0    0    0  501 -0.00000000000E+00 -0.00000000000E+00 -0.28681316385E+03  0.28681316385E+03  0.00000000000E+00 0.  1.
         36    2    1    2    0    0  0.00000000000E+00 -0.14210854715E-13  0.58517097556E+03  0.11587973032E+04  0.10001930411E+04 0.  0.
         25    2    3    3    0    0  0.12958694882E+03  0.56404022327E+02  0.11035940159E+03  0.21818890533E+03  0.12431013575E+03 0.  0.
         35    2    3    3    0    0 -0.12958694882E+03 -0.56404022327E+02  0.47481157396E+03  0.94060839792E+03  0.79957734862E+03 0.  0.
         22    1    5    5    0    0  0.24057733676E+03 -0.20225166628E+03 -0.87373680914E+01  0.31441935863E+03  0.00000000000E+00 0.  1.
         22    1    5    5    0    0 -0.37016428558E+03  0.14584764395E+03  0.48354894206E+03  0.62618903929E+03  0.00000000000E+00 0.  1.
          5    1    4    4  502    0  0.54749452860E+02 -0.37611801921E+02  0.52173828355E+02  0.84595204341E+02  0.47000000000E+01 0. -1.
         -5    1    4    4    0  502  0.74837495959E+02  0.94015824249E+02  0.58185573239E+02  0.13359370099E+03  0.47000000000E+01 0. -1.
<mgrwt>
<rscale>  0 0.10001930E+04</rscale>
<asrwt>0</asrwt>
<pdfrwt beam="1">  1        1 0.13415140E+00 0.10001930E+04</pdfrwt>
<pdfrwt beam="2">  1       -1 0.44125103E-01 0.10001930E+04</pdfrwt>
<totfact> 0.11031782E+02</totfact>
</mgrwt>
</event>
<event>
 9    1  0.4412976E-036  0.9997112E+03  0.7818608E-02  0.8681313E-01
          2   -1    0    0  501    0  0.00000000000E+00  0.00000000000E+00  0.56529959943E+03  0.56529959943E+03  0.00000000000E+00 0. -1.
         -2   -1    0    0    0  501 -0.00000000000E+00 -0.00000000000E+00 -0.44198793069E+03  0.44198793069E+03  0.00000000000E+00 0. -1.
         36    2    1    2    0    0  0.14210854715E-13  0.00000000000E+00  0.12331166875E+03  0.10072875301E+04  0.99971115863E+03 0.  0.
         25    2    3    3    0    0 -0.77830595354E+02  0.10509140544E+03 -0.27550503059E+02  0.18280012998E+03  0.12471989510E+03 0.  0.
         35    2    3    3    0    0  0.77830595354E+02 -0.10509140544E+03  0.15086217180E+03  0.82448740013E+03  0.79994891901E+03 0.  0.
         22    1    5    5    0    0  0.74188337940E+02  0.26981263649E+03  0.30962421279E+03  0.41733670033E+03  0.00000000000E+00 0.  1.
         22    1    5    5    0    0  0.36422574147E+01 -0.37490404193E+03 -0.15876204099E+03  0.40715069981E+03  0.00000000000E+00 0.  1.
          5    1    4    4  502    0 -0.35672219701E+02  0.49139853797E+02  0.49553542496E+02  0.78516724737E+02  0.47000000000E+01 0. -1.
         -5    1    4    4    0  502 -0.42158375654E+02  0.55951551644E+02 -0.77104045555E+02  0.10428340525E+03  0.47000000000E+01 0. -1.
<mgrwt>
<rscale>  0 0.99971116E+03</rscale>
<asrwt>0</asrwt>
<pdfrwt beam="1">  1        2 0.86969169E-01 0.99971116E+03</pdfrwt>
<pdfrwt beam="2">  1       -2 0.67998143E-01 0.99971116E+03</pdfrwt>
<totfact> 0.12764371E+02</totfact>
</mgrwt>
</event>
<event>
 9    1  0.4412976E-036  0.1000060E+04  0.7818608E-02  0.8680981E-01
         -1   -1    0    0    0  501 -0.00000000000E+00  0.00000000000E+00  0.34570582660E+03  0.34570582660E+03  0.00000000000E+00 0. -1.
          1   -1    0    0  501    0  0.00000000000E+00 -0.00000000000E+00 -0.72324470626E+03  0.72324470626E+03  0.00000000000E+00 0. -1.
         36    2    1    2    0    0  0.00000000000E+00  0.00000000000E+00 -0.37753887966E+03  0.10689505329E+04  0.10000598162E+04 0.  0.
         25    2    3    3    0    0 -0.57096634425E+02 -0.75465252690E+02 -0.18221127605E+03  0.24052863837E+03  0.12529184623E+03 0.  0.
         35    2    3    3    0    0  0.57096634425E+02  0.75465252690E+02 -0.19532760361E+03  0.82842189449E+03  0.79948416652E+03 0.  0.
         22    1    5    5    0    0  0.32862695951E+03  0.28790712867E+03 -0.10030873442E+02  0.43702037902E+03  0.00000000000E+00 0. -1.
         22    1    5    5    0    0 -0.27153032508E+03 -0.21244187598E+03 -0.18529673017E+03  0.39140151548E+03  0.00000000000E+00 0. -1.
          5    1    4    4  502    0 -0.51806238387E+01 -0.57431564372E+02 -0.87569195497E+01  0.58514930484E+02  0.47000000000E+01 0.  1.
         -5    1    4    4    0  502 -0.51916010586E+02 -0.18033688318E+02 -0.17345435650E+03  0.18201370789E+03  0.47000000000E+01 0.  1.
<mgrwt>
<rscale>  0 0.10000598E+04</rscale>
<asrwt>0</asrwt>
<pdfrwt beam="1">  1        1 0.11126842E+00 0.10000598E+04</pdfrwt>
<pdfrwt beam="2">  1       -1 0.53185512E-01 0.10000598E+04</pdfrwt>
<totfact> 0.10601788E+02</totfact>
</mgrwt>
</event>
<event>
 9    1  0.4412976E-036  0.1000264E+04  0.7818608E-02  0.8680786E-01
          1   -1    0    0  501    0  0.00000000000E+00  0.00000000000E+00  0.67358878151E+03  0.67358878151E+03  0.00000000000E+00 0.  1.
         -1   -1    0    0    0  501 -0.00000000000E+00 -0.00000000000E+00 -0.37134253934E+03  0.37134253934E+03  0.00000000000E+00 0.  1.
         36    2    1    2    0    0  0.00000000000E+00  0.14210854715E-13  0.30224624217E+03  0.10449313209E+04  0.10002643023E+04 0.  0.
         25    2    3    3    0    0 -0.26401444968E+02 -0.12726629284E+03  0.11007921719E+03  0.21186169094E+03  0.12599284282E+03 0.  0.
         35    2    3    3    0    0  0.26401444968E+02  0.12726629284E+03  0.19216702499E+03  0.83306962992E+03  0.80011442757E+03 0.  0.
         22    1    5    5    0    0  0.21168529811E+03 -0.53197833060E+02  0.42966421978E+03  0.48192532268E+03  0.00000000000E+00 0. -1.
         22    1    5    5    0    0 -0.18528385315E+03  0.18046412590E+03 -0.23749719479E+03  0.35114430724E+03  0.00000000000E+00 0. -1.
          5    1    4    4  502    0  0.36689835205E+02  0.16990096135E+01  0.17416568456E+02  0.40920135604E+02  0.47000000000E+01 0. -1.
         -5    1    4    4    0  502 -0.63091280173E+02 -0.12896530245E+03  0.92662648731E+02  0.17094155533E+03  0.47000000000E+01 0. -1.
<mgrwt>
<rscale>  0 0.10002643E+04</rscale>
<asrwt>0</asrwt>
<pdfrwt beam="1">  1        1 0.10362904E+00 0.10002643E+04</pdfrwt>
<pdfrwt beam="2">  1       -1 0.57129621E-01 0.10002643E+04</pdfrwt>
<totfact> 0.10332728E+02</totfact>
</mgrwt>
</event>
<event>
 9    1  0.4412976E-036  0.1000107E+04  0.7818608E-02  0.8680936E-01
         -2   -1    0    0    0  501 -0.00000000000E+00  0.00000000000E+00  0.89907762409E+02  0.89907762409E+02  0.00000000000E+00 0.  1.
          2   -1    0    0  501    0  0.00000000000E+00 -0.00000000000E+00 -0.27812216338E+04  0.27812216338E+04  0.00000000000E+00 0.  1.
         36    2    1    2    0    0  0.00000000000E+00  0.14210854715E-13 -0.26913138714E+04  0.28711293962E+04  0.10001068220E+04 0.  0.
         25    2    3    3    0    0  0.86043046701E+02  0.78448545762E+02 -0.27844898613E+03  0.32648303419E+03  0.12449800610E+03 0.  0.
         35    2    3    3    0    0 -0.86043046701E+02 -0.78448545762E+02 -0.24128648853E+04  0.25446463620E+04  0.79984409291E+03 0.  0.
         22    1    5    5    0    0  0.24706994618E+03 -0.24489022069E+03 -0.59670622159E+03  0.69070478020E+03  0.00000000000E+00 0. -1.
         22    1    5    5    0    0 -0.33311299288E+03  0.16644167493E+03 -0.18161586637E+04  0.18539415818E+04  0.00000000000E+00 0. -1.
          5    1    4    4  502    0  0.58763129588E+02  0.47480150670E+02 -0.42304976082E+02  0.86713730792E+02  0.47000000000E+01 0.  1.
         -5    1    4    4    0  502  0.27279917113E+02  0.30968395092E+02 -0.23614401004E+03  0.23976930340E+03  0.47000000000E+01 0.  1.
<mgrwt>
<rscale>  0 0.10001068E+04</rscale>
<asrwt>0</asrwt>
<pdfrwt beam="1">  1        2 0.42788020E+00 0.10001068E+04</pdfrwt>
<pdfrwt beam="2">  1       -2 0.13831965E-01 0.10001068E+04</pdfrwt>
<totfact> 0.10647485E+02</totfact>
</mgrwt>
</event>
<event>
 9    1  0.4412976E-036  0.9997928E+03  0.7818608E-02  0.8681235E-01
         -2   -1    0    0    0  501 -0.00000000000E+00  0.00000000000E+00  0.20867111276E+03  0.20867111276E+03  0.00000000000E+00 0.  1.
          2   -1    0    0  501    0  0.00000000000E+00 -0.00000000000E+00 -0.11975611911E+04  0.11975611911E+04  0.00000000000E+00 0.  1.
         36    2    1    2    0    0 -0.28421709430E-13 -0.28421709430E-13 -0.98889007830E+03  0.14062323038E+04  0.99979283120E+03 0.  0.
         25    2    3    3    0    0  0.51986578429E+02 -0.11071152943E+03 -0.28171356356E+03  0.33167427058E+03  0.12524233625E+03 0.  0.
         35    2    3    3    0    0 -0.51986578429E+02  0.11071152943E+03 -0.70717651474E+03  0.10745580332E+04  0.79976039954E+03 0.  0.
         22    1    5    5    0    0  0.22764909106E+03 -0.25035645177E+03 -0.40117763957E+03  0.52482945810E+03  0.00000000000E+00 0. -1.
         22    1    5    5    0    0 -0.27963566949E+03  0.36106798120E+03 -0.30599887517E+03  0.54972857512E+03  0.00000000000E+00 0. -1.
          5    1    4    4  502    0  0.55470442448E+02 -0.96523993819E+02 -0.29244114697E+03  0.31295010115E+03  0.47000000000E+01 0. -1.
         -5    1    4    4    0  502 -0.34838640195E+01 -0.14187535612E+02  0.10727583411E+02  0.18724169437E+02  0.47000000000E+01 0. -1.
<mgrwt>
<rscale>  0 0.99979283E+03</rscale>
<asrwt>0</asrwt>
<pdfrwt beam="1">  1        2 0.18424018E+00 0.99979283E+03</pdfrwt>
<pdfrwt beam="2">  1       -2 0.32103249E-01 0.99979283E+03</pdfrwt>
<totfact> 0.20664916E+02</totfact>
</mgrwt>
</event>
<event>
 9    1  0.4412976E-036  0.9974187E+03  0.7818608E-02  0.8683500E-01
         -3   -1    0    0    0  501 -0.00000000000E+00  0.00000000000E+00  0.72053867918E+03  0.72053867918E+03  0.00000000000E+00 0. -1.
          3   -1    0    0  501    0  0.00000000000E+00 -0.00000000000E+00 -0.34517370809E+03  0.34517370809E+03  0.00000000000E+00 0. -1.
         36    2    1    2    0    0  0.56843418861E-13 -0.71054273576E-14  0.37536497109E+03  0.10657123873E+04  0.99741868383E+03 0.  0.
         25    2    3    3    0    0  0.89240714437E+02 -0.63619152739E+02 -0.22751534313E+02  0.16776976619E+03  0.12497103834E+03 0.  0.
         35    2    3    3    0    0 -0.89240714437E+02  0.63619152739E+02  0.39811650540E+03  0.89794262108E+03  0.79736622525E+03 0.  0.
         22    1    5    5    0    0 -0.43235310762E+03 -0.52713813881E+02  0.15813462781E+03  0.46337297759E+03  0.00000000000E+00 0.  1.
         22    1    5    5    0    0  0.34311239318E+03  0.11633296662E+03  0.23998187759E+03  0.43456964350E+03  0.00000000000E+00 0.  1.
          5    1    4    4  502    0  0.53714406739E+02 -0.71503233396E+02 -0.65856294903E+02  0.11116245524E+03  0.47000000000E+01 0. -1.
         -5    1    4    4    0  502  0.35526307699E+02  0.78840806568E+01  0.43104760591E+02  0.56607310942E+02  0.47000000000E+01 0. -1.
<mgrwt>
<rscale>  0 0.99741868E+03</rscale>
<asrwt>0</asrwt>
<pdfrwt beam="1">  1        3 0.53103648E-01 0.99741868E+03</pdfrwt>
<pdfrwt beam="2">  1       -3 0.11085210E+00 0.99741868E+03</pdfrwt>
<totfact> 0.86369160E+00</totfact>
</mgrwt>
</event>
<event>
 9    1  0.4412976E-036  0.9990296E+03  0.7818608E-02  0.8681963E-01
          2   -1    0    0  501    0  0.00000000000E+00  0.00000000000E+00  0.20907147721E+04  0.20907147721E+04  0.00000000000E+00 0.  1.
         -2   -1    0    0    0  501 -0.00000000000E+00 -0.00000000000E+00 -0.11934437493E+03  0.11934437493E+03  0.00000000000E+00 0.  1.
         36    2    1    2    0    0  0.14210854715E-13  0.00000000000E+00  0.19713703971E+04  0.22100591470E+04  0.99902962446E+03 0.  0.
         25    2    3    3    0    0  0.11237556769E+03 -0.61197954834E+02  0.50049092376E+03  0.53158327878E+03  0.12536410818E+03 0.  0.
         35    2    3    3    0    0 -0.11237556769E+03  0.61197954834E+02  0.14708794734E+04  0.16784758682E+04  0.79838672154E+03 0.  0.
         22    1    5    5    0    0 -0.93718671904E+02 -0.15943363165E+03 -0.60536460456E+01  0.18503761508E+03  0.00000000000E+00 0.  1.
         22    1    5    5    0    0 -0.18656895786E+02  0.22063158648E+03  0.14769331194E+04  0.14934382531E+04  0.00000000000E+00 0.  1.
          5    1    4    4  502    0  0.12793256591E+03 -0.18473468343E+02  0.31453918217E+03  0.34009557123E+03  0.47000000000E+01 0. -1.
         -5    1    4    4    0  502 -0.15556998219E+02 -0.42724486491E+02  0.18595174159E+03  0.19148770754E+03  0.47000000000E+01 0. -1.
<mgrwt>
<rscale>  0 0.99902962E+03</rscale>
<asrwt>0</asrwt>
<pdfrwt beam="1">  1        2 0.32164840E+00 0.99902962E+03</pdfrwt>
<pdfrwt beam="2">  1       -2 0.18360675E-01 0.99902962E+03</pdfrwt>
<totfact> 0.17236358E+02</totfact>
</mgrwt>
</event>
<event>
 9    1  0.4412976E-036  0.1000930E+04  0.7818608E-02  0.8680153E-01
         -3   -1    0    0    0  501 -0.00000000000E+00  0.00000000000E+00  0.28320622884E+03  0.28320622884E+03  0.00000000000E+00 0.  1.
          3   -1    0    0  501    0  0.00000000000E+00 -0.00000000000E+00 -0.88439121020E+03  0.88439121020E+03  0.00000000000E+00 0.  1.
         36    2    1    2    0    0 -0.14210854715E-13 -0.28421709430E-13 -0.60118498136E+03  0.11675974390E+04  0.10009297667E+04 0.  0.
         25    2    3    3    0    0 -0.98139472088E+02  0.86611108460E+02 -0.55727564918E+02  0.18922400591E+03  0.12476907803E+03 0.  0.
         35    2    3    3    0    0  0.98139472088E+02 -0.86611108460E+02 -0.54545741644E+03  0.97837343313E+03  0.80159711914E+03 0.  0.
         22    1    5    5    0    0  0.27771809166E+03 -0.98751327630E+01  0.10664736902E+03  0.29765503188E+03  0.00000000000E+00 0. -1.
         22    1    5    5    0    0 -0.17957861957E+03 -0.76735975696E+02 -0.65210478546E+03  0.68071840125E+03  0.00000000000E+00 0. -1.
          5    1    4    4  502    0  0.72977743220E+01  0.43051079842E+02  0.23921635511E+02  0.50009875336E+02  0.47000000000E+01 0. -1.
         -5    1    4    4    0  502 -0.10543724641E+03  0.43560028617E+02 -0.79649200429E+02  0.13921413058E+03  0.47000000000E+01 0. -1.
<mgrwt>
<rscale>  0 0.10009298E+04</rscale>
<asrwt>0</asrwt>
<pdfrwt beam="1">  1        3 0.13606019E+00 0.10009298E+04</pdfrwt>
<pdfrwt beam="2">  1       -3 0.43570189E-01 0.10009298E+04</pdfrwt>
<totfact> 0.91088824E+00</totfact>
</mgrwt>
</event>
<event>
 9    1  0.4412976E-036  0.9978216E+03  0.7818608E-02  0.8683115E-01
         -2   -1    0    0    0  501 -0.00000000000E+00  0.00000000000E+00  0.91085760109E+02  0.91085760109E+02  0.00000000000E+00 0. -1.
          2   -1    0    0  501    0  0.00000000000E+00 -0.00000000000E+00 -0.27327209589E+04  0.27327209589E+04  0.00000000000E+00 0. -1.
         36    2    1    2    0    0  0.14210854715E-13 -0.14210854715E-13 -0.26416351988E+04  0.28238067191E+04  0.99782155862E+03 0.  0.
         25    2    3    3    0    0 -0.11263459580E+03 -0.10867424123E+02 -0.68346241200E+03  0.70552295881E+03  0.13355569515E+03 0.  0.
         35    2    3    3    0    0  0.11263459580E+03  0.10867424123E+02 -0.19581727868E+04  0.21182837603E+04  0.79992547950E+03 0.  0.
         22    1    5    5    0    0 -0.19650676234E+03  0.14649262159E+03 -0.16942538395E+03  0.29795965591E+03  0.00000000000E+00 0. -1.
         22    1    5    5    0    0  0.30914135814E+03 -0.13562519746E+03 -0.17887474029E+04  0.18203241043E+04  0.00000000000E+00 0. -1.
          5    1    4    4  502    0 -0.83971830333E+02  0.53110897920E+02 -0.31195185923E+03  0.32742646234E+03  0.47000000000E+01 0.  1.
         -5    1    4    4    0  502 -0.28662765469E+02 -0.63978322043E+02 -0.37151055278E+03  0.37809649647E+03  0.47000000000E+01 0.  1.
<mgrwt>
<rscale>  0 0.99782156E+03</rscale>
<asrwt>0</asrwt>
<pdfrwt beam="1">  1        2 0.42041864E+00 0.99782156E+03</pdfrwt>
<pdfrwt beam="2">  1       -2 0.14013193E-01 0.99782156E+03</pdfrwt>
<totfact> 0.11187683E+02</totfact>
</mgrwt>
</event>
<event>
 9    1  0.4412976E-036  0.1000232E+04  0.7818608E-02  0.8680818E-01
          2   -1    0    0  501    0  0.00000000000E+00  0.00000000000E+00  0.22111572043E+04  0.22111572043E+04  0.00000000000E+00 0. -1.
         -2   -1    0    0    0  501 -0.00000000000E+00 -0.00000000000E+00 -0.11311532787E+03  0.11311532787E+03  0.00000000000E+00 0. -1.
         36    2    1    2    0    0  0.28421709430E-13 -0.14210854715E-13  0.20980418764E+04  0.23242725322E+04  0.10002315175E+04 0.  0.
         25    2    3    3    0    0 -0.12846872579E+03 -0.51217585431E+02  0.46433740526E+03  0.50003909723E+03  0.12370294368E+03 0.  0.
         35    2    3    3    0    0  0.12846872579E+03  0.51217585431E+02  0.16337044712E+04  0.18242334349E+04  0.79981864910E+03 0.  0.
         22    1    5    5    0    0 -0.44606043250E+02  0.28882354080E+03  0.14464985900E+04  0.14757258917E+04  0.00000000000E+00 0.  1.
         22    1    5    5    0    0  0.17307476904E+03 -0.23760595537E+03  0.18720588122E+03  0.34850754320E+03  0.00000000000E+00 0.  1.
          5    1    4    4  502    0 -0.95431918085E+02 -0.58853371565E+02  0.16987844296E+03  0.20359701794E+03  0.47000000000E+01 0. -1.
         -5    1    4    4    0  502 -0.33036807700E+02  0.76357861341E+01  0.29445896230E+03  0.29644207929E+03  0.47000000000E+01 0. -1.
<mgrwt>
<rscale>  0 0.10002315E+04</rscale>
<asrwt>0</asrwt>
<pdfrwt beam="1">  1        2 0.34017800E+00 0.10002315E+04</pdfrwt>
<pdfrwt beam="2">  1       -2 0.17402360E-01 0.10002315E+04</pdfrwt>
<totfact> 0.16090821E+02</totfact>
</mgrwt>
</event>
<event>
 9    1  0.4412976E-036  0.1000006E+04  0.7818608E-02  0.8681032E-01
          2   -1    0    0  501    0  0.00000000000E+00  0.00000000000E+00  0.18286383469E+04  0.18286383469E+04  0.00000000000E+00 0. -1.
         -2   -1    0    0    0  501 -0.00000000000E+00 -0.00000000000E+00 -0.13671550734E+03  0.13671550734E+03  0.00000000000E+00 0. -1.
         36    2    1    2    0    0  0.00000000000E+00 -0.28421709430E-13  0.16919228396E+04  0.19653538543E+04  0.10000064387E+04 0.  0.
         25    2    3    3    0    0  0.17594077554E+02 -0.12812274871E+03  0.21671217643E+03  0.28193962875E+03  0.12570121935E+03 0.  0.
         35    2    3    3    0    0 -0.17594077554E+02  0.12812274871E+03  0.14752106632E+04  0.16834142255E+04  0.80056977441E+03 0.  0.
         22    1    5    5    0    0 -0.18008152795E+03 -0.28114461315E+03  0.39686751433E+03  0.51862845481E+03  0.00000000000E+00 0. -1.
         22    1    5    5    0    0  0.16248745039E+03  0.40926736186E+03  0.10783431488E+04  0.11647857707E+04  0.00000000000E+00 0. -1.
          5    1    4    4  502    0  0.62032792092E+02 -0.11656873971E+03  0.14073152600E+03  0.19303831429E+03  0.47000000000E+01 0. -1.
         -5    1    4    4    0  502 -0.44438714538E+02 -0.11554008998E+02  0.75980650430E+02  0.88901314464E+02  0.47000000000E+01 0. -1.
<mgrwt>
<rscale>  0 0.10000064E+04</rscale>
<asrwt>0</asrwt>
<pdfrwt beam="1">  1        2 0.28132896E+00 0.10000064E+04</pdfrwt>
<pdfrwt beam="2">  1       -2 0.21033156E-01 0.10000064E+04</pdfrwt>
<totfact> 0.19211091E+02</totfact>
</mgrwt>
</event>
<event>
 9    1  0.4412976E-036  0.9998821E+03  0.7818608E-02  0.8681150E-01
          2   -1    0    0  501    0  0.00000000000E+00  0.00000000000E+00  0.23543231352E+03  0.23543231352E+03  0.00000000000E+00 0.  1.
         -2   -1    0    0    0  501 -0.00000000000E+00 -0.00000000000E+00 -0.10616260374E+04  0.10616260374E+04  0.00000000000E+00 0.  1.
         36    2    1    2    0    0  0.00000000000E+00  0.28421709430E-13 -0.82619372390E+03  0.12970583509E+04  0.99988214123E+03 0.  0.
         25    2    3    3    0    0 -0.84821318679E+02  0.91774330619E+02 -0.21559426572E+03  0.27898430514E+03  0.12543592484E+03 0.  0.
         35    2    3    3    0    0  0.84821318679E+02 -0.91774330619E+02 -0.61059945819E+03  0.10180740458E+04  0.80500054693E+03 0.  0.
         22    1    5    5    0    0 -0.79248478448E+02 -0.32553924790E+03 -0.64853646415E+03  0.72996963539E+03  0.00000000000E+00 0. -1.
         22    1    5    5    0    0  0.16406979713E+03  0.23376491728E+03  0.37937005965E+02  0.28810441042E+03  0.00000000000E+00 0. -1.
          5    1    4    4  502    0  0.83409361568E+01  0.18837501939E+02 -0.13286869020E+03  0.13453847602E+03  0.47000000000E+01 0.  1.
         -5    1    4    4    0  502 -0.93162254836E+02  0.72936828680E+02 -0.82725575517E+02  0.14444582911E+03  0.47000000000E+01 0.  1.
<mgrwt>
<rscale>  0 0.99988214E+03</rscale>
<asrwt>0</asrwt>
<pdfrwt beam="1">  1        2 0.36220355E-01 0.99988214E+03</pdfrwt>
<pdfrwt beam="2">  1       -2 0.16332709E+00 0.99988214E+03</pdfrwt>
<totfact> 0.38350776E+01</totfact>
</mgrwt>
</event>
<event>
 9    1  0.4412976E-036  0.9997397E+03  0.7818608E-02  0.8681286E-01
         -2   -1    0    0    0  501 -0.00000000000E+00  0.00000000000E+00  0.19198431477E+03  0.19198431477E+03  0.00000000000E+00 0.  1.
          2   -1    0    0  501    0  0.00000000000E+00 -0.00000000000E+00 -0.13015117576E+04  0.13015117576E+04  0.00000000000E+00 0.  1.
         36    2    1    2    0    0  0.14210854715E-13  0.00000000000E+00 -0.11095274428E+04  0.14934960724E+04  0.99973965201E+03 0.  0.
         25    2    3    3    0    0 -0.88571993162E+02  0.49647804259E+02 -0.35257108392E+03  0.38766585830E+03  0.12517406293E+03 0.  0.
         35    2    3    3    0    0  0.88571993162E+02 -0.49647804259E+02 -0.75695635891E+03  0.11058302141E+04  0.79972972349E+03 0.  0.
         22    1    5    5    0    0  0.29885465797E+03  0.64697191517E+02  0.63812866902E+01  0.30584400272E+03  0.00000000000E+00 0. -1.
         22    1    5    5    0    0 -0.21028266480E+03 -0.11434499578E+03 -0.76333764560E+03  0.79998621136E+03  0.00000000000E+00 0. -1.
          5    1    4    4  502    0 -0.52160019603E+02 -0.38453825217E+02 -0.12464917355E+03  0.14056625052E+03  0.47000000000E+01 0.  1.
         -5    1    4    4    0  502 -0.36411973559E+02  0.88101629476E+02 -0.22792191037E+03  0.24709960777E+03  0.47000000000E+01 0.  1.
<mgrwt>
<rscale>  0 0.99973965E+03</rscale>
<asrwt>0</asrwt>
<pdfrwt beam="1">  1        2 0.20023258E+00 0.99973965E+03</pdfrwt>
<pdfrwt beam="2">  1       -2 0.29536049E-01 0.99973965E+03</pdfrwt>
<totfact> 0.20922956E+02</totfact>
</mgrwt>
</event>
<event>
 9    1  0.4412976E-036  0.1000401E+04  0.7818608E-02  0.8680657E-01
         -2   -1    0    0    0  501 -0.00000000000E+00  0.00000000000E+00  0.43851496007E+03  0.43851496007E+03  0.00000000000E+00 0.  1.
          2   -1    0    0  501    0  0.00000000000E+00 -0.00000000000E+00 -0.57056275105E+03  0.57056275105E+03  0.00000000000E+00 0.  1.
         36    2    1    2    0    0 -0.71054273576E-14  0.17763568394E-13 -0.13204779098E+03  0.10090777111E+04  0.10004005238E+04 0.  0.
         25    2    3    3    0    0 -0.45944903403E+02 -0.75445281155E+01  0.11206491331E+03  0.17084827505E+03  0.12026110858E+03 0.  0.
         35    2    3    3    0    0  0.45944903403E+02  0.75445281155E+01 -0.24411270429E+03  0.83822943608E+03  0.80054339112E+03 0.  0.
         22    1    5    5    0    0 -0.57306582117E+01 -0.38992917123E+03 -0.50922145434E+02  0.39328191404E+03  0.00000000000E+00 0.  1.
         22    1    5    5    0    0  0.51675561615E+02  0.39747369934E+03 -0.19319055886E+03  0.44494752204E+03  0.00000000000E+00 0.  1.
          5    1    4    4  502    0  0.39102917684E+02 -0.16908231542E+02  0.31073684394E+02  0.52939496853E+02  0.47000000000E+01 0.  1.
         -5    1    4    4    0  502 -0.85047821087E+02  0.93637034268E+01  0.80991228917E+02  0.11790877819E+03  0.47000000000E+01 0.  1.
<mgrwt>
<rscale>  0 0.10004005E+04</rscale>
<asrwt>0</asrwt>
<pdfrwt beam="1">  1        2 0.87778884E-01 0.10004005E+04</pdfrwt>
<pdfrwt beam="2">  1       -2 0.67463841E-01 0.10004005E+04</pdfrwt>
<totfact> 0.12842424E+02</totfact>
</mgrwt>
</event>
<event>
 9    1  0.4412976E-036  0.9994609E+03  0.7818608E-02  0.8681552E-01
         -1   -1    0    0    0  501 -0.00000000000E+00  0.00000000000E+00  0.15739255207E+03  0.15739255207E+03  0.00000000000E+00 0. -1.
          1   -1    0    0  501    0  0.00000000000E+00 -0.00000000000E+00 -0.15866730227E+04  0.15866730227E+04  0.00000000000E+00 0. -1.
         36    2    1    2    0    0  0.00000000000E+00  0.00000000000E+00 -0.14292804706E+04  0.17440655748E+04  0.99946088736E+03 0.  0.
         25    2    3    3    0    0 -0.99135453973E+02 -0.53391202512E+02 -0.40774804589E+03  0.44112204180E+03  0.12510686669E+03 0.  0.
         35    2    3    3    0    0  0.99135453973E+02  0.53391202512E+02 -0.10215324247E+04  0.13029435330E+04  0.80090879417E+03 0.  0.
         22    1    5    5    0    0 -0.19162049448E+02  0.14911585296E+03  0.93848552054E+02  0.17722943454E+03  0.00000000000E+00 0.  1.
         22    1    5    5    0    0  0.11829750342E+03 -0.95724650450E+02 -0.11153809768E+04  0.11257140984E+04  0.00000000000E+00 0.  1.
          5    1    4    4  502    0  0.29557640745E+02 -0.17247845286E+02 -0.81128424524E+02  0.88176264148E+02  0.47000000000E+01 0. -1.
         -5    1    4    4    0  502 -0.12869309472E+03 -0.36143357226E+02 -0.32661962137E+03  0.35294577765E+03  0.47000000000E+01 0. -1.
<mgrwt>
<rscale>  0 0.99946089E+03</rscale>
<asrwt>0</asrwt>
<pdfrwt beam="1">  1        1 0.24410355E+00 0.99946089E+03</pdfrwt>
<pdfrwt beam="2">  1       -1 0.24214238E-01 0.99946089E+03</pdfrwt>
<totfact> 0.90492066E+01</totfact>
</mgrwt>
</event>
<event>
 9    1  0.4412976E-036  0.9995767E+03  0.7818608E-02  0.8681441E-01
          2   -1    0    0  501    0  0.00000000000E+00  0.00000000000E+00  0.18602285706E+04  0.18602285706E+04  0.00000000000E+00 0. -1.
         -2   -1    0    0    0  501 -0.00000000000E+00 -0.00000000000E+00 -0.13427833981E+03  0.13427833981E+03  0.00000000000E+00 0. -1.
         36    2    1    2    0    0  0.71054273576E-14  0.00000000000E+00  0.17259502308E+04  0.19945069104E+04  0.99957671867E+03 0.  0.
         25    2    3    3    0    0 -0.32455632453E+02 -0.11528596100E+03  0.17979847139E+03  0.24950304853E+03  0.12482011068E+03 0.  0.
         35    2    3    3    0    0  0.32455632453E+02  0.11528596100E+03  0.15461517594E+04  0.17450038619E+04  0.80006811834E+03 0.  0.
         22    1    5    5    0    0  0.11607717426E+03 -0.21091778706E+03  0.13142710518E+04  0.13361394466E+04  0.00000000000E+00 0.  1.
         22    1    5    5    0    0 -0.83621541803E+02  0.32620374807E+03  0.23188070766E+03  0.40886441529E+03  0.00000000000E+00 0.  1.
          5    1    4    4  502    0  0.21278216448E+02 -0.93960119767E+02  0.52971705970E+02  0.11004252921E+03  0.47000000000E+01 0.  1.
         -5    1    4    4    0  502 -0.53733848900E+02 -0.21325841237E+02  0.12682676542E+03  0.13946051932E+03  0.47000000000E+01 0.  1.
<mgrwt>
<rscale>  0 0.99957672E+03</rscale>
<asrwt>0</asrwt>
<pdfrwt beam="1">  1        2 0.28618899E+00 0.99957672E+03</pdfrwt>
<pdfrwt beam="2">  1       -2 0.20658207E-01 0.99957672E+03</pdfrwt>
<totfact> 0.19023574E+02</totfact>
</mgrwt>
</event>
<event>
 9    1  0.4412976E-036  0.1001026E+04  0.7818608E-02  0.8680061E-01
         -2   -1    0    0    0  501 -0.00000000000E+00  0.00000000000E+00  0.52277963436E+03  0.52277963436E+03  0.00000000000E+00 0.  1.
          2   -1    0    0  501    0  0.00000000000E+00 -0.00000000000E+00 -0.47919481155E+03  0.47919481155E+03  0.00000000000E+00 0.  1.
         36    2    1    2    0    0  0.14210854715E-13 -0.28421709430E-13  0.43584822805E+02  0.10019744459E+04  0.10010260503E+04 0.  0.
         25    2    3    3    0    0  0.37767549667E+02 -0.10027609191E+03 -0.84384858131E+02  0.18491914153E+03  0.12487034158E+03 0.  0.
         35    2    3    3    0    0 -0.37767549667E+02  0.10027609191E+03  0.12796968094E+03  0.81705530437E+03  0.79982588652E+03 0.  0.
         22    1    5    5    0    0  0.23619259654E+03  0.35387232638E+03  0.10109673684E+02  0.42557581174E+03  0.00000000000E+00 0. -1.
         22    1    5    5    0    0 -0.27396014621E+03 -0.25359623446E+03  0.11786000725E+03  0.39147949263E+03  0.00000000000E+00 0. -1.
          5    1    4    4  502    0  0.62124099178E+02 -0.16308951319E+02 -0.71823407149E+02  0.96468012347E+02  0.47000000000E+01 0. -1.
         -5    1    4    4    0  502 -0.24356549511E+02 -0.83967140595E+02 -0.12561450983E+02  0.88451129188E+02  0.47000000000E+01 0. -1.
<mgrwt>
<rscale>  0 0.10010261E+04</rscale>
<asrwt>0</asrwt>
<pdfrwt beam="1">  1        2 0.73722279E-01 0.10010261E+04</pdfrwt>
<pdfrwt beam="2">  1       -2 0.80427635E-01 0.10010261E+04</pdfrwt>
<totfact> 0.10641432E+02</totfact>
</mgrwt>
</event>
<event>
 9    1  0.4412976E-036  0.1000591E+04  0.7818608E-02  0.8680475E-01
          1   -1    0    0  501    0  0.00000000000E+00  0.00000000000E+00  0.89485513168E+03  0.89485513168E+03  0.00000000000E+00 0. -1.
         -1   -1    0    0    0  501 -0.00000000000E+00 -0.00000000000E+00 -0.27970513792E+03  0.27970513792E+03  0.00000000000E+00 0. -1.
         36    2    1    2    0    0 -0.71054273576E-14  0.00000000000E+00  0.61514999377E+03  0.11745602696E+04  0.10005909814E+04 0.  0.
         25    2    3    3    0    0  0.20772232087E+02 -0.12488990422E+02 -0.47131561994E+02  0.13551153206E+03  0.12471780417E+03 0.  0.
         35    2    3    3    0    0 -0.20772232087E+02  0.12488990422E+02  0.66228155576E+03  0.10390487375E+04  0.80026118198E+03 0.  0.
         22    1    5    5    0    0  0.25275632981E+03 -0.82246522433E+01  0.71615733121E+03  0.75949636616E+03  0.00000000000E+00 0.  1.
         22    1    5    5    0    0 -0.27352856190E+03  0.20713642665E+02 -0.53875775447E+02  0.27955237139E+03  0.00000000000E+00 0.  1.
          5    1    4    4  502    0 -0.38433901877E+02 -0.38461901994E+02 -0.44862632015E+02  0.70648626808E+02  0.47000000000E+01 0.  1.
         -5    1    4    4    0  502  0.59206133964E+02  0.25972911573E+02 -0.22689299792E+01  0.64862905252E+02  0.47000000000E+01 0.  1.
<mgrwt>
<rscale>  0 0.10005910E+04</rscale>
<asrwt>0</asrwt>
<pdfrwt beam="1">  1        1 0.13767002E+00 0.10005910E+04</pdfrwt>
<pdfrwt beam="2">  1       -1 0.43031560E-01 0.10005910E+04</pdfrwt>
<totfact> 0.11043482E+02</totfact>
</mgrwt>
</event>
<event>
 9    1  0.4412976E-036  0.9995709E+03  0.7818608E-02  0.8681447E-01
          2   -1    0    0  501    0  0.00000000000E+00  0.00000000000E+00  0.17711466265E+04  0.17711466265E+04  0.00000000000E+00 0.  1.
         -2   -1    0    0    0  501 -0.00000000000E+00 -0.00000000000E+00 -0.14103038746E+03  0.14103038746E+03  0.00000000000E+00 0.  1.
         36    2    1    2    0    0 -0.71054273576E-14  0.00000000000E+00  0.16301162391E+04  0.19121770140E+04  0.99957089792E+03 0.  0.
         25    2    3    3    0    0  0.61331895103E+02 -0.35993501729E+02  0.53520293876E+03  0.55421752180E+03  0.12513090062E+03 0.  0.
         35    2    3    3    0    0 -0.61331895103E+02  0.35993501729E+02  0.10949133003E+04  0.13579594922E+04  0.80010106469E+03 0.  0.
         22    1    5    5    0    0 -0.36862101238E+02 -0.22499916872E+02 -0.12713379377E+03  0.13426861988E+03  0.00000000000E+00 0.  1.
         22    1    5    5    0    0 -0.24469793865E+02  0.58493418601E+02  0.12220470941E+04  0.12236908723E+04  0.00000000000E+00 0.  1.
          5    1    4    4  502    0  0.83733479745E+02 -0.61920196181E+02  0.45648419341E+03  0.46823638812E+03  0.47000000000E+01 0. -1.
         -5    1    4    4    0  502 -0.22401584641E+02  0.25926694452E+02  0.78718745355E+02  0.85981133686E+02  0.47000000000E+01 0. -1.
<mgrwt>
<rscale>  0 0.99957090E+03</rscale>
<asrwt>0</asrwt>
<pdfrwt beam="1">  1        2 0.27248408E+00 0.99957090E+03</pdfrwt>
<pdfrwt beam="2">  1       -2 0.21696984E-01 0.99957090E+03</pdfrwt>
<totfact> 0.19610296E+02</totfact>
</mgrwt>
</event>
<event>
 9    1  0.4412976E-036  0.1008379E+04  0.7818608E-02  0.8673100E-01
          1   -1    0    0  501    0  0.00000000000E+00  0.00000000000E+00  0.13430344416E+04  0.13430344416E+04  0.00000000000E+00 0. -1.
         -1   -1    0    0    0  501 -0.00000000000E+00 -0.00000000000E+00 -0.18927804675E+03  0.18927804675E+03  0.00000000000E+00 0. -1.
         36    2    1    2    0    0 -0.14210854715E-13  0.00000000000E+00  0.11537563948E+04  0.15323124883E+04  0.10083787698E+04 0.  0.
         25    2    3    3    0    0  0.36975882948E+02  0.13636172212E+03  0.15140930050E+03  0.24133523114E+03  0.12392006429E+03 0.  0.
         35    2    3    3    0    0 -0.36975882948E+02 -0.13636172212E+03  0.10023470943E+04  0.12909772572E+04  0.80122459142E+03 0.  0.
         22    1    5    5    0    0  0.23295195301E+03  0.80799741948E+01 -0.10045595388E+02  0.23330840615E+03  0.00000000000E+00 0. -1.
         22    1    5    5    0    0 -0.26992783596E+03 -0.14444169632E+03  0.10123926897E+04  0.10576688510E+04  0.00000000000E+00 0. -1.
          5    1    4    4  502    0 -0.25765132437E+02  0.11525042670E+03  0.11809755618E+03  0.16707969859E+03  0.47000000000E+01 0.  1.
         -5    1    4    4    0  502  0.62741015384E+02  0.21111295424E+02  0.33311744313E+02  0.74255532556E+02  0.47000000000E+01 0.  1.
<mgrwt>
<rscale>  0 0.10083788E+04</rscale>
<asrwt>0</asrwt>
<pdfrwt beam="1">  1        1 0.20662068E+00 0.10083788E+04</pdfrwt>
<pdfrwt beam="2">  1       -1 0.29119700E-01 0.10083788E+04</pdfrwt>
<totfact> 0.98888612E+01</totfact>
</mgrwt>
</event>
<event>
 9    1  0.4412976E-036  0.9999516E+03  0.7818608E-02  0.8681084E-01
          1   -1    0    0  501    0  0.00000000000E+00  0.00000000000E+00  0.44708042759E+03  0.44708042759E+03  0.00000000000E+00 0. -1.
         -1   -1    0    0    0  501 -0.00000000000E+00 -0.00000000000E+00 -0.55912933748E+03  0.55912933748E+03  0.00000000000E+00 0. -1.
         36    2    1    2    0    0  0.00000000000E+00  0.28421709430E-13 -0.11204890989E+03  0.10062097651E+04  0.99995156538E+03 0.  0.
         25    2    3    3    0    0 -0.49637536378E+02 -0.12606257138E+03 -0.54674071108E+02  0.19242314209E+03  0.12522681278E+03 0.  0.
         35    2    3    3    0    0  0.49637536378E+02  0.12606257138E+03 -0.57374838782E+02  0.81378662298E+03  0.80037562351E+03 0.  0.
         22    1    5    5    0    0  0.81760530028E+02 -0.21871045116E+03 -0.30788130489E+03  0.38640644872E+03  0.00000000000E+00 0. -1.
         22    1    5    5    0    0 -0.32122993650E+02  0.34477302254E+03  0.25050646611E+03  0.42738017426E+03  0.00000000000E+00 0. -1.
          5    1    4    4  502    0 -0.16899991706E+02 -0.14482023294E+03 -0.37022334291E+02  0.15050333160E+03  0.47000000000E+01 0.  1.
         -5    1    4    4    0  502 -0.32737544671E+02  0.18757661558E+02 -0.17651736817E+02  0.41919810482E+02  0.47000000000E+01 0.  1.
<mgrwt>
<rscale>  0 0.99995157E+03</rscale>
<asrwt>0</asrwt>
<pdfrwt beam="1">  1        1 0.68781604E-01 0.99995157E+03</pdfrwt>
<pdfrwt beam="2">  1       -1 0.86019898E-01 0.99995157E+03</pdfrwt>
<totfact> 0.81792491E+01</totfact>
</mgrwt>
</event>
<event>
 9    1  0.4412976E-036  0.1000323E+04  0.7818608E-02  0.8680730E-01
         -1   -1    0    0    0  501 -0.00000000000E+00  0.00000000000E+00  0.12240307069E+03  0.12240307069E+03  0.00000000000E+00 0. -1.
          1   -1    0    0  501    0  0.00000000000E+00 -0.00000000000E+00 -0.20437519375E+04  0.20437519375E+04  0.00000000000E+00 0. -1.
         36    2    1    2    0    0  0.28421709430E-13  0.00000000000E+00 -0.19213488668E+04  0.21661550082E+04  0.10003229736E+04 0.  0.
         25    2    3    3    0    0 -0.98384308513E+02  0.56894397960E+02 -0.53565716498E+03  0.56223863823E+03  0.12754310347E+03 0.  0.
         35    2    3    3    0    0  0.98384308513E+02 -0.56894397960E+02 -0.13856917018E+04  0.16039163700E+04  0.79968105181E+03 0.  0.
         22    1    5    5    0    0  0.13679555111E+03 -0.32834705319E+03 -0.24791199759E+03  0.43357256450E+03  0.00000000000E+00 0. -1.
         22    1    5    5    0    0 -0.38411242597E+02  0.27145265523E+03 -0.11377797043E+04  0.11703438055E+04  0.00000000000E+00 0. -1.
          5    1    4    4  502    0 -0.17944651621E+02  0.28021365499E+02 -0.19131791485E+02  0.38669405111E+02  0.47000000000E+01 0. -1.
         -5    1    4    4    0  502 -0.80439656892E+02  0.28873032461E+02 -0.51652537349E+03  0.52356923312E+03  0.47000000000E+01 0. -1.
<mgrwt>
<rscale>  0 0.10003230E+04</rscale>
<asrwt>0</asrwt>
<pdfrwt beam="1">  1        1 0.31442335E+00 0.10003230E+04</pdfrwt>
<pdfrwt beam="2">  1       -1 0.18831243E-01 0.10003230E+04</pdfrwt>
<totfact> 0.65544632E+01</totfact>
</mgrwt>
</event>
<event>
 9    1  0.4412976E-036  0.9999589E+03  0.7818608E-02  0.8681077E-01
         -2   -1    0    0    0  501 -0.00000000000E+00  0.00000000000E+00  0.15923920151E+03  0.15923920151E+03  0.00000000000E+00 0. -1.
          2   -1    0    0  501    0  0.00000000000E+00 -0.00000000000E+00 -0.15698360194E+04  0.15698360194E+04  0.00000000000E+00 0. -1.
         36    2    1    2    0    0 -0.28421709430E-13  0.71054273576E-14 -0.14105968179E+04  0.17290752209E+04  0.99995886764E+03 0.  0.
         25    2    3    3    0    0  0.11614090899E+03 -0.59250463416E+02 -0.18374216942E+03  0.25803343974E+03  0.12578053524E+03 0.  0.
         35    2    3    3    0    0 -0.11614090899E+03  0.59250463416E+02 -0.12268546485E+04  0.14710417812E+04  0.80111938271E+03 0.  0.
         22    1    5    5    0    0  0.20220715671E+03  0.84623472032E+02 -0.17125170219E+02  0.21986845544E+03  0.00000000000E+00 0. -1.
         22    1    5    5    0    0 -0.31834806569E+03 -0.25373008616E+02 -0.12097294783E+04  0.12511733258E+04  0.00000000000E+00 0. -1.
          5    1    4    4  502    0  0.12983076559E+03 -0.28731928938E+02 -0.18030255126E+03  0.22408179628E+03  0.47000000000E+01 0. -1.
         -5    1    4    4    0  502 -0.13689856605E+02 -0.30518534478E+02 -0.34396181652E+01  0.33951643461E+02  0.47000000000E+01 0. -1.
<mgrwt>
<rscale>  0 0.99995887E+03</rscale>
<asrwt>0</asrwt>
<pdfrwt beam="1">  1        2 0.24151323E+00 0.99995887E+03</pdfrwt>
<pdfrwt beam="2">  1       -2 0.24498339E-01 0.99995887E+03</pdfrwt>
<totfact> 0.20570863E+02</totfact>
</mgrwt>
</event>
<event>
 9    1  0.4412976E-036  0.9996999E+03  0.7818608E-02  0.8681324E-01
          2   -1    0    0  501    0  0.00000000000E+00  0.00000000000E+00  0.11798713779E+04  0.11798713779E+04  0.00000000000E+00 0. -1.
         -2   -1    0    0    0  501 -0.00000000000E+00 -0.00000000000E+00 -0.21176033778E+03  0.21176033778E+03  0.00000000000E+00 0. -1.
         36    2    1    2    0    0 -0.35527136788E-14 -0.28421709430E-13  0.96811104015E+03  0.13916317157E+04  0.99969987803E+03 0.  0.
         25    2    3    3    0    0  0.17477855460E+02  0.13377699259E+03  0.22525482181E+03  0.29099318758E+03  0.12544138589E+03 0.  0.
         35    2    3    3    0    0 -0.17477855460E+02 -0.13377699259E+03  0.74285621835E+03  0.11006385281E+04  0.80085457438E+03 0.  0.
         22    1    5    5    0    0  0.24709249550E+02  0.27620396545E+03  0.60588219451E+03  0.66632755546E+03  0.00000000000E+00 0.  1.
         22    1    5    5    0    0 -0.42187105010E+02 -0.40998095804E+03  0.13697402384E+03  0.43431097268E+03  0.00000000000E+00 0.  1.
          5    1    4    4  502    0 -0.17206899434E+02  0.14369539184E+03  0.19910741449E+03  0.24619158298E+03  0.47000000000E+01 0. -1.
         -5    1    4    4    0  502  0.34684754894E+02 -0.99183992462E+01  0.26147407315E+02  0.44801604603E+02  0.47000000000E+01 0. -1.
<mgrwt>
<rscale>  0 0.99969988E+03</rscale>
<asrwt>0</asrwt>
<pdfrwt beam="1">  1        2 0.18151867E+00 0.99969988E+03</pdfrwt>
<pdfrwt beam="2">  1       -2 0.32578514E-01 0.99969988E+03</pdfrwt>
<totfact> 0.20604429E+02</totfact>
</mgrwt>
</event>
<event>
 9    1  0.4412976E-036  0.1000507E+04  0.7818608E-02  0.8680556E-01
         -1   -1    0    0    0  501 -0.00000000000E+00  0.00000000000E+00  0.39684834341E+03  0.39684834341E+03  0.00000000000E+00 0.  1.
          1   -1    0    0  501    0  0.00000000000E+00 -0.00000000000E+00 -0.63060217128E+03  0.63060217128E+03  0.00000000000E+00 0.  1.
         36    2    1    2    0    0  0.53290705182E-14  0.14210854715E-13 -0.23375382788E+03  0.10274505147E+04  0.10005067257E+04 0.  0.
         25    2    3    3    0    0  0.50878579587E+01  0.96927206420E+02 -0.14950488652E+03  0.21747074525E+03  0.12458348327E+03 0.  0.
         35    2    3    3    0    0 -0.50878579587E+01 -0.96927206420E+02 -0.84248941358E+02  0.80997976944E+03  0.79971780844E+03 0.  0.
         22    1    5    5    0    0 -0.55652476499E+02  0.17801852140E+03 -0.36742805220E+03  0.41205723588E+03  0.00000000000E+00 0.  1.
         22    1    5    5    0    0  0.50564618540E+02 -0.27494572782E+03  0.28317911084E+03  0.39792253356E+03  0.00000000000E+00 0.  1.
          5    1    4    4  502    0  0.17423854513E+02  0.48148844255E+02  0.80177244713E+01  0.52041097364E+02  0.47000000000E+01 0. -1.
         -5    1    4    4    0  502 -0.12335996554E+02  0.48778362165E+02 -0.15752261099E+03  0.16542964788E+03  0.47000000000E+01 0. -1.
<mgrwt>
<rscale>  0 0.10005067E+04</rscale>
<asrwt>0</asrwt>
<pdfrwt beam="1">  1        1 0.97015718E-01 0.10005067E+04</pdfrwt>
<pdfrwt beam="2">  1       -1 0.61053592E-01 0.10005067E+04</pdfrwt>
<totfact> 0.10045349E+02</totfact>
</mgrwt>
</event>
<event>
 9    1  0.4412976E-036  0.9996835E+03  0.7818608E-02  0.8681339E-01
         -1   -1    0    0    0  501 -0.00000000000E+00  0.00000000000E+00  0.58011894273E+03  0.58011894273E+03  0.00000000000E+00 0. -1.
          1   -1    0    0  501    0  0.00000000000E+00 -0.00000000000E+00 -0.43067332655E+03  0.43067332655E+03  0.00000000000E+00 0. -1.
         36    2    1    2    0    0  0.00000000000E+00  0.00000000000E+00  0.14944561618E+03  0.10107922693E+04  0.99968345962E+03 0.  0.
         25    2    3    3    0    0 -0.63346911652E+02  0.54414149245E+02 -0.87878291193E+02  0.17412424829E+03  0.12499171543E+03 0.  0.
         35    2    3    3    0    0  0.63346911652E+02 -0.54414149245E+02  0.23732390737E+03  0.83666802099E+03  0.79794549280E+03 0.  0.
         22    1    5    5    0    0 -0.35043230974E+03  0.91591563838E+02  0.13119424283E+03  0.38523206983E+03  0.00000000000E+00 0.  1.
         22    1    5    5    0    0  0.41377922139E+03 -0.14600571308E+03  0.10612966454E+03  0.45143595116E+03  0.00000000000E+00 0.  1.
          5    1    4    4  502    0 -0.53364316424E+02  0.25341909562E+01  0.17280708244E+02  0.56346120263E+02  0.47000000000E+01 0. -1.
         -5    1    4    4    0  502 -0.99825952278E+01  0.51879958289E+02 -0.10515899944E+03  0.11777812803E+03  0.47000000000E+01 0. -1.
<mgrwt>
<rscale>  0 0.99968346E+03</rscale>
<asrwt>0</asrwt>
<pdfrwt beam="1">  1        1 0.66257435E-01 0.99968346E+03</pdfrwt>
<pdfrwt beam="2">  1       -1 0.89249068E-01 0.99968346E+03</pdfrwt>
<totfact> 0.79534258E+01</totfact>
</mgrwt>
</event>
<event>
 9    1  0.4412976E-036  0.9953144E+03  0.7818608E-02  0.8685513E-01
         -2   -1    0    0    0  501 -0.00000000000E+00  0.00000000000E+00  0.13838709932E+03  0.13838709932E+03  0.00000000000E+00 0. -1.
          2   -1    0    0  501    0  0.00000000000E+00 -0.00000000000E+00 -0.17896372626E+04  0.17896372626E+04  0.00000000000E+00 0. -1.
         36    2    1    2    0    0 -0.14210854715E-13  0.00000000000E+00 -0.16512501633E+04  0.19280243620E+04  0.99531444200E+03 0.  0.
         25    2    3    3    0    0  0.77868927822E+02 -0.10559659821E+03 -0.37085927568E+03  0.41281602469E+03  0.12516491683E+03 0.  0.
         35    2    3    3    0    0 -0.77868927822E+02  0.10559659821E+03 -0.12803908876E+04  0.15152083373E+04  0.79952565232E+03 0.  0.
         22    1    5    5    0    0 -0.43628458590E+03  0.10018881071E+03 -0.63444234843E+03  0.77646579523E+03  0.00000000000E+00 0. -1.
         22    1    5    5    0    0  0.35841565807E+03  0.54077874982E+01 -0.64594853920E+03  0.73874254204E+03  0.00000000000E+00 0. -1.
          5    1    4    4  502    0  0.30690346748E+02 -0.71950651734E+02 -0.65974924438E+02  0.10243814877E+03  0.47000000000E+01 0.  1.
         -5    1    4    4    0  502  0.47178581074E+02 -0.33645946471E+02 -0.30488435125E+03  0.31037787592E+03  0.47000000000E+01 0.  1.
<mgrwt>
<rscale>  0 0.99531444E+03</rscale>
<asrwt>0</asrwt>
<pdfrwt beam="1">  1        2 0.27532879E+00 0.99531444E+03</pdfrwt>
<pdfrwt beam="2">  1       -2 0.21290325E-01 0.99531444E+03</pdfrwt>
<totfact> 0.19786934E+02</totfact>
</mgrwt>
</event>
<event>
 9    1  0.4412976E-036  0.9999852E+03  0.7818608E-02  0.8681052E-01
         -1   -1    0    0    0  501 -0.00000000000E+00  0.00000000000E+00  0.78921651040E+03  0.78921651040E+03  0.00000000000E+00 0.  1.
          1   -1    0    0  501    0  0.00000000000E+00 -0.00000000000E+00 -0.31676048987E+03  0.31676048987E+03  0.00000000000E+00 0.  1.
         36    2    1    2    0    0  0.00000000000E+00  0.14210854715E-13  0.47245602053E+03  0.11059770003E+04  0.99998521679E+03 0.  0.
         25    2    3    3    0    0  0.72962967320E+02 -0.46378791896E+02  0.21357349527E+03  0.26100353941E+03  0.12261575251E+03 0.  0.
         35    2    3    3    0    0 -0.72962967320E+02  0.46378791896E+02  0.25888252526E+03  0.84497346086E+03  0.79967831078E+03 0.  0.
         22    1    5    5    0    0 -0.70644297109E+02  0.37281639568E+03 -0.65161183140E+02  0.38500475502E+03  0.00000000000E+00 0. -1.
         22    1    5    5    0    0 -0.23186702107E+01 -0.32643760379E+03  0.32404370840E+03  0.45996870584E+03  0.00000000000E+00 0. -1.
          5    1    4    4  502    0  0.73916972677E+02 -0.23133295360E+02  0.42854209814E+02  0.88642210615E+02  0.47000000000E+01 0.  1.
         -5    1    4    4    0  502 -0.95400535743E+00 -0.23245496536E+02  0.17071928546E+03  0.17236132879E+03  0.47000000000E+01 0.  1.
<mgrwt>
<rscale>  0 0.99998522E+03</rscale>
<asrwt>0</asrwt>
<pdfrwt beam="1">  1        1 0.48732383E-01 0.99998522E+03</pdfrwt>
<pdfrwt beam="2">  1       -1 0.12141792E+00 0.99998522E+03</pdfrwt>
<totfact> 0.59013153E+01</totfact>
</mgrwt>
</event>
<event>
 9    1  0.4412976E-036  0.1000284E+04  0.7818608E-02  0.8680768E-01
          2   -1    0    0  501    0  0.00000000000E+00  0.00000000000E+00  0.13489666198E+04  0.13489666198E+04  0.00000000000E+00 0. -1.
         -2   -1    0    0    0  501 -0.00000000000E+00 -0.00000000000E+00 -0.18543227598E+03  0.18543227598E+03  0.00000000000E+00 0. -1.
         36    2    1    2    0    0  0.00000000000E+00 -0.35527136788E-13  0.11635343438E+04  0.15343988957E+04  0.10002838608E+04 0.  0.
         25    2    3    3    0    0  0.17762654832E+02 -0.38003263387E+02  0.42450584436E+03  0.44447149707E+03  0.12485968077E+03 0.  0.
         35    2    3    3    0    0 -0.17762654832E+02  0.38003263387E+02  0.73902849944E+03  0.10899273987E+04  0.80001178208E+03 0.  0.
         22    1    5    5    0    0 -0.38955234727E+02 -0.36612060045E+03  0.49655720523E+03  0.61816734179E+03  0.00000000000E+00 0.  1.
         22    1    5    5    0    0  0.21192579895E+02  0.40412386383E+03  0.24247129421E+03  0.47176005689E+03  0.00000000000E+00 0.  1.
          5    1    4    4  502    0 -0.28792167120E+00 -0.81214465956E+02  0.31386295949E+03  0.32423435925E+03  0.47000000000E+01 0.  1.
         -5    1    4    4    0  502  0.18050576503E+02  0.43211202568E+02  0.11064288486E+03  0.12023713782E+03  0.47000000000E+01 0.  1.
<mgrwt>
<rscale>  0 0.10002839E+04</rscale>
<asrwt>0</asrwt>
<pdfrwt beam="1">  1        2 0.20753332E+00 0.10002839E+04</pdfrwt>
<pdfrwt beam="2">  1       -2 0.28528043E-01 0.10002839E+04</pdfrwt>
<totfact> 0.20919976E+02</totfact>
</mgrwt>
</event>
<event>
 9    1  0.4412976E-036  0.1002027E+04  0.7818608E-02  0.8679110E-01
         -1   -1    0    0    0  501 -0.00000000000E+00  0.00000000000E+00  0.47033306109E+03  0.47033306109E+03  0.00000000000E+00 0.  1.
          1   -1    0    0  501    0  0.00000000000E+00 -0.00000000000E+00 -0.53369481058E+03  0.53369481058E+03  0.00000000000E+00 0.  1.
         36    2    1    2    0    0 -0.21316282073E-13  0.00000000000E+00 -0.63361749488E+02  0.10040278717E+04  0.10020265744E+04 0.  0.
         25    2    3    3    0    0  0.14035176192E+02  0.14025765174E+03  0.62917960762E+01  0.18876323087E+03  0.12539049242E+03 0.  0.
         35    2    3    3    0    0 -0.14035176192E+02 -0.14025765174E+03 -0.69653545564E+02  0.81526464079E+03  0.79995976341E+03 0.  0.
         22    1    5    5    0    0  0.18002204160E+03  0.28939633447E+03 -0.26513593843E+02  0.34184959343E+03  0.00000000000E+00 0.  1.
         22    1    5    5    0    0 -0.19405721780E+03 -0.42965398620E+03 -0.43139951721E+02  0.47341504737E+03  0.00000000000E+00 0.  1.
          5    1    4    4  502    0  0.15619848272E+02  0.99973253726E+02 -0.54989946194E+02  0.11525890553E+03  0.47000000000E+01 0.  1.
         -5    1    4    4    0  502 -0.15846720801E+01  0.40284398009E+02  0.61281742270E+02  0.73504325344E+02  0.47000000000E+01 0.  1.
<mgrwt>
<rscale>  0 0.10020266E+04</rscale>
<asrwt>0</asrwt>
<pdfrwt beam="1">  1        1 0.82106894E-01 0.10020266E+04</pdfrwt>
<pdfrwt beam="2">  1       -1 0.72358932E-01 0.10020266E+04</pdfrwt>
<totfact> 0.91618220E+01</totfact>
</mgrwt>
</event>
<event>
 9    1  0.4412976E-036  0.1001719E+04  0.7818608E-02  0.8679403E-01
          3   -1    0    0  501    0  0.00000000000E+00  0.00000000000E+00  0.15000356383E+03  0.15000356383E+03  0.00000000000E+00 0.  1.
         -3   -1    0    0    0  501 -0.00000000000E+00 -0.00000000000E+00 -0.16723606498E+04  0.16723606498E+04  0.00000000000E+00 0.  1.
         36    2    1    2    0    0  0.28421709430E-13  0.71054273576E-14 -0.15223570860E+04  0.18223642137E+04  0.10017186381E+04 0.  0.
         25    2    3    3    0    0 -0.13905532734E+03 -0.41730163138E+01 -0.33406935472E+03  0.38306123328E+03  0.12561758060E+03 0.  0.
         35    2    3    3    0    0  0.13905532734E+03  0.41730163138E+01 -0.11882877313E+04  0.14393029804E+04  0.80013220088E+03 0.  0.
         22    1    5    5    0    0  0.95382939852E+02  0.40068176267E+03 -0.56212556000E+03  0.69687080966E+03  0.00000000000E+00 0.  1.
         22    1    5    5    0    0  0.43672387489E+02 -0.39650874636E+03 -0.62616217130E+03  0.74243217073E+03  0.00000000000E+00 0.  1.
          5    1    4    4  502    0 -0.55107730941E+02 -0.59530289501E+02 -0.19612060844E+03  0.21228777739E+03  0.47000000000E+01 0.  1.
         -5    1    4    4    0  502 -0.83947596400E+02  0.55357273187E+02 -0.13794874628E+03  0.17077345589E+03  0.47000000000E+01 0.  1.
<mgrwt>
<rscale>  0 0.10017186E+04</rscale>
<asrwt>0</asrwt>
<pdfrwt beam="1">  1        3 0.23077472E-01 0.10017186E+04</pdfrwt>
<pdfrwt beam="2">  1       -3 0.25728625E+00 0.10017186E+04</pdfrwt>
<totfact> 0.26031677E+00</totfact>
</mgrwt>
</event>
<event>
 9    1  0.4412976E-036  0.1000091E+04  0.7818608E-02  0.8680951E-01
          2   -1    0    0  501    0  0.00000000000E+00  0.00000000000E+00  0.43161282106E+03  0.43161282106E+03  0.00000000000E+00 0.  1.
         -2   -1    0    0    0  501 -0.00000000000E+00 -0.00000000000E+00 -0.57932861201E+03  0.57932861201E+03  0.00000000000E+00 0.  1.
         36    2    1    2    0    0  0.00000000000E+00  0.00000000000E+00 -0.14771579095E+03  0.10109414331E+04  0.10000913089E+04 0.  0.
         25    2    3    3    0    0  0.12868510939E+03 -0.22244075743E+02  0.22891019872E+02  0.18241933166E+03  0.12529228823E+03 0.  0.
         35    2    3    3    0    0 -0.12868510939E+03  0.22244075743E+02 -0.17060681082E+03  0.82852210141E+03  0.80017968753E+03 0.  0.
         22    1    5    5    0    0 -0.80167559566E+02  0.34217833369E+03 -0.31706267643E+03  0.47333031853E+03  0.00000000000E+00 0. -1.
         22    1    5    5    0    0 -0.48517549827E+02 -0.31993425795E+03  0.14645586561E+03  0.35519178288E+03  0.00000000000E+00 0. -1.
          5    1    4    4  502    0  0.28915113592E+01  0.36554218944E+02 -0.12538046491E+02  0.39036705424E+02  0.47000000000E+01 0.  1.
         -5    1    4    4    0  502  0.12579359803E+03 -0.58798294687E+02  0.35429066363E+02  0.14338262624E+03  0.47000000000E+01 0.  1.
<mgrwt>
<rscale>  0 0.10000913E+04</rscale>
<asrwt>0</asrwt>
<pdfrwt beam="1">  1        2 0.66401973E-01 0.10000913E+04</pdfrwt>
<pdfrwt beam="2">  1       -2 0.89127478E-01 0.10000913E+04</pdfrwt>
<totfact> 0.94276003E+01</totfact>
</mgrwt>
</event>
<event>
 9    1  0.4412976E-036  0.1000491E+04  0.7818608E-02  0.8680570E-01
          2   -1    0    0  501    0  0.00000000000E+00  0.00000000000E+00  0.26699796348E+04  0.26699796348E+04  0.00000000000E+00 0.  1.
         -2   -1    0    0    0  501 -0.00000000000E+00 -0.00000000000E+00 -0.93725665967E+02  0.93725665967E+02  0.00000000000E+00 0.  1.
         36    2    1    2    0    0  0.14210854715E-13 -0.28421709430E-13  0.25762539689E+04  0.27637053008E+04  0.10004911182E+04 0.  0.
         25    2    3    3    0    0  0.93830526309E+02 -0.98837004341E+02  0.56856673648E+03  0.59790582089E+03  0.12510122193E+03 0.  0.
         35    2    3    3    0    0 -0.93830526309E+02  0.98837004341E+02  0.20076872324E+04  0.21657994799E+04  0.80081611061E+03 0.  0.
         22    1    5    5    0    0 -0.43651378655E+02 -0.34842342176E+03  0.10604807764E+04  0.11171050984E+04  0.00000000000E+00 0. -1.
         22    1    5    5    0    0 -0.50179147654E+02  0.44726042610E+03  0.94720645597E+03  0.10486943815E+04  0.00000000000E+00 0. -1.
          5    1    4    4  502    0  0.12225067041E+03 -0.84027514542E+02  0.50780741216E+03  0.52905227290E+03  0.47000000000E+01 0. -1.
         -5    1    4    4    0  502 -0.28420144103E+02 -0.14809489800E+02  0.60759324323E+02  0.68853547993E+02  0.47000000000E+01 0. -1.
<mgrwt>
<rscale>  0 0.10004911E+04</rscale>
<asrwt>0</asrwt>
<pdfrwt beam="1">  1        2 0.41076604E+00 0.10004911E+04</pdfrwt>
<pdfrwt beam="2">  1       -2 0.14419335E-01 0.10004911E+04</pdfrwt>
<totfact> 0.11682423E+02</totfact>
</mgrwt>
</event>
<event>
 9    1  0.4412976E-036  0.9999731E+03  0.7818608E-02  0.8681064E-01
          2   -1    0    0  501    0  0.00000000000E+00  0.00000000000E+00  0.11949569020E+04  0.11949569020E+04  0.00000000000E+00 0.  1.
         -2   -1    0    0    0  501 -0.00000000000E+00 -0.00000000000E+00 -0.20920129191E+03  0.20920129191E+03  0.00000000000E+00 0.  1.
         36    2    1    2    0    0 -0.14210854715E-13  0.71054273576E-14  0.98575561006E+03  0.14041581939E+04  0.99997305498E+03 0.  0.
         25    2    3    3    0    0  0.81116767223E+02  0.41117528363E+02  0.33292647612E+03  0.36735684052E+03  0.12585876494E+03 0.  0.
         35    2    3    3    0    0 -0.81116767223E+02 -0.41117528363E+02  0.65282913394E+03  0.10368013534E+04  0.80031280582E+03 0.  0.
         22    1    5    5    0    0 -0.26356722350E+03 -0.34561237643E+03  0.25624301289E+03  0.50455532670E+03  0.00000000000E+00 0.  1.
         22    1    5    5    0    0  0.18245045628E+03  0.30449484806E+03  0.39658612105E+03  0.53224602666E+03  0.00000000000E+00 0.  1.
          5    1    4    4  502    0  0.22656595583E+02 -0.22083926280E+02  0.23380438660E+03  0.23598220763E+03  0.47000000000E+01 0. -1.
         -5    1    4    4    0  502  0.58460171640E+02  0.63201454644E+02  0.99122089519E+02  0.13137463289E+03  0.47000000000E+01 0. -1.
<mgrwt>
<rscale>  0 0.99997305E+03</rscale>
<asrwt>0</asrwt>
<pdfrwt beam="1">  1        2 0.18383952E+00 0.99997305E+03</pdfrwt>
<pdfrwt beam="2">  1       -2 0.32184815E-01 0.99997305E+03</pdfrwt>
<totfact> 0.20641711E+02</totfact>
</mgrwt>
</event>
<event>
 9    1  0.4412976E-036  0.9997635E+03  0.7818608E-02  0.8681263E-01
         -2   -1    0    0    0  501 -0.00000000000E+00  0.00000000000E+00  0.18291005408E+03  0.18291005408E+03  0.00000000000E+00 0. -1.
          2   -1    0    0  501    0  0.00000000000E+00 -0.00000000000E+00 -0.13661456398E+04  0.13661456398E+04  0.00000000000E+00 0. -1.
         36    2    1    2    0    0 -0.71054273576E-14  0.00000000000E+00 -0.11832355857E+04  0.15490556939E+04  0.99976351774E+03 0.  0.
         25    2    3    3    0    0 -0.29233922399E+02 -0.11186160195E+03 -0.10057731093E+03  0.19801445429E+03  0.12540449922E+03 0.  0.
         35    2    3    3    0    0  0.29233922399E+02  0.11186160195E+03 -0.10826582748E+04  0.13510412396E+04  0.79987239662E+03 0.  0.
         22    1    5    5    0    0 -0.14889848654E+03  0.99413239024E+02 -0.11472616431E+04  0.11611472901E+04  0.00000000000E+00 0.  1.
         22    1    5    5    0    0  0.17813240894E+03  0.12448362926E+02  0.64603368368E+02  0.18989394951E+03  0.00000000000E+00 0.  1.
          5    1    4    4  502    0  0.39601225645E+02 -0.80747020348E+02 -0.77704375905E+02  0.11894704033E+03  0.47000000000E+01 0.  1.
         -5    1    4    4    0  502 -0.68835148044E+02 -0.31114581603E+02 -0.22872935024E+02  0.79067413965E+02  0.47000000000E+01 0.  1.
<mgrwt>
<rscale>  0 0.99976352E+03</rscale>
<asrwt>0</asrwt>
<pdfrwt beam="1">  1        2 0.21017626E+00 0.99976352E+03</pdfrwt>
<pdfrwt beam="2">  1       -2 0.28140007E-01 0.99976352E+03</pdfrwt>
<totfact> 0.20962615E+02</totfact>
</mgrwt>
</event>
<event>
 9    1  0.4412976E-036  0.9994466E+03  0.7818608E-02  0.8681565E-01
          2   -1    0    0  501    0  0.00000000000E+00  0.00000000000E+00  0.69612008403E+03  0.69612008403E+03  0.00000000000E+00 0. -1.
         -2   -1    0    0    0  501 -0.00000000000E+00 -0.00000000000E+00 -0.35873604395E+03  0.35873604395E+03  0.00000000000E+00 0. -1.
         36    2    1    2    0    0  0.00000000000E+00  0.14210854715E-13  0.33738404008E+03  0.10548561280E+04  0.99944657698E+03 0.  0.
         25    2    3    3    0    0 -0.95451693856E+02 -0.10083034285E+03  0.70744158168E+02  0.19847436981E+03  0.12292093254E+03 0.  0.
         35    2    3    3    0    0  0.95451693856E+02  0.10083034285E+03  0.26663988191E+03  0.85638175817E+03  0.80188222652E+03 0.  0.
         22    1    5    5    0    0  0.24201301461E+03  0.18466649986E+02  0.50755619445E+03  0.56260519632E+03  0.00000000000E+00 0. -1.
         22    1    5    5    0    0 -0.14656132075E+03  0.82363692866E+02 -0.24091631254E+03  0.29377656185E+03  0.00000000000E+00 0. -1.
          5    1    4    4  502    0 -0.26843091881E+01 -0.49561437773E+02 -0.24812937348E+02  0.55689437865E+02  0.47000000000E+01 0. -1.
         -5    1    4    4    0  502 -0.92767384668E+02 -0.51268905080E+02  0.95557095516E+02  0.14278493194E+03  0.47000000000E+01 0. -1.
<mgrwt>
<rscale>  0 0.99944658E+03</rscale>
<asrwt>0</asrwt>
<pdfrwt beam="1">  1        2 0.10709540E+00 0.99944658E+03</pdfrwt>
<pdfrwt beam="2">  1       -2 0.55190161E-01 0.99944658E+03</pdfrwt>
<totfact> 0.15413620E+02</totfact>
</mgrwt>
</event>
<event>
 9    1  0.4412976E-036  0.1001590E+04  0.7818608E-02  0.8679525E-01
         -2   -1    0    0    0  501 -0.00000000000E+00  0.00000000000E+00  0.18502749740E+03  0.18502749740E+03  0.00000000000E+00 0. -1.
          2   -1    0    0  501    0  0.00000000000E+00 -0.00000000000E+00 -0.13554510271E+04  0.13554510271E+04  0.00000000000E+00 0. -1.
         36    2    1    2    0    0  0.00000000000E+00  0.00000000000E+00 -0.11704235297E+04  0.15404785245E+04  0.10015901585E+04 0.  0.
         25    2    3    3    0    0  0.22551360260E+02 -0.12108493820E+03 -0.11134366843E+03  0.20762559273E+03  0.12466293817E+03 0.  0.
         35    2    3    3    0    0 -0.22551360260E+02  0.12108493820E+03 -0.10590798612E+04  0.13328529317E+04  0.79979788638E+03 0.  0.
         22    1    5    5    0    0  0.82799872756E+02  0.43267854069E+02  0.11687588506E+03  0.14962586218E+03  0.00000000000E+00 0. -1.
         22    1    5    5    0    0 -0.10535123302E+03  0.77817084126E+02 -0.11759557463E+04  0.11832270696E+04  0.00000000000E+00 0. -1.
          5    1    4    4  502    0 -0.28826077857E+02 -0.56511011123E+01 -0.67562249680E+02  0.73821577403E+02  0.47000000000E+01 0. -1.
         -5    1    4    4    0  502  0.51377438117E+02 -0.11543383708E+03 -0.43781418748E+02  0.13380401533E+03  0.47000000000E+01 0. -1.
<mgrwt>
<rscale>  0 0.10015902E+04</rscale>
<asrwt>0</asrwt>
<pdfrwt beam="1">  1        2 0.20853093E+00 0.10015902E+04</pdfrwt>
<pdfrwt beam="2">  1       -2 0.28465769E-01 0.10015902E+04</pdfrwt>
<totfact> 0.20823232E+02</totfact>
</mgrwt>
</event>
<event>
 9    1  0.4412976E-036  0.9998864E+03  0.7818608E-02  0.8681146E-01
          2   -1    0    0  501    0  0.00000000000E+00  0.00000000000E+00  0.95871264909E+03  0.95871264909E+03  0.00000000000E+00 0. -1.
         -2   -1    0    0    0  501 -0.00000000000E+00 -0.00000000000E+00 -0.26070712427E+03  0.26070712427E+03  0.00000000000E+00 0. -1.
         36    2    1    2    0    0  0.17763568394E-14 -0.28421709430E-13  0.69800552481E+03  0.12194197734E+04  0.99988642905E+03 0.  0.
         25    2    3    3    0    0 -0.74891179665E+01  0.44263758526E+02 -0.29591487908E+02  0.13695273610E+03  0.12595645502E+03 0.  0.
         35    2    3    3    0    0  0.74891179665E+01 -0.44263758526E+02  0.72759701272E+03  0.10824670373E+04  0.80020129132E+03 0.  0.
         22    1    5    5    0    0  0.62286135337E+02  0.37050985674E+03  0.41775044374E+03  0.56184744356E+03  0.00000000000E+00 0.  1.
         22    1    5    5    0    0 -0.54797017371E+02 -0.41477361527E+03  0.30984656899E+03  0.52061959370E+03  0.00000000000E+00 0.  1.
          5    1    4    4  502    0 -0.87459926849E+01 -0.92013607332E+00  0.46917085378E+02  0.47965007441E+02  0.47000000000E+01 0. -1.
         -5    1    4    4    0  502  0.12568747185E+01  0.45183894599E+02 -0.76508573286E+02  0.88987728657E+02  0.47000000000E+01 0. -1.
<mgrwt>
<rscale>  0 0.99988643E+03</rscale>
<asrwt>0</asrwt>
<pdfrwt beam="1">  1        2 0.14749425E+00 0.99988643E+03</pdfrwt>
<pdfrwt beam="2">  1       -2 0.40108789E-01 0.99988643E+03</pdfrwt>
<totfact> 0.19059507E+02</totfact>
</mgrwt>
</event>
<event>
 9    1  0.4412976E-036  0.9997822E+03  0.7818608E-02  0.8681245E-01
          4   -1    0    0  501    0  0.00000000000E+00  0.00000000000E+00  0.43296851323E+03  0.43296851323E+03  0.00000000000E+00 0. -1.
         -4   -1    0    0    0  501 -0.00000000000E+00 -0.00000000000E+00 -0.57715767068E+03  0.57715767068E+03  0.00000000000E+00 0. -1.
         36    2    1    2    0    0  0.71054273576E-14  0.71054273576E-14 -0.14418915745E+03  0.10101261839E+04  0.99978217342E+03 0.  0.
         25    2    3    3    0    0 -0.36305367436E+02 -0.21461988412E+02 -0.15901021522E+03  0.20904773884E+03  0.12898841778E+03 0.  0.
         35    2    3    3    0    0  0.36305367436E+02  0.21461988412E+02  0.14821057766E+02  0.80107844507E+03  0.79983017869E+03 0.  0.
         22    1    5    5    0    0  0.50635903176E+02 -0.36566970703E+03 -0.12420052706E+03  0.38949210550E+03  0.00000000000E+00 0. -1.
         22    1    5    5    0    0 -0.14330535739E+02  0.38713169544E+03  0.13902158483E+03  0.41158633956E+03  0.00000000000E+00 0. -1.
          5    1    4    4  502    0  0.28410427167E+02  0.26408886506E+02 -0.11153792257E+02  0.40633468225E+02  0.47000000000E+01 0.  1.
         -5    1    4    4    0  502 -0.64715794603E+02 -0.47870874918E+02 -0.14785642296E+03  0.16841427062E+03  0.47000000000E+01 0.  1.
<mgrwt>
<rscale>  0 0.99978217E+03</rscale>
<asrwt>0</asrwt>
<pdfrwt beam="1">  1        4 0.66610541E-01 0.99978217E+03</pdfrwt>
<pdfrwt beam="2">  1       -4 0.88793487E-01 0.99978217E+03</pdfrwt>
<totfact> 0.51968680E+00</totfact>
</mgrwt>
</event>
<event>
 9    1  0.4412976E-036  0.9997484E+03  0.7818608E-02  0.8681278E-01
         -2   -1    0    0    0  501 -0.00000000000E+00  0.00000000000E+00  0.30242708796E+03  0.30242708796E+03  0.00000000000E+00 0.  1.
          2   -1    0    0  501    0  0.00000000000E+00 -0.00000000000E+00 -0.82622964394E+03  0.82622964394E+03  0.00000000000E+00 0.  1.
         36    2    1    2    0    0  0.28421709430E-13  0.14210854715E-13 -0.52380255597E+03  0.11286567319E+04  0.99974841876E+03 0.  0.
         25    2    3    3    0    0  0.12793395119E+03 -0.48613645663E+02 -0.82965938474E+02  0.20642459941E+03  0.13037402304E+03 0.  0.
         35    2    3    3    0    0 -0.12793395119E+03  0.48613645663E+02 -0.44083661750E+03  0.92223213248E+03  0.79840140308E+03 0.  0.
         22    1    5    5    0    0  0.17603135735E+03 -0.18355164234E+03 -0.47440738514E+03  0.53827559043E+03  0.00000000000E+00 0. -1.
         22    1    5    5    0    0 -0.30396530854E+03  0.23216528800E+03  0.33570767642E+02  0.38395654206E+03  0.00000000000E+00 0. -1.
          5    1    4    4  502    0  0.93327889524E+02 -0.81547646206E+02 -0.95822359418E+02  0.15672947435E+03  0.47000000000E+01 0. -1.
         -5    1    4    4    0  502  0.34606061667E+02  0.32934000543E+02  0.12856420943E+02  0.49695125066E+02  0.47000000000E+01 0. -1.
<mgrwt>
<rscale>  0 0.99974842E+03</rscale>
<asrwt>0</asrwt>
<pdfrwt beam="1">  1        2 0.12711225E+00 0.99974842E+03</pdfrwt>
<pdfrwt beam="2">  1       -2 0.46527245E-01 0.99974842E+03</pdfrwt>
<totfact> 0.17482852E+02</totfact>
</mgrwt>
</event>
<event>
 9    1  0.4412976E-036  0.1003645E+04  0.7818608E-02  0.8677575E-01
          1   -1    0    0  501    0  0.00000000000E+00  0.00000000000E+00  0.18224351537E+04  0.18224351537E+04  0.00000000000E+00 0. -1.
         -1   -1    0    0    0  501 -0.00000000000E+00 -0.00000000000E+00 -0.13818089679E+03  0.13818089679E+03  0.00000000000E+00 0. -1.
         36    2    1    2    0    0  0.21316282073E-13 -0.14210854715E-13  0.16842542569E+04  0.19606160505E+04  0.10036448054E+04 0.  0.
         25    2    3    3    0    0  0.50376020088E+02 -0.11425510974E+03  0.22441836266E+03  0.29127517463E+03  0.13742507906E+03 0.  0.
         35    2    3    3    0    0 -0.50376020088E+02  0.11425510974E+03  0.14598358942E+04  0.16693408758E+04  0.79999134254E+03 0.  0.
         22    1    5    5    0    0  0.18945404025E+03  0.21489572004E+03  0.13614478620E+04  0.13912631975E+04  0.00000000000E+00 0.  1.
         22    1    5    5    0    0 -0.23983006034E+03 -0.10064061029E+03  0.98388032225E+02  0.27807767830E+03  0.00000000000E+00 0.  1.
          5    1    4    4  502    0  0.32422986714E+02  0.16252337334E+01  0.14715808664E+03  0.15076963858E+03  0.47000000000E+01 0.  1.
         -5    1    4    4    0  502  0.17953033375E+02 -0.11588034348E+03  0.77260276011E+02  0.14050553605E+03  0.47000000000E+01 0.  1.
<mgrwt>
<rscale>  0 0.10036448E+04</rscale>
<asrwt>0</asrwt>
<pdfrwt beam="1">  1        1 0.28037462E+00 0.10036448E+04</pdfrwt>
<pdfrwt beam="2">  1       -1 0.21258601E-01 0.10036448E+04</pdfrwt>
<totfact> 0.76667397E+01</totfact>
</mgrwt>
</event>
<event>
 9    1  0.4412976E-036  0.9981887E+03  0.7818608E-02  0.8682765E-01
          2   -1    0    0  501    0  0.00000000000E+00  0.00000000000E+00  0.18085477318E+04  0.18085477318E+04  0.00000000000E+00 0. -1.
         -2   -1    0    0    0  501 -0.00000000000E+00 -0.00000000000E+00 -0.13773215917E+03  0.13773215917E+03  0.00000000000E+00 0. -1.
         36    2    1    2    0    0 -0.14210854715E-13  0.00000000000E+00  0.16708155726E+04  0.19462798910E+04  0.99818872779E+03 0.  0.
         25    2    3    3    0    0 -0.65975002364E+02  0.62128245685E+02  0.10944329749E+03  0.18901934353E+03  0.12465094069E+03 0.  0.
         35    2    3    3    0    0  0.65975002364E+02 -0.62128245685E+02  0.15613722751E+04  0.17572605475E+04  0.80116704263E+03 0.  0.
         22    1    5    5    0    0  0.42099718591E+03 -0.10058839344E+03  0.10277035282E+04  0.11151372997E+04  0.00000000000E+00 0. -1.
         22    1    5    5    0    0 -0.35502218354E+03  0.38460147750E+02  0.53366874698E+03  0.64212324773E+03  0.00000000000E+00 0. -1.
          5    1    4    4  502    0 -0.29571073663E+01 -0.14271014717E+02 -0.20489165897E+02  0.25579332755E+02  0.47000000000E+01 0.  1.
         -5    1    4    4    0  502 -0.63017894998E+02  0.76399260402E+02  0.12993246339E+03  0.16344001077E+03  0.47000000000E+01 0.  1.
<mgrwt>
<rscale>  0 0.99818873E+03</rscale>
<asrwt>0</asrwt>
<pdfrwt beam="1">  1        2 0.27823810E+00 0.99818873E+03</pdfrwt>
<pdfrwt beam="2">  1       -2 0.21189564E-01 0.99818873E+03</pdfrwt>
<totfact> 0.19466756E+02</totfact>
</mgrwt>
</event>
<event>
 9    1  0.4412976E-036  0.9998994E+03  0.7818608E-02  0.8681134E-01
         -1   -1    0    0    0  501 -0.00000000000E+00  0.00000000000E+00  0.71743214954E+02  0.71743214954E+02  0.00000000000E+00 0.  1.
          1   -1    0    0  501    0  0.00000000000E+00 -0.00000000000E+00 -0.34839487433E+04  0.34839487433E+04  0.00000000000E+00 0.  1.
         36    2    1    2    0    0  0.00000000000E+00  0.00000000000E+00 -0.34122055284E+04  0.35556919583E+04  0.99989936209E+03 0.  0.
         25    2    3    3    0    0 -0.89074903493E+01 -0.10718139566E+03 -0.32190330218E+03  0.36169153873E+03  0.12502735012E+03 0.  0.
         35    2    3    3    0    0  0.89074903493E+01  0.10718139566E+03 -0.30903022262E+04  0.31940004195E+04  0.80006476981E+03 0.  0.
         22    1    5    5    0    0  0.37502019770E+03 -0.77107537692E+02 -0.11930412598E+04  0.12529697397E+04  0.00000000000E+00 0. -1.
         22    1    5    5    0    0 -0.36611270735E+03  0.18428893335E+03 -0.18972609664E+04  0.19410306799E+04  0.00000000000E+00 0. -1.
          5    1    4    4  502    0 -0.47434596345E+02 -0.32526197212E+02 -0.47700746853E+02  0.74869524413E+02  0.47000000000E+01 0.  1.
         -5    1    4    4    0  502  0.38527105995E+02 -0.74655198449E+02 -0.27420255532E+03  0.28682201432E+03  0.47000000000E+01 0.  1.
<mgrwt>
<rscale>  0 0.99989936E+03</rscale>
<asrwt>0</asrwt>
<pdfrwt beam="1">  1        1 0.53599207E+00 0.99989936E+03</pdfrwt>
<pdfrwt beam="2">  1       -1 0.11037418E-01 0.99989936E+03</pdfrwt>
<totfact> 0.14432328E+01</totfact>
</mgrwt>
</event>
<event>
 9    1  0.4412976E-036  0.9999210E+03  0.7818608E-02  0.8681113E-01
         -2   -1    0    0    0  501 -0.00000000000E+00  0.00000000000E+00  0.41512739139E+03  0.41512739139E+03  0.00000000000E+00 0.  1.
          2   -1    0    0  501    0  0.00000000000E+00 -0.00000000000E+00 -0.60212960026E+03  0.60212960026E+03  0.00000000000E+00 0.  1.
         36    2    1    2    0    0 -0.28421709430E-13  0.28421709430E-13 -0.18700220886E+03  0.10172569917E+04  0.99992097735E+03 0.  0.
         25    2    3    3    0    0  0.21820214815E+02  0.11234689262E+03 -0.11115695544E+03  0.20252450848E+03  0.12474919532E+03 0.  0.
         35    2    3    3    0    0 -0.21820214815E+02 -0.11234689262E+03 -0.75845253422E+02  0.81473248318E+03  0.80308067504E+03 0.  0.
         22    1    5    5    0    0  0.26774309056E+03 -0.88326392519E+02 -0.32622825089E+03  0.43117604970E+03  0.00000000000E+00 0.  1.
         22    1    5    5    0    0 -0.28956330537E+03 -0.24020500104E+02  0.25038299746E+03  0.38355643348E+03  0.00000000000E+00 0.  1.
          5    1    4    4  502    0  0.68304485823E+02  0.48621167507E+02 -0.29785620806E+02  0.89099909765E+02  0.47000000000E+01 0. -1.
         -5    1    4    4    0  502 -0.46484271008E+02  0.63725725116E+02 -0.81371334633E+02  0.11342459871E+03  0.47000000000E+01 0. -1.
<mgrwt>
<rscale>  0 0.99992098E+03</rscale>
<asrwt>0</asrwt>
<pdfrwt beam="1">  1        2 0.92635323E-01 0.99992098E+03</pdfrwt>
<pdfrwt beam="2">  1       -2 0.63865753E-01 0.99992098E+03</pdfrwt>
<totfact> 0.13547343E+02</totfact>
</mgrwt>
</event>
<event>
 9    1  0.4412976E-036  0.9994068E+03  0.7818608E-02  0.8681603E-01
         -2   -1    0    0    0  501 -0.00000000000E+00  0.00000000000E+00  0.28770399195E+03  0.28770399195E+03  0.00000000000E+00 0. -1.
          2   -1    0    0  501    0  0.00000000000E+00 -0.00000000000E+00 -0.86791802162E+03  0.86791802162E+03  0.00000000000E+00 0. -1.
         36    2    1    2    0    0  0.00000000000E+00  0.14210854715E-13 -0.58021402967E+03  0.11556220136E+04  0.99940678305E+03 0.  0.
         25    2    3    3    0    0 -0.48926408287E+01  0.47219424096E+01  0.51870447366E+02  0.13638263275E+03  0.12595016686E+03 0.  0.
         35    2    3    3    0    0  0.48926408287E+01 -0.47219424096E+01 -0.63208447704E+03  0.10192393808E+04  0.79954480463E+03 0.  0.
         22    1    5    5    0    0 -0.22122785670E+02 -0.21590254824E+03 -0.74659185901E+03  0.77749773757E+03  0.00000000000E+00 0.  1.
         22    1    5    5    0    0  0.27015426499E+02  0.21118060583E+03  0.11450738197E+03  0.24174164324E+03  0.00000000000E+00 0.  1.
          5    1    4    4  502    0  0.23136690837E+02  0.54101584302E+02  0.53096100901E+02  0.79395049076E+02  0.47000000000E+01 0. -1.
         -5    1    4    4    0  502 -0.28029331665E+02 -0.49379641892E+02 -0.12256535349E+01  0.56987583679E+02  0.47000000000E+01 0. -1.
<mgrwt>
<rscale>  0 0.99940678E+03</rscale>
<asrwt>0</asrwt>
<pdfrwt beam="1">  1        2 0.13352585E+00 0.99940678E+03</pdfrwt>
<pdfrwt beam="2">  1       -2 0.44262154E-01 0.99940678E+03</pdfrwt>
<totfact> 0.18063683E+02</totfact>
</mgrwt>
</event>
<event>
 9    1  0.4412976E-036  0.1007928E+04  0.7818608E-02  0.8673525E-01
         -2   -1    0    0    0  501 -0.00000000000E+00  0.00000000000E+00  0.10228489788E+03  0.10228489788E+03  0.00000000000E+00 0.  1.
          2   -1    0    0  501    0  0.00000000000E+00 -0.00000000000E+00 -0.24830611140E+04  0.24830611140E+04  0.00000000000E+00 0.  1.
         36    2    1    2    0    0  0.00000000000E+00  0.42632564146E-13 -0.23807762161E+04  0.25853460119E+04  0.10079278793E+04 0.  0.
         25    2    3    3    0    0 -0.13418357508E+03 -0.38621451529E+02 -0.32061782368E+03  0.37107986511E+03  0.12412747113E+03 0.  0.
         35    2    3    3    0    0  0.13418357508E+03  0.38621451529E+02 -0.20601583924E+04  0.22142661468E+04  0.79951555237E+03 0.  0.
         22    1    5    5    0    0 -0.13420908963E+03  0.36506300102E+03 -0.10003853757E+04  0.10733377727E+04  0.00000000000E+00 0. -1.
         22    1    5    5    0    0  0.26839266471E+03 -0.32644154949E+03 -0.10597730167E+04  0.11409283740E+04  0.00000000000E+00 0. -1.
          5    1    4    4  502    0 -0.36014314167E+02  0.42319827357E+02 -0.66028444666E+02  0.86428259947E+02  0.47000000000E+01 0.  1.
         -5    1    4    4    0  502 -0.98169260913E+02 -0.80941278885E+02 -0.25458937901E+03  0.28465160516E+03  0.47000000000E+01 0.  1.
<mgrwt>
<rscale>  0 0.10079279E+04</rscale>
<asrwt>0</asrwt>
<pdfrwt beam="1">  1        2 0.38200938E+00 0.10079279E+04</pdfrwt>
<pdfrwt beam="2">  1       -2 0.15736139E-01 0.10079279E+04</pdfrwt>
<totfact> 0.13154510E+02</totfact>
</mgrwt>
</event>
<event>
 9    1  0.4412976E-036  0.9999221E+03  0.7818608E-02  0.8681112E-01
         -2   -1    0    0    0  501 -0.00000000000E+00  0.00000000000E+00  0.19629453175E+03  0.19629453175E+03  0.00000000000E+00 0.  1.
          2   -1    0    0  501    0  0.00000000000E+00 -0.00000000000E+00 -0.12733978320E+04  0.12733978320E+04  0.00000000000E+00 0.  1.
         36    2    1    2    0    0  0.00000000000E+00  0.00000000000E+00 -0.10771033003E+04  0.14696923638E+04  0.99992205930E+03 0.  0.
         25    2    3    3    0    0  0.14164606677E+03  0.24850332416E+02 -0.23045853021E+03  0.29723665534E+03  0.12065383491E+03 0.  0.
         35    2    3    3    0    0 -0.14164606677E+03 -0.24850332416E+02 -0.84664477007E+03  0.11724557084E+04  0.79822545331E+03 0.  0.
         22    1    5    5    0    0 -0.15760110754E+03 -0.11942842523E+03  0.99568472960E+02  0.22139362831E+03  0.00000000000E+00 0.  1.
         22    1    5    5    0    0  0.15955040767E+02  0.94578092814E+02 -0.94621324303E+03  0.95106208013E+03  0.00000000000E+00 0.  1.
          5    1    4    4  502    0  0.10453535419E+02 -0.27613624652E+02 -0.10174820741E+03  0.10604987685E+03  0.47000000000E+01 0. -1.
         -5    1    4    4    0  502  0.13119253135E+03  0.52463957067E+02 -0.12871032279E+03  0.19118677849E+03  0.47000000000E+01 0. -1.
<mgrwt>
<rscale>  0 0.99992206E+03</rscale>
<asrwt>0</asrwt>
<pdfrwt beam="1">  1        2 0.19590736E+00 0.99992206E+03</pdfrwt>
<pdfrwt beam="2">  1       -2 0.30199159E-01 0.99992206E+03</pdfrwt>
<totfact> 0.20864315E+02</totfact>
</mgrwt>
</event>
<event>
 9    1  0.4412976E-036  0.1000119E+04  0.7818608E-02  0.8680924E-01
          1   -1    0    0  501    0  0.00000000000E+00  0.00000000000E+00  0.30044454818E+04  0.30044454818E+04  0.00000000000E+00 0. -1.
         -1   -1    0    0    0  501 -0.00000000000E+00 -0.00000000000E+00 -0.83229868975E+02  0.83229868975E+02  0.00000000000E+00 0. -1.
         36    2    1    2    0    0  0.14210854715E-13  0.14210854715E-13  0.29212156129E+04  0.30876753508E+04  0.10001192005E+04 0.  0.
         25    2    3    3    0    0 -0.36060087494E+02  0.79960627635E+02  0.89044976231E+03  0.90344319016E+03  0.12495914041E+03 0.  0.
         35    2    3    3    0    0  0.36060087494E+02 -0.79960627635E+02  0.20307658505E+04  0.21842321606E+04  0.79947868012E+03 0.  0.
         22    1    5    5    0    0 -0.26835118113E+03  0.13415592677E+03  0.34200662782E+03  0.45494912086E+03  0.00000000000E+00 0. -1.
         22    1    5    5    0    0  0.30441126862E+03 -0.21411655440E+03  0.16887592227E+04  0.17292830398E+04  0.00000000000E+00 0. -1.
          5    1    4    4  502    0 -0.35976582859E+02  0.34211151640E+02  0.80379464663E+03  0.80534007808E+03  0.47000000000E+01 0.  1.
         -5    1    4    4    0  502 -0.83504634958E-01  0.45749475995E+02  0.86655115678E+02  0.98103112081E+02  0.47000000000E+01 0.  1.
<mgrwt>
<rscale>  0 0.10001192E+04</rscale>
<asrwt>0</asrwt>
<pdfrwt beam="1">  1        1 0.46222230E+00 0.10001192E+04</pdfrwt>
<pdfrwt beam="2">  1       -1 0.12804598E-01 0.10001192E+04</pdfrwt>
<totfact> 0.25635023E+01</totfact>
</mgrwt>
</event>
<event>
 9    1  0.4412976E-036  0.9985121E+03  0.7818608E-02  0.8682456E-01
          1   -1    0    0  501    0  0.00000000000E+00  0.00000000000E+00  0.58050248804E+03  0.58050248804E+03  0.00000000000E+00 0.  1.
         -1   -1    0    0    0  501 -0.00000000000E+00 -0.00000000000E+00 -0.42938073079E+03  0.42938073079E+03  0.00000000000E+00 0.  1.
         36    2    1    2    0    0  0.53290705182E-14  0.00000000000E+00  0.15112175725E+03  0.10098832188E+04  0.99851205809E+03 0.  0.
         25    2    3    3    0    0  0.10067405749E+02 -0.12518874673E+03  0.88270595632E+02  0.19796678797E+03  0.12500230446E+03 0.  0.
         35    2    3    3    0    0 -0.10067405749E+02  0.12518874673E+03  0.62851161622E+02  0.81191643085E+03  0.79967771458E+03 0.  0.
         22    1    5    5    0    0 -0.32590509109E+03  0.49063639537E+02  0.27047713119E+03  0.42635577587E+03  0.00000000000E+00 0.  1.
         22    1    5    5    0    0  0.31583768535E+03  0.76125107195E+02 -0.20762596956E+03  0.38556065498E+03  0.00000000000E+00 0.  1.
          5    1    4    4  502    0 -0.38140119195E+01 -0.12425727923E+03  0.17429527521E+02  0.12561965037E+03  0.47000000000E+01 0.  1.
         -5    1    4    4    0  502  0.13881417668E+02 -0.93146749760E+00  0.70841068111E+02  0.72347137602E+02  0.47000000000E+01 0.  1.
<mgrwt>
<rscale>  0 0.99851206E+03</rscale>
<asrwt>0</asrwt>
<pdfrwt beam="1">  1        1 0.89308075E-01 0.99851206E+03</pdfrwt>
<pdfrwt beam="2">  1       -1 0.66058574E-01 0.99851206E+03</pdfrwt>
<totfact> 0.97344857E+01</totfact>
</mgrwt>
</event>
<event>
 9    1  0.4412976E-036  0.9998571E+03  0.7818608E-02  0.8681174E-01
         -1   -1    0    0    0  501 -0.00000000000E+00  0.00000000000E+00  0.16747724647E+03  0.16747724647E+03  0.00000000000E+00 0.  1.
          1   -1    0    0  501    0  0.00000000000E+00 -0.00000000000E+00 -0.14923135494E+04  0.14923135494E+04  0.00000000000E+00 0.  1.
         36    2    1    2    0    0  0.71054273576E-14 -0.28421709430E-13 -0.13248363029E+04  0.16597907959E+04  0.99985711806E+03 0.  0.
         25    2    3    3    0    0 -0.47438943556E+02 -0.13012123944E+03 -0.20809874711E+03  0.27929826157E+03  0.12458105813E+03 0.  0.
         35    2    3    3    0    0  0.47438943556E+02  0.13012123944E+03 -0.11167375558E+04  0.13804925343E+04  0.79967173166E+03 0.  0.
         22    1    5    5    0    0 -0.48099515384E+02 -0.23761268460E+03 -0.92241358707E+03  0.95374009923E+03  0.00000000000E+00 0. -1.
         22    1    5    5    0    0  0.95538458940E+02  0.36773392404E+03 -0.19432396876E+03  0.42675243510E+03  0.00000000000E+00 0. -1.
          5    1    4    4  502    0  0.33560614042E+02 -0.81153521104E+02 -0.12751589521E+03  0.15490191198E+03  0.47000000000E+01 0. -1.
         -5    1    4    4    0  502 -0.80999557598E+02 -0.48967718338E+02 -0.80582851901E+02  0.12439634959E+03  0.47000000000E+01 0. -1.
<mgrwt>
<rscale>  0 0.99985712E+03</rscale>
<asrwt>0</asrwt>
<pdfrwt beam="1">  1        1 0.22958670E+00 0.99985712E+03</pdfrwt>
<pdfrwt beam="2">  1       -1 0.25765731E-01 0.99985712E+03</pdfrwt>
<totfact> 0.95134459E+01</totfact>
</mgrwt>
</event>
<event>
 9    1  0.4412976E-036  0.1001037E+04  0.7818608E-02  0.8680051E-01
         -1   -1    0    0    0  501 -0.00000000000E+00  0.00000000000E+00  0.14647670183E+04  0.14647670183E+04  0.00000000000E+00 0.  1.
          1   -1    0    0  501    0  0.00000000000E+00 -0.00000000000E+00 -0.17102973198E+03  0.17102973198E+03  0.00000000000E+00 0.  1.
         36    2    1    2    0    0  0.00000000000E+00 -0.14210854715E-13  0.12937372863E+04  0.16357967503E+04  0.10010368835E+04 0.  0.
         25    2    3    3    0    0  0.62321012934E+02 -0.12453056874E+03  0.19595896100E+03  0.27050218910E+03  0.12401511483E+03 0.  0.
         35    2    3    3    0    0 -0.62321012934E+02  0.12453056874E+03  0.10977783253E+04  0.13652945612E+04  0.79970007880E+03 0.  0.
         22    1    5    5    0    0 -0.32424548466E+03 -0.18537822172E+03  0.33695322634E+03  0.50302852420E+03  0.00000000000E+00 0.  1.
         22    1    5    5    0    0  0.26192447173E+03  0.30990879046E+03  0.76082509900E+03  0.86226603700E+03  0.00000000000E+00 0.  1.
          5    1    4    4  502    0  0.87820673376E+02 -0.79990498390E+02  0.18151093976E+03  0.21697756049E+03  0.47000000000E+01 0.  1.
         -5    1    4    4    0  502 -0.25499660443E+02 -0.44540070347E+02  0.14448021239E+02  0.53524628602E+02  0.47000000000E+01 0.  1.
<mgrwt>
<rscale>  0 0.10010369E+04</rscale>
<asrwt>0</asrwt>
<pdfrwt beam="1">  1        1 0.26312267E-01 0.10010369E+04</pdfrwt>
<pdfrwt beam="2">  1       -1 0.22534876E+00 0.10010369E+04</pdfrwt>
<totfact> 0.17169664E+01</totfact>
</mgrwt>
</event>
<event>
 9    1  0.4412976E-036  0.9999057E+03  0.7818608E-02  0.8681128E-01
         -1   -1    0    0    0  501 -0.00000000000E+00  0.00000000000E+00  0.55448134539E+03  0.55448134539E+03  0.00000000000E+00 0.  1.
          1   -1    0    0  501    0  0.00000000000E+00 -0.00000000000E+00 -0.45078677010E+03  0.45078677010E+03  0.00000000000E+00 0.  1.
         36    2    1    2    0    0  0.14210854715E-13  0.00000000000E+00  0.10369457529E+03  0.10052681155E+04  0.99990570509E+03 0.  0.
         25    2    3    3    0    0  0.88739912529E+02 -0.94205717591E+02 -0.34189319434E+02  0.18363092903E+03  0.12570568496E+03 0.  0.
         35    2    3    3    0    0 -0.88739912529E+02  0.94205717591E+02  0.13788389472E+03  0.82163718646E+03  0.79957876938E+03 0.  0.
         22    1    5    5    0    0 -0.44616321230E+03  0.67550422122E+02  0.88333161592E+02  0.45981237367E+03  0.00000000000E+00 0.  1.
         22    1    5    5    0    0  0.35742329977E+03  0.26655295469E+02  0.49550733132E+02  0.36182481279E+03  0.00000000000E+00 0.  1.
          5    1    4    4  502    0  0.10281847784E+02  0.31549229739E+00 -0.57420917516E+02  0.58524077931E+02  0.47000000000E+01 0.  1.
         -5    1    4    4    0  502  0.78458064745E+02 -0.94521209888E+02  0.23231598082E+02  0.12510685110E+03  0.47000000000E+01 0.  1.
<mgrwt>
<rscale>  0 0.99990571E+03</rscale>
<asrwt>0</asrwt>
<pdfrwt beam="1">  1        1 0.69351811E-01 0.99990571E+03</pdfrwt>
<pdfrwt beam="2">  1       -1 0.85304822E-01 0.99990571E+03</pdfrwt>
<totfact> 0.82329183E+01</totfact>
</mgrwt>
</event>
<event>
 9    1  0.4412976E-036  0.1000213E+04  0.7818608E-02  0.8680835E-01
         -2   -1    0    0    0  501 -0.00000000000E+00  0.00000000000E+00  0.26272825499E+03  0.26272825499E+03  0.00000000000E+00 0. -1.
          2   -1    0    0  501    0  0.00000000000E+00 -0.00000000000E+00 -0.95195897502E+03  0.95195897502E+03  0.00000000000E+00 0. -1.
         36    2    1    2    0    0 -0.14210854715E-13  0.14210854715E-13 -0.68923072004E+03  0.12146872300E+04  0.10002130180E+04 0.  0.
         25    2    3    3    0    0  0.12262311506E+03  0.49260025784E+02 -0.75986040674E+02  0.19807510147E+03  0.12647880834E+03 0.  0.
         35    2    3    3    0    0 -0.12262311506E+03 -0.49260025784E+02 -0.61324467936E+03  0.10166121285E+04  0.79998012765E+03 0.  0.
         22    1    5    5    0    0 -0.17159289091E+03  0.25195195753E+03 -0.64139594153E+03  0.71014974683E+03  0.00000000000E+00 0.  1.
         22    1    5    5    0    0  0.48969775850E+02 -0.30121198331E+03  0.28151262170E+02  0.30646238170E+03  0.00000000000E+00 0.  1.
          5    1    4    4  502    0  0.35330165040E+02 -0.38107032463E+02  0.15041614334E+01  0.52198840854E+02  0.47000000000E+01 0.  1.
         -5    1    4    4    0  502  0.87292950018E+02  0.87367058247E+02 -0.77490202107E+02  0.14587626062E+03  0.47000000000E+01 0.  1.
<mgrwt>
<rscale>  0 0.10002130E+04</rscale>
<asrwt>0</asrwt>
<pdfrwt beam="1">  1        2 0.14645523E+00 0.10002130E+04</pdfrwt>
<pdfrwt beam="2">  1       -2 0.40419732E-01 0.10002130E+04</pdfrwt>
<totfact> 0.18967451E+02</totfact>
</mgrwt>
</event>
<event>
 9    1  0.4412976E-036  0.9999008E+03  0.7818608E-02  0.8681132E-01
         -2   -1    0    0    0  501 -0.00000000000E+00  0.00000000000E+00  0.16509967337E+03  0.16509967337E+03  0.00000000000E+00 0. -1.
          2   -1    0    0  501    0  0.00000000000E+00 -0.00000000000E+00 -0.15139364111E+04  0.15139364111E+04  0.00000000000E+00 0. -1.
         36    2    1    2    0    0  0.00000000000E+00 -0.28421709430E-13 -0.13488367378E+04  0.16790360845E+04  0.99990080904E+03 0.  0.
         25    2    3    3    0    0 -0.31330128372E+02 -0.45810181218E+02 -0.38384053783E+02  0.14255420552E+03  0.12557155840E+03 0.  0.
         35    2    3    3    0    0  0.31330128372E+02  0.45810181218E+02 -0.13104526840E+04  0.15364818790E+04  0.80025632010E+03 0.  0.
         22    1    5    5    0    0 -0.56145716992E+01 -0.24126411216E+03 -0.12042155337E+04  0.12281591700E+04  0.00000000000E+00 0. -1.
         22    1    5    5    0    0  0.36944700071E+02  0.28707429337E+03 -0.10623715027E+03  0.30832270899E+03  0.00000000000E+00 0. -1.
          5    1    4    4  502    0  0.44114089346E+00 -0.19560587992E+02 -0.80776037718E+02  0.83244636328E+02  0.47000000000E+01 0.  1.
         -5    1    4    4    0  502 -0.31771269265E+02 -0.26249593226E+02  0.42391983935E+02  0.59309569187E+02  0.47000000000E+01 0.  1.
<mgrwt>
<rscale>  0 0.99990081E+03</rscale>
<asrwt>0</asrwt>
<pdfrwt beam="1">  1        2 0.23291329E+00 0.99990081E+03</pdfrwt>
<pdfrwt beam="2">  1       -2 0.25399950E-01 0.99990081E+03</pdfrwt>
<totfact> 0.20749755E+02</totfact>
</mgrwt>
</event>
<event>
 9    1  0.4412976E-036  0.9988011E+03  0.7818608E-02  0.8682180E-01
          2   -1    0    0  501    0  0.00000000000E+00  0.00000000000E+00  0.75576825930E+03  0.75576825930E+03  0.00000000000E+00 0. -1.
         -2   -1    0    0    0  501 -0.00000000000E+00 -0.00000000000E+00 -0.32999654248E+03  0.32999654248E+03  0.00000000000E+00 0. -1.
         36    2    1    2    0    0 -0.14210854715E-13 -0.71054273576E-14  0.42577171682E+03  0.10857648018E+04  0.99880110630E+03 0.  0.
         25    2    3    3    0    0  0.11019517236E+03 -0.34262837820E+02 -0.52506203948E+01  0.17019192112E+03  0.12498321060E+03 0.  0.
         35    2    3    3    0    0 -0.11019517236E+03  0.34262837820E+02  0.43102233721E+03  0.91557288066E+03  0.79948516344E+03 0.  0.
         22    1    5    5    0    0 -0.22459055619E+03 -0.29176771406E+03  0.65534144947E+01  0.36825570483E+03  0.00000000000E+00 0. -1.
         22    1    5    5    0    0  0.11439538383E+03  0.32603055188E+03  0.42446892272E+03  0.54731717583E+03  0.00000000000E+00 0. -1.
          5    1    4    4  502    0  0.44941924563E+01  0.10056377411E+01 -0.49698696147E+02  0.50132419369E+02  0.47000000000E+01 0.  1.
         -5    1    4    4    0  502  0.10570097991E+03 -0.35268475561E+02  0.44448075752E+02  0.12005950175E+03  0.47000000000E+01 0.  1.
<mgrwt>
<rscale>  0 0.99880111E+03</rscale>
<asrwt>0</asrwt>
<pdfrwt beam="1">  1        2 0.11627204E+00 0.99880111E+03</pdfrwt>
<pdfrwt beam="2">  1       -2 0.50768699E-01 0.99880111E+03</pdfrwt>
<totfact> 0.16482522E+02</totfact>
</mgrwt>
</event>
<event>
 9    1  0.4412976E-036  0.1000011E+04  0.7818608E-02  0.8681028E-01
          1   -1    0    0  501    0  0.00000000000E+00  0.00000000000E+00  0.52010730014E+03  0.52010730014E+03  0.00000000000E+00 0.  1.
         -1   -1    0    0    0  501 -0.00000000000E+00 -0.00000000000E+00 -0.48068014503E+03  0.48068014503E+03  0.00000000000E+00 0.  1.
         36    2    1    2    0    0 -0.28421709430E-13  0.56843418861E-13  0.39427155113E+02  0.10007874452E+04  0.10000105049E+04 0.  0.
         25    2    3    3    0    0 -0.10793595178E+03  0.75999549333E+02 -0.34151062173E+02  0.18523292001E+03  0.12537479182E+03 0.  0.
         35    2    3    3    0    0  0.10793595178E+03 -0.75999549333E+02  0.73578217286E+02  0.81555452516E+03  0.80142955290E+03 0.  0.
         22    1    5    5    0    0  0.66970789906E+02 -0.42893279251E+03  0.13573847915E+03  0.45485531976E+03  0.00000000000E+00 0.  1.
         22    1    5    5    0    0  0.40965161874E+02  0.35293324317E+03 -0.62160261867E+02  0.36069920540E+03  0.00000000000E+00 0.  1.
          5    1    4    4  502    0 -0.48053637475E+02 -0.31449145650E+02 -0.52454096239E+00  0.57624352317E+02  0.47000000000E+01 0. -1.
         -5    1    4    4    0  502 -0.59882314305E+02  0.10744869498E+03 -0.33626521210E+02  0.12760856769E+03  0.47000000000E+01 0. -1.
<mgrwt>
<rscale>  0 0.10000105E+04</rscale>
<asrwt>0</asrwt>
<pdfrwt beam="1">  1        1 0.80016507E-01 0.10000105E+04</pdfrwt>
<pdfrwt beam="2">  1       -1 0.73950792E-01 0.10000105E+04</pdfrwt>
<totfact> 0.90946793E+01</totfact>
</mgrwt>
</event>
<event>
 9    1  0.4412976E-036  0.1000288E+04  0.7818608E-02  0.8680764E-01
          2   -1    0    0  501    0  0.00000000000E+00  0.00000000000E+00  0.19661595120E+04  0.19661595120E+04  0.00000000000E+00 0. -1.
         -2   -1    0    0    0  501 -0.00000000000E+00 -0.00000000000E+00 -0.12722469453E+03  0.12722469453E+03  0.00000000000E+00 0. -1.
         36    2    1    2    0    0  0.28421709430E-13  0.00000000000E+00  0.18389348175E+04  0.20933842066E+04  0.10002880452E+04 0.  0.
         25    2    3    3    0    0 -0.13885318472E+03 -0.15506168344E+02  0.31399918652E+03  0.36563137985E+03  0.12478048178E+03 0.  0.
         35    2    3    3    0    0  0.13885318472E+03  0.15506168344E+02  0.15249356310E+04  0.17277528267E+04  0.80011280669E+03 0.  0.
         22    1    5    5    0    0 -0.32756745461E+03  0.34308144772E+02  0.80447955914E+03  0.86928985223E+03  0.00000000000E+00 0.  1.
         22    1    5    5    0    0  0.46642063933E+03 -0.18801976428E+02  0.72045607184E+03  0.85846297448E+03  0.00000000000E+00 0.  1.
          5    1    4    4  502    0  0.19596830422E+02  0.78268438906E+01  0.14703754289E+02  0.26145470699E+02  0.47000000000E+01 0. -1.
         -5    1    4    4    0  502 -0.15845001514E+03 -0.23333012235E+02  0.29929543223E+03  0.33948590915E+03  0.47000000000E+01 0. -1.
<mgrwt>
<rscale>  0 0.10002880E+04</rscale>
<asrwt>0</asrwt>
<pdfrwt beam="1">  1        2 0.30248606E+00 0.10002880E+04</pdfrwt>
<pdfrwt beam="2">  1       -2 0.19573031E-01 0.10002880E+04</pdfrwt>
<totfact> 0.18188933E+02</totfact>
</mgrwt>
</event>
<event>
 9    1  0.4412976E-036  0.1000255E+04  0.7818608E-02  0.8680795E-01
          2   -1    0    0  501    0  0.00000000000E+00  0.00000000000E+00  0.26548798239E+04  0.26548798239E+04  0.00000000000E+00 0. -1.
         -2   -1    0    0    0  501 -0.00000000000E+00 -0.00000000000E+00 -0.94214325142E+02  0.94214325142E+02  0.00000000000E+00 0. -1.
         36    2    1    2    0    0  0.71054273576E-14  0.00000000000E+00  0.25606654988E+04  0.27490941490E+04  0.10002553893E+04 0.  0.
         25    2    3    3    0    0 -0.23812577772E+02 -0.99812239555E+02  0.74430263067E+03  0.76181946691E+03  0.12590858637E+03 0.  0.
         35    2    3    3    0    0  0.23812577772E+02  0.99812239555E+02  0.18163628681E+04  0.19872746821E+04  0.79972312186E+03 0.  0.
         22    1    5    5    0    0  0.35622097132E+03  0.17457094950E+03  0.56499711232E+03  0.69035507802E+03  0.00000000000E+00 0. -1.
         22    1    5    5    0    0 -0.33240839355E+03 -0.74758709945E+02  0.12513657558E+04  0.12969196041E+04  0.00000000000E+00 0. -1.
          5    1    4    4  502    0 -0.93253995926E+01  0.23905360694E+02  0.27534542170E+03  0.27657841673E+03  0.47000000000E+01 0. -1.
         -5    1    4    4    0  502 -0.14487178179E+02 -0.12371760025E+03  0.46895720897E+03  0.48524105019E+03  0.47000000000E+01 0. -1.
<mgrwt>
<rscale>  0 0.10002554E+04</rscale>
<asrwt>0</asrwt>
<pdfrwt beam="1">  1        2 0.40844299E+00 0.10002554E+04</pdfrwt>
<pdfrwt beam="2">  1       -2 0.14494514E-01 0.10002554E+04</pdfrwt>
<totfact> 0.11836187E+02</totfact>
</mgrwt>
</event>
<event>
 9    1  0.4412976E-036  0.9996815E+03  0.7818608E-02  0.8681341E-01
         -2   -1    0    0    0  501 -0.00000000000E+00  0.00000000000E+00  0.16496495321E+03  0.16496495321E+03  0.00000000000E+00 0.  1.
          2   -1    0    0  501    0  0.00000000000E+00 -0.00000000000E+00 -0.15145080697E+04  0.15145080697E+04  0.00000000000E+00 0.  1.
         36    2    1    2    0    0  0.23092638912E-13 -0.28421709430E-13 -0.13495431165E+04  0.16794730229E+04  0.99968145497E+03 0.  0.
         25    2    3    3    0    0  0.21997703752E+01  0.14097123133E+03 -0.24543031256E+03  0.30928063189E+03  0.12466251998E+03 0.  0.
         35    2    3    3    0    0 -0.21997703752E+01 -0.14097123133E+03 -0.11041128039E+04  0.13701923910E+04  0.79905217448E+03 0.  0.
         22    1    5    5    0    0  0.28319893213E+03 -0.32800035385E+03 -0.40914218476E+03  0.59597247809E+03  0.00000000000E+00 0. -1.
         22    1    5    5    0    0 -0.28539870251E+03  0.18702912252E+03 -0.69497061915E+03  0.77421991291E+03  0.00000000000E+00 0. -1.
          5    1    4    4  502    0  0.14904693326E+02  0.16202272470E+03 -0.21912300260E+03  0.27296610316E+03  0.47000000000E+01 0. -1.
         -5    1    4    4    0  502 -0.12704922950E+02 -0.21051493368E+02 -0.26307309960E+02  0.36314528739E+02  0.47000000000E+01 0. -1.
<mgrwt>
<rscale>  0 0.99968145E+03</rscale>
<asrwt>0</asrwt>
<pdfrwt beam="1">  1        2 0.23300124E+00 0.99968145E+03</pdfrwt>
<pdfrwt beam="2">  1       -2 0.25379224E-01 0.99968145E+03</pdfrwt>
<totfact> 0.20764434E+02</totfact>
</mgrwt>
</event>
<event>
 9    1  0.4412976E-036  0.1000695E+04  0.7818608E-02  0.8680377E-01
          2   -1    0    0  501    0  0.00000000000E+00  0.00000000000E+00  0.46119730186E+03  0.46119730186E+03  0.00000000000E+00 0. -1.
         -2   -1    0    0    0  501 -0.00000000000E+00 -0.00000000000E+00 -0.54282072512E+03  0.54282072512E+03  0.00000000000E+00 0. -1.
         36    2    1    2    0    0  0.00000000000E+00  0.00000000000E+00 -0.81623423258E+02  0.10040180270E+04  0.10006946664E+04 0.  0.
         25    2    3    3    0    0 -0.25167434110E+02 -0.94672580507E+02  0.76929203756E+02  0.18261412440E+03  0.13354219858E+03 0.  0.
         35    2    3    3    0    0  0.25167434110E+02  0.94672580507E+02 -0.15855262701E+03  0.82140390257E+03  0.79998071126E+03 0.  0.
         22    1    5    5    0    0  0.22436232483E+03  0.15452760534E+03 -0.41175888069E+03  0.49372321137E+03  0.00000000000E+00 0. -1.
         22    1    5    5    0    0 -0.19919489072E+03 -0.59855024837E+02  0.25320625368E+03  0.32768069120E+03  0.00000000000E+00 0. -1.
          5    1    4    4  502    0 -0.65449994685E+02 -0.84828104389E+02  0.15515087288E+02  0.10836197226E+03  0.47000000000E+01 0. -1.
         -5    1    4    4    0  502  0.40282560575E+02 -0.98444761178E+01  0.61414116467E+02  0.74252152143E+02  0.47000000000E+01 0. -1.
<mgrwt>
<rscale>  0 0.10006947E+04</rscale>
<asrwt>0</asrwt>
<pdfrwt beam="1">  1        2 0.70953431E-01 0.10006947E+04</pdfrwt>
<pdfrwt beam="2">  1       -2 0.83510881E-01 0.10006947E+04</pdfrwt>
<totfact> 0.10185464E+02</totfact>
</mgrwt>
</event>
<event>
 9    1  0.4412976E-036  0.1000455E+04  0.7818608E-02  0.8680605E-01
          1   -1    0    0  501    0  0.00000000000E+00  0.00000000000E+00  0.87326084813E+03  0.87326084813E+03  0.00000000000E+00 0.  1.
         -1   -1    0    0    0  501 -0.00000000000E+00 -0.00000000000E+00 -0.28654388208E+03  0.28654388208E+03  0.00000000000E+00 0.  1.
         36    2    1    2    0    0  0.14210854715E-13 -0.14210854715E-13  0.58671696605E+03  0.11598047302E+04  0.10004550035E+04 0.  0.
         25    2    3    3    0    0  0.11023679616E+03  0.68548471505E+02  0.59729471429E+02  0.19298683496E+03  0.12971223743E+03 0.  0.
         35    2    3    3    0    0 -0.11023679616E+03 -0.68548471505E+02  0.52698749462E+03  0.96681789524E+03  0.80010622975E+03 0.  0.
         22    1    5    5    0    0 -0.22647285228E+03 -0.31357451990E+03  0.57340731311E+03  0.69167541454E+03  0.00000000000E+00 0. -1.
         22    1    5    5    0    0  0.11623605612E+03  0.24502604840E+03 -0.46419818490E+02  0.27514248070E+03  0.00000000000E+00 0. -1.
          5    1    4    4  502    0  0.79420049049E+02 -0.19673465898E+02  0.56160533753E+02  0.99351321092E+02  0.47000000000E+01 0. -1.
         -5    1    4    4    0  502  0.30816747113E+02  0.88221937403E+02  0.35689376755E+01  0.93635513871E+02  0.47000000000E+01 0. -1.
<mgrwt>
<rscale>  0 0.10004550E+04</rscale>
<asrwt>0</asrwt>
<pdfrwt beam="1">  1        1 0.13434782E+00 0.10004550E+04</pdfrwt>
<pdfrwt beam="2">  1       -1 0.44083674E-01 0.10004550E+04</pdfrwt>
<totfact> 0.11022882E+02</totfact>
</mgrwt>
</event>
<event>
 9    1  0.4412976E-036  0.1000827E+04  0.7818608E-02  0.8680250E-01
         -2   -1    0    0    0  501 -0.00000000000E+00  0.00000000000E+00  0.66926568547E+03  0.66926568547E+03  0.00000000000E+00 0. -1.
          2   -1    0    0  501    0  0.00000000000E+00 -0.00000000000E+00 -0.37416214517E+03  0.37416214517E+03  0.00000000000E+00 0. -1.
         36    2    1    2    0    0  0.14210854715E-13  0.00000000000E+00  0.29510354031E+03  0.10434278306E+04  0.10008274268E+04 0.  0.
         25    2    3    3    0    0  0.11161388311E+03  0.83573498363E+02  0.60661285598E+02  0.19684381150E+03  0.12500202409E+03 0.  0.
         35    2    3    3    0    0 -0.11161388311E+03 -0.83573498363E+02  0.23444225471E+03  0.84658401913E+03  0.80143567560E+03 0.  0.
         22    1    5    5    0    0  0.26847984971E+03 -0.12524361822E+03 -0.12522846821E+03  0.32163576116E+03  0.00000000000E+00 0. -1.
         22    1    5    5    0    0 -0.38009373282E+03  0.41670119857E+02  0.35967072292E+03  0.52494825797E+03  0.00000000000E+00 0. -1.
          5    1    4    4  502    0  0.68447114513E+02  0.18968147209E+02  0.89035456217E+02  0.11399210743E+03  0.47000000000E+01 0. -1.
         -5    1    4    4    0  502  0.43166768597E+02  0.64605351154E+02 -0.28374170619E+02  0.82851704069E+02  0.47000000000E+01 0. -1.
<mgrwt>
<rscale>  0 0.10008274E+04</rscale>
<asrwt>0</asrwt>
<pdfrwt beam="1">  1        2 0.57563407E-01 0.10008274E+04</pdfrwt>
<pdfrwt beam="2">  1       -2 0.10296395E+00 0.10008274E+04</pdfrwt>
<totfact> 0.78291368E+01</totfact>
</mgrwt>
</event>
<event>
 9    1  0.4412976E-036  0.1000147E+04  0.7818608E-02  0.8680898E-01
         -1   -1    0    0    0  501 -0.00000000000E+00  0.00000000000E+00  0.23492522785E+03  0.23492522785E+03  0.00000000000E+00 0. -1.
          1   -1    0    0  501    0  0.00000000000E+00 -0.00000000000E+00 -0.10644820663E+04  0.10644820663E+04  0.00000000000E+00 0. -1.
         36    2    1    2    0    0  0.00000000000E+00  0.00000000000E+00 -0.82955683840E+03  0.12994072941E+04  0.10001473731E+04 0.  0.
         25    2    3    3    0    0  0.33708390156E+02 -0.89060866499E+01 -0.33539557032E+03  0.35965791503E+03  0.12509217924E+03 0.  0.
         35    2    3    3    0    0 -0.33708390156E+02  0.89060866499E+01 -0.49416126809E+03  0.93974937908E+03  0.79857245298E+03 0.  0.
         22    1    5    5    0    0 -0.26062585272E+02  0.56761308872E+02  0.21757633512E+03  0.22636379159E+03  0.00000000000E+00 0.  1.
         22    1    5    5    0    0 -0.76458048836E+01 -0.47855222222E+02 -0.71173760321E+03  0.71338558750E+03  0.00000000000E+00 0.  1.
          5    1    4    4  502    0  0.29286642533E+01 -0.50339803073E+02 -0.56031545779E+02  0.75526796371E+02  0.47000000000E+01 0.  1.
         -5    1    4    4    0  502  0.30779725903E+02  0.41433716423E+02 -0.27936402454E+03  0.28413111866E+03  0.47000000000E+01 0.  1.
<mgrwt>
<rscale>  0 0.10001474E+04</rscale>
<asrwt>0</asrwt>
<pdfrwt beam="1">  1        1 0.16376647E+00 0.10001474E+04</pdfrwt>
<pdfrwt beam="2">  1       -1 0.36142343E-01 0.10001474E+04</pdfrwt>
<totfact> 0.11004229E+02</totfact>
</mgrwt>
</event>
<event>
 9    1  0.4412976E-036  0.1000003E+04  0.7818608E-02  0.8681035E-01
          1   -1    0    0  501    0  0.00000000000E+00  0.00000000000E+00  0.21156535191E+04  0.21156535191E+04  0.00000000000E+00 0. -1.
         -1   -1    0    0    0  501 -0.00000000000E+00 -0.00000000000E+00 -0.11816761494E+03  0.11816761494E+03  0.00000000000E+00 0. -1.
         36    2    1    2    0    0  0.00000000000E+00  0.00000000000E+00  0.19974859041E+04  0.22338211340E+04  0.10000034608E+04 0.  0.
         25    2    3    3    0    0 -0.12232148418E+03 -0.90380704978E+01  0.22732499120E+03  0.28719880503E+03  0.12554787843E+03 0.  0.
         35    2    3    3    0    0  0.12232148418E+03  0.90380704978E+01  0.17701609129E+04  0.19466223290E+04  0.80051521022E+03 0.  0.
         22    1    5    5    0    0 -0.17882371518E+03  0.13414871002E+03  0.99950955384E+02  0.24487546017E+03  0.00000000000E+00 0. -1.
         22    1    5    5    0    0  0.30114519936E+03 -0.12511063952E+03  0.16702099575E+04  0.17017468688E+04  0.00000000000E+00 0. -1.
          5    1    4    4  502    0 -0.28634206572E+02 -0.43640598439E+02  0.15549212247E+03  0.16408628757E+03  0.47000000000E+01 0. -1.
         -5    1    4    4    0  502 -0.93687277610E+02  0.34602527941E+02  0.71832868727E+02  0.12311251746E+03  0.47000000000E+01 0. -1.
<mgrwt>
<rscale>  0 0.10000035E+04</rscale>
<asrwt>0</asrwt>
<pdfrwt beam="1">  1        1 0.32548513E+00 0.10000035E+04</pdfrwt>
<pdfrwt beam="2">  1       -1 0.18179635E-01 0.10000035E+04</pdfrwt>
<totfact> 0.61837039E+01</totfact>
</mgrwt>
</event>
<event>
 9    1  0.4412976E-036  0.1000383E+04  0.7818608E-02  0.8680674E-01
         -1   -1    0    0    0  501 -0.00000000000E+00  0.00000000000E+00  0.28010293621E+03  0.28010293621E+03  0.00000000000E+00 0. -1.
          1   -1    0    0  501    0  0.00000000000E+00 -0.00000000000E+00 -0.89321234984E+03  0.89321234984E+03  0.00000000000E+00 0. -1.
         36    2    1    2    0    0  0.00000000000E+00  0.00000000000E+00 -0.61310941363E+03  0.11733152860E+04  0.10003827305E+04 0.  0.
         25    2    3    3    0    0 -0.82433111899E+02  0.83506375359E+01  0.17973291508E+02  0.15055064203E+03  0.12440862318E+03 0.  0.
         35    2    3    3    0    0  0.82433111899E+02 -0.83506375359E+01 -0.63108270514E+03  0.10227646440E+04  0.80057303555E+03 0.  0.
         22    1    5    5    0    0 -0.96584889881E+02  0.64663561396E+02 -0.77378620033E+03  0.78246731622E+03  0.00000000000E+00 0. -1.
         22    1    5    5    0    0  0.17901800178E+03 -0.73014198932E+02  0.14270349520E+03  0.24029732780E+03  0.00000000000E+00 0. -1.
          5    1    4    4  502    0 -0.42116687085E+02 -0.45748562729E+02  0.45845755635E+02  0.77399416229E+02  0.47000000000E+01 0.  1.
         -5    1    4    4    0  502 -0.40316424813E+02  0.54099200265E+02 -0.27872464127E+02  0.73151225797E+02  0.47000000000E+01 0.  1.
<mgrwt>
<rscale>  0 0.10003827E+04</rscale>
<asrwt>0</asrwt>
<pdfrwt beam="1">  1        1 0.13741728E+00 0.10003827E+04</pdfrwt>
<pdfrwt beam="2">  1       -1 0.43092760E-01 0.10003827E+04</pdfrwt>
<totfact> 0.11050274E+02</totfact>
</mgrwt>
</event>
<event>
 9    1  0.4412976E-036  0.9992270E+03  0.7818608E-02  0.8681774E-01
          2   -1    0    0  501    0  0.00000000000E+00  0.00000000000E+00  0.14208911593E+04  0.14208911593E+04  0.00000000000E+00 0. -1.
         -2   -1    0    0    0  501 -0.00000000000E+00 -0.00000000000E+00 -0.17567399879E+03  0.17567399879E+03  0.00000000000E+00 0. -1.
         36    2    1    2    0    0  0.28421709430E-13  0.14210854715E-13  0.12452171605E+04  0.15965651581E+04  0.99922696482E+03 0.  0.
         25    2    3    3    0    0 -0.97032979115E+02 -0.69596705805E+02  0.34909478281E+03  0.38951028138E+03  0.12486789588E+03 0.  0.
         35    2    3    3    0    0  0.97032979115E+02  0.69596705805E+02  0.89612237770E+03  0.12070548767E+04  0.79980438802E+03 0.  0.
         22    1    5    5    0    0 -0.17242638571E+03  0.33229083726E+03  0.67147361064E+03  0.76878141809E+03  0.00000000000E+00 0.  1.
         22    1    5    5    0    0  0.26945936483E+03 -0.26269413145E+03  0.22464876706E+03  0.43827345862E+03  0.00000000000E+00 0.  1.
          5    1    4    4  502    0 -0.30028488238E+02 -0.43499076285E+02  0.27166276631E+02  0.59615235716E+02  0.47000000000E+01 0.  1.
         -5    1    4    4    0  502 -0.67004490878E+02 -0.26097629520E+02  0.32192850618E+03  0.32989504567E+03  0.47000000000E+01 0.  1.
<mgrwt>
<rscale>  0 0.99922696E+03</rscale>
<asrwt>0</asrwt>
<pdfrwt beam="1">  1        2 0.21859863E+00 0.99922696E+03</pdfrwt>
<pdfrwt beam="2">  1       -2 0.27026770E-01 0.99922696E+03</pdfrwt>
<totfact> 0.20974356E+02</totfact>
</mgrwt>
</event>
<event>
 9    1  0.4412976E-036  0.9979118E+03  0.7818608E-02  0.8683029E-01
          1   -1    0    0  501    0  0.00000000000E+00  0.00000000000E+00  0.10014138867E+04  0.10014138867E+04  0.00000000000E+00 0. -1.
         -1   -1    0    0    0  501 -0.00000000000E+00 -0.00000000000E+00 -0.24860551222E+03  0.24860551222E+03  0.00000000000E+00 0. -1.
         36    2    1    2    0    0 -0.28421709430E-13  0.21316282073E-13  0.75280837450E+03  0.12500193989E+04  0.99791184431E+03 0.  0.
         25    2    3    3    0    0  0.13264664629E+03 -0.15702978249E+02  0.10599545227E+03  0.21230302898E+03  0.12647459791E+03 0.  0.
         35    2    3    3    0    0 -0.13264664629E+03  0.15702978249E+02  0.64681292223E+03  0.10377163700E+04  0.80040401787E+03 0.  0.
         22    1    5    5    0    0  0.26632838923E+03 -0.22143110964E+03  0.25117568775E+03  0.42784550172E+03  0.00000000000E+00 0.  1.
         22    1    5    5    0    0 -0.39897503552E+03  0.23713408789E+03  0.39563723448E+03  0.60987086823E+03  0.00000000000E+00 0.  1.
          5    1    4    4  502    0  0.56566259908E+02  0.57782102979E+01 -0.22526560261E+02  0.61340568887E+02  0.47000000000E+01 0. -1.
         -5    1    4    4    0  502  0.76080386383E+02 -0.21481188546E+02  0.12852201253E+03  0.15096246010E+03  0.47000000000E+01 0. -1.
<mgrwt>
<rscale>  0 0.99791184E+03</rscale>
<asrwt>0</asrwt>
<pdfrwt beam="1">  1        1 0.15406367E+00 0.99791184E+03</pdfrwt>
<pdfrwt beam="2">  1       -1 0.38247002E-01 0.99791184E+03</pdfrwt>
<totfact> 0.11165510E+02</totfact>
</mgrwt>
</event>
<event>
 9    1  0.4412976E-036  0.1000227E+04  0.7818608E-02  0.8680821E-01
         -1   -1    0    0    0  501 -0.00000000000E+00  0.00000000000E+00  0.25708668101E+03  0.25708668101E+03  0.00000000000E+00 0. -1.
          1   -1    0    0  501    0  0.00000000000E+00 -0.00000000000E+00 -0.97287687797E+03  0.97287687797E+03  0.00000000000E+00 0. -1.
         36    2    1    2    0    0 -0.14210854715E-13  0.00000000000E+00 -0.71579019696E+03  0.12299635590E+04  0.10002273493E+04 0.  0.
         25    2    3    3    0    0  0.29911202381E+02  0.13482719544E+03 -0.16896788086E+03  0.25149373677E+03  0.12500360880E+03 0.  0.
         35    2    3    3    0    0 -0.29911202381E+02 -0.13482719544E+03 -0.54682231611E+03  0.97846982221E+03  0.79957206988E+03 0.  0.
         22    1    5    5    0    0 -0.21265586468E+03 -0.41978608268E+03 -0.35419705209E+03  0.58898083475E+03  0.00000000000E+00 0. -1.
         22    1    5    5    0    0  0.18274466230E+03  0.28495888724E+03 -0.19262526402E+03  0.38948898746E+03  0.00000000000E+00 0. -1.
          5    1    4    4  502    0  0.58964986715E+02  0.70053007146E+02 -0.15332460136E+03  0.17864718540E+03  0.47000000000E+01 0. -1.
         -5    1    4    4    0  502 -0.29053784334E+02  0.64774188293E+02 -0.15643279501E+02  0.72846551371E+02  0.47000000000E+01 0. -1.
<mgrwt>
<rscale>  0 0.10002273E+04</rscale>
<asrwt>0</asrwt>
<pdfrwt beam="1">  1        1 0.14967337E+00 0.10002273E+04</pdfrwt>
<pdfrwt beam="2">  1       -1 0.39551797E-01 0.10002273E+04</pdfrwt>
<totfact> 0.11085423E+02</totfact>
</mgrwt>
</event>
<event>
 9    1  0.4412976E-036  0.1000022E+04  0.7818608E-02  0.8681017E-01
          2   -1    0    0  501    0  0.00000000000E+00  0.00000000000E+00  0.82887207108E+03  0.82887207108E+03  0.00000000000E+00 0. -1.
         -2   -1    0    0    0  501 -0.00000000000E+00 -0.00000000000E+00 -0.30162817037E+03  0.30162817037E+03  0.00000000000E+00 0. -1.
         36    2    1    2    0    0  0.00000000000E+00 -0.35527136788E-13  0.52724390072E+03  0.11305002415E+04  0.10000223323E+04 0.  0.
         25    2    3    3    0    0  0.60966491325E+02  0.23505811234E+02  0.22780415837E+03  0.26916663460E+03  0.12761859734E+03 0.  0.
         35    2    3    3    0    0 -0.60966491325E+02 -0.23505811234E+02  0.29943974235E+03  0.86133360685E+03  0.80496086040E+03 0.  0.
         22    1    5    5    0    0 -0.29597782071E+03  0.26481934283E+03  0.22872398491E+02  0.39781314873E+03  0.00000000000E+00 0.  1.
         22    1    5    5    0    0  0.23501132939E+03 -0.28832515406E+03  0.27656734386E+03  0.46352045812E+03  0.00000000000E+00 0.  1.
          5    1    4    4  502    0  0.93077572667E+02 -0.12426169327E+02  0.13535170506E+03  0.16480296806E+03  0.47000000000E+01 0. -1.
         -5    1    4    4    0  502 -0.32111081342E+02  0.35931980561E+02  0.92452453306E+02  0.10436366654E+03  0.47000000000E+01 0. -1.
<mgrwt>
<rscale>  0 0.10000223E+04</rscale>
<asrwt>0</asrwt>
<pdfrwt beam="1">  1        2 0.12751878E+00 0.10000223E+04</pdfrwt>
<pdfrwt beam="2">  1       -2 0.46404334E-01 0.10000223E+04</pdfrwt>
<totfact> 0.17500735E+02</totfact>
</mgrwt>
</event>
<event>
 9    1  0.4412976E-036  0.1000040E+04  0.7818608E-02  0.8681000E-01
         -1   -1    0    0    0  501 -0.00000000000E+00  0.00000000000E+00  0.12437249414E+03  0.12437249414E+03  0.00000000000E+00 0. -1.
          1   -1    0    0  501    0  0.00000000000E+00 -0.00000000000E+00 -0.20102514510E+04  0.20102514510E+04  0.00000000000E+00 0. -1.
         36    2    1    2    0    0 -0.42632564146E-13  0.00000000000E+00 -0.18858789569E+04  0.21346239452E+04  0.10000399728E+04 0.  0.
         25    2    3    3    0    0  0.63692622722E+02 -0.54594369838E+02 -0.59344432500E+03  0.61226470972E+03  0.12511839386E+03 0.  0.
         35    2    3    3    0    0 -0.63692622722E+02  0.54594369838E+02 -0.12924346319E+04  0.15223592355E+04  0.80009566219E+03 0.  0.
         22    1    5    5    0    0  0.28043345031E+03  0.23796396691E+02 -0.13064846169E+03  0.31028730089E+03  0.00000000000E+00 0.  1.
         22    1    5    5    0    0 -0.34412607303E+03  0.30797973147E+02 -0.11617861702E+04  0.12120719346E+04  0.00000000000E+00 0.  1.
          5    1    4    4  502    0  0.34735199942E+02 -0.68472133937E+02 -0.56144057405E+03  0.56668560545E+03  0.47000000000E+01 0.  1.
         -5    1    4    4    0  502  0.28957422780E+02  0.13877764099E+02 -0.32003750951E+02  0.45579104262E+02  0.47000000000E+01 0.  1.
<mgrwt>
<rscale>  0 0.10000400E+04</rscale>
<asrwt>0</asrwt>
<pdfrwt beam="1">  1        1 0.30926943E+00 0.10000400E+04</pdfrwt>
<pdfrwt beam="2">  1       -1 0.19134232E-01 0.10000400E+04</pdfrwt>
<totfact> 0.67394548E+01</totfact>
</mgrwt>
</event>
<event>
 9    1  0.4412976E-036  0.9993765E+03  0.7818608E-02  0.8681632E-01
         -2   -1    0    0    0  501 -0.00000000000E+00  0.00000000000E+00  0.65918991768E+03  0.65918991768E+03  0.00000000000E+00 0. -1.
          2   -1    0    0  501    0  0.00000000000E+00 -0.00000000000E+00 -0.37878059490E+03  0.37878059490E+03  0.00000000000E+00 0. -1.
         36    2    1    2    0    0  0.00000000000E+00  0.10658141036E-13  0.28040932278E+03  0.10379705126E+04  0.99937650396E+03 0.  0.
         25    2    3    3    0    0  0.19546066708E+02  0.23891229399E+02 -0.90023963864E+02  0.15593559126E+03  0.12352633317E+03 0.  0.
         35    2    3    3    0    0 -0.19546066708E+02 -0.23891229399E+02  0.37043328664E+03  0.88203492131E+03  0.79988245574E+03 0.  0.
         22    1    5    5    0    0 -0.11920680198E+03 -0.33314852488E+03 -0.42741832028E+02  0.35640575959E+03  0.00000000000E+00 0. -1.
         22    1    5    5    0    0  0.99660735267E+02  0.30925729548E+03  0.41317511867E+03  0.52562916172E+03  0.00000000000E+00 0. -1.
          5    1    4    4  502    0 -0.46178968064E+02  0.37417509622E+02 -0.48760474276E+02  0.77021042380E+02  0.47000000000E+01 0. -1.
         -5    1    4    4    0  502  0.65725034772E+02 -0.13526280222E+02 -0.41263489588E+02  0.78914548883E+02  0.47000000000E+01 0. -1.
<mgrwt>
<rscale>  0 0.99937650E+03</rscale>
<asrwt>0</asrwt>
<pdfrwt beam="1">  1        2 0.58273938E-01 0.99937650E+03</pdfrwt>
<pdfrwt beam="2">  1       -2 0.10141383E+00 0.99937650E+03</pdfrwt>
<totfact> 0.80165909E+01</totfact>
</mgrwt>
</event>
<event>
 9    1  0.4412976E-036  0.9988839E+03  0.7818608E-02  0.8682102E-01
         -1   -1    0    0    0  501 -0.00000000000E+00  0.00000000000E+00  0.48217309415E+03  0.48217309415E+03  0.00000000000E+00 0. -1.
          1   -1    0    0  501    0  0.00000000000E+00 -0.00000000000E+00 -0.51732923493E+03  0.51732923493E+03  0.00000000000E+00 0. -1.
         36    2    1    2    0    0  0.28421709430E-13 -0.14210854715E-13 -0.35156140777E+02  0.99950232909E+03  0.99888385291E+03 0.  0.
         25    2    3    3    0    0 -0.94176973539E+02  0.84831897300E+02  0.11870435036E+01  0.18849528376E+03  0.13951096653E+03 0.  0.
         35    2    3    3    0    0  0.94176973539E+02 -0.84831897300E+02 -0.36343184281E+02  0.81100704533E+03  0.80021612542E+03 0.  0.
         22    1    5    5    0    0 -0.20558837380E+03 -0.53490536098E+02 -0.32852946180E+03  0.39122809736E+03  0.00000000000E+00 0. -1.
         22    1    5    5    0    0  0.29976534734E+03 -0.31341361203E+02  0.29218627752E+03  0.41977894797E+03  0.00000000000E+00 0. -1.
          5    1    4    4  502    0 -0.12357136798E+03  0.94596390420E+02 -0.78448972740E+01  0.15589096342E+03  0.47000000000E+01 0. -1.
         -5    1    4    4    0  502  0.29394394438E+02 -0.97644931192E+01  0.90319407776E+01  0.32604320334E+02  0.47000000000E+01 0. -1.
<mgrwt>
<rscale>  0 0.99888385E+03</rscale>
<asrwt>0</asrwt>
<pdfrwt beam="1">  1        1 0.79589113E-01 0.99888385E+03</pdfrwt>
<pdfrwt beam="2">  1       -1 0.74180476E-01 0.99888385E+03</pdfrwt>
<totfact> 0.91068675E+01</totfact>
</mgrwt>
</event>
<event>
 9    1  0.4412976E-036  0.9994676E+03  0.7818608E-02  0.8681545E-01
         -2   -1    0    0    0  501 -0.00000000000E+00  0.00000000000E+00  0.37691601309E+03  0.37691601309E+03  0.00000000000E+00 0. -1.
          2   -1    0    0  501    0  0.00000000000E+00 -0.00000000000E+00 -0.66257163085E+03  0.66257163085E+03  0.00000000000E+00 0. -1.
         36    2    1    2    0    0  0.71054273576E-14 -0.28421709430E-13 -0.28565561775E+03  0.10394876439E+04  0.99946757324E+03 0.  0.
         25    2    3    3    0    0  0.78475667500E+01 -0.95817637369E+02 -0.15785262598E+03  0.22314933238E+03  0.12504226916E+03 0.  0.
         35    2    3    3    0    0 -0.78475667500E+01  0.95817637369E+02 -0.12780299178E+03  0.81633831156E+03  0.80051985003E+03 0.  0.
         22    1    5    5    0    0 -0.36585350109E+03 -0.88621209272E+01 -0.22665610306E+03  0.43046522566E+03  0.00000000000E+00 0. -1.
         22    1    5    5    0    0  0.35800593434E+03  0.10467975830E+03  0.98853111283E+02  0.38587308591E+03  0.00000000000E+00 0. -1.
          5    1    4    4  502    0 -0.23635117825E+02 -0.55201842195E+02 -0.34269922759E+01  0.60329896837E+02  0.47000000000E+01 0. -1.
         -5    1    4    4    0  502  0.31482684575E+02 -0.40615795174E+02 -0.15442563370E+03  0.16281943554E+03  0.47000000000E+01 0. -1.
<mgrwt>
<rscale>  0 0.99946757E+03</rscale>
<asrwt>0</asrwt>
<pdfrwt beam="1">  1        2 0.10193410E+00 0.99946757E+03</pdfrwt>
<pdfrwt beam="2">  1       -2 0.57987079E-01 0.99946757E+03</pdfrwt>
<totfact> 0.14785524E+02</totfact>
</mgrwt>
</event>
<event>
 9    1  0.4412976E-036  0.1000764E+04  0.7818608E-02  0.8680311E-01
         -1   -1    0    0    0  501 -0.00000000000E+00  0.00000000000E+00  0.10800854867E+04  0.10800854867E+04  0.00000000000E+00 0.  1.
          1   -1    0    0  501    0  0.00000000000E+00 -0.00000000000E+00 -0.23181674234E+03  0.23181674234E+03  0.00000000000E+00 0.  1.
         36    2    1    2    0    0  0.71054273576E-14 -0.28421709430E-13  0.84826874435E+03  0.13119022290E+04  0.10007635065E+04 0.  0.
         25    2    3    3    0    0  0.84505107095E+01 -0.13649156419E+03  0.15943879930E+03  0.24461551709E+03  0.12535813597E+03 0.  0.
         35    2    3    3    0    0 -0.84505107095E+01  0.13649156419E+03  0.68882994505E+03  0.10672867119E+04  0.80368704982E+03 0.  0.
         22    1    5    5    0    0 -0.21977754983E+03 -0.19491350246E+03  0.23712040451E+02  0.29471292084E+03  0.00000000000E+00 0.  1.
         22    1    5    5    0    0  0.21132703912E+03  0.33140506665E+03  0.66511790460E+03  0.77257379109E+03  0.00000000000E+00 0.  1.
          5    1    4    4  502    0 -0.43843222485E+02 -0.72532456187E+02  0.28160003898E+02  0.89432998261E+02  0.47000000000E+01 0.  1.
         -5    1    4    4    0  502  0.52293733194E+02 -0.63959108002E+02  0.13127879541E+03  0.15518251883E+03  0.47000000000E+01 0.  1.
<mgrwt>
<rscale>  0 0.10007635E+04</rscale>
<asrwt>0</asrwt>
<pdfrwt beam="1">  1        1 0.35664115E-01 0.10007635E+04</pdfrwt>
<pdfrwt beam="2">  1       -1 0.16616700E+00 0.10007635E+04</pdfrwt>
<totfact> 0.36804964E+01</totfact>
</mgrwt>
</event>
<event>
 9    1  0.4412976E-036  0.1000107E+04  0.7818608E-02  0.8680936E-01
          2   -1    0    0  501    0  0.00000000000E+00  0.00000000000E+00  0.19444999027E+04  0.19444999027E+04  0.00000000000E+00 0.  1.
         -2   -1    0    0    0  501 -0.00000000000E+00 -0.00000000000E+00 -0.12859525701E+03  0.12859525701E+03  0.00000000000E+00 0.  1.
         36    2    1    2    0    0 -0.24868995752E-13 -0.14210854715E-13  0.18159046457E+04  0.20730951597E+04  0.10001069238E+04 0.  0.
         25    2    3    3    0    0  0.11385210680E+02 -0.47548190017E+02  0.67147128168E+02  0.14941911867E+03  0.12420500315E+03 0.  0.
         35    2    3    3    0    0 -0.11385210680E+02  0.47548190017E+02  0.17487575175E+04  0.19236760410E+04  0.79999137642E+03 0.  0.
         22    1    5    5    0    0 -0.38273050212E+03 -0.75054538568E+02  0.65763128012E+03  0.76458794236E+03  0.00000000000E+00 0.  1.
         22    1    5    5    0    0  0.37134529144E+03  0.12260272858E+03  0.10911262374E+04  0.11590880987E+04  0.00000000000E+00 0.  1.
          5    1    4    4  502    0 -0.13938152267E+02 -0.52063689187E+02  0.96176617000E+02  0.11034913447E+03  0.47000000000E+01 0. -1.
         -5    1    4    4    0  502  0.25323362947E+02  0.45154991710E+01 -0.29029488833E+02  0.39069984202E+02  0.47000000000E+01 0. -1.
<mgrwt>
<rscale>  0 0.10001069E+04</rscale>
<asrwt>0</asrwt>
<pdfrwt beam="1">  1        2 0.29915381E+00 0.10001069E+04</pdfrwt>
<pdfrwt beam="2">  1       -2 0.19783887E-01 0.10001069E+04</pdfrwt>
<totfact> 0.18368250E+02</totfact>
</mgrwt>
</event>
<event>
 9    1  0.4412976E-036  0.9994573E+03  0.7818608E-02  0.8681555E-01
         -2   -1    0    0    0  501 -0.00000000000E+00  0.00000000000E+00  0.20633491472E+03  0.20633491472E+03  0.00000000000E+00 0. -1.
          2   -1    0    0  501    0  0.00000000000E+00 -0.00000000000E+00 -0.12103076400E+04  0.12103076400E+04  0.00000000000E+00 0. -1.
         36    2    1    2    0    0  0.00000000000E+00  0.35527136788E-14 -0.10039727253E+04  0.14166425548E+04  0.99945730013E+03 0.  0.
         25    2    3    3    0    0  0.10682201967E+03 -0.71430024075E+01 -0.31334642812E+03  0.35417368062E+03  0.12566242737E+03 0.  0.
         35    2    3    3    0    0 -0.10682201967E+03  0.71430024075E+01 -0.69062629718E+03  0.10624688741E+04  0.80025837064E+03 0.  0.
         22    1    5    5    0    0 -0.40578665661E+03 -0.18161497325E+03 -0.46344776693E+03  0.64220763143E+03  0.00000000000E+00 0.  1.
         22    1    5    5    0    0  0.29896463694E+03  0.18875797566E+03 -0.22717853025E+03  0.42026124271E+03  0.00000000000E+00 0.  1.
          5    1    4    4  502    0  0.85147507796E+02  0.94117893875E+01 -0.31497463222E+03  0.32645028535E+03  0.47000000000E+01 0. -1.
         -5    1    4    4    0  502  0.21674511872E+02 -0.16554791795E+02  0.16282040990E+01  0.27723395262E+02  0.47000000000E+01 0. -1.
<mgrwt>
<rscale>  0 0.99945730E+03</rscale>
<asrwt>0</asrwt>
<pdfrwt beam="1">  1        2 0.18620118E+00 0.99945730E+03</pdfrwt>
<pdfrwt beam="2">  1       -2 0.31743833E-01 0.99945730E+03</pdfrwt>
<totfact> 0.20734656E+02</totfact>
</mgrwt>
</event>
<event>
 9    1  0.4412976E-036  0.9999944E+03  0.7818608E-02  0.8681043E-01
          2   -1    0    0  501    0  0.00000000000E+00  0.00000000000E+00  0.86657095518E+03  0.86657095518E+03  0.00000000000E+00 0. -1.
         -2   -1    0    0    0  501 -0.00000000000E+00 -0.00000000000E+00 -0.28849015598E+03  0.28849015598E+03  0.00000000000E+00 0. -1.
         36    2    1    2    0    0  0.35527136788E-14 -0.28421709430E-13  0.57808079921E+03  0.11550611112E+04  0.99999438004E+03 0.  0.
         25    2    3    3    0    0 -0.28214537974E+02  0.10110860874E+03  0.21755761712E+02  0.17541082927E+03  0.13884032175E+03 0.  0.
         35    2    3    3    0    0  0.28214537974E+02 -0.10110860874E+03  0.55632503749E+03  0.97965028189E+03  0.79949866576E+03 0.  0.
         22    1    5    5    0    0 -0.33702333892E+02 -0.43184772152E+03  0.16492698241E+03  0.46349672212E+03  0.00000000000E+00 0.  1.
         22    1    5    5    0    0  0.61916871866E+02  0.33073911278E+03  0.39139805508E+03  0.51615355977E+03  0.00000000000E+00 0.  1.
          5    1    4    4  502    0 -0.18554401357E+02  0.11209027742E+03 -0.33109884937E+02  0.11843500573E+03  0.47000000000E+01 0.  1.
         -5    1    4    4    0  502 -0.96601366172E+01 -0.10981668678E+02  0.54865646649E+02  0.56975823545E+02  0.47000000000E+01 0.  1.
<mgrwt>
<rscale>  0 0.99999438E+03</rscale>
<asrwt>0</asrwt>
<pdfrwt beam="1">  1        2 0.13331861E+00 0.99999438E+03</pdfrwt>
<pdfrwt beam="2">  1       -2 0.44383101E-01 0.99999438E+03</pdfrwt>
<totfact> 0.18004976E+02</totfact>
</mgrwt>
</event>
<event>
 9    1  0.4412976E-036  0.9986854E+03  0.7818608E-02  0.8682291E-01
         -2   -1    0    0    0  501 -0.00000000000E+00  0.00000000000E+00  0.14272859527E+03  0.14272859527E+03  0.00000000000E+00 0.  1.
          2   -1    0    0  501    0  0.00000000000E+00 -0.00000000000E+00 -0.17469738531E+04  0.17469738531E+04  0.00000000000E+00 0.  1.
         36    2    1    2    0    0  0.00000000000E+00 -0.28421709430E-13 -0.16042452578E+04  0.18897024483E+04  0.99868538394E+03 0.  0.
         25    2    3    3    0    0  0.70290866000E+02  0.95812247753E+02 -0.43749453948E+03  0.47018402073E+03  0.12470264074E+03 0.  0.
         35    2    3    3    0    0 -0.70290866000E+02 -0.95812247753E+02 -0.11667507183E+04  0.14195184276E+04  0.79975279617E+03 0.  0.
         22    1    5    5    0    0 -0.22172060069E+03 -0.37300213785E+03 -0.39960705501E+03  0.58989526022E+03  0.00000000000E+00 0.  1.
         22    1    5    5    0    0  0.15142973469E+03  0.27718989010E+03 -0.76714366332E+03  0.82962316740E+03  0.00000000000E+00 0.  1.
          5    1    4    4  502    0 -0.23185625569E+02 -0.13904565879E+02 -0.56567882386E+02  0.62872295194E+02  0.47000000000E+01 0.  1.
         -5    1    4    4    0  502  0.93476491569E+02  0.10971681363E+03 -0.38092665710E+03  0.40731172553E+03  0.47000000000E+01 0.  1.
<mgrwt>
<rscale>  0 0.99868538E+03</rscale>
<asrwt>0</asrwt>
<pdfrwt beam="1">  1        2 0.26876519E+00 0.99868538E+03</pdfrwt>
<pdfrwt beam="2">  1       -2 0.21958247E-01 0.99868538E+03</pdfrwt>
<totfact> 0.19816792E+02</totfact>
</mgrwt>
</event>
<event>
 9    1  0.4412976E-036  0.1000129E+04  0.7818608E-02  0.8680915E-01
          2   -1    0    0  501    0  0.00000000000E+00  0.00000000000E+00  0.16886913031E+04  0.16886913031E+04  0.00000000000E+00 0.  1.
         -2   -1    0    0    0  501 -0.00000000000E+00 -0.00000000000E+00 -0.14808197356E+03  0.14808197356E+03  0.00000000000E+00 0.  1.
         36    2    1    2    0    0 -0.14210854715E-13  0.14210854715E-13  0.15406093296E+04  0.18367732767E+04  0.10001294734E+04 0.  0.
         25    2    3    3    0    0 -0.11388877020E+03  0.57179107228E+02  0.39777749744E+03  0.43614366149E+03  0.12551595004E+03 0.  0.
         35    2    3    3    0    0  0.11388877020E+03 -0.57179107228E+02  0.11428318321E+04  0.14006296152E+04  0.79966156601E+03 0.  0.
         22    1    5    5    0    0 -0.17084211555E+02  0.20735981657E+03 -0.12253469004E+02  0.20842291456E+03  0.00000000000E+00 0.  1.
         22    1    5    5    0    0  0.13097298175E+03 -0.26453892379E+03  0.11550853011E+04  0.11922067006E+04  0.00000000000E+00 0.  1.
          5    1    4    4  502    0 -0.94581233941E+02 -0.21395339139E+02  0.19695560085E+03  0.21958362657E+03  0.47000000000E+01 0. -1.
         -5    1    4    4    0  502 -0.19307536254E+02  0.78574446367E+02  0.20082189659E+03  0.21656003493E+03  0.47000000000E+01 0. -1.
<mgrwt>
<rscale>  0 0.10001295E+04</rscale>
<asrwt>0</asrwt>
<pdfrwt beam="1">  1        2 0.25979865E+00 0.10001295E+04</pdfrwt>
<pdfrwt beam="2">  1       -2 0.22781843E-01 0.10001295E+04</pdfrwt>
<totfact> 0.20037800E+02</totfact>
</mgrwt>
</event>
<event>
 9    1  0.4412976E-036  0.9997403E+03  0.7818608E-02  0.8681285E-01
          2   -1    0    0  501    0  0.00000000000E+00  0.00000000000E+00  0.82780915416E+03  0.82780915416E+03  0.00000000000E+00 0.  1.
         -2   -1    0    0    0  501 -0.00000000000E+00 -0.00000000000E+00 -0.30184511185E+03  0.30184511185E+03  0.00000000000E+00 0.  1.
         36    2    1    2    0    0 -0.21316282073E-13  0.00000000000E+00  0.52596404231E+03  0.11296542660E+04  0.99974025973E+03 0.  0.
         25    2    3    3    0    0 -0.30941181831E+02 -0.13571937539E+03  0.11336074767E+03  0.21924942901E+03  0.12586718167E+03 0.  0.
         35    2    3    3    0    0  0.30941181831E+02  0.13571937539E+03  0.41260329464E+03  0.91040483701E+03  0.79951134007E+03 0.  0.
         22    1    5    5    0    0 -0.15144869681E+03 -0.24766835289E+02  0.58997155229E+03  0.60960358956E+03  0.00000000000E+00 0. -1.
         22    1    5    5    0    0  0.18238987864E+03  0.16048621067E+03 -0.17736825764E+03  0.30080124745E+03  0.00000000000E+00 0. -1.
          5    1    4    4  502    0  0.32117783223E+02 -0.47424128467E+02 -0.61113540540E+01  0.57793067130E+02  0.47000000000E+01 0.  1.
         -5    1    4    4    0  502 -0.63058965054E+02 -0.88295246919E+02  0.11947210172E+03  0.16145636188E+03  0.47000000000E+01 0.  1.
<mgrwt>
<rscale>  0 0.99974026E+03</rscale>
<asrwt>0</asrwt>
<pdfrwt beam="1">  1        2 0.12735525E+00 0.99974026E+03</pdfrwt>
<pdfrwt beam="2">  1       -2 0.46437710E-01 0.99974026E+03</pdfrwt>
<totfact> 0.17505484E+02</totfact>
</mgrwt>
</event>
<event>
 9    1  0.4412976E-036  0.1000953E+04  0.7818608E-02  0.8680131E-01
          2   -1    0    0  501    0  0.00000000000E+00  0.00000000000E+00  0.31282967066E+03  0.31282967066E+03  0.00000000000E+00 0. -1.
         -2   -1    0    0    0  501 -0.00000000000E+00 -0.00000000000E+00 -0.80068107800E+03  0.80068107800E+03  0.00000000000E+00 0. -1.
         36    2    1    2    0    0  0.14210854715E-13  0.14210854715E-13 -0.48785140734E+03  0.11135107487E+04  0.10009531416E+04 0.  0.
         25    2    3    3    0    0  0.75376801014E+02 -0.11571023128E+03 -0.68067727358E+02  0.19893872889E+03  0.12598762872E+03 0.  0.
         35    2    3    3    0    0 -0.75376801014E+02  0.11571023128E+03 -0.41978367998E+03  0.91457201977E+03  0.80072037667E+03 0.  0.
         22    1    5    5    0    0  0.32586227034E+03  0.14221353602E+03 -0.33732469213E+02  0.35713973251E+03  0.00000000000E+00 0.  1.
         22    1    5    5    0    0 -0.40123907135E+03 -0.26503304738E+02 -0.38605121077E+03  0.55743228726E+03  0.00000000000E+00 0.  1.
          5    1    4    4  502    0  0.25328030450E+02 -0.37282427527E+02  0.37013230407E+02  0.58511176317E+02  0.47000000000E+01 0.  1.
         -5    1    4    4    0  502  0.50048770564E+02 -0.78427803757E+02 -0.10508095776E+03  0.14042755257E+03  0.47000000000E+01 0.  1.
<mgrwt>
<rscale>  0 0.10009531E+04</rscale>
<asrwt>0</asrwt>
<pdfrwt beam="1">  1        2 0.48127641E-01 0.10009531E+04</pdfrwt>
<pdfrwt beam="2">  1       -2 0.12318171E+00 0.10009531E+04</pdfrwt>
<totfact> 0.60578394E+01</totfact>
</mgrwt>
</event>
<event>
 9    1  0.4412976E-036  0.9996576E+03  0.7818608E-02  0.8681364E-01
         -2   -1    0    0    0  501 -0.00000000000E+00  0.00000000000E+00  0.11608353649E+03  0.11608353649E+03  0.00000000000E+00 0.  1.
          2   -1    0    0  501    0  0.00000000000E+00 -0.00000000000E+00 -0.21521468122E+04  0.21521468122E+04  0.00000000000E+00 0.  1.
         36    2    1    2    0    0  0.14210854715E-13 -0.14210854715E-13 -0.20360632757E+04  0.22682303487E+04  0.99965756740E+03 0.  0.
         25    2    3    3    0    0 -0.99894247847E+02  0.73244054983E+02 -0.53147344311E+03  0.55988181654E+03  0.12514022303E+03 0.  0.
         35    2    3    3    0    0  0.99894247847E+02 -0.73244054983E+02 -0.15045898326E+04  0.17083485322E+04  0.79957525638E+03 0.  0.
         22    1    5    5    0    0  0.32468183453E+03 -0.15857727918E+03 -0.14004686530E+04  0.14463324290E+04  0.00000000000E+00 0.  1.
         22    1    5    5    0    0 -0.22478758669E+03  0.85333224200E+02 -0.10412117964E+03  0.26201610319E+03  0.00000000000E+00 0.  1.
          5    1    4    4  502    0  0.27919632800E+02  0.50426143009E+01 -0.12715877434E+03  0.13037015666E+03  0.47000000000E+01 0.  1.
         -5    1    4    4    0  502 -0.12781388065E+03  0.68201440682E+02 -0.40431466877E+03  0.42951165989E+03  0.47000000000E+01 0.  1.
<mgrwt>
<rscale>  0 0.99965757E+03</rscale>
<asrwt>0</asrwt>
<pdfrwt beam="1">  1        2 0.33109952E+00 0.99965757E+03</pdfrwt>
<pdfrwt beam="2">  1       -2 0.17859005E-01 0.99965757E+03</pdfrwt>
<totfact> 0.16658108E+02</totfact>
</mgrwt>
</event>
<event>
 9    1  0.4412976E-036  0.1000085E+04  0.7818608E-02  0.8680957E-01
          2   -1    0    0  501    0  0.00000000000E+00  0.00000000000E+00  0.19961483906E+04  0.19961483906E+04  0.00000000000E+00 0.  1.
         -2   -1    0    0    0  501 -0.00000000000E+00 -0.00000000000E+00 -0.12526250755E+03  0.12526250755E+03  0.00000000000E+00 0.  1.
         36    2    1    2    0    0 -0.14210854715E-13  0.00000000000E+00  0.18708858830E+04  0.21214108981E+04  0.10000851021E+04 0.  0.
         25    2    3    3    0    0  0.14051407933E+02  0.13245481397E+03  0.25859829634E+03  0.31618075915E+03  0.12391720535E+03 0.  0.
         35    2    3    3    0    0 -0.14051407933E+02 -0.13245481397E+03  0.16122875867E+04  0.18052301390E+04  0.80102613732E+03 0.  0.
         22    1    5    5    0    0 -0.28052759749E+03  0.32397077273E+02  0.13965099707E+04  0.14247755619E+04  0.00000000000E+00 0.  1.
         22    1    5    5    0    0  0.26647618956E+03 -0.16485189124E+03  0.21577761601E+03  0.38045457708E+03  0.00000000000E+00 0.  1.
          5    1    4    4  502    0  0.46160633383E+02  0.10365177481E+01  0.71724497306E+02  0.85430509521E+02  0.47000000000E+01 0. -1.
         -5    1    4    4    0  502 -0.32109225450E+02  0.13141829622E+03  0.18687379903E+03  0.23075024963E+03  0.47000000000E+01 0. -1.
<mgrwt>
<rscale>  0 0.10000851E+04</rscale>
<asrwt>0</asrwt>
<pdfrwt beam="1">  1        2 0.30709973E+00 0.10000851E+04</pdfrwt>
<pdfrwt beam="2">  1       -2 0.19271157E-01 0.10000851E+04</pdfrwt>
<totfact> 0.17963450E+02</totfact>
</mgrwt>
</event>
<event>
 9    1  0.4412976E-036  0.9993819E+03  0.7818608E-02  0.8681627E-01
          1   -1    0    0  501    0  0.00000000000E+00  0.00000000000E+00  0.70303861680E+03  0.70303861680E+03  0.00000000000E+00 0.  1.
         -1   -1    0    0    0  501 -0.00000000000E+00 -0.00000000000E+00 -0.35515975897E+03  0.35515975897E+03  0.00000000000E+00 0.  1.
         36    2    1    2    0    0 -0.14210854715E-13  0.00000000000E+00  0.34787885783E+03  0.10581983758E+04  0.99938186033E+03 0.  0.
         25    2    3    3    0    0  0.89393458082E+02 -0.95496830179E+02  0.16312838188E+02  0.18136301487E+03  0.12456162953E+03 0.  0.
         35    2    3    3    0    0 -0.89393458082E+02  0.95496830179E+02  0.33156601964E+03  0.87683536090E+03  0.80112008452E+03 0.  0.
         22    1    5    5    0    0 -0.13288978350E+02 -0.77183835634E+02 -0.25180416493E+03  0.26370301269E+03  0.00000000000E+00 0.  1.
         22    1    5    5    0    0 -0.76104479733E+02  0.17268066581E+03  0.58337018457E+03  0.61313234821E+03  0.00000000000E+00 0.  1.
          5    1    4    4  502    0  0.83663524104E+02 -0.51284805745E+01 -0.15306577507E+02  0.85336205056E+02  0.47000000000E+01 0. -1.
         -5    1    4    4    0  502  0.57299339788E+01 -0.90368349604E+02  0.31619415695E+02  0.96026809811E+02  0.47000000000E+01 0. -1.
<mgrwt>
<rscale>  0 0.99938186E+03</rscale>
<asrwt>0</asrwt>
<pdfrwt beam="1">  1        1 0.10815979E+00 0.99938186E+03</pdfrwt>
<pdfrwt beam="2">  1       -1 0.54639963E-01 0.99938186E+03</pdfrwt>
<totfact> 0.10530985E+02</totfact>
</mgrwt>
</event>
<event>
 9    1  0.4412976E-036  0.1006823E+04  0.7818608E-02  0.8674567E-01
         -2   -1    0    0    0  501 -0.00000000000E+00  0.00000000000E+00  0.20474267476E+03  0.20474267476E+03  0.00000000000E+00 0. -1.
          2   -1    0    0  501    0  0.00000000000E+00 -0.00000000000E+00 -0.12377643823E+04  0.12377643823E+04  0.00000000000E+00 0. -1.
         36    2    1    2    0    0  0.28421709430E-13  0.00000000000E+00 -0.10330217076E+04  0.14425070571E+04  0.10068231033E+04 0.  0.
         25    2    3    3    0    0 -0.12831746254E+03  0.19852139546E+02 -0.99059743058E+02  0.20612037240E+03  0.12575093076E+03 0.  0.
         35    2    3    3    0    0  0.12831746254E+03 -0.19852139546E+02 -0.93396196451E+03  0.12363866847E+04  0.79969219346E+03 0.  0.
         22    1    5    5    0    0  0.46386882229E+03 -0.56349375440E+02 -0.61132190276E+03  0.76945695475E+03  0.00000000000E+00 0.  1.
         22    1    5    5    0    0 -0.33555135975E+03  0.36497235894E+02 -0.32264006174E+03  0.46692972994E+03  0.00000000000E+00 0.  1.
          5    1    4    4  502    0 -0.17236656109E+02  0.26754680167E+02 -0.88571668501E+02  0.94233463725E+02  0.47000000000E+01 0. -1.
         -5    1    4    4    0  502 -0.11108080643E+03 -0.69025406205E+01 -0.10488074557E+02  0.11188690868E+03  0.47000000000E+01 0. -1.
<mgrwt>
<rscale>  0 0.10068231E+04</rscale>
<asrwt>0</asrwt>
<pdfrwt beam="1">  1        2 0.19042529E+00 0.10068231E+04</pdfrwt>
<pdfrwt beam="2">  1       -2 0.31498873E-01 0.10068231E+04</pdfrwt>
<totfact> 0.20263756E+02</totfact>
</mgrwt>
</event>
<event>
 9    1  0.4412976E-036  0.1003035E+04  0.7818608E-02  0.8678153E-01
          2   -1    0    0  501    0  0.00000000000E+00  0.00000000000E+00  0.19397962101E+04  0.19397962101E+04  0.00000000000E+00 0.  1.
         -2   -1    0    0    0  501 -0.00000000000E+00 -0.00000000000E+00 -0.12966291665E+03  0.12966291665E+03  0.00000000000E+00 0.  1.
         36    2    1    2    0    0 -0.56843418861E-13 -0.71054273576E-14  0.18101332934E+04  0.20694591267E+04  0.10030346640E+04 0.  0.
         25    2    3    3    0    0  0.10566549512E+03 -0.35684113482E+02  0.14562273871E+03  0.22199034654E+03  0.12504070982E+03 0.  0.
         35    2    3    3    0    0 -0.10566549512E+03  0.35684113482E+02  0.16645105547E+04  0.18474687802E+04  0.79379276527E+03 0.  0.
         22    1    5    5    0    0  0.28839614659E+03  0.18555084260E+03  0.47806553812E+03  0.58834353171E+03  0.00000000000E+00 0.  1.
         22    1    5    5    0    0 -0.39406164171E+03 -0.14986672912E+03  0.11864450166E+04  0.12591252485E+04  0.00000000000E+00 0.  1.
          5    1    4    4  502    0  0.37238888042E+02  0.25924525416E+02 -0.44783962258E+01  0.45836250211E+02  0.47000000000E+01 0. -1.
         -5    1    4    4    0  502  0.68426607079E+02 -0.61608638897E+02  0.15010113494E+03  0.17615409633E+03  0.47000000000E+01 0. -1.
<mgrwt>
<rscale>  0 0.10030347E+04</rscale>
<asrwt>0</asrwt>
<pdfrwt beam="1">  1        2 0.29843016E+00 0.10030347E+04</pdfrwt>
<pdfrwt beam="2">  1       -2 0.19948142E-01 0.10030347E+04</pdfrwt>
<totfact> 0.18218989E+02</totfact>
</mgrwt>
</event>
<event>
 9    1  0.4412976E-036  0.1001261E+04  0.7818608E-02  0.8679838E-01
         -1   -1    0    0    0  501 -0.00000000000E+00  0.00000000000E+00  0.11169021023E+04  0.11169021023E+04  0.00000000000E+00 0. -1.
          1   -1    0    0  501    0  0.00000000000E+00 -0.00000000000E+00 -0.22439848460E+03  0.22439848460E+03  0.00000000000E+00 0. -1.
         36    2    1    2    0    0  0.00000000000E+00  0.14210854715E-13  0.89250361772E+03  0.13413005869E+04  0.10012614828E+04 0.  0.
         25    2    3    3    0    0 -0.13351696817E+03 -0.28734812908E+02  0.22097091156E+03  0.28853212109E+03  0.12557934100E+03 0.  0.
         35    2    3    3    0    0  0.13351696817E+03  0.28734812908E+02  0.67153270617E+03  0.10527684658E+04  0.79919509317E+03 0.  0.
         22    1    5    5    0    0 -0.55943620056E+02  0.22593598184E+03 -0.85415552558E+02  0.24793663129E+03  0.00000000000E+00 0.  1.
         22    1    5    5    0    0  0.18946058823E+03 -0.19720116893E+03  0.75694825872E+03  0.80483183455E+03  0.00000000000E+00 0.  1.
          5    1    4    4  502    0 -0.77026886952E+02 -0.39062000153E+02  0.21359599295E+03  0.23044374449E+03  0.47000000000E+01 0. -1.
         -5    1    4    4    0  502 -0.56490081218E+02  0.10327187245E+02  0.73749186100E+01  0.58088376608E+02  0.47000000000E+01 0. -1.
<mgrwt>
<rscale>  0 0.10012615E+04</rscale>
<asrwt>0</asrwt>
<pdfrwt beam="1">  1        1 0.34522844E-01 0.10012615E+04</pdfrwt>
<pdfrwt beam="2">  1       -1 0.17183109E+00 0.10012615E+04</pdfrwt>
<totfact> 0.34424836E+01</totfact>
</mgrwt>
</event>
<event>
 9    1  0.4412976E-036  0.9994601E+03  0.7818608E-02  0.8681552E-01
          2   -1    0    0  501    0  0.00000000000E+00  0.00000000000E+00  0.17677524869E+04  0.17677524869E+04  0.00000000000E+00 0. -1.
         -2   -1    0    0    0  501 -0.00000000000E+00 -0.00000000000E+00 -0.14126985713E+03  0.14126985713E+03  0.00000000000E+00 0. -1.
         36    2    1    2    0    0  0.14210854715E-13  0.00000000000E+00  0.16264826298E+04  0.19090223440E+04  0.99946013682E+03 0.  0.
         25    2    3    3    0    0 -0.79958998848E+02  0.21029497666E+02  0.87871498870E+02  0.17355962628E+03  0.12476322492E+03 0.  0.
         35    2    3    3    0    0  0.79958998848E+02 -0.21029497666E+02  0.15386111309E+04  0.17354627178E+04  0.79854301783E+03 0.  0.
         22    1    5    5    0    0 -0.10541417848E+03 -0.67319217835E+02 -0.50514891559E+02  0.13489173579E+03  0.00000000000E+00 0.  1.
         22    1    5    5    0    0  0.18537317733E+03  0.46289720169E+02  0.15891260225E+04  0.16005709820E+04  0.00000000000E+00 0.  1.
          5    1    4    4  502    0 -0.70100037251E+01 -0.15417926607E+02  0.90147682697E+02  0.91845235635E+02  0.47000000000E+01 0.  1.
         -5    1    4    4    0  502 -0.72948995123E+02  0.36447424273E+02 -0.22761838274E+01  0.81714390645E+02  0.47000000000E+01 0.  1.
<mgrwt>
<rscale>  0 0.99946014E+03</rscale>
<asrwt>0</asrwt>
<pdfrwt beam="1">  1        2 0.27196191E+00 0.99946014E+03</pdfrwt>
<pdfrwt beam="2">  1       -2 0.21733825E-01 0.99946014E+03</pdfrwt>
<totfact> 0.19638683E+02</totfact>
</mgrwt>
</event>
<event>
 9    1  0.4412976E-036  0.1009139E+04  0.7818608E-02  0.8672383E-01
          2   -1    0    0  501    0  0.00000000000E+00  0.00000000000E+00  0.10127934144E+04  0.10127934144E+04  0.00000000000E+00 0.  1.
         -2   -1    0    0    0  501 -0.00000000000E+00 -0.00000000000E+00 -0.25137453265E+03  0.25137453265E+03  0.00000000000E+00 0.  1.
         36    2    1    2    0    0 -0.71054273576E-14  0.00000000000E+00  0.76141888170E+03  0.12641679470E+04  0.10091391801E+04 0.  0.
         25    2    3    3    0    0 -0.60586172257E+02  0.10461412965E+03  0.36600462549E+02  0.17747252305E+03  0.12466796776E+03 0.  0.
         35    2    3    3    0    0  0.60586172257E+02 -0.10461412965E+03  0.72481841915E+03  0.10866954240E+04  0.80058129090E+03 0.  0.
         22    1    5    5    0    0  0.42051101543E+03 -0.13377173043E+03  0.32564198423E+03  0.54842236629E+03  0.00000000000E+00 0. -1.
         22    1    5    5    0    0 -0.35992484317E+03  0.29157600779E+02  0.39917643493E+03  0.53827305767E+03  0.00000000000E+00 0. -1.
          5    1    4    4  502    0 -0.59783028958E+02  0.96943796019E+02 -0.23758428151E+02  0.11644167229E+03  0.47000000000E+01 0.  1.
         -5    1    4    4    0  502 -0.80314329897E+00  0.76703336353E+01  0.60358890700E+02  0.61030850754E+02  0.47000000000E+01 0.  1.
<mgrwt>
<rscale>  0 0.10091392E+04</rscale>
<asrwt>0</asrwt>
<pdfrwt beam="1">  1        2 0.15581437E+00 0.10091392E+04</pdfrwt>
<pdfrwt beam="2">  1       -2 0.38673006E-01 0.10091392E+04</pdfrwt>
<totfact> 0.18884526E+02</totfact>
</mgrwt>
</event>
<event>
 9    1  0.4412976E-036  0.1000700E+04  0.7818608E-02  0.8680372E-01
          1   -1    0    0  501    0  0.00000000000E+00  0.00000000000E+00  0.15924584993E+04  0.15924584993E+04  0.00000000000E+00 0. -1.
         -1   -1    0    0    0  501 -0.00000000000E+00 -0.00000000000E+00 -0.15720983297E+03  0.15720983297E+03  0.00000000000E+00 0. -1.
         36    2    1    2    0    0  0.00000000000E+00  0.71054273576E-14  0.14352486663E+04  0.17496683323E+04  0.10007000244E+04 0.  0.
         25    2    3    3    0    0  0.74106437253E+02 -0.21963247007E+02  0.48425536317E+03  0.50450696554E+03  0.11853216129E+03 0.  0.
         35    2    3    3    0    0 -0.74106437253E+02  0.21963247007E+02  0.95099330318E+03  0.12451613667E+04  0.80004026042E+03 0.  0.
         22    1    5    5    0    0 -0.24433378841E+03 -0.26346886100E+03  0.80619898957E+03  0.88265035640E+03  0.00000000000E+00 0. -1.
         22    1    5    5    0    0  0.17022735116E+03  0.28543210801E+03  0.14479431361E+03  0.36251101034E+03  0.00000000000E+00 0. -1.
          5    1    4    4  502    0  0.53633863985E+02  0.37572516411E+02  0.35056308181E+03  0.35665788885E+03  0.47000000000E+01 0. -1.
         -5    1    4    4    0  502  0.20472573269E+02 -0.59535763417E+02  0.13369228136E+03  0.14784907669E+03  0.47000000000E+01 0. -1.
<mgrwt>
<rscale>  0 0.10007000E+04</rscale>
<asrwt>0</asrwt>
<pdfrwt beam="1">  1        1 0.24499360E+00 0.10007000E+04</pdfrwt>
<pdfrwt beam="2">  1       -1 0.24186129E-01 0.10007000E+04</pdfrwt>
<totfact> 0.89808970E+01</totfact>
</mgrwt>
</event>
<event>
 9    1  0.4412976E-036  0.9986357E+03  0.7818608E-02  0.8682338E-01
          1   -1    0    0  501    0  0.00000000000E+00  0.00000000000E+00  0.66167623706E+03  0.66167623706E+03  0.00000000000E+00 0. -1.
         -1   -1    0    0    0  501 -0.00000000000E+00 -0.00000000000E+00 -0.37679804177E+03  0.37679804177E+03  0.00000000000E+00 0. -1.
         36    2    1    2    0    0 -0.71054273576E-14  0.00000000000E+00  0.28487819529E+03  0.10384742788E+04  0.99863569014E+03 0.  0.
         25    2    3    3    0    0  0.43571854006E+02 -0.10580222369E+03 -0.27202752446E+02  0.17155475977E+03  0.12489367023E+03 0.  0.
         35    2    3    3    0    0 -0.43571854006E+02  0.10580222369E+03  0.31208094774E+03  0.86691951905E+03  0.80066367319E+03 0.  0.
         22    1    5    5    0    0  0.14916435778E+03 -0.98836847660E+02 -0.20882389279E+03  0.27500208415E+03  0.00000000000E+00 0.  1.
         22    1    5    5    0    0 -0.19273621178E+03  0.20463907135E+03  0.52090484053E+03  0.59191743490E+03  0.00000000000E+00 0.  1.
          5    1    4    4  502    0 -0.31144357682E+02 -0.19369886036E+02  0.26234767319E+02  0.45337804498E+02  0.47000000000E+01 0.  1.
         -5    1    4    4    0  502  0.74716211687E+02 -0.86432337650E+02 -0.53437519766E+02  0.12621695528E+03  0.47000000000E+01 0.  1.
<mgrwt>
<rscale>  0 0.99863569E+03</rscale>
<asrwt>0</asrwt>
<pdfrwt beam="1">  1        1 0.10179634E+00 0.99863569E+03</pdfrwt>
<pdfrwt beam="2">  1       -1 0.57968930E-01 0.99863569E+03</pdfrwt>
<totfact> 0.10325917E+02</totfact>
</mgrwt>
</event>
